<event>
 8    1  0.8247621E-014  0.7839128E+02  0.7818608E-02  0.1333680E+00
         -2   -1    0    0    0  501 -0.00000000000E+00  0.00000000000E+00  0.81350253850E+01  0.81350257847E+01  0.25500000000E-02 0.  1.
          1   -1    0    0  501    0  0.00000000000E+00 -0.00000000000E+00 -0.18884981382E+03  0.18884981389E+03  0.50400000000E-02 0. -1.
        -24    2    1    2    0    0  0.00000000000E+00  0.71054273576E-14 -0.18071478844E+03  0.19698483968E+03  0.78391276948E+02 0.  0.
         66    2    3    3    0    0  0.17289426656E+02  0.35123105481E+02 -0.87104878030E+02  0.95518671405E+02  0.19999994208E+01 0.  0.
         13    1    3    3    0    0 -0.17289426656E+02 -0.35123105481E+02 -0.93609910409E+02  0.10146616827E+03  0.10566000000E+00 0. -1.
         13    1    4    4    0    0  0.35682055690E+01  0.72961023571E+01 -0.18745731907E+02  0.20429851427E+02  0.10566000000E+00 0. -1.
        -13    1    4    4    0    0  0.23450851078E+01  0.53162952252E+01 -0.14276757700E+02  0.15414259423E+02  0.10566000000E+00 0.  1.
        -14    1    4    4    0    0  0.11376135979E+02  0.22510707899E+02 -0.54082388423E+02  0.59674560555E+02  0.00000000000E+00 0.  1.
<mgrwt>
<rscale>  0 0.78391277E+02</rscale>
<asrwt>0</asrwt>
<pdfrwt beam="1">  1        1 0.29053814E-01 0.78391277E+02</pdfrwt>
<pdfrwt beam="2">  1       -2 0.12515425E-02 0.78391277E+02</pdfrwt>
<totfact> 0.17403660E+05</totfact>
</mgrwt>
</event>
<event>
 8    1  0.8247621E-014  0.8041272E+02  0.7818608E-02  0.1327884E+00
         -2   -1    0    0    0  501 -0.00000000000E+00  0.00000000000E+00  0.56408799727E+03  0.56408799727E+03  0.25500000000E-02 0.  1.
          1   -1    0    0  501    0  0.00000000000E+00 -0.00000000000E+00 -0.28657762051E+01  0.28657806370E+01  0.50400000000E-02 0. -1.
        -24    2    1    2    0    0 -0.17763568394E-14  0.00000000000E+00  0.56122222106E+03  0.56695377791E+03  0.80412715863E+02 0.  0.
         66    2    3    3    0    0 -0.92401027478E+01 -0.17085912628E+02  0.52878302896E+03  0.52914345846E+03  0.19999995436E+01 0.  0.
         13    1    3    3    0    0  0.92401027478E+01  0.17085912628E+02  0.32439192096E+02  0.37810319451E+02  0.10566000000E+00 0. -1.
         13    1    4    4    0    0 -0.33653895434E+00 -0.60648809701E+00  0.15512104342E+02  0.15527962888E+02  0.10566000000E+00 0. -1.
        -13    1    4    4    0    0 -0.39176482770E+01 -0.55205164559E+01  0.18658680157E+03  0.18670958667E+03  0.10566000000E+00 0.  1.
        -14    1    4    4    0    0 -0.49859155165E+01 -0.10958908075E+02  0.32668412306E+03  0.32690590890E+03  0.00000000000E+00 0.  1.
<mgrwt>
<rscale>  0 0.80412716E+02</rscale>
<asrwt>0</asrwt>
<pdfrwt beam="1">  1        1 0.44088891E-03 0.80412716E+02</pdfrwt>
<pdfrwt beam="2">  1       -2 0.86782785E-01 0.80412716E+02</pdfrwt>
<totfact> 0.45174169E+04</totfact>
</mgrwt>
</event>
<event>
 8    1  0.8247621E-014  0.8272143E+02  0.7818608E-02  0.1321501E+00
         -2   -1    0    0    0  501 -0.00000000000E+00  0.00000000000E+00  0.10093082238E+02  0.10093082561E+02  0.25500000000E-02 0.  1.
          1   -1    0    0  501    0  0.00000000000E+00 -0.00000000000E+00 -0.16949317786E+03  0.16949317793E+03  0.50400000000E-02 0. -1.
        -24    2    1    2    0    0  0.00000000000E+00  0.00000000000E+00 -0.15940009562E+03  0.17958626049E+03  0.82721426938E+02 0.  0.
         66    2    3    3    0    0 -0.23830484088E+02 -0.26381863801E+02 -0.33959544793E+02  0.49205135843E+02  0.20000003186E+01 0.  0.
         13    1    3    3    0    0  0.23830484088E+02  0.26381863801E+02 -0.12544055083E+03  0.13038112465E+03  0.10566000000E+00 0. -1.
         13    1    4    4    0    0 -0.15081028974E+02 -0.15655193316E+02 -0.20608304333E+02  0.29953895977E+02  0.10566000000E+00 0. -1.
        -13    1    4    4    0    0 -0.19796275348E+01 -0.25567794233E+01 -0.36075273950E+01  0.48457676520E+01  0.10566000000E+00 0.  1.
        -14    1    4    4    0    0 -0.67698275787E+01 -0.81698910618E+01 -0.97437130657E+01  0.14405472214E+02  0.00000000000E+00 0.  1.
<mgrwt>
<rscale>  0 0.82721427E+02</rscale>
<asrwt>0</asrwt>
<pdfrwt beam="1">  1        1 0.26075871E-01 0.82721427E+02</pdfrwt>
<pdfrwt beam="2">  1       -2 0.15527820E-02 0.82721427E+02</pdfrwt>
<totfact> 0.14772727E+05</totfact>
</mgrwt>
</event>
<event>
 8    1  0.8247621E-014  0.7968918E+02  0.7818608E-02  0.1329936E+00
         -2   -1    0    0    0  501 -0.00000000000E+00  0.00000000000E+00  0.30503135969E+01  0.30503146628E+01  0.25500000000E-02 0.  1.
          1   -1    0    0  501    0  0.00000000000E+00 -0.00000000000E+00 -0.52046814879E+03  0.52046814882E+03  0.50400000000E-02 0. -1.
        -24    2    1    2    0    0  0.71054273576E-14 -0.17763568394E-14 -0.51741783520E+03  0.52351846348E+03  0.79689180104E+02 0.  0.
         66    2    3    3    0    0  0.36270491714E+02 -0.15853506461E+02 -0.28728342935E+03  0.29000457062E+03  0.19999925894E+01 0.  0.
         13    1    3    3    0    0 -0.36270491714E+02  0.15853506461E+02 -0.23013440585E+03  0.23351389286E+03  0.10566000000E+00 0. -1.
         13    1    4    4    0    0  0.24403004116E+02 -0.10357042453E+02 -0.19824326775E+03  0.20000794811E+03  0.10566000000E+00 0. -1.
        -13    1    4    4    0    0  0.38179850411E+01 -0.16621695958E+01 -0.29452185491E+02  0.29745288901E+02  0.10566000000E+00 0.  1.
         14    1    4    4    0    0  0.80495025570E+01 -0.38342944123E+01 -0.59587976108E+02  0.60251333610E+02  0.00000000000E+00 0. -1.
<mgrwt>
<rscale>  0 0.79689180E+02</rscale>
<asrwt>0</asrwt>
<pdfrwt beam="1">  1        1 0.80071953E-01 0.79689180E+02</pdfrwt>
<pdfrwt beam="2">  1       -2 0.46927951E-03 0.79689180E+02</pdfrwt>
<totfact> 0.19899092E+05</totfact>
</mgrwt>
</event>
<event>
 8    1  0.8247621E-014  0.7916810E+02  0.7818608E-02  0.1331429E+00
          1   -1    0    0  501    0  0.00000000000E+00  0.00000000000E+00  0.14588059631E+03  0.14588059640E+03  0.50400000000E-02 0. -1.
         -2   -1    0    0    0  501 -0.00000000000E+00 -0.00000000000E+00 -0.10740955322E+02  0.10740955625E+02  0.25500000000E-02 0.  1.
        -24    2    1    2    0    0  0.00000000000E+00 -0.71054273576E-14  0.13513964099E+03  0.15662155202E+03  0.79168099584E+02 0.  0.
         66    2    3    3    0    0 -0.86032988825E+01  0.33744419866E+02  0.30485857449E+02  0.46325912050E+02  0.19999997833E+01 0.  0.
         13    1    3    3    0    0  0.86032988825E+01 -0.33744419866E+02  0.10465378354E+03  0.11029563997E+03  0.10566000000E+00 0. -1.
         13    1    4    4    0    0 -0.32231248158E+01  0.15088617666E+02  0.12717676573E+02  0.19995133860E+02  0.10566000000E+00 0. -1.
        -13    1    4    4    0    0 -0.15307152311E+01  0.55697234033E+01  0.48306953860E+01  0.75307164238E+01  0.10566000000E+00 0.  1.
         14    1    4    4    0    0 -0.38494588356E+01  0.13086078797E+02  0.12937485489E+02  0.18800061766E+02  0.00000000000E+00 0. -1.
<mgrwt>
<rscale>  0 0.79168100E+02</rscale>
<asrwt>0</asrwt>
<pdfrwt beam="1">  1        1 0.22443169E-01 0.79168100E+02</pdfrwt>
<pdfrwt beam="2">  1       -2 0.16524546E-02 0.79168100E+02</pdfrwt>
<totfact> 0.16152710E+05</totfact>
</mgrwt>
</event>
<event>
 8    1  0.8247621E-014  0.7324951E+02  0.7818608E-02  0.1349379E+00
         -2   -1    0    0    0  501 -0.00000000000E+00  0.00000000000E+00  0.30678311857E+02  0.30678311963E+02  0.25500000000E-02 0.  1.
          1   -1    0    0  501    0  0.00000000000E+00 -0.00000000000E+00 -0.43723809500E+02  0.43723809791E+02  0.50400000000E-02 0. -1.
        -24    2    1    2    0    0  0.00000000000E+00  0.00000000000E+00 -0.13045497643E+02  0.74402121754E+02  0.73249509983E+02 0.  0.
         66    2    3    3    0    0  0.36536041494E+02  0.21079344207E+01 -0.67360544283E+01  0.37265267373E+02  0.20000018869E+01 0.  0.
         13    1    3    3    0    0 -0.36536041494E+02 -0.21079344207E+01 -0.63094432145E+01  0.37136854381E+02  0.10566000000E+00 0. -1.
         13    1    4    4    0    0  0.10772140597E+02  0.13532657237E+00 -0.20558599577E+01  0.10967910035E+02  0.10566000000E+00 0. -1.
        -13    1    4    4    0    0  0.17267191179E+02  0.69644417218E+00 -0.29088614938E+01  0.17524655914E+02  0.10566000000E+00 0.  1.
         14    1    4    4    0    0  0.84967097182E+01  0.12761636761E+01 -0.17713329769E+01  0.87727014243E+01  0.00000000000E+00 0. -1.
<mgrwt>
<rscale>  0 0.73249510E+02</rscale>
<asrwt>0</asrwt>
<pdfrwt beam="1">  1        1 0.67267400E-02 0.73249510E+02</pdfrwt>
<pdfrwt beam="2">  1       -2 0.47197403E-02 0.73249510E+02</pdfrwt>
<totfact> 0.16455243E+05</totfact>
</mgrwt>
</event>
<event>
 8    1  0.8247621E-014  0.8234029E+02  0.7818608E-02  0.1322538E+00
          1   -1    0    0  501    0  0.00000000000E+00  0.00000000000E+00  0.37924159829E+02  0.37924160164E+02  0.50400000000E-02 0. -1.
         -2   -1    0    0    0  501 -0.00000000000E+00 -0.00000000000E+00 -0.44693960145E+02  0.44693960218E+02  0.25500000000E-02 0.  1.
        -24    2    1    2    0    0  0.00000000000E+00  0.00000000000E+00 -0.67698003157E+01  0.82618120382E+02  0.82340291590E+02 0.  0.
         66    2    3    3    0    0 -0.91007050525E+01 -0.28999267915E+02 -0.31214846300E+02  0.43613610267E+02  0.19999997443E+01 0.  0.
         13    1    3    3    0    0  0.91007050525E+01  0.28999267915E+02  0.24445045984E+02  0.39004510114E+02  0.10566000000E+00 0. -1.
         13    1    4    4    0    0 -0.12074812554E+01 -0.22799375105E+01 -0.27018847124E+01  0.37373079975E+01  0.10566000000E+00 0. -1.
        -13    1    4    4    0    0 -0.67931235433E+01 -0.23924925991E+02 -0.25255683805E+02  0.35445864916E+02  0.10566000000E+00 0.  1.
        -14    1    4    4    0    0 -0.11001002538E+01 -0.27944044138E+01 -0.32572777828E+01  0.44304373543E+01  0.00000000000E+00 0.  1.
<mgrwt>
<rscale>  0 0.82340292E+02</rscale>
<asrwt>0</asrwt>
<pdfrwt beam="1">  1        1 0.58344862E-02 0.82340292E+02</pdfrwt>
<pdfrwt beam="2">  1       -2 0.68759939E-02 0.82340292E+02</pdfrwt>
<totfact> 0.11599260E+05</totfact>
</mgrwt>
</event>
<event>
 8    1  0.8247621E-014  0.8000395E+02  0.7818608E-02  0.1329040E+00
         -2   -1    0    0    0  501 -0.00000000000E+00  0.00000000000E+00  0.18636556538E+03  0.18636556540E+03  0.25500000000E-02 0.  1.
          1   -1    0    0  501    0  0.00000000000E+00 -0.00000000000E+00 -0.85861244881E+01  0.85861259674E+01  0.50400000000E-02 0. -1.
        -24    2    1    2    0    0  0.00000000000E+00  0.00000000000E+00  0.17777944089E+03  0.19495169136E+03  0.80003952166E+02 0.  0.
         66    2    3    3    0    0  0.24476550134E+02  0.16407831392E+02  0.15477571660E+03  0.15756852760E+03  0.20000012324E+01 0.  0.
         13    1    3    3    0    0 -0.24476550134E+02 -0.16407831392E+02  0.23003724294E+02  0.37383163762E+02  0.10566000000E+00 0. -1.
         13    1    4    4    0    0  0.87259800473E+01  0.66784695897E+01  0.55207634310E+02  0.56290662938E+02  0.10566000000E+00 0. -1.
        -13    1    4    4    0    0  0.49791503647E+01  0.31196507561E+01  0.33640708785E+02  0.34150148035E+02  0.10566000000E+00 0.  1.
         14    1    4    4    0    0  0.10771419722E+02  0.66097110458E+01  0.65927373502E+02  0.67127716629E+02  0.00000000000E+00 0. -1.
<mgrwt>
<rscale>  0 0.80003952E+02</rscale>
<asrwt>0</asrwt>
<pdfrwt beam="1">  1        1 0.13209423E-02 0.80003952E+02</pdfrwt>
<pdfrwt beam="2">  1       -2 0.28671627E-01 0.80003952E+02</pdfrwt>
<totfact> 0.87473751E+04</totfact>
</mgrwt>
</event>
<event>
 8    1  0.8247621E-014  0.7919365E+02  0.7818608E-02  0.1331355E+00
          1   -1    0    0  501    0  0.00000000000E+00  0.00000000000E+00  0.12005063844E+03  0.12005063854E+03  0.50400000000E-02 0. -1.
         -2   -1    0    0    0  501 -0.00000000000E+00 -0.00000000000E+00 -0.13060393418E+02  0.13060393667E+02  0.25500000000E-02 0.  1.
        -24    2    1    2    0    0 -0.35527136788E-14  0.00000000000E+00  0.10699024502E+03  0.13311103221E+03  0.79193651051E+02 0.  0.
         66    2    3    3    0    0 -0.28637017405E+02 -0.29036531157E+01  0.78862293535E+01  0.29911579438E+02  0.20000009453E+01 0.  0.
         13    1    3    3    0    0  0.28637017405E+02  0.29036531157E+01  0.99104015666E+02  0.10319945277E+03  0.10566000000E+00 0. -1.
         13    1    4    4    0    0 -0.12629056965E+02 -0.99334768459E+00  0.28044105528E+01  0.12975195645E+02  0.10566000000E+00 0. -1.
        -13    1    4    4    0    0 -0.13363468616E+02 -0.18271375169E+01  0.39164172318E+01  0.14045291486E+02  0.10566000000E+00 0.  1.
        -14    1    4    4    0    0 -0.26444918246E+01 -0.83167914194E-01  0.11654015688E+01  0.28910923073E+01  0.00000000000E+00 0.  1.
<mgrwt>
<rscale>  0 0.79193651E+02</rscale>
<asrwt>0</asrwt>
<pdfrwt beam="1">  1        1 0.18469330E-01 0.79193651E+02</pdfrwt>
<pdfrwt beam="2">  1       -2 0.20092913E-02 0.79193651E+02</pdfrwt>
<totfact> 0.15585938E+05</totfact>
</mgrwt>
</event>
<event>
 8    1  0.8247621E-014  0.7939035E+02  0.7818608E-02  0.1330790E+00
          1   -1    0    0  501    0  0.00000000000E+00  0.00000000000E+00  0.28438926147E+02  0.28438926594E+02  0.50400000000E-02 0. -1.
         -2   -1    0    0    0  501 -0.00000000000E+00 -0.00000000000E+00 -0.55406691244E+02  0.55406691303E+02  0.25500000000E-02 0.  1.
        -24    2    1    2    0    0  0.00000000000E+00  0.35527136788E-14 -0.26967765097E+02  0.83845617896E+02  0.79390347563E+02 0.  0.
         66    2    3    3    0    0 -0.29987255748E+02  0.17219942605E+02 -0.34024075893E+02  0.48553060370E+02  0.20000000804E+01 0.  0.
         13    1    3    3    0    0  0.29987255748E+02 -0.17219942605E+02  0.70563107958E+01  0.35292557526E+02  0.10566000000E+00 0. -1.
         13    1    4    4    0    0 -0.13485097443E+02  0.79853122831E+01 -0.16553625632E+02  0.22795761687E+02  0.10566000000E+00 0. -1.
        -13    1    4    4    0    0 -0.11438551169E+02  0.60805840682E+01 -0.12271924958E+02  0.17844474261E+02  0.10566000000E+00 0.  1.
         14    1    4    4    0    0 -0.50636071367E+01  0.31540462540E+01 -0.51985253035E+01  0.79128244224E+01  0.00000000000E+00 0. -1.
<mgrwt>
<rscale>  0 0.79390348E+02</rscale>
<asrwt>0</asrwt>
<pdfrwt beam="1">  1        1 0.43752195E-02 0.79390348E+02</pdfrwt>
<pdfrwt beam="2">  1       -2 0.85241063E-02 0.79390348E+02</pdfrwt>
<totfact> 0.12246899E+05</totfact>
</mgrwt>
</event>
<event>
 8    1  0.8247621E-014  0.7886021E+02  0.7818608E-02  0.1332317E+00
          1   -1    0    0  501    0  0.00000000000E+00  0.00000000000E+00  0.12089501803E+02  0.12089502853E+02  0.50400000000E-02 0. -1.
         -2   -1    0    0    0  501 -0.00000000000E+00 -0.00000000000E+00 -0.12860193113E+03  0.12860193115E+03  0.25500000000E-02 0.  1.
        -24    2    1    2    0    0  0.00000000000E+00  0.00000000000E+00 -0.11651242933E+03  0.14069143401E+03  0.78860214402E+02 0.  0.
         66    2    3    3    0    0 -0.27096990438E+02 -0.24167595024E+02 -0.85608298402E+02  0.93011291261E+02  0.20000016705E+01 0.  0.
         13    1    3    3    0    0  0.27096990438E+02  0.24167595024E+02 -0.30904130923E+02  0.47680142745E+02  0.10566000000E+00 0. -1.
         13    1    4    4    0    0 -0.12803778121E+02 -0.12044046457E+02 -0.40471063541E+02  0.44123847718E+02  0.10566000000E+00 0. -1.
        -13    1    4    4    0    0 -0.11353553985E+02 -0.10215603424E+02 -0.36788964769E+02  0.39833413540E+02  0.10566000000E+00 0.  1.
         14    1    4    4    0    0 -0.29396583326E+01 -0.19079451430E+01 -0.83482700919E+01  0.90540300037E+01  0.00000000000E+00 0. -1.
<mgrwt>
<rscale>  0 0.78860214E+02</rscale>
<asrwt>0</asrwt>
<pdfrwt beam="1">  1        1 0.18599235E-02 0.78860214E+02</pdfrwt>
<pdfrwt beam="2">  1       -2 0.19784912E-01 0.78860214E+02</pdfrwt>
<totfact> 0.10287236E+05</totfact>
</mgrwt>
</event>
<event>
 8    1  0.8247621E-014  0.7877024E+02  0.7818608E-02  0.1332578E+00
         -2   -1    0    0    0  501 -0.00000000000E+00  0.00000000000E+00  0.21750251550E+03  0.21750251551E+03  0.25500000000E-02 0.  1.
          1   -1    0    0  501    0  0.00000000000E+00 -0.00000000000E+00 -0.71318136645E+01  0.71318154454E+01  0.50400000000E-02 0. -1.
        -24    2    1    2    0    0  0.55511151231E-16  0.00000000000E+00  0.21037070183E+03  0.22463433096E+03  0.78770238384E+02 0.  0.
         66    2    3    3    0    0 -0.30679252359E+00  0.37591092950E+02  0.71996153921E+02  0.81244264828E+02  0.19999993087E+01 0.  0.
         13    1    3    3    0    0  0.30679252359E+00 -0.37591092950E+02  0.13837454791E+03  0.14339006613E+03  0.10566000000E+00 0. -1.
         13    1    4    4    0    0  0.34364776364E+00  0.15901945513E+02  0.31459938717E+02  0.35252359822E+02  0.10566000000E+00 0. -1.
        -13    1    4    4    0    0 -0.23779699234E+00  0.18125798663E+02  0.34400653220E+02  0.38884665752E+02  0.10566000000E+00 0.  1.
         14    1    4    4    0    0 -0.41264329489E+00  0.35633487734E+01  0.61355619835E+01  0.71072392547E+01  0.00000000000E+00 0. -1.
<mgrwt>
<rscale>  0 0.78770238E+02</rscale>
<asrwt>0</asrwt>
<pdfrwt beam="1">  1        1 0.10972021E-02 0.78770238E+02</pdfrwt>
<pdfrwt beam="2">  1       -2 0.33461930E-01 0.78770238E+02</pdfrwt>
<totfact> 0.85491653E+04</totfact>
</mgrwt>
</event>
<event>
 8    1  0.8247621E-014  0.7685418E+02  0.7818608E-02  0.1338224E+00
         -2   -1    0    0    0  501 -0.00000000000E+00  0.00000000000E+00  0.47548016031E+02  0.47548016100E+02  0.25500000000E-02 0.  1.
          1   -1    0    0  501    0  0.00000000000E+00 -0.00000000000E+00 -0.31055790581E+02  0.31055790990E+02  0.50400000000E-02 0. -1.
        -24    2    1    2    0    0  0.00000000000E+00  0.00000000000E+00  0.16492225450E+02  0.78603807090E+02  0.76854180034E+02 0.  0.
         66    2    3    3    0    0 -0.37585339575E+02  0.32741632555E+01  0.92919153447E+00  0.37792079796E+02  0.20000006037E+01 0.  0.
         13    1    3    3    0    0  0.37585339575E+02 -0.32741632555E+01  0.15563033916E+02  0.40811727294E+02  0.10566000000E+00 0. -1.
         13    1    4    4    0    0 -0.13295666386E+01  0.12561350488E+00  0.24295732746E+00  0.13615133116E+01  0.10566000000E+00 0. -1.
        -13    1    4    4    0    0 -0.16807246623E+02  0.21939080899E+01  0.12891165632E+00  0.16950650548E+02  0.10566000000E+00 0.  1.
         14    1    4    4    0    0 -0.19448526314E+02  0.95464166076E+00  0.55732255069E+00  0.19479915937E+02  0.00000000000E+00 0. -1.
<mgrwt>
<rscale>  0 0.76854180E+02</rscale>
<asrwt>0</asrwt>
<pdfrwt beam="1">  1        1 0.47778140E-02 0.76854180E+02</pdfrwt>
<pdfrwt beam="2">  1       -2 0.73150794E-02 0.76854180E+02</pdfrwt>
<totfact> 0.13645036E+05</totfact>
</mgrwt>
</event>
<event>
 8    1  0.8247621E-014  0.8208247E+02  0.7818608E-02  0.1323243E+00
         -2   -1    0    0    0  501 -0.00000000000E+00  0.00000000000E+00  0.58603823953E+02  0.58603824009E+02  0.25500000000E-02 0.  1.
          1   -1    0    0  501    0  0.00000000000E+00 -0.00000000000E+00 -0.28741863205E+02  0.28741863647E+02  0.50400000000E-02 0. -1.
        -24    2    1    2    0    0  0.35527136788E-14  0.35527136788E-14  0.29861960748E+02  0.87345687656E+02  0.82082473478E+02 0.  0.
         66    2    3    3    0    0 -0.18929309153E+02 -0.25964198782E+02  0.42068015304E+02  0.52973354374E+02  0.19999996646E+01 0.  0.
         13    1    3    3    0    0  0.18929309153E+02  0.25964198782E+02 -0.12206054556E+02  0.34372333282E+02  0.10566000000E+00 0. -1.
         13    1    4    4    0    0 -0.51325076447E+00 -0.91529268004E+00  0.17615968587E+01  0.20531864420E+01  0.10566000000E+00 0. -1.
        -13    1    4    4    0    0 -0.12040227851E+02 -0.17060874330E+02  0.27782606407E+02  0.34755214032E+02  0.10566000000E+00 0.  1.
         14    1    4    4    0    0 -0.63758305370E+01 -0.79880317724E+01  0.12523812038E+02  0.16164953900E+02  0.00000000000E+00 0. -1.
<mgrwt>
<rscale>  0 0.82082473E+02</rscale>
<asrwt>0</asrwt>
<pdfrwt beam="1">  1        1 0.44218252E-02 0.82082473E+02</pdfrwt>
<pdfrwt beam="2">  1       -2 0.90159729E-02 0.82082473E+02</pdfrwt>
<totfact> 0.11142878E+05</totfact>
</mgrwt>
</event>
<event>
 8    1  0.8247621E-014  0.8104705E+02  0.7818608E-02  0.1326106E+00
          1   -1    0    0  501    0  0.00000000000E+00  0.00000000000E+00  0.13223058843E+02  0.13223059804E+02  0.50400000000E-02 0. -1.
         -2   -1    0    0    0  501 -0.00000000000E+00 -0.00000000000E+00 -0.12418880443E+03  0.12418880446E+03  0.25500000000E-02 0.  1.
        -24    2    1    2    0    0 -0.35527136788E-14  0.35527136788E-14 -0.11096574559E+03  0.13741186426E+03  0.81047046498E+02 0.  0.
         66    2    3    3    0    0  0.24803737538E+02 -0.27211640069E+02 -0.84111669694E+02  0.91839380160E+02  0.20000045999E+01 0.  0.
         13    1    3    3    0    0 -0.24803737538E+02  0.27211640069E+02 -0.26854075897E+02  0.45572484104E+02  0.10566000000E+00 0. -1.
         13    1    4    4    0    0  0.91447914156E+01 -0.89586927931E+01 -0.29396425685E+02  0.32063162566E+02  0.10566000000E+00 0. -1.
        -13    1    4    4    0    0  0.83917597613E+01 -0.93816157036E+01 -0.29719051918E+02  0.32274905981E+02  0.10566000000E+00 0.  1.
        -14    1    4    4    0    0  0.72671863614E+01 -0.88713315720E+01 -0.24996192090E+02  0.27501311614E+02  0.00000000000E+00 0.  1.
<mgrwt>
<rscale>  0 0.81047046E+02</rscale>
<asrwt>0</asrwt>
<pdfrwt beam="1">  1        1 0.20343169E-02 0.81047046E+02</pdfrwt>
<pdfrwt beam="2">  1       -2 0.19105969E-01 0.81047046E+02</pdfrwt>
<totfact> 0.96874001E+04</totfact>
</mgrwt>
</event>
<event>
 8    1  0.8247621E-014  0.7940219E+02  0.7818608E-02  0.1330757E+00
          1   -1    0    0  501    0  0.00000000000E+00  0.00000000000E+00  0.18897430762E+02  0.18897431434E+02  0.50400000000E-02 0. -1.
         -2   -1    0    0    0  501 -0.00000000000E+00 -0.00000000000E+00 -0.83406931944E+02  0.83406931983E+02  0.25500000000E-02 0.  1.
        -24    2    1    2    0    0 -0.35527136788E-14  0.00000000000E+00 -0.64509501182E+02  0.10230436342E+03  0.79402185307E+02 0.  0.
         66    2    3    3    0    0 -0.16545823793E+02  0.35866665348E+02 -0.37094281402E+02  0.54223313015E+02  0.19999983554E+01 0.  0.
         13    1    3    3    0    0  0.16545823793E+02 -0.35866665348E+02 -0.27415219780E+02  0.48081050403E+02  0.10566000000E+00 0. -1.
         13    1    4    4    0    0 -0.28473101283E+01  0.51237944028E+01 -0.56588900960E+01  0.81482909376E+01  0.10566000000E+00 0. -1.
        -13    1    4    4    0    0 -0.51909739376E+01  0.13296537690E+02 -0.13124956088E+02  0.19391228979E+02  0.10566000000E+00 0.  1.
        -14    1    4    4    0    0 -0.85075397268E+01  0.17446333256E+02 -0.18310435218E+02  0.26683793099E+02  0.00000000000E+00 0.  1.
<mgrwt>
<rscale>  0 0.79402185E+02</rscale>
<asrwt>0</asrwt>
<pdfrwt beam="1">  1        1 0.29072971E-02 0.79402185E+02</pdfrwt>
<pdfrwt beam="2">  1       -2 0.12831836E-01 0.79402185E+02</pdfrwt>
<totfact> 0.11288456E+05</totfact>
</mgrwt>
</event>
<event>
 8    1  0.8247621E-014  0.8181296E+02  0.7818608E-02  0.1323984E+00
         -2   -1    0    0    0  501 -0.00000000000E+00  0.00000000000E+00  0.22700690285E+01  0.22700704607E+01  0.25500000000E-02 0.  1.
          1   -1    0    0  501    0  0.00000000000E+00 -0.00000000000E+00 -0.73713149234E+03  0.73713149235E+03  0.50400000000E-02 0. -1.
        -24    2    1    2    0    0  0.00000000000E+00  0.00000000000E+00 -0.73486142331E+03  0.73940156281E+03  0.81812955124E+02 0.  0.
         66    2    3    3    0    0 -0.33709920117E+02  0.69612597665E+01 -0.56699558566E+03  0.56804296669E+03  0.19999995281E+01 0.  0.
         13    1    3    3    0    0  0.33709920117E+02 -0.69612597665E+01 -0.16786583765E+03  0.17135859612E+03  0.10566000000E+00 0. -1.
         13    1    4    4    0    0 -0.80020524832E+01  0.15614485577E+01 -0.12975671675E+03  0.13001264428E+03  0.10566000000E+00 0. -1.
        -13    1    4    4    0    0 -0.18091478441E+02  0.36580650017E+01 -0.31908447336E+03  0.31961788957E+03  0.10566000000E+00 0.  1.
        -14    1    4    4    0    0 -0.76163891932E+01  0.17417462071E+01 -0.11815439555E+03  0.11841243284E+03  0.00000000000E+00 0.  1.
<mgrwt>
<rscale>  0 0.81812955E+02</rscale>
<asrwt>0</asrwt>
<pdfrwt beam="1">  1        1 0.11340465E+00 0.81812955E+02</pdfrwt>
<pdfrwt beam="2">  1       -2 0.34924209E-03 0.81812955E+02</pdfrwt>
<totfact> 0.18858024E+05</totfact>
</mgrwt>
</event>
<event>
 8    1  0.8247621E-014  0.7976380E+02  0.7818608E-02  0.1329723E+00
          1   -1    0    0  501    0  0.00000000000E+00  0.00000000000E+00  0.12943373747E+04  0.12943373747E+04  0.50400000000E-02 0. -1.
         -2   -1    0    0    0  501 -0.00000000000E+00 -0.00000000000E+00 -0.12288635797E+01  0.12288662255E+01  0.25500000000E-02 0.  1.
        -24    2    1    2    0    0  0.00000000000E+00  0.00000000000E+00  0.12931085111E+04  0.12955662409E+04  0.79763795794E+02 0.  0.
         66    2    3    3    0    0 -0.47688747366E+01 -0.24891560934E+02  0.11465935207E+04  0.11468753348E+04  0.19999985761E+01 0.  0.
         13    1    3    3    0    0  0.47688747366E+01  0.24891560934E+02  0.14651499045E+03  0.14869090612E+03  0.10566000000E+00 0. -1.
         13    1    4    4    0    0 -0.13546104264E+00 -0.10845694431E+00  0.10113069543E+02  0.10115110094E+02  0.10566000000E+00 0.  1.
        -13    1    4    4    0    0 -0.41591460314E+01 -0.22231067972E+02  0.10268797414E+04  0.10271287813E+04  0.10566000000E+00 0.  1.
         14    1    4    4    0    0 -0.47426766261E+00 -0.25520360174E+01  0.10960070971E+03  0.10963144342E+03  0.00000000000E+00 0. -1.
<mgrwt>
<rscale>  0 0.79763796E+02</rscale>
<asrwt>0</asrwt>
<pdfrwt beam="1">  1        1 0.19912925E+00 0.79763796E+02</pdfrwt>
<pdfrwt beam="2">  1       -2 0.18905573E-03 0.79763796E+02</pdfrwt>
<totfact> 0.17381209E+05</totfact>
</mgrwt>
</event>
<event>
 8    1  0.8247621E-014  0.7737662E+02  0.7818608E-02  0.1336665E+00
         -2   -1    0    0    0  501 -0.00000000000E+00  0.00000000000E+00  0.41717872266E+02  0.41717872344E+02  0.25500000000E-02 0.  1.
          1   -1    0    0  501    0  0.00000000000E+00 -0.00000000000E+00 -0.35878756187E+02  0.35878756541E+02  0.50400000000E-02 0. -1.
        -24    2    1    2    0    0  0.17763568394E-14 -0.35527136788E-14  0.58391160792E+01  0.77596628886E+02  0.77376621391E+02 0.  0.
         66    2    3    3    0    0 -0.14272737557E+02  0.21898551735E+02  0.31489742222E+02  0.40973912015E+02  0.19999987854E+01 0.  0.
         13    1    3    3    0    0  0.14272737557E+02 -0.21898551735E+02 -0.25650626143E+02  0.36622716871E+02  0.10566000000E+00 0. -1.
         13    1    4    4    0    0 -0.21632734444E+00  0.89055617622E+00  0.10589821531E+01  0.14044554316E+01  0.10566000000E+00 0. -1.
        -13    1    4    4    0    0 -0.95740125371E+01  0.14148901071E+02  0.21190202890E+02  0.27219275893E+02  0.10566000000E+00 0.  1.
         14    1    4    4    0    0 -0.44823976755E+01  0.68590944875E+01  0.92405571785E+01  0.12350180690E+02  0.00000000000E+00 0. -1.
<mgrwt>
<rscale>  0 0.77376621E+02</rscale>
<asrwt>0</asrwt>
<pdfrwt beam="1">  1        1 0.55198087E-02 0.77376621E+02</pdfrwt>
<pdfrwt beam="2">  1       -2 0.64181342E-02 0.77376621E+02</pdfrwt>
<totfact> 0.13705584E+05</totfact>
</mgrwt>
</event>
<event>
 8    1  0.8247621E-014  0.7976087E+02  0.7818608E-02  0.1329731E+00
         -2   -1    0    0    0  501 -0.00000000000E+00  0.00000000000E+00  0.10836427857E+02  0.10836428157E+02  0.25500000000E-02 0.  1.
          1   -1    0    0  501    0  0.00000000000E+00 -0.00000000000E+00 -0.14676877280E+03  0.14676877289E+03  0.50400000000E-02 0. -1.
        -24    2    1    2    0    0  0.17763568394E-14  0.00000000000E+00 -0.13593234495E+03  0.15760520105E+03  0.79760873832E+02 0.  0.
         66    2    3    3    0    0 -0.15390497159E+02 -0.33460789557E+02 -0.37914772991E+02  0.52896331238E+02  0.20000017430E+01 0.  0.
         13    1    3    3    0    0  0.15390497159E+02  0.33460789557E+02 -0.98017571954E+02  0.10470886981E+03  0.10566000000E+00 0. -1.
         13    1    4    4    0    0 -0.48714779218E+01 -0.12026490075E+02 -0.13467994549E+02  0.18702026678E+02  0.10566000000E+00 0.  1.
        -13    1    4    4    0    0 -0.32803744102E+01 -0.73652250791E+01 -0.75539659879E+01  0.11049025428E+02  0.10566000000E+00 0.  1.
        -14    1    4    4    0    0 -0.72386448266E+01 -0.14069074402E+02 -0.16892812454E+02  0.23145279132E+02  0.00000000000E+00 0.  1.
<mgrwt>
<rscale>  0 0.79760874E+02</rscale>
<asrwt>0</asrwt>
<pdfrwt beam="1">  1        1 0.22579810E-01 0.79760874E+02</pdfrwt>
<pdfrwt beam="2">  1       -2 0.16671429E-02 0.79760874E+02</pdfrwt>
<totfact> 0.15851605E+05</totfact>
</mgrwt>
</event>
<event>
 8    1  0.8247621E-014  0.8028744E+02  0.7818608E-02  0.1328238E+00
          1   -1    0    0  501    0  0.00000000000E+00  0.00000000000E+00  0.15138377009E+03  0.15138377017E+03  0.50400000000E-02 0. -1.
         -2   -1    0    0    0  501 -0.00000000000E+00 -0.00000000000E+00 -0.10645250377E+02  0.10645250683E+02  0.25500000000E-02 0.  1.
        -24    2    1    2    0    0  0.00000000000E+00 -0.17763568394E-14  0.14073851971E+03  0.16202902085E+03  0.80287437802E+02 0.  0.
         66    2    3    3    0    0 -0.28777277136E+02  0.89512592446E+01  0.16970687787E+02  0.34644782801E+02  0.20000024855E+01 0.  0.
         13    1    3    3    0    0  0.28777277136E+02 -0.89512592446E+01  0.12376783192E+03  0.12738423805E+03  0.10566000000E+00 0. -1.
         13    1    4    4    0    0 -0.15983158940E+01  0.19264868902E+00  0.66878674187E+00  0.17464727184E+01  0.10566000000E+00 0. -1.
        -13    1    4    4    0    0 -0.16025469231E+02  0.55774821869E+01  0.92916495755E+01  0.19346056122E+02  0.10566000000E+00 0.  1.
         14    1    4    4    0    0 -0.11153492011E+02  0.31811283686E+01  0.70102514696E+01  0.13552253960E+02  0.00000000000E+00 0. -1.
<mgrwt>
<rscale>  0 0.80287438E+02</rscale>
<asrwt>0</asrwt>
<pdfrwt beam="1">  1        1 0.23289811E-01 0.80287438E+02</pdfrwt>
<pdfrwt beam="2">  1       -2 0.16377308E-02 0.80287438E+02</pdfrwt>
<totfact> 0.15664405E+05</totfact>
</mgrwt>
</event>
<event>
 8    1  0.8247621E-014  0.8000675E+02  0.7818608E-02  0.1329032E+00
          1   -1    0    0  501    0  0.00000000000E+00  0.00000000000E+00  0.20758529606E+02  0.20758530217E+02  0.50400000000E-02 0. -1.
         -2   -1    0    0    0  501 -0.00000000000E+00 -0.00000000000E+00 -0.77089748247E+02  0.77089748289E+02  0.25500000000E-02 0.  1.
        -24    2    1    2    0    0 -0.17763568394E-14 -0.35527136788E-14 -0.56331218641E+02  0.97848278507E+02  0.80006746047E+02 0.  0.
         66    2    3    3    0    0 -0.11411644765E+02 -0.24118077066E+02 -0.64594031972E+02  0.69916351867E+02  0.20000035955E+01 0.  0.
         13    1    3    3    0    0  0.11411644765E+02  0.24118077066E+02  0.82628133309E+01  0.27931926639E+02  0.10566000000E+00 0. -1.
         13    1    4    4    0    0 -0.22402072214E+01 -0.62552589146E+01 -0.15855939064E+02  0.17192113312E+02  0.10566000000E+00 0. -1.
        -13    1    4    4    0    0 -0.63883250419E+01 -0.12970869711E+02 -0.33913324191E+02  0.36867043271E+02  0.10566000000E+00 0.  1.
        -14    1    4    4    0    0 -0.27831125020E+01 -0.48919484406E+01 -0.14824768718E+02  0.15857195284E+02  0.00000000000E+00 0.  1.
<mgrwt>
<rscale>  0 0.80006746E+02</rscale>
<asrwt>0</asrwt>
<pdfrwt beam="1">  1        1 0.31936200E-02 0.80006746E+02</pdfrwt>
<pdfrwt beam="2">  1       -2 0.11859961E-01 0.80006746E+02</pdfrwt>
<totfact> 0.11262478E+05</totfact>
</mgrwt>
</event>
<event>
 8    1  0.8247621E-014  0.8267897E+02  0.7818608E-02  0.1321616E+00
         -2   -1    0    0    0  501 -0.00000000000E+00  0.00000000000E+00  0.51218404530E+02  0.51218404594E+02  0.25500000000E-02 0.  1.
          1   -1    0    0  501    0  0.00000000000E+00 -0.00000000000E+00 -0.33365991264E+02  0.33365991644E+02  0.50400000000E-02 0. -1.
        -24    2    1    2    0    0 -0.71054273576E-14 -0.35527136788E-14  0.17852413267E+02  0.84584396238E+02  0.82678966053E+02 0.  0.
         66    2    3    3    0    0  0.34780475217E+02  0.18779410480E+02 -0.33706939618E+01  0.39720388852E+02  0.19999996296E+01 0.  0.
         13    1    3    3    0    0 -0.34780475217E+02 -0.18779410480E+02  0.21223107228E+02  0.44864007386E+02  0.10566000000E+00 0. -1.
         13    1    4    4    0    0  0.16340619341E+02  0.80272702122E+01 -0.13609220559E+01  0.18256948825E+02  0.10566000000E+00 0. -1.
        -13    1    4    4    0    0  0.21275739318E+01  0.12595445437E+01  0.71701328629E-01  0.24757480504E+01  0.10566000000E+00 0.  1.
         14    1    4    4    0    0  0.16312281944E+02  0.94925957239E+01 -0.20814732345E+01  0.18987691977E+02  0.00000000000E+00 0. -1.
<mgrwt>
<rscale>  0 0.82678966E+02</rscale>
<asrwt>0</asrwt>
<pdfrwt beam="1">  1        1 0.51332294E-02 0.82678966E+02</pdfrwt>
<pdfrwt beam="2">  1       -2 0.78797546E-02 0.82678966E+02</pdfrwt>
<totfact> 0.11212104E+05</totfact>
</mgrwt>
</event>
<event>
 8    1  0.8247621E-014  0.7788218E+02  0.7818608E-02  0.1335171E+00
         -2   -1    0    0    0  501 -0.00000000000E+00  0.00000000000E+00  0.25238558233E+02  0.25238558362E+02  0.25500000000E-02 0.  1.
          1   -1    0    0  501    0  0.00000000000E+00 -0.00000000000E+00 -0.60083014731E+02  0.60083014943E+02  0.50400000000E-02 0. -1.
        -24    2    1    2    0    0  0.00000000000E+00  0.00000000000E+00 -0.34844456498E+02  0.85321573305E+02  0.77882184886E+02 0.  0.
         66    2    3    3    0    0 -0.11421348166E+02 -0.31013540850E+02 -0.39941693839E+02  0.51880880989E+02  0.19999988771E+01 0.  0.
         13    1    3    3    0    0  0.11421348166E+02  0.31013540850E+02  0.50972373410E+01  0.33440692315E+02  0.10566000000E+00 0. -1.
         13    1    4    4    0    0 -0.17406497564E+00 -0.29864683965E+00 -0.28822690015E+00  0.46230653483E+00  0.10566000000E+00 0. -1.
        -13    1    4    4    0    0 -0.90702523943E+01 -0.25623032713E+02 -0.32359210452E+02  0.42260370905E+02  0.10566000000E+00 0.  1.
        -14    1    4    4    0    0 -0.21770307958E+01 -0.50918612973E+01 -0.72942564867E+01  0.91582035494E+01  0.00000000000E+00 0.  1.
<mgrwt>
<rscale>  0 0.77882185E+02</rscale>
<asrwt>0</asrwt>
<pdfrwt beam="1">  1        1 0.92435408E-02 0.77882185E+02</pdfrwt>
<pdfrwt beam="2">  1       -2 0.38828551E-02 0.77882185E+02</pdfrwt>
<totfact> 0.14578420E+05</totfact>
</mgrwt>
</event>
<event>
 8    1  0.8247621E-014  0.8406051E+02  0.7818608E-02  0.1317908E+00
          1   -1    0    0  501    0  0.00000000000E+00  0.00000000000E+00  0.32433113212E+03  0.32433113216E+03  0.50400000000E-02 0. -1.
         -2   -1    0    0    0  501 -0.00000000000E+00 -0.00000000000E+00 -0.54467246951E+01  0.54467252920E+01  0.25500000000E-02 0.  1.
        -24    2    1    2    0    0  0.00000000000E+00  0.00000000000E+00  0.31888440743E+03  0.32977785745E+03  0.84060513717E+02 0.  0.
         66    2    3    3    0    0  0.97381716902E+01  0.39926930975E+02  0.12543379293E+03  0.13200995506E+03  0.20000051127E+01 0.  0.
         13    1    3    3    0    0 -0.97381716902E+01 -0.39926930975E+02  0.19345061449E+03  0.19776790239E+03  0.10566000000E+00 0. -1.
         13    1    4    4    0    0  0.46279719564E+01  0.18783284213E+02  0.58446962298E+02  0.61565318615E+02  0.10566000000E+00 0. -1.
        -13    1    4    4    0    0  0.48731927017E+01  0.18396089933E+02  0.59217381886E+02  0.62200270203E+02  0.10566000000E+00 0.  1.
         14    1    4    4    0    0  0.23700703213E+00  0.27475568292E+01  0.77694487497E+01  0.82443662423E+01  0.00000000000E+00 0. -1.
<mgrwt>
<rscale>  0 0.84060514E+02</rscale>
<asrwt>0</asrwt>
<pdfrwt beam="1">  1        1 0.49897108E-01 0.84060514E+02</pdfrwt>
<pdfrwt beam="2">  1       -2 0.83795751E-03 0.84060514E+02</pdfrwt>
<totfact> 0.16064570E+05</totfact>
</mgrwt>
</event>
<event>
 8    1  0.8247621E-014  0.8021366E+02  0.7818608E-02  0.1328446E+00
         -2   -1    0    0    0  501 -0.00000000000E+00  0.00000000000E+00  0.32373019395E+03  0.32373019396E+03  0.25500000000E-02 0.  1.
          1   -1    0    0  501    0  0.00000000000E+00 -0.00000000000E+00 -0.49688208736E+01  0.49688234297E+01  0.50400000000E-02 0. -1.
        -24    2    1    2    0    0  0.00000000000E+00  0.00000000000E+00  0.31876137307E+03  0.32869901739E+03  0.80213658858E+02 0.  0.
         66    2    3    3    0    0  0.30970471570E+02 -0.24794400751E+02  0.18288373673E+03  0.18714805257E+03  0.20000007349E+01 0.  0.
         13    1    3    3    0    0 -0.30970471570E+02  0.24794400751E+02  0.13587763634E+03  0.14155096481E+03  0.10566000000E+00 0. -1.
         13    1    4    4    0    0  0.61435027566E+01 -0.44525660368E+01  0.37057058147E+02  0.37825979075E+02  0.10566000000E+00 0.  1.
        -13    1    4    4    0    0  0.17641663473E+02 -0.15105405454E+02  0.10449401609E+03  0.10704397286E+03  0.10566000000E+00 0. -1.
        -14    1    4    4    0    0  0.71853053411E+01 -0.52364292610E+01  0.41332662500E+02  0.42278100638E+02  0.00000000000E+00 0.  1.
<mgrwt>
<rscale>  0 0.80213659E+02</rscale>
<asrwt>0</asrwt>
<pdfrwt beam="1">  1        1 0.76443409E-03 0.80213659E+02</pdfrwt>
<pdfrwt beam="2">  1       -2 0.49804651E-01 0.80213659E+02</pdfrwt>
<totfact> 0.66880741E+04</totfact>
</mgrwt>
</event>
<event>
 8    1  0.8247621E-014  0.7961794E+02  0.7818608E-02  0.1330139E+00
          1   -1    0    0  501    0  0.00000000000E+00  0.00000000000E+00  0.14868876475E+02  0.14868877329E+02  0.50400000000E-02 0. -1.
         -2   -1    0    0    0  501 -0.00000000000E+00 -0.00000000000E+00 -0.10658195422E+03  0.10658195425E+03  0.25500000000E-02 0.  1.
        -24    2    1    2    0    0  0.00000000000E+00  0.00000000000E+00 -0.91713077742E+02  0.12145083158E+03  0.79617936808E+02 0.  0.
         66    2    3    3    0    0  0.92666411277E+01 -0.23115058971E+02 -0.93212100468E+02  0.96502187882E+02  0.20000008501E+01 0.  0.
         13    1    3    3    0    0 -0.92666411277E+01  0.23115058971E+02  0.14990227255E+01  0.24948643694E+02  0.10566000000E+00 0. -1.
         13    1    4    4    0    0  0.39383531375E+01 -0.11620459641E+02 -0.46338927118E+02  0.47935926383E+02  0.10566000000E+00 0.  1.
        -13    1    4    4    0    0  0.68954228018E+00 -0.16963179391E+01 -0.55779038541E+01  0.58717236437E+01  0.10566000000E+00 0. -1.
        -14    1    4    4    0    0  0.46387457101E+01 -0.97982813908E+01 -0.41295269495E+02  0.42694537855E+02  0.00000000000E+00 0.  1.
<mgrwt>
<rscale>  0 0.79617937E+02</rscale>
<asrwt>0</asrwt>
<pdfrwt beam="1">  1        1 0.22875196E-02 0.79617937E+02</pdfrwt>
<pdfrwt beam="2">  1       -2 0.16397223E-01 0.79617937E+02</pdfrwt>
<totfact> 0.10571542E+05</totfact>
</mgrwt>
</event>
<event>
 8    1  0.8247621E-014  0.8281664E+02  0.7818608E-02  0.1321243E+00
         -2   -1    0    0    0  501 -0.00000000000E+00  0.00000000000E+00  0.55212818761E+01  0.55212824650E+01  0.25500000000E-02 0.  1.
          1   -1    0    0  501    0  0.00000000000E+00 -0.00000000000E+00 -0.31055270880E+03  0.31055270884E+03  0.50400000000E-02 0. -1.
        -24    2    1    2    0    0  0.00000000000E+00  0.00000000000E+00 -0.30503142692E+03  0.31607399131E+03  0.82816644274E+02 0.  0.
         66    2    3    3    0    0  0.21750444698E+02 -0.33974949261E+02 -0.11736271472E+03  0.12411843466E+03  0.19999987310E+01 0.  0.
         13    1    3    3    0    0 -0.21750444698E+02  0.33974949261E+02 -0.18766871220E+03  0.19195555664E+03  0.10566000000E+00 0. -1.
         13    1    4    4    0    0  0.16449620077E+01 -0.27748606021E+01 -0.10749513868E+02  0.11223589613E+02  0.10566000000E+00 0. -1.
        -13    1    4    4    0    0  0.12085200158E+02 -0.19580744344E+02 -0.66912854872E+02  0.70758737433E+02  0.10566000000E+00 0.  1.
        -14    1    4    4    0    0  0.80202825314E+01 -0.11619344315E+02 -0.39700345979E+02  0.42136107617E+02  0.00000000000E+00 0.  1.
<mgrwt>
<rscale>  0 0.82816644E+02</rscale>
<asrwt>0</asrwt>
<pdfrwt beam="1">  1        1 0.47777326E-01 0.82816644E+02</pdfrwt>
<pdfrwt beam="2">  1       -2 0.84942827E-03 0.82816644E+02</pdfrwt>
<totfact> 0.16574792E+05</totfact>
</mgrwt>
</event>
<event>
 8    1  0.8247621E-014  0.8138127E+02  0.7818608E-02  0.1325177E+00
         -2   -1    0    0    0  501 -0.00000000000E+00  0.00000000000E+00  0.79886506786E+01  0.79886510856E+01  0.25500000000E-02 0.  1.
          1   -1    0    0  501    0  0.00000000000E+00 -0.00000000000E+00 -0.20726000302E+03  0.20726000308E+03  0.50400000000E-02 0. -1.
        -24    2    1    2    0    0 -0.35527136788E-14  0.00000000000E+00 -0.19927135234E+03  0.21524865417E+03  0.81381270921E+02 0.  0.
         66    2    3    3    0    0  0.28850974523E+02  0.25549225929E+02 -0.65354086692E+02  0.75896629139E+02  0.19999976842E+01 0.  0.
         13    1    3    3    0    0 -0.28850974523E+02 -0.25549225929E+02 -0.13391726565E+03  0.13935202503E+03  0.10566000000E+00 0. -1.
         13    1    4    4    0    0  0.18028315537E+02  0.16321993231E+02 -0.40902025681E+02  0.47585864424E+02  0.10566000000E+00 0.  1.
        -13    1    4    4    0    0  0.54921511453E+00  0.42935343737E+00 -0.81755734894E+00  0.10796044047E+01  0.10566000000E+00 0. -1.
        -14    1    4    4    0    0  0.10273443871E+02  0.87978792612E+01 -0.23634503662E+02  0.27231160310E+02  0.00000000000E+00 0.  1.
<mgrwt>
<rscale>  0 0.81381271E+02</rscale>
<asrwt>0</asrwt>
<pdfrwt beam="1">  1        1 0.31886150E-01 0.81381271E+02</pdfrwt>
<pdfrwt beam="2">  1       -2 0.12290234E-02 0.81381271E+02</pdfrwt>
<totfact> 0.16043672E+05</totfact>
</mgrwt>
</event>
<event>
 8    1  0.8247621E-014  0.8128718E+02  0.7818608E-02  0.1325438E+00
         -2   -1    0    0    0  501 -0.00000000000E+00  0.00000000000E+00  0.45777696189E+02  0.45777696260E+02  0.25500000000E-02 0.  1.
          1   -1    0    0  501    0  0.00000000000E+00 -0.00000000000E+00 -0.36085288085E+02  0.36085288437E+02  0.50400000000E-02 0. -1.
        -24    2    1    2    0    0 -0.44408920985E-15  0.71054273576E-14  0.96924081047E+01  0.81862984697E+02  0.81287179116E+02 0.  0.
         66    2    3    3    0    0 -0.33947663996E+01  0.32135801995E+02  0.29633663198E+02  0.43890639135E+02  0.20000000979E+01 0.  0.
         13    1    3    3    0    0  0.33947663996E+01 -0.32135801995E+02 -0.19941255093E+02  0.37972345562E+02  0.10566000000E+00 0. -1.
         13    1    4    4    0    0 -0.15070309279E+01  0.77954481522E+01  0.66802021280E+01  0.10376724850E+02  0.10566000000E+00 0. -1.
        -13    1    4    4    0    0 -0.94042939617E+00  0.95346407213E+01  0.92275520792E+01  0.13302355526E+02  0.10566000000E+00 0.  1.
         14    1    4    4    0    0 -0.94730607559E+00  0.14805713122E+02  0.13725908990E+02  0.20211558759E+02  0.00000000000E+00 0. -1.
<mgrwt>
<rscale>  0 0.81287179E+02</rscale>
<asrwt>0</asrwt>
<pdfrwt beam="1">  1        1 0.55515829E-02 0.81287179E+02</pdfrwt>
<pdfrwt beam="2">  1       -2 0.70427225E-02 0.81287179E+02</pdfrwt>
<totfact> 0.11930688E+05</totfact>
</mgrwt>
</event>
<event>
 8    1  0.8247621E-014  0.7913253E+02  0.7818608E-02  0.1331531E+00
         -2   -1    0    0    0  501 -0.00000000000E+00  0.00000000000E+00  0.51362964147E+02  0.51362964211E+02  0.25500000000E-02 0.  1.
          1   -1    0    0  501    0  0.00000000000E+00 -0.00000000000E+00 -0.30478953010E+02  0.30478953426E+02  0.50400000000E-02 0. -1.
        -24    2    1    2    0    0  0.71054273576E-14  0.00000000000E+00  0.20884011138E+02  0.81841917637E+02  0.79132531624E+02 0.  0.
         66    2    3    3    0    0  0.33278950249E+02  0.98997074883E+00  0.32510104837E+02  0.46576555162E+02  0.20000006176E+01 0.  0.
         13    1    3    3    0    0 -0.33278950249E+02 -0.98997074883E+00 -0.11626093700E+02  0.35265362475E+02  0.10566000000E+00 0. -1.
         13    1    4    4    0    0  0.23410486934E+01 -0.11573748088E+00  0.28761313584E+01  0.37117650486E+01  0.10566000000E+00 0. -1.
        -13    1    4    4    0    0  0.50478896232E+01 -0.14438424821E+00  0.48446099561E+01  0.69988174802E+01  0.10566000000E+00 0.  1.
         14    1    4    4    0    0  0.25890011932E+02  0.12500924779E+01  0.24789363523E+02  0.35865972633E+02  0.00000000000E+00 0. -1.
<mgrwt>
<rscale>  0 0.79132532E+02</rscale>
<asrwt>0</asrwt>
<pdfrwt beam="1">  1        1 0.46890698E-02 0.79132532E+02</pdfrwt>
<pdfrwt beam="2">  1       -2 0.79019945E-02 0.79132532E+02</pdfrwt>
<totfact> 0.12513823E+05</totfact>
</mgrwt>
</event>
<event>
 8    1  0.8247621E-014  0.8427319E+02  0.7818608E-02  0.1317344E+00
          1   -1    0    0  501    0  0.00000000000E+00  0.00000000000E+00  0.14609606652E+02  0.14609607521E+02  0.50400000000E-02 0. -1.
         -2   -1    0    0    0  501 -0.00000000000E+00 -0.00000000000E+00 -0.12152912885E+03  0.12152912887E+03  0.25500000000E-02 0.  1.
        -24    2    1    2    0    0 -0.35527136788E-14  0.17763568394E-14 -0.10691952220E+03  0.13613873640E+03  0.84273194556E+02 0.  0.
         66    2    3    3    0    0 -0.27863564741E+02  0.11953177821E+02 -0.10070478205E+03  0.10518892445E+03  0.19999997778E+01 0.  0.
         13    1    3    3    0    0  0.27863564741E+02 -0.11953177821E+02 -0.62147401410E+01  0.30949811940E+02  0.10566000000E+00 0. -1.
         13    1    4    4    0    0 -0.11132159610E+02  0.54429476490E+01 -0.42884143697E+02  0.44638678311E+02  0.10566000000E+00 0.  1.
        -13    1    4    4    0    0 -0.13445069200E+01  0.29606020255E+00 -0.44726114497E+01  0.46808939015E+01  0.10566000000E+00 0. -1.
        -14    1    4    4    0    0 -0.15386898210E+02  0.62141699695E+01 -0.53348026908E+02  0.55869352242E+02  0.00000000000E+00 0.  1.
<mgrwt>
<rscale>  0 0.84273195E+02</rscale>
<asrwt>0</asrwt>
<pdfrwt beam="1">  1        1 0.22476319E-02 0.84273195E+02</pdfrwt>
<pdfrwt beam="2">  1       -2 0.18696788E-01 0.84273195E+02</pdfrwt>
<totfact> 0.88167798E+04</totfact>
</mgrwt>
</event>
<event>
 8    1  0.8247621E-014  0.7927750E+02  0.7818608E-02  0.1331114E+00
          1   -1    0    0  501    0  0.00000000000E+00  0.00000000000E+00  0.24868997429E+02  0.24868997940E+02  0.50400000000E-02 0. -1.
         -2   -1    0    0    0  501 -0.00000000000E+00 -0.00000000000E+00 -0.63180297990E+02  0.63180298041E+02  0.25500000000E-02 0.  1.
        -24    2    1    2    0    0  0.00000000000E+00  0.00000000000E+00 -0.38311300561E+02  0.88049295981E+02  0.79277504830E+02 0.  0.
         66    2    3    3    0    0  0.33854806718E+01 -0.95125572124E+01 -0.61711164204E+02  0.62563711690E+02  0.20000022135E+01 0.  0.
         13    1    3    3    0    0 -0.33854806718E+01  0.95125572124E+01  0.23399863644E+02  0.25485584291E+02  0.10566000000E+00 0. -1.
         13    1    4    4    0    0 -0.11081224443E+00 -0.66673410091E+00 -0.31346200729E+01  0.32083984715E+01  0.10566000000E+00 0. -1.
        -13    1    4    4    0    0  0.23632234711E+00 -0.18083851020E+01 -0.11462376189E+02  0.11607038247E+02  0.10566000000E+00 0.  1.
        -14    1    4    4    0    0  0.32599705691E+01 -0.70374380095E+01 -0.47114167942E+02  0.47748274971E+02  0.00000000000E+00 0.  1.
<mgrwt>
<rscale>  0 0.79277505E+02</rscale>
<asrwt>0</asrwt>
<pdfrwt beam="1">  1        1 0.38259997E-02 0.79277505E+02</pdfrwt>
<pdfrwt beam="2">  1       -2 0.97200458E-02 0.79277505E+02</pdfrwt>
<totfact> 0.11996625E+05</totfact>
</mgrwt>
</event>
<event>
 8    1  0.8247621E-014  0.8862799E+02  0.7818608E-02  0.1306209E+00
          1   -1    0    0  501    0  0.00000000000E+00  0.00000000000E+00  0.24544534618E+02  0.24544535136E+02  0.50400000000E-02 0. -1.
         -2   -1    0    0    0  501 -0.00000000000E+00 -0.00000000000E+00 -0.80006811322E+02  0.80006811363E+02  0.25500000000E-02 0.  1.
        -24    2    1    2    0    0 -0.88817841970E-15 -0.71054273576E-14 -0.55462276704E+02  0.10455134650E+03  0.88627986085E+02 0.  0.
         66    2    3    3    0    0 -0.45951049398E+01 -0.37914471513E+02 -0.54205053811E+02  0.66338601073E+02  0.19999985256E+01 0.  0.
         13    1    3    3    0    0  0.45951049398E+01  0.37914471513E+02 -0.12572228924E+01  0.38212745426E+02  0.10566000000E+00 0. -1.
         13    1    4    4    0    0  0.35844924705E-02 -0.30532148358E+01 -0.43228894545E+01  0.52934554833E+01  0.10566000000E+00 0. -1.
        -13    1    4    4    0    0 -0.33907976907E+01 -0.29194679046E+02 -0.42013535871E+02  0.51273532685E+02  0.10566000000E+00 0.  1.
        -14    1    4    4    0    0 -0.12078917415E+01 -0.56665776317E+01 -0.78686284853E+01  0.97716129045E+01  0.00000000000E+00 0.  1.
<mgrwt>
<rscale>  0 0.88627986E+02</rscale>
<asrwt>0</asrwt>
<pdfrwt beam="1">  1        1 0.37760824E-02 0.88627986E+02</pdfrwt>
<pdfrwt beam="2">  1       -2 0.12308740E-01 0.88627986E+02</pdfrwt>
<totfact> 0.86055924E+04</totfact>
</mgrwt>
</event>
<event>
 8    1  0.8247621E-014  0.8004908E+02  0.7818608E-02  0.1328912E+00
         -2   -1    0    0    0  501 -0.00000000000E+00  0.00000000000E+00  0.32193183918E+01  0.32193194017E+01  0.25500000000E-02 0.  1.
          1   -1    0    0  501    0  0.00000000000E+00 -0.00000000000E+00 -0.49760951275E+03  0.49760951278E+03  0.50400000000E-02 0. -1.
        -24    2    1    2    0    0  0.00000000000E+00  0.00000000000E+00 -0.49439019436E+03  0.50082883218E+03  0.80049077837E+02 0.  0.
         66    2    3    3    0    0 -0.25274087678E+02 -0.18845356316E+01 -0.44096056599E+03  0.44169282509E+03  0.19999991612E+01 0.  0.
         13    1    3    3    0    0  0.25274087678E+02  0.18845356316E+01 -0.53429628374E+02  0.59136007091E+02  0.10566000000E+00 0. -1.
         13    1    4    4    0    0 -0.10416243032E+02 -0.12028951119E+01 -0.19641486813E+03  0.19669457710E+03  0.10566000000E+00 0.  1.
        -13    1    4    4    0    0 -0.40637067747E+01  0.43715323591E-01 -0.65877843007E+02  0.66003158917E+02  0.10566000000E+00 0. -1.
        -14    1    4    4    0    0 -0.10794137872E+02 -0.72535584335E+00 -0.17866785486E+03  0.17899508907E+03  0.00000000000E+00 0.  1.
<mgrwt>
<rscale>  0 0.80049078E+02</rscale>
<asrwt>0</asrwt>
<pdfrwt beam="1">  1        1 0.76555249E-01 0.80049078E+02</pdfrwt>
<pdfrwt beam="2">  1       -2 0.49528023E-03 0.80049078E+02</pdfrwt>
<totfact> 0.19565878E+05</totfact>
</mgrwt>
</event>
<event>
 8    1  0.8247621E-014  0.8066917E+02  0.7818608E-02  0.1327163E+00
         -2   -1    0    0    0  501 -0.00000000000E+00  0.00000000000E+00  0.15950979457E+02  0.15950979661E+02  0.25500000000E-02 0.  1.
          1   -1    0    0  501    0  0.00000000000E+00 -0.00000000000E+00 -0.10199241130E+03  0.10199241142E+03  0.50400000000E-02 0. -1.
        -24    2    1    2    0    0  0.17763568394E-14  0.00000000000E+00 -0.86041431839E+02  0.11794339108E+03  0.80669173212E+02 0.  0.
         66    2    3    3    0    0  0.13140975509E+02  0.34608981598E+02 -0.19726976388E+02  0.41995481232E+02  0.20000004719E+01 0.  0.
         13    1    3    3    0    0 -0.13140975509E+02 -0.34608981598E+02 -0.66314455451E+02  0.75947909849E+02  0.10566000000E+00 0. -1.
         13    1    4    4    0    0  0.10207122898E+02  0.26413777921E+02 -0.14486949958E+02  0.31808110680E+02  0.10566000000E+00 0. -1.
        -13    1    4    4    0    0  0.16000507745E+01  0.38118600145E+01 -0.21493085169E+01  0.46605933515E+01  0.10566000000E+00 0.  1.
         14    1    4    4    0    0  0.13338018364E+01  0.43833436632E+01 -0.30907179124E+01  0.55267772004E+01  0.00000000000E+00 0. -1.
<mgrwt>
<rscale>  0 0.80669173E+02</rscale>
<asrwt>0</asrwt>
<pdfrwt beam="1">  1        1 0.15691140E-01 0.80669173E+02</pdfrwt>
<pdfrwt beam="2">  1       -2 0.24539969E-02 0.80669173E+02</pdfrwt>
<totfact> 0.14419796E+05</totfact>
</mgrwt>
</event>
<event>
 8    1  0.9217368E-014  0.8015434E+02  0.7818608E-02  0.1328614E+00
          1   -1    0    0  501    0  0.00000000000E+00  0.00000000000E+00  0.33770284455E+02  0.33770284831E+02  0.50400000000E-02 0. -1.
         -2   -1    0    0    0  501 -0.00000000000E+00 -0.00000000000E+00 -0.47561919654E+02  0.47561919722E+02  0.25500000000E-02 0.  1.
        -24    2    1    2    0    0  0.00000000000E+00  0.00000000000E+00 -0.13791635199E+02  0.81332204553E+02  0.80154340469E+02 0.  0.
         66    2    3    3    0    0  0.21920533273E+02  0.77827863505E+01 -0.39984337399E+02  0.46301498667E+02  0.19999998171E+01 0.  0.
         13    1    3    3    0    0 -0.21920533273E+02 -0.77827863505E+01  0.26192702200E+02  0.35030705886E+02  0.10566000000E+00 0. -1.
         13    1    4    4    0    0  0.10237448374E+01  0.27619310646E-01 -0.17735981879E+01  0.20507634886E+01  0.10566000000E+00 0. -1.
        -13    1    4    4    0    0  0.71768438645E+00  0.46510845723E+00 -0.14463737994E+01  0.16836145517E+01  0.10566000000E+00 0.  1.
        -14    1    4    4    0    0  0.20179104049E+02  0.72900585826E+01 -0.36764365411E+02  0.42567120627E+02  0.00000000000E+00 0.  1.
<mgrwt>
<rscale>  0 0.80154340E+02</rscale>
<asrwt>0</asrwt>
<pdfrwt beam="1">  1        1 0.51954284E-02 0.80154340E+02</pdfrwt>
<pdfrwt beam="2">  1       -2 0.73172184E-02 0.80154340E+02</pdfrwt>
<totfact> 0.12278006E+05</totfact>
</mgrwt>
</event>
<event>
 8    1  0.8247621E-014  0.8249037E+02  0.7818608E-02  0.1322129E+00
          1   -1    0    0  501    0  0.00000000000E+00  0.00000000000E+00  0.25232387700E+01  0.25232438035E+01  0.50400000000E-02 0. -1.
         -2   -1    0    0    0  501 -0.00000000000E+00 -0.00000000000E+00 -0.67419847432E+03  0.67419847432E+03  0.25500000000E-02 0.  1.
        -24    2    1    2    0    0  0.35527136788E-14  0.35527136788E-14 -0.67167523555E+03  0.67672171812E+03  0.82490373592E+02 0.  0.
         66    2    3    3    0    0 -0.23792865273E+02 -0.25920555060E+02 -0.51220951049E+03  0.51342044977E+03  0.19999997945E+01 0.  0.
         13    1    3    3    0    0  0.23792865273E+02  0.25920555060E+02 -0.15946572506E+03  0.16330126835E+03  0.10566000000E+00 0. -1.
         13    1    4    4    0    0 -0.67547920595E+01 -0.84811179376E+01 -0.16135684820E+03  0.16172074759E+03  0.10566000000E+00 0. -1.
        -13    1    4    4    0    0 -0.12011131133E+02 -0.12397734526E+02 -0.25348313513E+03  0.25407023055E+03  0.10566000000E+00 0.  1.
         14    1    4    4    0    0 -0.50269420813E+01 -0.50417025962E+01 -0.97369527152E+02  0.97629471624E+02  0.00000000000E+00 0. -1.
<mgrwt>
<rscale>  0 0.82490374E+02</rscale>
<asrwt>0</asrwt>
<pdfrwt beam="1">  1        1 0.38819150E-03 0.82490374E+02</pdfrwt>
<pdfrwt beam="2">  1       -2 0.10372270E+00 0.82490374E+02</pdfrwt>
<totfact> 0.36204656E+04</totfact>
</mgrwt>
</event>
<event>
 8    1  0.8247621E-014  0.8063263E+02  0.7818608E-02  0.1327266E+00
         -2   -1    0    0    0  501 -0.00000000000E+00  0.00000000000E+00  0.30004303484E+02  0.30004303592E+02  0.25500000000E-02 0.  1.
          1   -1    0    0  501    0  0.00000000000E+00 -0.00000000000E+00 -0.54172409833E+02  0.54172410067E+02  0.50400000000E-02 0. -1.
        -24    2    1    2    0    0 -0.35527136788E-14  0.00000000000E+00 -0.24168106349E+02  0.84176713660E+02  0.80632634572E+02 0.  0.
         66    2    3    3    0    0  0.23902820397E+02 -0.75553779194E+00  0.21760399364E+02  0.32394917038E+02  0.20000022934E+01 0.  0.
         13    1    3    3    0    0 -0.23902820397E+02  0.75553779194E+00 -0.45928505713E+02  0.51781796621E+02  0.10566000000E+00 0. -1.
         13    1    4    4    0    0  0.29363257736E+01  0.10777413878E+00  0.34184953969E+01  0.45089798323E+01  0.10566000000E+00 0. -1.
        -13    1    4    4    0    0  0.18334174640E+02 -0.52220418278E+00  0.16281621810E+02  0.24525844119E+02  0.10566000000E+00 0.  1.
         14    1    4    4    0    0  0.26323199828E+01 -0.34110774794E+00  0.20602821572E+01  0.33600930872E+01  0.00000000000E+00 0. -1.
<mgrwt>
<rscale>  0 0.80632635E+02</rscale>
<asrwt>0</asrwt>
<pdfrwt beam="1">  1        1 0.83342170E-02 0.80632635E+02</pdfrwt>
<pdfrwt beam="2">  1       -2 0.46160467E-02 0.80632635E+02</pdfrwt>
<totfact> 0.13035848E+05</totfact>
</mgrwt>
</event>
<event>
 8    1  0.8247621E-014  0.8098765E+02  0.7818608E-02  0.1326272E+00
         -2   -1    0    0    0  501 -0.00000000000E+00  0.00000000000E+00  0.31129175734E+02  0.31129175838E+02  0.25500000000E-02 0.  1.
          1   -1    0    0  501    0  0.00000000000E+00 -0.00000000000E+00 -0.52675662790E+02  0.52675663031E+02  0.50400000000E-02 0. -1.
        -24    2    1    2    0    0  0.00000000000E+00  0.00000000000E+00 -0.21546487056E+02  0.83804838869E+02  0.80987652846E+02 0.  0.
         66    2    3    3    0    0  0.31470354975E+02  0.25440118808E+02 -0.10363151286E+02  0.41820781774E+02  0.19999991090E+01 0.  0.
         13    1    3    3    0    0 -0.31470354975E+02 -0.25440118808E+02 -0.11183335770E+02  0.41984057095E+02  0.10566000000E+00 0. -1.
         13    1    4    4    0    0  0.55312716468E+01  0.38993748104E+01 -0.20254145136E+01  0.70649527904E+01  0.10566000000E+00 0. -1.
        -13    1    4    4    0    0  0.25941510556E+02  0.21553931418E+02 -0.83345163569E+01  0.34742038749E+02  0.10566000000E+00 0.  1.
        -14    1    4    4    0    0 -0.24272281097E-02 -0.13187420605E-01 -0.32204155905E-02  0.13790234773E-01  0.00000000000E+00 0.  1.
<mgrwt>
<rscale>  0 0.80987653E+02</rscale>
<asrwt>0</asrwt>
<pdfrwt beam="1">  1        1 0.81039482E-02 0.80987653E+02</pdfrwt>
<pdfrwt beam="2">  1       -2 0.47891040E-02 0.80987653E+02</pdfrwt>
<totfact> 0.12820851E+05</totfact>
</mgrwt>
</event>
<event>
 8    1  0.8247621E-014  0.7860690E+02  0.7818608E-02  0.1333052E+00
         -2   -1    0    0    0  501 -0.00000000000E+00  0.00000000000E+00  0.20717743061E+02  0.20717743218E+02  0.25500000000E-02 0.  1.
          1   -1    0    0  501    0  0.00000000000E+00 -0.00000000000E+00 -0.74562224988E+02  0.74562225159E+02  0.50400000000E-02 0. -1.
        -24    2    1    2    0    0  0.00000000000E+00  0.00000000000E+00 -0.53844481927E+02  0.95279968377E+02  0.78606896261E+02 0.  0.
         66    2    3    3    0    0  0.65772553628E+01 -0.31374473311E+02  0.57115602027E+00  0.32123886477E+02  0.19999998852E+01 0.  0.
         13    1    3    3    0    0 -0.65772553628E+01  0.31374473311E+02 -0.54415637947E+02  0.63156081900E+02  0.10566000000E+00 0. -1.
         13    1    4    4    0    0  0.26681146169E+01 -0.10167388277E+02  0.63441990679E+00  0.10531299665E+02  0.10566000000E+00 0. -1.
        -13    1    4    4    0    0  0.25838657498E+01 -0.15907956995E+02 -0.37773089620E+00  0.16121206613E+02  0.10566000000E+00 0.  1.
        -14    1    4    4    0    0  0.13252749961E+01 -0.52991280382E+01  0.31446700969E+00  0.54713801989E+01  0.00000000000E+00 0.  1.
<mgrwt>
<rscale>  0 0.78606896E+02</rscale>
<asrwt>0</asrwt>
<pdfrwt beam="1">  1        1 0.11471111E-01 0.78606896E+02</pdfrwt>
<pdfrwt beam="2">  1       -2 0.31873452E-02 0.78606896E+02</pdfrwt>
<totfact> 0.14698135E+05</totfact>
</mgrwt>
</event>
<event>
 8    1  0.8247621E-014  0.7921393E+02  0.7818608E-02  0.1331297E+00
         -2   -1    0    0    0  501 -0.00000000000E+00  0.00000000000E+00  0.61215583623E+01  0.61215588934E+01  0.25500000000E-02 0.  1.
          1   -1    0    0  501    0  0.00000000000E+00 -0.00000000000E+00 -0.25626016267E+03  0.25626016272E+03  0.50400000000E-02 0. -1.
        -24    2    1    2    0    0  0.00000000000E+00  0.00000000000E+00 -0.25013860431E+03  0.26238172162E+03  0.79213928521E+02 0.  0.
         66    2    3    3    0    0  0.97750624049E+01  0.37951129875E+02 -0.10674633487E+03  0.11373047136E+03  0.20000008634E+01 0.  0.
         13    1    3    3    0    0 -0.97750624049E+01 -0.37951129875E+02 -0.14339226944E+03  0.14865125025E+03  0.10566000000E+00 0. -1.
         13    1    4    4    0    0  0.13852445124E+01  0.63928948327E+01 -0.18729956959E+02  0.19839618404E+02  0.10566000000E+00 0. -1.
        -13    1    4    4    0    0  0.74689392793E+00  0.43708609581E+01 -0.12875437973E+02  0.13618015387E+02  0.10566000000E+00 0.  1.
        -14    1    4    4    0    0  0.76429239646E+01  0.27187374084E+02 -0.75140939942E+02  0.80272837571E+02  0.00000000000E+00 0.  1.
<mgrwt>
<rscale>  0 0.79213929E+02</rscale>
<asrwt>0</asrwt>
<pdfrwt beam="1">  1        1 0.39424632E-01 0.79213929E+02</pdfrwt>
<pdfrwt beam="2">  1       -2 0.94177845E-03 0.79213929E+02</pdfrwt>
<totfact> 0.17961710E+05</totfact>
</mgrwt>
</event>
<event>
 8    1  0.8247621E-014  0.8005046E+02  0.7818608E-02  0.1328908E+00
         -2   -1    0    0    0  501 -0.00000000000E+00  0.00000000000E+00  0.31309473938E+01  0.31309484322E+01  0.25500000000E-02 0.  1.
          1   -1    0    0  501    0  0.00000000000E+00 -0.00000000000E+00 -0.51167217199E+03  0.51167217201E+03  0.50400000000E-02 0. -1.
        -24    2    1    2    0    0  0.00000000000E+00 -0.17763568394E-14 -0.50854122459E+03  0.51480312044E+03  0.80050457264E+02 0.  0.
         66    2    3    3    0    0 -0.38365788456E+02  0.91362066121E+01 -0.29738186952E+03  0.29999230044E+03  0.20000010956E+01 0.  0.
         13    1    3    3    0    0  0.38365788456E+02 -0.91362066121E+01 -0.21115935507E+03  0.21481082001E+03  0.10566000000E+00 0. -1.
         13    1    4    4    0    0 -0.43108051585E+01  0.12637779265E+01 -0.30598754131E+02  0.30926931535E+02  0.10566000000E+00 0. -1.
        -13    1    4    4    0    0 -0.74595238673E+01  0.13641133617E+01 -0.55772296861E+02  0.56285571533E+02  0.10566000000E+00 0. -1.
        -14    1    4    4    0    0 -0.26595459430E+02  0.65083153239E+01 -0.21101081853E+03  0.21277979737E+03  0.00000000000E+00 0.  1.
<mgrwt>
<rscale>  0 0.80050457E+02</rscale>
<asrwt>0</asrwt>
<pdfrwt beam="1">  1        1 0.78718730E-01 0.80050457E+02</pdfrwt>
<pdfrwt beam="2">  1       -2 0.48168470E-03 0.80050457E+02</pdfrwt>
<totfact> 0.19628106E+05</totfact>
</mgrwt>
</event>
<event>
 8    1  0.8247621E-014  0.8054438E+02  0.7818608E-02  0.1327514E+00
          1   -1    0    0  501    0  0.00000000000E+00  0.00000000000E+00  0.26441672130E+02  0.26441672610E+02  0.50400000000E-02 0. -1.
         -2   -1    0    0    0  501 -0.00000000000E+00 -0.00000000000E+00 -0.61336863487E+02  0.61336863540E+02  0.25500000000E-02 0.  1.
        -24    2    1    2    0    0 -0.35527136788E-14  0.00000000000E+00 -0.34895191358E+02  0.87778536150E+02  0.80544379250E+02 0.  0.
         66    2    3    3    0    0  0.28640871200E+02 -0.16391592897E+02 -0.42568125509E+02  0.53898322111E+02  0.19999990572E+01 0.  0.
         13    1    3    3    0    0 -0.28640871200E+02  0.16391592897E+02  0.76729341515E+01  0.33880214039E+02  0.10566000000E+00 0. -1.
         13    1    4    4    0    0  0.13907167186E+01 -0.94004499730E+00 -0.28481309121E+01  0.33076867016E+01  0.10566000000E+00 0. -1.
        -13    1    4    4    0    0  0.45845269234E+01 -0.28523194835E+01 -0.69051304116E+01  0.87661624206E+01  0.10566000000E+00 0.  1.
         14    1    4    4    0    0  0.22665627558E+02 -0.12599228416E+02 -0.32814864186E+02  0.41824472989E+02  0.00000000000E+00 0. -1.
<mgrwt>
<rscale>  0 0.80544379E+02</rscale>
<asrwt>0</asrwt>
<pdfrwt beam="1">  1        1 0.40679496E-02 0.80544379E+02</pdfrwt>
<pdfrwt beam="2">  1       -2 0.94364405E-02 0.80544379E+02</pdfrwt>
<totfact> 0.11589500E+05</totfact>
</mgrwt>
</event>
<event>
 8    1  0.8247621E-014  0.7966616E+02  0.7818608E-02  0.1330001E+00
          1   -1    0    0  501    0  0.00000000000E+00  0.00000000000E+00  0.47484469473E+01  0.47484496220E+01  0.50400000000E-02 0. -1.
         -2   -1    0    0    0  501 -0.00000000000E+00 -0.00000000000E+00 -0.33414588227E+03  0.33414588228E+03  0.25500000000E-02 0.  1.
        -24    2    1    2    0    0  0.00000000000E+00 -0.35527136788E-14 -0.32939743532E+03  0.33889433190E+03  0.79666164700E+02 0.  0.
         66    2    3    3    0    0  0.28669080938E+01  0.26660272979E+02 -0.28996326008E+03  0.29120728273E+03  0.20000007326E+01 0.  0.
         13    1    3    3    0    0 -0.28669080938E+01 -0.26660272979E+02 -0.39434175242E+02  0.47687049168E+02  0.10566000000E+00 0. -1.
         13    1    4    4    0    0  0.47053316787E+00  0.25104386381E+01 -0.25990069546E+02  0.26115485496E+02  0.10566000000E+00 0. -1.
        -13    1    4    4    0    0  0.16803413917E+01  0.11907545955E+02 -0.13811297672E+03  0.13863556074E+03  0.10566000000E+00 0.  1.
        -14    1    4    4    0    0  0.71603353428E+00  0.12242288386E+02 -0.12586021381E+03  0.12645623650E+03  0.00000000000E+00 0.  1.
<mgrwt>
<rscale>  0 0.79666165E+02</rscale>
<asrwt>0</asrwt>
<pdfrwt beam="1">  1        1 0.73053077E-03 0.79666165E+02</pdfrwt>
<pdfrwt beam="2">  1       -2 0.51407041E-01 0.79666165E+02</pdfrwt>
<totfact> 0.66835334E+04</totfact>
</mgrwt>
</event>
<event>
 8    1  0.8247621E-014  0.8075268E+02  0.7818608E-02  0.1326929E+00
          1   -1    0    0  501    0  0.00000000000E+00  0.00000000000E+00  0.48833868156E+02  0.48833868416E+02  0.50400000000E-02 0. -1.
         -2   -1    0    0    0  501 -0.00000000000E+00 -0.00000000000E+00 -0.33383568096E+02  0.33383568193E+02  0.25500000000E-02 0.  1.
        -24    2    1    2    0    0  0.35527136788E-14  0.00000000000E+00  0.15450300061E+02  0.82217436609E+02  0.80752678659E+02 0.  0.
         66    2    3    3    0    0  0.24097818164E+02  0.24397237646E+02 -0.13923564272E+02  0.37064749924E+02  0.19999999600E+01 0.  0.
         13    1    3    3    0    0 -0.24097818164E+02 -0.24397237646E+02  0.29373864332E+02  0.45152686685E+02  0.10566000000E+00 0. -1.
         13    1    4    4    0    0  0.17965457877E+01  0.23216921285E+01 -0.13655836103E+01  0.32394156477E+01  0.10566000000E+00 0. -1.
        -13    1    4    4    0    0  0.20931468906E+02  0.20243596285E+02 -0.11711086280E+02  0.31386148012E+02  0.10566000000E+00 0.  1.
        -14    1    4    4    0    0  0.13698034708E+01  0.18319492326E+01 -0.84689438099E+00  0.24391862643E+01  0.00000000000E+00 0.  1.
<mgrwt>
<rscale>  0 0.80752679E+02</rscale>
<asrwt>0</asrwt>
<pdfrwt beam="1">  1        1 0.75129029E-02 0.80752679E+02</pdfrwt>
<pdfrwt beam="2">  1       -2 0.51359336E-02 0.80752679E+02</pdfrwt>
<totfact> 0.12770604E+05</totfact>
</mgrwt>
</event>
<event>
 8    1  0.8247621E-014  0.7990036E+02  0.7818608E-02  0.1329334E+00
         -2   -1    0    0    0  501 -0.00000000000E+00  0.00000000000E+00  0.27224010868E+01  0.27224022811E+01  0.25500000000E-02 0.  1.
          1   -1    0    0  501    0  0.00000000000E+00 -0.00000000000E+00 -0.58625332319E+03  0.58625332321E+03  0.50400000000E-02 0. -1.
        -24    2    1    2    0    0  0.35527136788E-14  0.00000000000E+00 -0.58353092210E+03  0.58897572549E+03  0.79900364011E+02 0.  0.
         66    2    3    3    0    0  0.29617188870E+02  0.81575513904E+01 -0.47992345268E+03  0.48090980855E+03  0.20000004664E+01 0.  0.
         13    1    3    3    0    0 -0.29617188870E+02 -0.81575513904E+01 -0.10360746942E+03  0.10806591694E+03  0.10566000000E+00 0. -1.
         13    1    4    4    0    0  0.92631738343E+01  0.25641707338E+01 -0.14342980443E+03  0.14375152634E+03  0.10566000000E+00 0.  1.
        -13    1    4    4    0    0  0.52326461501E+01  0.18364348221E+01 -0.80416501212E+02  0.80607554918E+02  0.10566000000E+00 0. -1.
         14    1    4    4    0    0  0.15121368886E+02  0.37569458345E+01 -0.25607714704E+03  0.25655072729E+03  0.00000000000E+00 0. -1.
<mgrwt>
<rscale>  0 0.79900364E+02</rscale>
<asrwt>0</asrwt>
<pdfrwt beam="1">  1        1 0.90192719E-01 0.79900364E+02</pdfrwt>
<pdfrwt beam="2">  1       -2 0.41883150E-03 0.79900364E+02</pdfrwt>
<totfact> 0.19971091E+05</totfact>
</mgrwt>
</event>
<event>
 8    1  0.8247621E-014  0.8046023E+02  0.7818608E-02  0.1327750E+00
          1   -1    0    0  501    0  0.00000000000E+00  0.00000000000E+00  0.24707673915E+02  0.24707674429E+02  0.50400000000E-02 0. -1.
         -2   -1    0    0    0  501 -0.00000000000E+00 -0.00000000000E+00 -0.65504426204E+02  0.65504426254E+02  0.25500000000E-02 0.  1.
        -24    2    1    2    0    0  0.88817841970E-15  0.35527136788E-14 -0.40796752289E+02  0.90212100683E+02  0.80460226897E+02 0.  0.
         66    2    3    3    0    0  0.33682048030E+01  0.24992965663E+02 -0.55518399940E+02  0.61010538912E+02  0.19999975677E+01 0.  0.
         13    1    3    3    0    0 -0.33682048030E+01 -0.24992965663E+02  0.14721647651E+02  0.29201561770E+02  0.10566000000E+00 0. -1.
         13    1    4    4    0    0  0.17511236854E+00  0.11805155850E+01 -0.18173503317E+01  0.21767424404E+01  0.10566000000E+00 0. -1.
        -13    1    4    4    0    0  0.26858555657E+01  0.19184367872E+02 -0.43807976623E+02  0.47899934975E+02  0.10566000000E+00 0.  1.
         14    1    4    4    0    0  0.50723686878E+00  0.46280822069E+01 -0.98930729844E+01  0.10933861497E+02  0.00000000000E+00 0. -1.
<mgrwt>
<rscale>  0 0.80460227E+02</rscale>
<asrwt>0</asrwt>
<pdfrwt beam="1">  1        1 0.38011807E-02 0.80460227E+02</pdfrwt>
<pdfrwt beam="2">  1       -2 0.10077604E-01 0.80460227E+02</pdfrwt>
<totfact> 0.11474671E+05</totfact>
</mgrwt>
</event>
<event>
 8    1  0.8247621E-014  0.8002443E+02  0.7818608E-02  0.1328982E+00
         -2   -1    0    0    0  501 -0.00000000000E+00  0.00000000000E+00  0.88261132104E+02  0.88261132141E+02  0.25500000000E-02 0.  1.
          1   -1    0    0  501    0  0.00000000000E+00 -0.00000000000E+00 -0.18139096637E+02  0.18139097337E+02  0.50400000000E-02 0. -1.
        -24    2    1    2    0    0  0.00000000000E+00 -0.17763568394E-14  0.70122035467E+02  0.10640022948E+03  0.80024427365E+02 0.  0.
         66    2    3    3    0    0  0.35897236469E+02 -0.15348279010E+02  0.46581450237E+02  0.60811288148E+02  0.20000013285E+01 0.  0.
         13    1    3    3    0    0 -0.35897236469E+02  0.15348279010E+02  0.23540585230E+02  0.45588941331E+02  0.10566000000E+00 0. -1.
         13    1    4    4    0    0  0.66129672730E+00 -0.17686793951E+00  0.69401042180E+00  0.98051523738E+00  0.10566000000E+00 0. -1.
        -13    1    4    4    0    0  0.78384033470E+01 -0.39601440854E+01  0.11025854288E+02  0.14096238329E+02  0.10566000000E+00 0.  1.
        -14    1    4    4    0    0  0.27397536395E+02 -0.11211266985E+02  0.34861585527E+02  0.45734534582E+02  0.00000000000E+00 0.  1.
<mgrwt>
<rscale>  0 0.80024427E+02</rscale>
<asrwt>0</asrwt>
<pdfrwt beam="1">  1        1 0.27906303E-02 0.80024427E+02</pdfrwt>
<pdfrwt beam="2">  1       -2 0.13578636E-01 0.80024427E+02</pdfrwt>
<totfact> 0.10925513E+05</totfact>
</mgrwt>
</event>
<event>
 8    1  0.8247621E-014  0.7983282E+02  0.7818608E-02  0.1329527E+00
         -2   -1    0    0    0  501 -0.00000000000E+00  0.00000000000E+00  0.10817806428E+02  0.10817806728E+02  0.25500000000E-02 0.  1.
          1   -1    0    0  501    0  0.00000000000E+00 -0.00000000000E+00 -0.14728677364E+03  0.14728677373E+03  0.50400000000E-02 0. -1.
        -24    2    1    2    0    0  0.00000000000E+00  0.00000000000E+00 -0.13646896721E+03  0.15810458046E+03  0.79832821250E+02 0.  0.
         66    2    3    3    0    0 -0.38084288767E+02  0.36231925413E+01 -0.45890764755E+02  0.59778782723E+02  0.19999997603E+01 0.  0.
         13    1    3    3    0    0  0.38084288767E+02 -0.36231925413E+01 -0.90578202458E+02  0.98325797732E+02  0.10566000000E+00 0. -1.
         13    1    4    4    0    0 -0.10599896787E+02  0.12026336310E+01 -0.14122048771E+02  0.17698801233E+02  0.10566000000E+00 0. -1.
        -13    1    4    4    0    0 -0.14655237725E+02  0.11724866468E+01 -0.17218388825E+02  0.22641439784E+02  0.10566000000E+00 0.  1.
        -14    1    4    4    0    0 -0.12829154255E+02  0.12480722635E+01 -0.14550327159E+02  0.19438541707E+02  0.00000000000E+00 0.  1.
<mgrwt>
<rscale>  0 0.79832821E+02</rscale>
<asrwt>0</asrwt>
<pdfrwt beam="1">  1        1 0.22659502E-01 0.79832821E+02</pdfrwt>
<pdfrwt beam="2">  1       -2 0.16642780E-02 0.79832821E+02</pdfrwt>
<totfact> 0.15823686E+05</totfact>
</mgrwt>
</event>
<event>
 8    1  0.8247621E-014  0.7926072E+02  0.7818608E-02  0.1331163E+00
          1   -1    0    0  501    0  0.00000000000E+00  0.00000000000E+00  0.22466324931E+03  0.22466324937E+03  0.50400000000E-02 0. -1.
         -2   -1    0    0    0  501 -0.00000000000E+00 -0.00000000000E+00 -0.69907532912E+01  0.69907537563E+01  0.25500000000E-02 0.  1.
        -24    2    1    2    0    0  0.00000000000E+00  0.35527136788E-14  0.21767249602E+03  0.23165400312E+03  0.79260719400E+02 0.  0.
         66    2    3    3    0    0 -0.22316154095E+02 -0.20954565697E+02  0.18234884334E+03  0.18491134424E+03  0.20000006780E+01 0.  0.
         13    1    3    3    0    0  0.22316154095E+02  0.20954565697E+02  0.35323652677E+02  0.46742658885E+02  0.10566000000E+00 0. -1.
         13    1    4    4    0    0 -0.64706234568E+01 -0.56051031129E+01  0.51189493277E+02  0.51900496479E+02  0.10566000000E+00 0.  1.
        -13    1    4    4    0    0 -0.24033708463E+00 -0.50378345537E+00  0.28173957254E+01  0.28740985357E+01  0.10566000000E+00 0. -1.
        -14    1    4    4    0    0 -0.15605193553E+02 -0.14845679129E+02  0.12834195434E+03  0.13013674922E+03  0.00000000000E+00 0.  1.
<mgrwt>
<rscale>  0 0.79260719E+02</rscale>
<asrwt>0</asrwt>
<pdfrwt beam="1">  1        1 0.34563576E-01 0.79260719E+02</pdfrwt>
<pdfrwt beam="2">  1       -2 0.10755006E-02 0.79260719E+02</pdfrwt>
<totfact> 0.17480407E+05</totfact>
</mgrwt>
</event>
<event>
 8    1  0.8247621E-014  0.7953584E+02  0.7818608E-02  0.1330374E+00
         -2   -1    0    0    0  501 -0.00000000000E+00  0.00000000000E+00  0.49601551794E+02  0.49601551860E+02  0.25500000000E-02 0.  1.
          1   -1    0    0  501    0  0.00000000000E+00 -0.00000000000E+00 -0.31883830127E+02  0.31883830525E+02  0.50400000000E-02 0. -1.
        -24    2    1    2    0    0  0.88817841970E-15  0.17763568394E-14  0.17717721668E+02  0.81485382385E+02  0.79535840231E+02 0.  0.
         66    2    3    3    0    0  0.77188237831E+01  0.12636993202E+02  0.46649462320E+02  0.48984142116E+02  0.20000015862E+01 0.  0.
         13    1    3    3    0    0 -0.77188237831E+01 -0.12636993202E+02 -0.28931740652E+02  0.32501240268E+02  0.10566000000E+00 0. -1.
         13    1    4    4    0    0  0.16762597189E+01  0.23346815573E+01  0.72921726268E+01  0.78388475093E+01  0.10566000000E+00 0. -1.
        -13    1    4    4    0    0  0.15154742634E+01  0.21558406213E+01  0.73554853975E+01  0.78140028472E+01  0.10566000000E+00 0.  1.
         14    1    4    4    0    0  0.45270898008E+01  0.81464710233E+01  0.32001804296E+02  0.33331291760E+02  0.00000000000E+00 0. -1.
<mgrwt>
<rscale>  0 0.79535840E+02</rscale>
<asrwt>0</asrwt>
<pdfrwt beam="1">  1        1 0.49052047E-02 0.79535840E+02</pdfrwt>
<pdfrwt beam="2">  1       -2 0.76310079E-02 0.79535840E+02</pdfrwt>
<totfact> 0.12429580E+05</totfact>
</mgrwt>
</event>
<event>
 8    1  0.8247621E-014  0.7571496E+02  0.7818608E-02  0.1341671E+00
          1   -1    0    0  501    0  0.00000000000E+00  0.00000000000E+00  0.10272050220E+02  0.10272051456E+02  0.50400000000E-02 0. -1.
         -2   -1    0    0    0  501 -0.00000000000E+00 -0.00000000000E+00 -0.13952312133E+03  0.13952312135E+03  0.25500000000E-02 0.  1.
        -24    2    1    2    0    0  0.00000000000E+00  0.00000000000E+00 -0.12925107111E+03  0.14979517281E+03  0.75714955021E+02 0.  0.
         66    2    3    3    0    0 -0.37056587126E+02  0.44365306917E+01 -0.76915924390E+02  0.85515687744E+02  0.19999928675E+01 0.  0.
         13    1    3    3    0    0  0.37056587126E+02 -0.44365306917E+01 -0.52335146721E+02  0.64279485066E+02  0.10566000000E+00 0. -1.
         13    1    4    4    0    0 -0.16506103848E+02  0.20419737006E+01 -0.34056246889E+02  0.37900662752E+02  0.10566000000E+00 0. -1.
        -13    1    4    4    0    0 -0.18519398990E+02  0.23270408006E+01 -0.39510302673E+02  0.43697350482E+02  0.10566000000E+00 0.  1.
         14    1    4    4    0    0 -0.20310842881E+01  0.67516190518E-01 -0.33493748281E+01  0.39176745093E+01  0.00000000000E+00 0. -1.
<mgrwt>
<rscale>  0 0.75714955E+02</rscale>
<asrwt>0</asrwt>
<pdfrwt beam="1">  1        1 0.15803156E-02 0.75714955E+02</pdfrwt>
<pdfrwt beam="2">  1       -2 0.21465094E-01 0.75714955E+02</pdfrwt>
<totfact> 0.11141498E+05</totfact>
</mgrwt>
</event>
<event>
 8    1  0.8247621E-014  0.7726050E+02  0.7818608E-02  0.1337011E+00
          1   -1    0    0  501    0  0.00000000000E+00  0.00000000000E+00  0.51916825763E+01  0.51916850227E+01  0.50400000000E-02 0. -1.
         -2   -1    0    0    0  501 -0.00000000000E+00 -0.00000000000E+00 -0.28743975968E+03  0.28743975969E+03  0.25500000000E-02 0.  1.
        -24    2    1    2    0    0  0.00000000000E+00  0.00000000000E+00 -0.28224807711E+03  0.29263144472E+03  0.77260503536E+02 0.  0.
         66    2    3    3    0    0  0.22957415222E+02  0.80212287407E+01 -0.25477724359E+03  0.25594301490E+03  0.20000004766E+01 0.  0.
         13    1    3    3    0    0 -0.22957415222E+02 -0.80212287407E+01 -0.27470833521E+02  0.36688429819E+02  0.10566000000E+00 0. -1.
         13    1    4    4    0    0  0.82316839289E+01  0.36946767778E+01 -0.95010883726E+02  0.95438411801E+02  0.10566000000E+00 0. -1.
        -13    1    4    4    0    0  0.40039986642E+01  0.11932106910E+01 -0.39395149185E+02  0.39616217644E+02  0.10566000000E+00 0.  1.
        -14    1    4    4    0    0  0.10721732629E+02  0.31333412720E+01 -0.12037121067E+03  0.12088838545E+03  0.00000000000E+00 0.  1.
<mgrwt>
<rscale>  0 0.77260504E+02</rscale>
<asrwt>0</asrwt>
<pdfrwt beam="1">  1        1 0.79872081E-03 0.77260504E+02</pdfrwt>
<pdfrwt beam="2">  1       -2 0.44221489E-01 0.77260504E+02</pdfrwt>
<totfact> 0.78661614E+04</totfact>
</mgrwt>
</event>
<event>
 8    1  0.8247621E-014  0.7783725E+02  0.7818608E-02  0.1335304E+00
         -2   -1    0    0    0  501 -0.00000000000E+00  0.00000000000E+00  0.31752816978E+02  0.31752817080E+02  0.25500000000E-02 0.  1.
          1   -1    0    0  501    0  0.00000000000E+00 -0.00000000000E+00 -0.47701569333E+02  0.47701569599E+02  0.50400000000E-02 0. -1.
        -24    2    1    2    0    0  0.00000000000E+00  0.71054273576E-14 -0.15948752355E+02  0.79454386679E+02  0.77837245974E+02 0.  0.
         66    2    3    3    0    0 -0.27347001729E+01 -0.38719378896E+02 -0.54822895184E+01  0.39252062176E+02  0.19999998944E+01 0.  0.
         13    1    3    3    0    0  0.27347001729E+01  0.38719378896E+02 -0.10466462837E+02  0.40202324503E+02  0.10566000000E+00 0. -1.
         13    1    4    4    0    0 -0.13142732409E+00 -0.14209511034E+02 -0.18969083321E+01  0.14336558242E+02  0.10566000000E+00 0. -1.
        -13    1    4    4    0    0 -0.98152086287E+00 -0.11828399160E+02 -0.15710143678E+01  0.11973038882E+02  0.10566000000E+00 0.  1.
        -14    1    4    4    0    0 -0.16217519859E+01 -0.12681468702E+02 -0.20143668185E+01  0.12942465052E+02  0.00000000000E+00 0.  1.
<mgrwt>
<rscale>  0 0.77837246E+02</rscale>
<asrwt>0</asrwt>
<pdfrwt beam="1">  1        1 0.73387030E-02 0.77837246E+02</pdfrwt>
<pdfrwt beam="2">  1       -2 0.48850488E-02 0.77837246E+02</pdfrwt>
<totfact> 0.14094607E+05</totfact>
</mgrwt>
</event>
<event>
 8    1  0.8247621E-014  0.8136362E+02  0.7818608E-02  0.1325226E+00
          1   -1    0    0  501    0  0.00000000000E+00  0.00000000000E+00  0.30070394822E+02  0.30070395244E+02  0.50400000000E-02 0. -1.
         -2   -1    0    0    0  501 -0.00000000000E+00 -0.00000000000E+00 -0.55037835418E+02  0.55037835477E+02  0.25500000000E-02 0.  1.
        -24    2    1    2    0    0  0.00000000000E+00  0.35527136788E-14 -0.24967440596E+02  0.85108230721E+02  0.81363615005E+02 0.  0.
         66    2    3    3    0    0  0.74552782537E+01 -0.30890732182E+02 -0.39019553563E+02  0.50362129481E+02  0.20000042510E+01 0.  0.
         13    1    3    3    0    0 -0.74552782537E+01  0.30890732182E+02  0.14052112967E+02  0.34746101241E+02  0.10566000000E+00 0. -1.
         13    1    4    4    0    0  0.20062156289E+00 -0.18358618337E+01 -0.27722810510E+01  0.33327682105E+01  0.10566000000E+00 0. -1.
        -13    1    4    4    0    0  0.35058477154E+01 -0.13465024839E+02 -0.17616377763E+02  0.22448736972E+02  0.10566000000E+00 0.  1.
         14    1    4    4    0    0  0.37488089754E+01 -0.15589845509E+02 -0.18630894749E+02  0.24580624299E+02  0.00000000000E+00 0. -1.
<mgrwt>
<rscale>  0 0.81363615E+02</rscale>
<asrwt>0</asrwt>
<pdfrwt beam="1">  1        1 0.46262146E-02 0.81363615E+02</pdfrwt>
<pdfrwt beam="2">  1       -2 0.84673593E-02 0.81363615E+02</pdfrwt>
<totfact> 0.11525162E+05</totfact>
</mgrwt>
</event>
<event>
 8    1  0.8247621E-014  0.7842557E+02  0.7818608E-02  0.1333580E+00
         -2   -1    0    0    0  501 -0.00000000000E+00  0.00000000000E+00  0.33052385798E+02  0.33052385897E+02  0.25500000000E-02 0.  1.
          1   -1    0    0  501    0  0.00000000000E+00 -0.00000000000E+00 -0.46521373719E+02  0.46521373992E+02  0.50400000000E-02 0. -1.
        -24    2    1    2    0    0  0.35527136788E-14 -0.35527136788E-14 -0.13468987920E+02  0.79573759888E+02  0.78425567433E+02 0.  0.
         66    2    3    3    0    0 -0.21459399175E+02  0.24905672914E+02  0.14900333990E+02  0.36149942162E+02  0.20000022676E+01 0.  0.
         13    1    3    3    0    0  0.21459399175E+02 -0.24905672914E+02 -0.28369321910E+02  0.43423817726E+02  0.10566000000E+00 0. -1.
         13    1    4    4    0    0 -0.15243088842E+01  0.21082777769E+01  0.82018638942E+00  0.27298759144E+01  0.10566000000E+00 0. -1.
        -13    1    4    4    0    0 -0.10863081100E+02  0.11654446353E+02  0.77821919802E+01  0.17731506615E+02  0.10566000000E+00 0.  1.
        -14    1    4    4    0    0 -0.90720091914E+01  0.11142948784E+02  0.62979556200E+01  0.15688559633E+02  0.00000000000E+00 0.  1.
<mgrwt>
<rscale>  0 0.78425567E+02</rscale>
<asrwt>0</asrwt>
<pdfrwt beam="1">  1        1 0.71571344E-02 0.78425567E+02</pdfrwt>
<pdfrwt beam="2">  1       -2 0.50849825E-02 0.78425567E+02</pdfrwt>
<totfact> 0.13749389E+05</totfact>
</mgrwt>
</event>
<event>
 8    1  0.8247621E-014  0.7922248E+02  0.7818608E-02  0.1331273E+00
         -2   -1    0    0    0  501 -0.00000000000E+00  0.00000000000E+00  0.18363321838E+02  0.18363322015E+02  0.25500000000E-02 0.  1.
          1   -1    0    0  501    0  0.00000000000E+00 -0.00000000000E+00 -0.85444802619E+02  0.85444802768E+02  0.50400000000E-02 0. -1.
        -24    2    1    2    0    0  0.00000000000E+00  0.35527136788E-14 -0.67081480781E+02  0.10380812478E+03  0.79222482334E+02 0.  0.
         66    2    3    3    0    0 -0.13906811264E+01 -0.30753195754E+02 -0.95198046654E+00  0.30864207840E+02  0.20000039308E+01 0.  0.
         13    1    3    3    0    0  0.13906811264E+01  0.30753195754E+02 -0.66129500314E+02  0.72943916942E+02  0.10566000000E+00 0. -1.
         13    1    4    4    0    0 -0.62988620358E+00 -0.15723351875E+02  0.14068093112E+00  0.15736947162E+02  0.10566000000E+00 0. -1.
        -13    1    4    4    0    0 -0.38587105809E+00 -0.32918919130E+01  0.13822616068E+00  0.33189937252E+01  0.10566000000E+00 0.  1.
         14    1    4    4    0    0 -0.37492386477E+00 -0.11737951966E+02 -0.12308875583E+01  0.11808266953E+02  0.00000000000E+00 0. -1.
<mgrwt>
<rscale>  0 0.79222482E+02</rscale>
<asrwt>0</asrwt>
<pdfrwt beam="1">  1        1 0.13145354E-01 0.79222482E+02</pdfrwt>
<pdfrwt beam="2">  1       -2 0.28251265E-02 0.79222482E+02</pdfrwt>
<totfact> 0.14706223E+05</totfact>
</mgrwt>
</event>
<event>
 8    1  0.8247621E-014  0.7826648E+02  0.7818608E-02  0.1334044E+00
          1   -1    0    0  501    0  0.00000000000E+00  0.00000000000E+00  0.29243034168E+01  0.29243077600E+01  0.50400000000E-02 0. -1.
         -2   -1    0    0    0  501 -0.00000000000E+00 -0.00000000000E+00 -0.52368352461E+03  0.52368352462E+03  0.25500000000E-02 0.  1.
        -24    2    1    2    0    0  0.00000000000E+00 -0.22204460493E-15 -0.52075922119E+03  0.52660783238E+03  0.78266484923E+02 0.  0.
         66    2    3    3    0    0  0.28256284007E+02 -0.14597979568E+01 -0.44219802764E+03  0.44310680907E+03  0.20000007781E+01 0.  0.
         13    1    3    3    0    0 -0.28256284007E+02  0.14597979568E+01 -0.78561193556E+02  0.83501023304E+02  0.10566000000E+00 0. -1.
         13    1    4    4    0    0  0.19683537846E+01 -0.24742667964E+00 -0.37962702286E+02  0.38014649353E+02  0.10566000000E+00 0. -1.
        -13    1    4    4    0    0  0.46038994300E+01 -0.49546445689E-01 -0.75708077811E+02  0.75848022747E+02  0.10566000000E+00 0.  1.
        -14    1    4    4    0    0  0.21684030793E+02 -0.11628248314E+01 -0.32852724754E+03  0.32924413697E+03  0.00000000000E+00 0.  1.
<mgrwt>
<rscale>  0 0.78266485E+02</rscale>
<asrwt>0</asrwt>
<pdfrwt beam="1">  1        1 0.44989358E-03 0.78266485E+02</pdfrwt>
<pdfrwt beam="2">  1       -2 0.80566622E-01 0.78266485E+02</pdfrwt>
<totfact> 0.51432594E+04</totfact>
</mgrwt>
</event>
<event>
 8    1  0.8247621E-014  0.7998255E+02  0.7818608E-02  0.1329101E+00
         -2   -1    0    0    0  501 -0.00000000000E+00  0.00000000000E+00  0.30151191010E+01  0.30151201793E+01  0.25500000000E-02 0.  1.
          1   -1    0    0  501    0  0.00000000000E+00 -0.00000000000E+00 -0.53042739300E+03  0.53042739302E+03  0.50400000000E-02 0. -1.
        -24    2    1    2    0    0 -0.35527136788E-14  0.35527136788E-14 -0.52741227390E+03  0.53344251320E+03  0.79982549555E+02 0.  0.
         66    2    3    3    0    0 -0.31242271896E+02  0.23721200149E+02 -0.31489200732E+03  0.31733224098E+03  0.20000003384E+01 0.  0.
         13    1    3    3    0    0  0.31242271896E+02 -0.23721200149E+02 -0.21252026658E+03  0.21611027222E+03  0.10566000000E+00 0. -1.
         13    1    4    4    0    0 -0.70363182332E+01  0.46931200267E+01 -0.65326028664E+02  0.65871362024E+02  0.10566000000E+00 0. -1.
        -13    1    4    4    0    0 -0.18647921136E+02  0.14937616352E+02 -0.18997239546E+03  0.19146905637E+03  0.10566000000E+00 0.  1.
        -14    1    4    4    0    0 -0.55580325273E+01  0.40904637703E+01 -0.59593583194E+02  0.59991822588E+02  0.00000000000E+00 0.  1.
<mgrwt>
<rscale>  0 0.79982550E+02</rscale>
<asrwt>0</asrwt>
<pdfrwt beam="1">  1        1 0.81604140E-01 0.79982550E+02</pdfrwt>
<pdfrwt beam="2">  1       -2 0.46386498E-03 0.79982550E+02</pdfrwt>
<totfact> 0.19747503E+05</totfact>
</mgrwt>
</event>
<event>
 8    1  0.8247621E-014  0.7928131E+02  0.7818608E-02  0.1331103E+00
         -2   -1    0    0    0  501 -0.00000000000E+00  0.00000000000E+00  0.71255101515E+01  0.71255106078E+01  0.25500000000E-02 0.  1.
          1   -1    0    0  501    0  0.00000000000E+00 -0.00000000000E+00 -0.22052895813E+03  0.22052895818E+03  0.50400000000E-02 0. -1.
        -24    2    1    2    0    0  0.00000000000E+00  0.00000000000E+00 -0.21340344798E+03  0.22765446879E+03  0.79281306456E+02 0.  0.
         66    2    3    3    0    0  0.38117618079E+02  0.60455405596E+01 -0.81106225777E+02  0.89842758353E+02  0.20000000239E+01 0.  0.
         13    1    3    3    0    0 -0.38117618079E+02 -0.60455405596E+01 -0.13229722220E+03  0.13781171044E+03  0.10566000000E+00 0. -1.
         13    1    4    4    0    0  0.10334360214E+02  0.11004790513E+01 -0.21041141974E+02  0.23468082043E+02  0.10566000000E+00 0. -1.
        -13    1    4    4    0    0  0.21259541133E+02  0.34783201868E+01 -0.44869084238E+02  0.49772609786E+02  0.10566000000E+00 0.  1.
         14    1    4    4    0    0  0.65237167319E+01  0.14667413215E+01 -0.15195999566E+02  0.16602066525E+02  0.00000000000E+00 0. -1.
<mgrwt>
<rscale>  0 0.79281306E+02</rscale>
<asrwt>0</asrwt>
<pdfrwt beam="1">  1        1 0.33927527E-01 0.79281306E+02</pdfrwt>
<pdfrwt beam="2">  1       -2 0.10962325E-02 0.79281306E+02</pdfrwt>
<totfact> 0.17405314E+05</totfact>
</mgrwt>
</event>
<event>
 8    1  0.8247621E-014  0.7871766E+02  0.7818608E-02  0.1332730E+00
         -2   -1    0    0    0  501 -0.00000000000E+00  0.00000000000E+00  0.19872931745E+03  0.19872931747E+03  0.25500000000E-02 0.  1.
          1   -1    0    0  501    0  0.00000000000E+00 -0.00000000000E+00 -0.77951117817E+01  0.77951134111E+01  0.50400000000E-02 0. -1.
        -24    2    1    2    0    0  0.00000000000E+00  0.00000000000E+00  0.19093420567E+03  0.20652443088E+03  0.78717657836E+02 0.  0.
         66    2    3    3    0    0  0.83270747828E+01 -0.32449655673E+02  0.14960243482E+03  0.15332060796E+03  0.19999982821E+01 0.  0.
         13    1    3    3    0    0 -0.83270747828E+01  0.32449655673E+02  0.41331770853E+02  0.53203822923E+02  0.10566000000E+00 0. -1.
         13    1    4    4    0    0  0.20717896749E+01 -0.75658447840E+01  0.33168067516E+02  0.34083224415E+02  0.10566000000E+00 0. -1.
        -13    1    4    4    0    0  0.39560841677E+01 -0.14922337470E+02  0.66738158406E+02  0.68500508822E+02  0.10566000000E+00 0.  1.
        -14    1    4    4    0    0  0.22992009401E+01 -0.99614734194E+01  0.49696208897E+02  0.50736874720E+02  0.00000000000E+00 0.  1.
<mgrwt>
<rscale>  0 0.78717658E+02</rscale>
<asrwt>0</asrwt>
<pdfrwt beam="1">  1        1 0.11992482E-02 0.78717658E+02</pdfrwt>
<pdfrwt beam="2">  1       -2 0.30573739E-01 0.78717658E+02</pdfrwt>
<totfact> 0.88924348E+04</totfact>
</mgrwt>
</event>
<event>
 8    1  0.8247621E-014  0.7975173E+02  0.7818608E-02  0.1329757E+00
         -2   -1    0    0    0  501 -0.00000000000E+00  0.00000000000E+00  0.61168564597E+01  0.61168569912E+01  0.25500000000E-02 0.  1.
          1   -1    0    0  501    0  0.00000000000E+00 -0.00000000000E+00 -0.25995123461E+03  0.25995123466E+03  0.50400000000E-02 0. -1.
        -24    2    1    2    0    0 -0.35527136788E-14  0.00000000000E+00 -0.25383437815E+03  0.26606809165E+03  0.79751726398E+02 0.  0.
         66    2    3    3    0    0 -0.20160753165E+02 -0.34269919312E+02 -0.11804718821E+03  0.12457938025E+03  0.20000003327E+01 0.  0.
         13    1    3    3    0    0  0.20160753165E+02  0.34269919312E+02 -0.13578718995E+03  0.14148871141E+03  0.10566000000E+00 0. -1.
         13    1    4    4    0    0 -0.33428186406E+01 -0.59262402381E+01 -0.18262959181E+02  0.19489525441E+02  0.10566000000E+00 0. -1.
        -13    1    4    4    0    0 -0.37193903468E+01 -0.55986573286E+01 -0.20269048489E+02  0.21354725920E+02  0.10566000000E+00 0.  1.
         14    1    4    4    0    0 -0.13098544178E+02 -0.22745021745E+02 -0.79515180536E+02  0.83735128885E+02  0.00000000000E+00 0. -1.
<mgrwt>
<rscale>  0 0.79751726E+02</rscale>
<asrwt>0</asrwt>
<pdfrwt beam="1">  1        1 0.39992489E-01 0.79751726E+02</pdfrwt>
<pdfrwt beam="2">  1       -2 0.94105508E-03 0.79751726E+02</pdfrwt>
<totfact> 0.17693025E+05</totfact>
</mgrwt>
</event>
<event>
 8    1  0.8247621E-014  0.7846573E+02  0.7818608E-02  0.1333463E+00
         -2   -1    0    0    0  501 -0.00000000000E+00  0.00000000000E+00  0.52930871764E+02  0.52930871825E+02  0.25500000000E-02 0.  1.
          1   -1    0    0  501    0  0.00000000000E+00 -0.00000000000E+00 -0.29079769139E+02  0.29079769576E+02  0.50400000000E-02 0. -1.
        -24    2    1    2    0    0  0.00000000000E+00  0.35527136788E-14  0.23851102625E+02  0.82010641401E+02  0.78465726318E+02 0.  0.
         66    2    3    3    0    0  0.29661894026E+02 -0.25637237556E+02  0.11576219286E+02  0.40928043726E+02  0.20000008858E+01 0.  0.
         13    1    3    3    0    0 -0.29661894026E+02  0.25637237556E+02  0.12274883339E+02  0.41082597675E+02  0.10566000000E+00 0. -1.
         13    1    4    4    0    0  0.11519296124E+01 -0.14731507266E+01  0.70347978494E+00  0.20007905285E+01  0.10566000000E+00 0. -1.
        -13    1    4    4    0    0  0.19360490332E+02 -0.16186333378E+02  0.75823884855E+01  0.26350137634E+02  0.10566000000E+00 0.  1.
         14    1    4    4    0    0  0.91494740816E+01 -0.79777534513E+01  0.32903510155E+01  0.12577115564E+02  0.00000000000E+00 0. -1.
<mgrwt>
<rscale>  0 0.78465726E+02</rscale>
<asrwt>0</asrwt>
<pdfrwt beam="1">  1        1 0.44738107E-02 0.78465726E+02</pdfrwt>
<pdfrwt beam="2">  1       -2 0.81432110E-02 0.78465726E+02</pdfrwt>
<totfact> 0.12716468E+05</totfact>
</mgrwt>
</event>
<event>
 8    1  0.8247621E-014  0.8092710E+02  0.7818608E-02  0.1326441E+00
         -2   -1    0    0    0  501 -0.00000000000E+00  0.00000000000E+00  0.16436988725E+02  0.16436988923E+02  0.25500000000E-02 0.  1.
          1   -1    0    0  501    0  0.00000000000E+00 -0.00000000000E+00 -0.99610644699E+02  0.99610644826E+02  0.50400000000E-02 0. -1.
        -24    2    1    2    0    0 -0.35527136788E-14  0.00000000000E+00 -0.83173655973E+02  0.11604763375E+03  0.80927104550E+02 0.  0.
         66    2    3    3    0    0  0.26760803129E+02 -0.16724324082E+02 -0.53506582604E+01  0.32069816814E+02  0.20000016342E+01 0.  0.
         13    1    3    3    0    0 -0.26760803129E+02  0.16724324082E+02 -0.77822997713E+02  0.83977816935E+02  0.10566000000E+00 0. -1.
         13    1    4    4    0    0  0.13309773811E+02 -0.84790344631E+01 -0.33328619240E+01  0.16129576466E+02  0.10566000000E+00 0. -1.
        -13    1    4    4    0    0  0.13014666717E+01 -0.11469737465E+01 -0.12705890319E+00  0.17426050250E+01  0.10566000000E+00 0.  1.
        -14    1    4    4    0    0  0.12149562646E+02 -0.70983158727E+01 -0.18907374332E+01  0.14197635323E+02  0.00000000000E+00 0.  1.
<mgrwt>
<rscale>  0 0.80927105E+02</rscale>
<asrwt>0</asrwt>
<pdfrwt beam="1">  1        1 0.15324714E-01 0.80927105E+02</pdfrwt>
<pdfrwt beam="2">  1       -2 0.25287676E-02 0.80927105E+02</pdfrwt>
<totfact> 0.14238707E+05</totfact>
</mgrwt>
</event>
<event>
 8    1  0.8247621E-014  0.8085368E+02  0.7818608E-02  0.1326646E+00
         -2   -1    0    0    0  501 -0.00000000000E+00  0.00000000000E+00  0.55894970235E+01  0.55894976051E+01  0.25500000000E-02 0.  1.
          1   -1    0    0  501    0  0.00000000000E+00 -0.00000000000E+00 -0.29239288722E+03  0.29239288726E+03  0.50400000000E-02 0. -1.
        -24    2    1    2    0    0  0.00000000000E+00  0.00000000000E+00 -0.28680339019E+03  0.29798238487E+03  0.80853676872E+02 0.  0.
         66    2    3    3    0    0 -0.93115068258E+01  0.37075195763E+02 -0.19168978272E+03  0.19547441546E+03  0.20000003385E+01 0.  0.
         13    1    3    3    0    0  0.93115068258E+01 -0.37075195763E+02 -0.95113607476E+02  0.10250796940E+03  0.10566000000E+00 0. -1.
         13    1    4    4    0    0 -0.40340794510E+01  0.13875870183E+02 -0.71281876453E+02  0.72731909401E+02  0.10566000000E+00 0. -1.
        -13    1    4    4    0    0 -0.20438389220E+01  0.73335566960E+01 -0.36207208540E+02  0.36999073579E+02  0.10566000000E+00 0.  1.
         14    1    4    4    0    0 -0.32335884527E+01  0.15865768884E+02 -0.84200697726E+02  0.85743432484E+02  0.00000000000E+00 0. -1.
<mgrwt>
<rscale>  0 0.80853677E+02</rscale>
<asrwt>0</asrwt>
<pdfrwt beam="1">  1        1 0.44983509E-01 0.80853677E+02</pdfrwt>
<pdfrwt beam="2">  1       -2 0.85992289E-03 0.80853677E+02</pdfrwt>
<totfact> 0.17457409E+05</totfact>
</mgrwt>
</event>
<event>
 8    1  0.8247621E-014  0.8094905E+02  0.7818608E-02  0.1326380E+00
         -2   -1    0    0    0  501 -0.00000000000E+00  0.00000000000E+00  0.61786596967E+03  0.61786596968E+03  0.25500000000E-02 0.  1.
          1   -1    0    0  501    0  0.00000000000E+00 -0.00000000000E+00 -0.26513608919E+01  0.26513656822E+01  0.50400000000E-02 0. -1.
        -24    2    1    2    0    0 -0.17763568394E-14  0.00000000000E+00  0.61521460878E+03  0.62051733536E+03  0.80949049562E+02 0.  0.
         66    2    3    3    0    0  0.11053761796E+02  0.35158983010E+02  0.43556825055E+03  0.43712931796E+03  0.19999993427E+01 0.  0.
         13    1    3    3    0    0 -0.11053761796E+02 -0.35158983010E+02  0.17964635823E+03  0.18338801740E+03  0.10566000000E+00 0. -1.
         13    1    4    4    0    0  0.60018143094E+00  0.31649035712E+01  0.39712829806E+02  0.39843404066E+02  0.10566000000E+00 0. -1.
        -13    1    4    4    0    0  0.55852253462E+01  0.16818512493E+02  0.21593513809E+03  0.21666114588E+03  0.10566000000E+00 0.  1.
        -14    1    4    4    0    0  0.48683550190E+01  0.15175566945E+02  0.17992028264E+03  0.18062476801E+03  0.00000000000E+00 0.  1.
<mgrwt>
<rscale>  0 0.80949050E+02</rscale>
<asrwt>0</asrwt>
<pdfrwt beam="1">  1        1 0.40790210E-03 0.80949050E+02</pdfrwt>
<pdfrwt beam="2">  1       -2 0.95056291E-01 0.80949050E+02</pdfrwt>
<totfact> 0.41108543E+04</totfact>
</mgrwt>
</event>
<event>
 8    1  0.8247621E-014  0.8169403E+02  0.7818608E-02  0.1324312E+00
         -2   -1    0    0    0  501 -0.00000000000E+00  0.00000000000E+00  0.84436422867E+01  0.84436426718E+01  0.25500000000E-02 0.  1.
          1   -1    0    0  501    0  0.00000000000E+00 -0.00000000000E+00 -0.19760174887E+03  0.19760174893E+03  0.50400000000E-02 0. -1.
        -24    2    1    2    0    0 -0.35527136788E-14  0.00000000000E+00 -0.18915810658E+03  0.20604539161E+03  0.81694027419E+02 0.  0.
         66    2    3    3    0    0 -0.22151041568E+02 -0.29860187623E+02 -0.52118362763E+02  0.64051722741E+02  0.20000003826E+01 0.  0.
         13    1    3    3    0    0  0.22151041568E+02  0.29860187623E+02 -0.13703974382E+03  0.14199366886E+03  0.10566000000E+00 0. -1.
         13    1    4    4    0    0 -0.94149699247E+01 -0.12685962908E+02 -0.20786432283E+02  0.26108662253E+02  0.10566000000E+00 0.  1.
        -13    1    4    4    0    0 -0.66719482376E+01 -0.91441183406E+01 -0.17363409823E+02  0.20727492811E+02  0.10566000000E+00 0.  1.
        -14    1    4    4    0    0 -0.60641234060E+01 -0.80301063749E+01 -0.13968520658E+02  0.17215567677E+02  0.00000000000E+00 0.  1.
<mgrwt>
<rscale>  0 0.81694027E+02</rscale>
<asrwt>0</asrwt>
<pdfrwt beam="1">  1        1 0.30400266E-01 0.81694027E+02</pdfrwt>
<pdfrwt beam="2">  1       -2 0.12990221E-02 0.81694027E+02</pdfrwt>
<totfact> 0.15733528E+05</totfact>
</mgrwt>
</event>
<event>
 8    1  0.8247621E-014  0.8150596E+02  0.7818608E-02  0.1324831E+00
         -2   -1    0    0    0  501 -0.00000000000E+00  0.00000000000E+00  0.84326469215E+01  0.84326473071E+01  0.25500000000E-02 0.  1.
          1   -1    0    0  501    0  0.00000000000E+00 -0.00000000000E+00 -0.19694944857E+03  0.19694944863E+03  0.50400000000E-02 0. -1.
        -24    2    1    2    0    0  0.00000000000E+00 -0.88817841970E-15 -0.18851680165E+03  0.20538209594E+03  0.81505955792E+02 0.  0.
         66    2    3    3    0    0  0.37157641330E+02  0.31998851178E+01 -0.53073368598E+02  0.64897704302E+02  0.19999988140E+01 0.  0.
         13    1    3    3    0    0 -0.37157641330E+02 -0.31998851178E+01 -0.13544343305E+03  0.14048439164E+03  0.10566000000E+00 0. -1.
         13    1    4    4    0    0  0.67635372641E+01  0.77735853912E+00 -0.95042428893E+01  0.11691514853E+02  0.10566000000E+00 0. -1.
        -13    1    4    4    0    0  0.30158196709E+02  0.24298908953E+01 -0.42895722423E+02  0.52492622002E+02  0.10566000000E+00 0.  1.
         14    1    4    4    0    0  0.23590735743E+00 -0.73643166110E-02 -0.67340328641E+00  0.71356744643E+00  0.00000000000E+00 0. -1.
<mgrwt>
<rscale>  0 0.81505956E+02</rscale>
<asrwt>0</asrwt>
<pdfrwt beam="1">  1        1 0.30299912E-01 0.81505956E+02</pdfrwt>
<pdfrwt beam="2">  1       -2 0.12973305E-02 0.81505956E+02</pdfrwt>
<totfact> 0.15820144E+05</totfact>
</mgrwt>
</event>
<event>
 8    1  0.8247621E-014  0.8040863E+02  0.7818608E-02  0.1327896E+00
         -2   -1    0    0    0  501 -0.00000000000E+00  0.00000000000E+00  0.91083326297E+01  0.91083329867E+01  0.25500000000E-02 0.  1.
          1   -1    0    0  501    0  0.00000000000E+00 -0.00000000000E+00 -0.17746243373E+03  0.17746243380E+03  0.50400000000E-02 0. -1.
        -24    2    1    2    0    0  0.00000000000E+00 -0.35527136788E-14 -0.16835410110E+03  0.18657076679E+03  0.80408629280E+02 0.  0.
         66    2    3    3    0    0 -0.35585943273E+02 -0.18557420883E+02 -0.79799280446E+02  0.89345746071E+02  0.19999881944E+01 0.  0.
         13    1    3    3    0    0  0.35585943273E+02  0.18557420883E+02 -0.88554820657E+02  0.97225020720E+02  0.10566000000E+00 0. -1.
         13    1    4    4    0    0 -0.11209588942E+02 -0.49762973201E+01 -0.24061677679E+02  0.27007293756E+02  0.10566000000E+00 0. -1.
        -13    1    4    4    0    0 -0.11725584085E+02 -0.60468300767E+01 -0.26291640016E+02  0.29416236586E+02  0.10566000000E+00 0.  1.
         14    1    4    4    0    0 -0.12650770246E+02 -0.75342934860E+01 -0.29445962751E+02  0.32922215729E+02  0.00000000000E+00 0. -1.
<mgrwt>
<rscale>  0 0.80408629E+02</rscale>
<asrwt>0</asrwt>
<pdfrwt beam="1">  1        1 0.27301910E-01 0.80408629E+02</pdfrwt>
<pdfrwt beam="2">  1       -2 0.14012821E-02 0.80408629E+02</pdfrwt>
<totfact> 0.16074512E+05</totfact>
</mgrwt>
</event>
<event>
 8    1  0.8247621E-014  0.8011689E+02  0.7818608E-02  0.1328720E+00
          1   -1    0    0  501    0  0.00000000000E+00  0.00000000000E+00  0.27322994815E+02  0.27322995279E+02  0.50400000000E-02 0. -1.
         -2   -1    0    0    0  501 -0.00000000000E+00 -0.00000000000E+00 -0.58729983497E+02  0.58729983553E+02  0.25500000000E-02 0.  1.
        -24    2    1    2    0    0  0.17763568394E-14  0.00000000000E+00 -0.31406988683E+02  0.86052978832E+02  0.80116891027E+02 0.  0.
         66    2    3    3    0    0  0.14819232997E+02  0.36788284907E+02 -0.98610219251E+01  0.40917323076E+02  0.20000003247E+01 0.  0.
         13    1    3    3    0    0 -0.14819232997E+02 -0.36788284907E+02 -0.21545966758E+02  0.45135655756E+02  0.10566000000E+00 0. -1.
         13    1    4    4    0    0  0.28431772036E+00  0.15110474779E+01 -0.26091602500E+00  0.15631193986E+01  0.10566000000E+00 0. -1.
        -13    1    4    4    0    0  0.63407643310E+01  0.14472661046E+02 -0.36904611586E+01  0.16226332847E+02  0.10566000000E+00 0.  1.
        -14    1    4    4    0    0  0.81941509454E+01  0.20804576383E+02 -0.59096447415E+01  0.23127870830E+02  0.00000000000E+00 0.  1.
<mgrwt>
<rscale>  0 0.80116891E+02</rscale>
<asrwt>0</asrwt>
<pdfrwt beam="1">  1        1 0.42035377E-02 0.80116891E+02</pdfrwt>
<pdfrwt beam="2">  1       -2 0.90353821E-02 0.80116891E+02</pdfrwt>
<totfact> 0.11842273E+05</totfact>
</mgrwt>
</event>
<event>
 8    1  0.8247621E-014  0.8586298E+02  0.7818608E-02  0.1313191E+00
         -2   -1    0    0    0  501 -0.00000000000E+00  0.00000000000E+00  0.72948990945E+02  0.72948990990E+02  0.25500000000E-02 0.  1.
          1   -1    0    0  501    0  0.00000000000E+00 -0.00000000000E+00 -0.25265772967E+02  0.25265773470E+02  0.50400000000E-02 0. -1.
        -24    2    1    2    0    0  0.35527136788E-14 -0.44408920985E-15  0.47683217978E+02  0.98214764459E+02  0.85862976195E+02 0.  0.
         66    2    3    3    0    0 -0.23749216365E+02  0.32893901649E+01  0.64558094529E+02  0.68895521832E+02  0.19999983943E+01 0.  0.
         13    1    3    3    0    0  0.23749216365E+02 -0.32893901649E+01 -0.16874876551E+02  0.29319242628E+02  0.10566000000E+00 0. -1.
         13    1    4    4    0    0 -0.67304883971E+00  0.12901516454E+00  0.29131721469E+01  0.29945576712E+01  0.10566000000E+00 0. -1.
        -13    1    4    4    0    0 -0.34914631059E+01  0.37276599210E+00  0.97375054741E+01  0.10351784677E+02  0.10566000000E+00 0. -1.
        -14    1    4    4    0    0 -0.19584704420E+02  0.27876090082E+01  0.51907416908E+02  0.55549179483E+02  0.00000000000E+00 0.  1.
<mgrwt>
<rscale>  0 0.85862976E+02</rscale>
<asrwt>0</asrwt>
<pdfrwt beam="1">  1        1 0.38870421E-02 0.85862976E+02</pdfrwt>
<pdfrwt beam="2">  1       -2 0.11222922E-01 0.85862976E+02</pdfrwt>
<totfact> 0.95183125E+04</totfact>
</mgrwt>
</event>
<event>
 8    1  0.8247621E-014  0.7850583E+02  0.7818608E-02  0.1333346E+00
          1   -1    0    0  501    0  0.00000000000E+00  0.00000000000E+00  0.12880935548E+02  0.12880936534E+02  0.50400000000E-02 0. -1.
         -2   -1    0    0    0  501 -0.00000000000E+00 -0.00000000000E+00 -0.11961794922E+03  0.11961794925E+03  0.25500000000E-02 0.  1.
        -24    2    1    2    0    0  0.00000000000E+00  0.17763568394E-14 -0.10673701367E+03  0.13249888578E+03  0.78505825553E+02 0.  0.
         66    2    3    3    0    0  0.18242525998E+02  0.81677081518E+01 -0.11037046496E+03  0.11218351368E+03  0.19999984510E+01 0.  0.
         13    1    3    3    0    0 -0.18242525998E+02 -0.81677081518E+01  0.36334512938E+01  0.20315372101E+02  0.10566000000E+00 0. -1.
         13    1    4    4    0    0  0.10191396822E+02  0.45031503648E+01 -0.63397209676E+02  0.64368938869E+02  0.10566000000E+00 0. -1.
        -13    1    4    4    0    0  0.78254407160E+01  0.36230206858E+01 -0.44310331337E+02  0.45141781406E+02  0.10566000000E+00 0.  1.
         14    1    4    4    0    0  0.22568846007E+00  0.41537101192E-01 -0.26629239505E+01  0.26727934035E+01  0.00000000000E+00 0. -1.
<mgrwt>
<rscale>  0 0.78505826E+02</rscale>
<asrwt>0</asrwt>
<pdfrwt beam="1">  1        1 0.19816826E-02 0.78505826E+02</pdfrwt>
<pdfrwt beam="2">  1       -2 0.18402761E-01 0.78505826E+02</pdfrwt>
<totfact> 0.10625279E+05</totfact>
</mgrwt>
</event>
<event>
 8    1  0.8247621E-014  0.7524698E+02  0.7818608E-02  0.1343108E+00
          1   -1    0    0  501    0  0.00000000000E+00  0.00000000000E+00  0.60353556326E+01  0.60353577370E+01  0.50400000000E-02 0. -1.
         -2   -1    0    0    0  501 -0.00000000000E+00 -0.00000000000E+00 -0.23453905191E+03  0.23453905192E+03  0.25500000000E-02 0.  1.
        -24    2    1    2    0    0  0.35527136788E-14  0.35527136788E-14 -0.22850369628E+03  0.24057440966E+03  0.75246975828E+02 0.  0.
         66    2    3    3    0    0  0.24884747021E+02 -0.25709742790E+02 -0.15124229925E+03  0.15542996684E+03  0.20000001949E+01 0.  0.
         13    1    3    3    0    0 -0.24884747021E+02  0.25709742790E+02 -0.77261397026E+02  0.85144442820E+02  0.10566000000E+00 0. -1.
         13    1    4    4    0    0  0.10052923073E+01 -0.16122969445E+01 -0.83810017534E+01  0.85943276925E+01  0.10566000000E+00 0. -1.
        -13    1    4    4    0    0  0.38139374468E+01 -0.35426594717E+01 -0.22069747700E+02  0.22675570170E+02  0.10566000000E+00 0.  1.
        -14    1    4    4    0    0  0.20065517267E+02 -0.20554786374E+02 -0.12079154980E+03  0.12416006898E+03  0.00000000000E+00 0.  1.
<mgrwt>
<rscale>  0 0.75246976E+02</rscale>
<asrwt>0</asrwt>
<pdfrwt beam="1">  1        1 0.92851660E-03 0.75246976E+02</pdfrwt>
<pdfrwt beam="2">  1       -2 0.36082924E-01 0.75246976E+02</pdfrwt>
<totfact> 0.93022548E+04</totfact>
</mgrwt>
</event>
<event>
 8    1  0.8247621E-014  0.7951863E+02  0.7818608E-02  0.1330423E+00
          1   -1    0    0  501    0  0.00000000000E+00  0.00000000000E+00  0.89334457895E+01  0.89334472112E+01  0.50400000000E-02 0. -1.
         -2   -1    0    0    0  501 -0.00000000000E+00 -0.00000000000E+00 -0.17695332612E+03  0.17695332614E+03  0.25500000000E-02 0.  1.
        -24    2    1    2    0    0 -0.17763568394E-14  0.00000000000E+00 -0.16801988033E+03  0.18588677335E+03  0.79518628761E+02 0.  0.
         66    2    3    3    0    0  0.68692972200E+01  0.30872095360E+02 -0.27836503618E+02  0.42179905779E+02  0.20000004221E+01 0.  0.
         13    1    3    3    0    0 -0.68692972200E+01 -0.30872095360E+02 -0.14018337671E+03  0.14370686757E+03  0.10566000000E+00 0. -1.
         13    1    4    4    0    0  0.14019674151E+01  0.76821735660E+01 -0.67138519252E+01  0.10298945336E+02  0.10566000000E+00 0. -1.
        -13    1    4    4    0    0  0.13502444843E+01  0.90776228552E+01 -0.82442627846E+01  0.12337156470E+02  0.10566000000E+00 0.  1.
         14    1    4    4    0    0  0.41170853207E+01  0.14112298939E+02 -0.12878388908E+02  0.19543803973E+02  0.00000000000E+00 0. -1.
<mgrwt>
<rscale>  0 0.79518629E+02</rscale>
<asrwt>0</asrwt>
<pdfrwt beam="1">  1        1 0.13743765E-02 0.79518629E+02</pdfrwt>
<pdfrwt beam="2">  1       -2 0.27223586E-01 0.79518629E+02</pdfrwt>
<totfact> 0.90614786E+04</totfact>
</mgrwt>
</event>
<event>
 8    1  0.8247621E-014  0.8019437E+02  0.7818608E-02  0.1328501E+00
          1   -1    0    0  501    0  0.00000000000E+00  0.00000000000E+00  0.80574799711E+02  0.80574799869E+02  0.50400000000E-02 0. -1.
         -2   -1    0    0    0  501 -0.00000000000E+00 -0.00000000000E+00 -0.19953935821E+02  0.19953935984E+02  0.25500000000E-02 0.  1.
        -24    2    1    2    0    0 -0.17763568394E-14  0.00000000000E+00  0.60620863890E+02  0.10052873585E+03  0.80194373827E+02 0.  0.
         66    2    3    3    0    0 -0.15711797351E+02 -0.36859120544E+02  0.31042880657E+02  0.50725888551E+02  0.19999966323E+01 0.  0.
         13    1    3    3    0    0  0.15711797351E+02  0.36859120544E+02  0.29577983233E+02  0.49802847302E+02  0.10566000000E+00 0. -1.
         13    1    4    4    0    0 -0.70021909746E+01 -0.15004490091E+02  0.12759968431E+02  0.20904386137E+02  0.10566000000E+00 0. -1.
        -13    1    4    4    0    0 -0.82514561792E+01 -0.20951372821E+02  0.17777052733E+02  0.28689393860E+02  0.10566000000E+00 0.  1.
         14    1    4    4    0    0 -0.45815019735E+00 -0.90325763089E+00  0.50585949346E+00  0.11321085541E+01  0.00000000000E+00 0. -1.
<mgrwt>
<rscale>  0 0.80194374E+02</rscale>
<asrwt>0</asrwt>
<pdfrwt beam="1">  1        1 0.12396123E-01 0.80194374E+02</pdfrwt>
<pdfrwt beam="2">  1       -2 0.30698362E-02 0.80194374E+02</pdfrwt>
<totfact> 0.14092312E+05</totfact>
</mgrwt>
</event>
<event>
 8    1  0.8247621E-014  0.7852572E+02  0.7818608E-02  0.1333288E+00
         -2   -1    0    0    0  501 -0.00000000000E+00  0.00000000000E+00  0.65863032209E+01  0.65863037146E+01  0.25500000000E-02 0.  1.
          1   -1    0    0  501    0  0.00000000000E+00 -0.00000000000E+00 -0.23405729321E+03  0.23405729327E+03  0.50400000000E-02 0. -1.
        -24    2    1    2    0    0  0.71054273576E-14 -0.88817841970E-15 -0.22747098999E+03  0.24064359698E+03  0.78525724959E+02 0.  0.
         66    2    3    3    0    0 -0.38530280998E+02 -0.73718852823E+01 -0.11626104285E+03  0.12271738805E+03  0.19999995185E+01 0.  0.
         13    1    3    3    0    0  0.38530280998E+02  0.73718852823E+01 -0.11120994714E+03  0.11792620893E+03  0.10566000000E+00 0. -1.
         13    1    4    4    0    0 -0.61814940549E+01 -0.10657668446E+01 -0.17781961651E+02  0.18856193994E+02  0.10566000000E+00 0. -1.
        -13    1    4    4    0    0 -0.21799775609E+02 -0.37029964442E+01 -0.64205430767E+02  0.67906486459E+02  0.10566000000E+00 0.  1.
         14    1    4    4    0    0 -0.10549011334E+02 -0.26031219935E+01 -0.34273650433E+02  0.35954707595E+02  0.00000000000E+00 0. -1.
<mgrwt>
<rscale>  0 0.78525725E+02</rscale>
<asrwt>0</asrwt>
<pdfrwt beam="1">  1        1 0.36008808E-01 0.78525725E+02</pdfrwt>
<pdfrwt beam="2">  1       -2 0.10132776E-02 0.78525725E+02</pdfrwt>
<totfact> 0.18059761E+05</totfact>
</mgrwt>
</event>
<event>
 8    1  0.8247621E-014  0.7311886E+02  0.7818608E-02  0.1349797E+00
         -2   -1    0    0    0  501 -0.00000000000E+00  0.00000000000E+00  0.92103688170E+01  0.92103691700E+01  0.25500000000E-02 0.  1.
          1   -1    0    0  501    0  0.00000000000E+00 -0.00000000000E+00 -0.14511816173E+03  0.14511816182E+03  0.50400000000E-02 0. -1.
        -24    2    1    2    0    0  0.88817841970E-15  0.00000000000E+00 -0.13590779291E+03  0.15432853099E+03  0.73118857364E+02 0.  0.
         66    2    3    3    0    0 -0.61347379422E+01 -0.35919848958E+02 -0.73474579979E+02  0.82038920392E+02  0.19999992910E+01 0.  0.
         13    1    3    3    0    0  0.61347379422E+01  0.35919848958E+02 -0.62433212933E+02  0.72289610595E+02  0.10566000000E+00 0. -1.
         13    1    4    4    0    0 -0.93781315280E+00 -0.43709897509E+01 -0.80065291427E+01  0.91706443536E+01  0.10566000000E+00 0. -1.
        -13    1    4    4    0    0 -0.52433908803E+01 -0.30960829795E+02 -0.64406456413E+02  0.71653813026E+02  0.10566000000E+00 0.  1.
        -14    1    4    4    0    0  0.46466090880E-01 -0.58802941174E+00 -0.10615944239E+01  0.12144630120E+01  0.00000000000E+00 0.  1.
<mgrwt>
<rscale>  0 0.73118857E+02</rscale>
<asrwt>0</asrwt>
<pdfrwt beam="1">  1        1 0.22325870E-01 0.73118857E+02</pdfrwt>
<pdfrwt beam="2">  1       -2 0.14169800E-02 0.73118857E+02</pdfrwt>
<totfact> 0.19931181E+05</totfact>
</mgrwt>
</event>
<event>
 8    1  0.8247621E-014  0.7874344E+02  0.7818608E-02  0.1332656E+00
         -2   -1    0    0    0  501 -0.00000000000E+00  0.00000000000E+00  0.20428410115E+02  0.20428410274E+02  0.25500000000E-02 0.  1.
          1   -1    0    0  501    0  0.00000000000E+00 -0.00000000000E+00 -0.75881201823E+02  0.75881201990E+02  0.50400000000E-02 0. -1.
        -24    2    1    2    0    0  0.00000000000E+00  0.00000000000E+00 -0.55452791708E+02  0.96309612264E+02  0.78743439767E+02 0.  0.
         66    2    3    3    0    0  0.65307734852E+01 -0.38799460682E+02 -0.27402133683E+02  0.47988812072E+02  0.20000005464E+01 0.  0.
         13    1    3    3    0    0 -0.65307734852E+01  0.38799460682E+02 -0.28050658025E+02  0.48320800192E+02  0.10566000000E+00 0. -1.
         13    1    4    4    0    0  0.34102995846E+01 -0.23078432058E+02 -0.15496145177E+02  0.28006889311E+02  0.10566000000E+00 0. -1.
        -13    1    4    4    0    0  0.24630677331E+01 -0.12087166814E+02 -0.87492186356E+01  0.15123699780E+02  0.10566000000E+00 0.  1.
         14    1    4    4    0    0  0.65740616752E+00 -0.36338618098E+01 -0.31567698703E+01  0.48582229813E+01  0.00000000000E+00 0. -1.
<mgrwt>
<rscale>  0 0.78743440E+02</rscale>
<asrwt>0</asrwt>
<pdfrwt beam="1">  1        1 0.11674031E-01 0.78743440E+02</pdfrwt>
<pdfrwt beam="2">  1       -2 0.31428324E-02 0.78743440E+02</pdfrwt>
<totfact> 0.14669383E+05</totfact>
</mgrwt>
</event>
<event>
 8    1  0.8247621E-014  0.8047305E+02  0.7818608E-02  0.1327714E+00
         -2   -1    0    0    0  501 -0.00000000000E+00  0.00000000000E+00  0.23595945803E+02  0.23595945941E+02  0.25500000000E-02 0.  1.
          1   -1    0    0  501    0  0.00000000000E+00 -0.00000000000E+00 -0.68612538954E+02  0.68612539140E+02  0.50400000000E-02 0. -1.
        -24    2    1    2    0    0  0.00000000000E+00  0.00000000000E+00 -0.45016593151E+02  0.92208485081E+02  0.80473045562E+02 0.  0.
         66    2    3    3    0    0  0.21887393160E+02 -0.33679725624E+02 -0.20350849237E+02  0.45072596585E+02  0.20000002048E+01 0.  0.
         13    1    3    3    0    0 -0.21887393160E+02  0.33679725624E+02 -0.24665743914E+02  0.47135888496E+02  0.10566000000E+00 0. -1.
         13    1    4    4    0    0  0.16831295107E+01 -0.24497797041E+01 -0.16457652591E+01  0.33991253099E+01  0.10566000000E+00 0. -1.
        -13    1    4    4    0    0  0.14286508619E+02 -0.22514192603E+02 -0.12526988875E+02  0.29460648523E+02  0.10566000000E+00 0.  1.
        -14    1    4    4    0    0  0.59177550303E+01 -0.87157533167E+01 -0.61780951034E+01  0.12212822752E+02  0.00000000000E+00 0.  1.
<mgrwt>
<rscale>  0 0.80473046E+02</rscale>
<asrwt>0</asrwt>
<pdfrwt beam="1">  1        1 0.10555775E-01 0.80473046E+02</pdfrwt>
<pdfrwt beam="2">  1       -2 0.36301456E-02 0.80473046E+02</pdfrwt>
<totfact> 0.13605111E+05</totfact>
</mgrwt>
</event>
<event>
 8    1  0.8247621E-014  0.7548625E+02  0.7818608E-02  0.1342372E+00
         -2   -1    0    0    0  501 -0.00000000000E+00  0.00000000000E+00  0.61661286684E+01  0.61661291957E+01  0.25500000000E-02 0.  1.
          1   -1    0    0  501    0  0.00000000000E+00 -0.00000000000E+00 -0.23102717902E+03  0.23102717908E+03  0.50400000000E-02 0. -1.
        -24    2    1    2    0    0  0.00000000000E+00  0.35527136788E-14 -0.22486105035E+03  0.23719330827E+03  0.75486247246E+02 0.  0.
         66    2    3    3    0    0  0.29664114079E+02 -0.17951648315E+02 -0.65869205548E+02  0.74464579340E+02  0.19999988524E+01 0.  0.
         13    1    3    3    0    0 -0.29664114079E+02  0.17951648315E+02 -0.15899184481E+03  0.16272872893E+03  0.10566000000E+00 0. -1.
         13    1    4    4    0    0  0.16873851104E+02 -0.96418290955E+01 -0.38576788814E+02  0.43195734958E+02  0.10566000000E+00 0. -1.
        -13    1    4    4    0    0  0.99820146535E+01 -0.65778559810E+01 -0.21732432030E+02  0.24803599977E+02  0.10566000000E+00 0.  1.
         14    1    4    4    0    0  0.28082483218E+01 -0.17319632384E+01 -0.55599847042E+01  0.64652444042E+01  0.00000000000E+00 0. -1.
<mgrwt>
<rscale>  0 0.75486247E+02</rscale>
<asrwt>0</asrwt>
<pdfrwt beam="1">  1        1 0.35542636E-01 0.75486247E+02</pdfrwt>
<pdfrwt beam="2">  1       -2 0.94863540E-03 0.75486247E+02</pdfrwt>
<totfact> 0.19990226E+05</totfact>
</mgrwt>
</event>
<event>
 8    1  0.8247621E-014  0.8231124E+02  0.7818608E-02  0.1322618E+00
         -2   -1    0    0    0  501 -0.00000000000E+00  0.00000000000E+00  0.50958493595E+02  0.50958493659E+02  0.25500000000E-02 0.  1.
          1   -1    0    0  501    0  0.00000000000E+00 -0.00000000000E+00 -0.33238524446E+02  0.33238524829E+02  0.50400000000E-02 0. -1.
        -24    2    1    2    0    0  0.00000000000E+00  0.00000000000E+00  0.17719969149E+02  0.84197018487E+02  0.82311242340E+02 0.  0.
         66    2    3    3    0    0 -0.17954798524E+02  0.29058634883E+02  0.32303045194E+02  0.47055985622E+02  0.20000006745E+01 0.  0.
         13    1    3    3    0    0  0.17954798524E+02 -0.29058634883E+02 -0.14583076046E+02  0.37141032866E+02  0.10566000000E+00 0. -1.
         13    1    4    4    0    0 -0.10590493462E+01  0.19352134781E+01  0.22526177410E+01  0.31546929242E+01  0.10566000000E+00 0. -1.
        -13    1    4    4    0    0 -0.85230682298E+01  0.14538709588E+02  0.14800229470E+02  0.22429327340E+02  0.10566000000E+00 0.  1.
        -14    1    4    4    0    0 -0.83726809481E+01  0.12584711817E+02  0.15250197983E+02  0.21471965357E+02  0.00000000000E+00 0.  1.
<mgrwt>
<rscale>  0 0.82311242E+02</rscale>
<asrwt>0</asrwt>
<pdfrwt beam="1">  1        1 0.51136192E-02 0.82311242E+02</pdfrwt>
<pdfrwt beam="2">  1       -2 0.78397682E-02 0.82311242E+02</pdfrwt>
<totfact> 0.11348799E+05</totfact>
</mgrwt>
</event>
<event>
 8    1  0.8247621E-014  0.7963028E+02  0.7818608E-02  0.1330104E+00
          1   -1    0    0  501    0  0.00000000000E+00  0.00000000000E+00  0.12519183682E+03  0.12519183692E+03  0.50400000000E-02 0. -1.
         -2   -1    0    0    0  501 -0.00000000000E+00 -0.00000000000E+00 -0.12662529355E+02  0.12662529611E+02  0.25500000000E-02 0.  1.
        -24    2    1    2    0    0  0.00000000000E+00  0.00000000000E+00  0.11252930747E+03  0.13785436654E+03  0.79630279001E+02 0.  0.
         66    2    3    3    0    0  0.26682001181E+02  0.24029362986E+02  0.26621492543E+02  0.44744198983E+02  0.20000012010E+01 0.  0.
         13    1    3    3    0    0 -0.26682001181E+02 -0.24029362986E+02  0.85907814925E+02  0.93110167553E+02  0.10566000000E+00 0. -1.
         13    1    4    4    0    0  0.37992397595E+00  0.43957637296E+00  0.22636935801E+00  0.63243714076E+00  0.10566000000E+00 0. -1.
        -13    1    4    4    0    0  0.23501925541E+02  0.21370114328E+02  0.23941540228E+02  0.39777264902E+02  0.10566000000E+00 0.  1.
        -14    1    4    4    0    0  0.28001516638E+01  0.22196722850E+01  0.24535829568E+01  0.43344969396E+01  0.00000000000E+00 0.  1.
<mgrwt>
<rscale>  0 0.79630279E+02</rscale>
<asrwt>0</asrwt>
<pdfrwt beam="1">  1        1 0.19260283E-01 0.79630279E+02</pdfrwt>
<pdfrwt beam="2">  1       -2 0.19480815E-02 0.79630279E+02</pdfrwt>
<totfact> 0.15471279E+05</totfact>
</mgrwt>
</event>
<event>
 8    1  0.8247621E-014  0.8156631E+02  0.7818608E-02  0.1324664E+00
         -2   -1    0    0    0  501 -0.00000000000E+00  0.00000000000E+00  0.70635488947E+02  0.70635488993E+02  0.25500000000E-02 0.  1.
          1   -1    0    0  501    0  0.00000000000E+00 -0.00000000000E+00 -0.23547164923E+02  0.23547165462E+02  0.50400000000E-02 0. -1.
        -24    2    1    2    0    0  0.35527136788E-14  0.00000000000E+00  0.47088324024E+02  0.94182654455E+02  0.81566305181E+02 0.  0.
         66    2    3    3    0    0 -0.19358941033E+02  0.29457397862E+02  0.47186957102E+02  0.58933146952E+02  0.20000005969E+01 0.  0.
         13    1    3    3    0    0  0.19358941033E+02 -0.29457397862E+02 -0.98633077953E-01  0.35249507503E+02  0.10566000000E+00 0. -1.
         13    1    4    4    0    0 -0.27405833294E+01  0.35965655704E+01  0.55373345425E+01  0.71497775322E+01  0.10566000000E+00 0. -1.
        -13    1    4    4    0    0 -0.15332337913E+02  0.23213465940E+02  0.37325728963E+02  0.46552838726E+02  0.10566000000E+00 0.  1.
         14    1    4    4    0    0 -0.12860197910E+01  0.26473663513E+01  0.43238935968E+01  0.52305306937E+01  0.00000000000E+00 0. -1.
<mgrwt>
<rscale>  0 0.81566305E+02</rscale>
<asrwt>0</asrwt>
<pdfrwt beam="1">  1        1 0.36226408E-02 0.81566305E+02</pdfrwt>
<pdfrwt beam="2">  1       -2 0.10866998E-01 0.81566305E+02</pdfrwt>
<totfact> 0.10918748E+05</totfact>
</mgrwt>
</event>
<event>
 8    1  0.8247621E-014  0.7849291E+02  0.7818608E-02  0.1333384E+00
          1   -1    0    0  501    0  0.00000000000E+00  0.00000000000E+00  0.24465576862E+02  0.24465577381E+02  0.50400000000E-02 0. -1.
         -2   -1    0    0    0  501 -0.00000000000E+00 -0.00000000000E+00 -0.62957192140E+02  0.62957192191E+02  0.25500000000E-02 0.  1.
        -24    2    1    2    0    0  0.00000000000E+00 -0.22204460493E-15 -0.38491615278E+02  0.87422769572E+02  0.78492905367E+02 0.  0.
         66    2    3    3    0    0  0.37192082870E+02 -0.14891009397E+01 -0.33026271758E+02  0.49801637298E+02  0.20000003759E+01 0.  0.
         13    1    3    3    0    0 -0.37192082870E+02  0.14891009397E+01 -0.54653435199E+01  0.37621132275E+02  0.10566000000E+00 0. -1.
         13    1    4    4    0    0  0.55082848409E+01 -0.30223187925E+00 -0.41301549315E+01  0.68921614746E+01  0.10566000000E+00 0. -1.
        -13    1    4    4    0    0  0.23158275005E+02 -0.53680542064E+00 -0.20725497643E+02  0.31082974083E+02  0.10566000000E+00 0.  1.
        -14    1    4    4    0    0  0.85255230235E+01 -0.65006363981E+00 -0.81706191837E+01  0.11826501740E+02  0.00000000000E+00 0.  1.
<mgrwt>
<rscale>  0 0.78492905E+02</rscale>
<asrwt>0</asrwt>
<pdfrwt beam="1">  1        1 0.37639350E-02 0.78492905E+02</pdfrwt>
<pdfrwt beam="2">  1       -2 0.96857218E-02 0.78492905E+02</pdfrwt>
<totfact> 0.12310877E+05</totfact>
</mgrwt>
</event>
<event>
 8    1  0.8247621E-014  0.8028976E+02  0.7818608E-02  0.1328231E+00
         -2   -1    0    0    0  501 -0.00000000000E+00  0.00000000000E+00  0.22458409330E+02  0.22458409475E+02  0.25500000000E-02 0.  1.
          1   -1    0    0  501    0  0.00000000000E+00 -0.00000000000E+00 -0.71759821885E+02  0.71759822062E+02  0.50400000000E-02 0. -1.
        -24    2    1    2    0    0  0.71054273576E-14  0.00000000000E+00 -0.49301412555E+02  0.94218231536E+02  0.80289761950E+02 0.  0.
         66    2    3    3    0    0  0.38655625167E+02  0.42465450364E+01 -0.13089735510E+02  0.41080794449E+02  0.19999987574E+01 0.  0.
         13    1    3    3    0    0 -0.38655625167E+02 -0.42465450364E+01 -0.36211677045E+02  0.53137437088E+02  0.10566000000E+00 0. -1.
         13    1    4    4    0    0  0.21382660927E+02  0.22279104149E+01 -0.73691126566E+01  0.22726565040E+02  0.10566000000E+00 0.  1.
        -13    1    4    4    0    0  0.12863969673E+01  0.38802321424E+00 -0.19824611140E+00  0.13622939215E+01  0.10566000000E+00 0.  1.
        -14    1    4    4    0    0  0.15986567273E+02  0.16306114073E+01 -0.55223767419E+01  0.16991935488E+02  0.00000000000E+00 0.  1.
<mgrwt>
<rscale>  0 0.80289762E+02</rscale>
<asrwt>0</asrwt>
<pdfrwt beam="1">  1        1 0.11039973E-01 0.80289762E+02</pdfrwt>
<pdfrwt beam="2">  1       -2 0.34551399E-02 0.80289762E+02</pdfrwt>
<totfact> 0.13788246E+05</totfact>
</mgrwt>
</event>
<event>
 8    1  0.8247621E-014  0.8005826E+02  0.7818608E-02  0.1328886E+00
          1   -1    0    0  501    0  0.00000000000E+00  0.00000000000E+00  0.51720623471E+02  0.51720623716E+02  0.50400000000E-02 0. -1.
         -2   -1    0    0    0  501 -0.00000000000E+00 -0.00000000000E+00 -0.30980509513E+02  0.30980509618E+02  0.25500000000E-02 0.  1.
        -24    2    1    2    0    0  0.71054273576E-14  0.17763568394E-14  0.20740113958E+02  0.82701133334E+02  0.80058260834E+02 0.  0.
         66    2    3    3    0    0 -0.36619324686E+02 -0.15660574541E+02  0.64978591425E+01  0.40403597689E+02  0.19999993372E+01 0.  0.
         13    1    3    3    0    0  0.36619324686E+02  0.15660574541E+02  0.14242254816E+02  0.42297535645E+02  0.10566000000E+00 0. -1.
         13    1    4    4    0    0 -0.59328352306E+01 -0.22754083005E+01  0.42157553075E+00  0.63690585467E+01  0.10566000000E+00 0. -1.
        -13    1    4    4    0    0 -0.23046296418E+02 -0.10219168059E+02  0.48736838477E+01  0.25677366156E+02  0.10566000000E+00 0.  1.
        -14    1    4    4    0    0 -0.76401930376E+01 -0.31659981808E+01  0.12025997640E+01  0.83571729864E+01  0.00000000000E+00 0.  1.
<mgrwt>
<rscale>  0 0.80058261E+02</rscale>
<asrwt>0</asrwt>
<pdfrwt beam="1">  1        1 0.79570190E-02 0.80058261E+02</pdfrwt>
<pdfrwt beam="2">  1       -2 0.47662323E-02 0.80058261E+02</pdfrwt>
<totfact> 0.13200513E+05</totfact>
</mgrwt>
</event>
<event>
 8    1  0.8247621E-014  0.8066134E+02  0.7818608E-02  0.1327185E+00
          1   -1    0    0  501    0  0.00000000000E+00  0.00000000000E+00  0.11443678880E+03  0.11443678892E+03  0.50400000000E-02 0. -1.
         -2   -1    0    0    0  501 -0.00000000000E+00 -0.00000000000E+00 -0.14213635872E+02  0.14213636101E+02  0.25500000000E-02 0.  1.
        -24    2    1    2    0    0  0.00000000000E+00  0.00000000000E+00  0.10022315293E+03  0.12865042502E+03  0.80661338156E+02 0.  0.
         66    2    3    3    0    0  0.31063471409E+02 -0.25563067396E+02  0.46187533552E+02  0.61283749304E+02  0.20000005947E+01 0.  0.
         13    1    3    3    0    0 -0.31063471409E+02  0.25563067396E+02  0.54035619380E+02  0.67366675712E+02  0.10566000000E+00 0. -1.
         13    1    4    4    0    0  0.10071608371E+02 -0.92854720588E+01  0.14999356117E+02  0.20313767117E+02  0.10566000000E+00 0. -1.
        -13    1    4    4    0    0  0.19978320802E+02 -0.15368734450E+02  0.29627779217E+02  0.38899200069E+02  0.10566000000E+00 0.  1.
         14    1    4    4    0    0  0.10135422366E+01 -0.90886088694E+00  0.15603982183E+01  0.20707821172E+01  0.00000000000E+00 0. -1.
<mgrwt>
<rscale>  0 0.80661338E+02</rscale>
<asrwt>0</asrwt>
<pdfrwt beam="1">  1        1 0.17605660E-01 0.80661338E+02</pdfrwt>
<pdfrwt beam="2">  1       -2 0.21867132E-02 0.80661338E+02</pdfrwt>
<totfact> 0.14711639E+05</totfact>
</mgrwt>
</event>
<event>
 8    1  0.8247621E-014  0.7962487E+02  0.7818608E-02  0.1330119E+00
          1   -1    0    0  501    0  0.00000000000E+00  0.00000000000E+00  0.30290180859E+02  0.30290181278E+02  0.50400000000E-02 0. -1.
         -2   -1    0    0    0  501 -0.00000000000E+00 -0.00000000000E+00 -0.52328183439E+02  0.52328183502E+02  0.25500000000E-02 0.  1.
        -24    2    1    2    0    0  0.17763568394E-14  0.35527136788E-14 -0.22038002581E+02  0.82618364779E+02  0.79624874512E+02 0.  0.
         66    2    3    3    0    0 -0.14519303893E+02 -0.26014038786E+02 -0.38389434579E+02  0.48634237721E+02  0.19999979880E+01 0.  0.
         13    1    3    3    0    0  0.14519303893E+02  0.26014038786E+02  0.16351431998E+02  0.33984127058E+02  0.10566000000E+00 0. -1.
         13    1    4    4    0    0 -0.16457775304E+01 -0.28241043631E+01 -0.42007298327E+01  0.53236683120E+01  0.10566000000E+00 0.  1.
        -13    1    4    4    0    0 -0.11531969046E+02 -0.21576457625E+02 -0.30954966358E+02  0.39455683241E+02  0.10566000000E+00 0.  1.
        -14    1    4    4    0    0 -0.13415573164E+01 -0.16134767980E+01 -0.32337383878E+01  0.38548861684E+01  0.00000000000E+00 0.  1.
<mgrwt>
<rscale>  0 0.79624875E+02</rscale>
<asrwt>0</asrwt>
<pdfrwt beam="1">  1        1 0.46600279E-02 0.79624875E+02</pdfrwt>
<pdfrwt beam="2">  1       -2 0.80504898E-02 0.79624875E+02</pdfrwt>
<totfact> 0.12279974E+05</totfact>
</mgrwt>
</event>
<event>
 8    1  0.8247621E-014  0.8124567E+02  0.7818608E-02  0.1325553E+00
          1   -1    0    0  501    0  0.00000000000E+00  0.00000000000E+00  0.21289854316E+01  0.21289913973E+01  0.50400000000E-02 0. -1.
         -2   -1    0    0    0  501 -0.00000000000E+00 -0.00000000000E+00 -0.77511678481E+03  0.77511678482E+03  0.25500000000E-02 0.  1.
        -24    2    1    2    0    0  0.00000000000E+00 -0.35527136788E-14 -0.77298779938E+03  0.77724577622E+03  0.81245668504E+02 0.  0.
         66    2    3    3    0    0 -0.63037424462E+01 -0.16835250760E+02 -0.73496353844E+03  0.73518607553E+03  0.19999973975E+01 0.  0.
         13    1    3    3    0    0  0.63037424462E+01  0.16835250760E+02 -0.38024260947E+02  0.42059700683E+02  0.10566000000E+00 0. -1.
         13    1    4    4    0    0 -0.17340155235E+01 -0.48029923176E+01 -0.17969553823E+03  0.17976810943E+03  0.10566000000E+00 0. -1.
        -13    1    4    4    0    0 -0.63961004194E+00 -0.27126761845E+01 -0.11551602393E+03  0.11554968914E+03  0.10566000000E+00 0.  1.
         14    1    4    4    0    0 -0.39301168808E+01 -0.93195822580E+01 -0.43975197628E+03  0.43986827696E+03  0.00000000000E+00 0. -1.
<mgrwt>
<rscale>  0 0.81245669E+02</rscale>
<asrwt>0</asrwt>
<pdfrwt beam="1">  1        1 0.32753730E-03 0.81245669E+02</pdfrwt>
<pdfrwt beam="2">  1       -2 0.11924851E+00 0.81245669E+02</pdfrwt>
<totfact> 0.32962472E+04</totfact>
</mgrwt>
</event>
<event>
 8    1  0.8247621E-014  0.8160328E+02  0.7818608E-02  0.1324562E+00
          1   -1    0    0  501    0  0.00000000000E+00  0.00000000000E+00  0.70935110989E+02  0.70935111168E+02  0.50400000000E-02 0. -1.
         -2   -1    0    0    0  501 -0.00000000000E+00 -0.00000000000E+00 -0.23468965800E+02  0.23468965938E+02  0.25500000000E-02 0.  1.
        -24    2    1    2    0    0  0.35527136788E-14 -0.17763568394E-14  0.47466145189E+02  0.94404077106E+02  0.81603277110E+02 0.  0.
         66    2    3    3    0    0  0.26358337110E+02 -0.14280423910E+02 -0.82307265292E+01  0.31151842952E+02  0.20000044642E+01 0.  0.
         13    1    3    3    0    0 -0.26358337110E+02  0.14280423910E+02  0.55696871719E+02  0.63252234154E+02  0.10566000000E+00 0. -1.
         13    1    4    4    0    0  0.15226236730E+01 -0.53231930962E+00 -0.15839908613E+00  0.16241924156E+01  0.10566000000E+00 0. -1.
        -13    1    4    4    0    0  0.16424498205E+02 -0.86561217772E+01 -0.50362416558E+01  0.19237138030E+02  0.10566000000E+00 0.  1.
         14    1    4    4    0    0  0.84112152315E+01 -0.50919828228E+01 -0.30360857873E+01  0.10290512507E+02  0.00000000000E+00 0. -1.
<mgrwt>
<rscale>  0 0.81603277E+02</rscale>
<asrwt>0</asrwt>
<pdfrwt beam="1">  1        1 0.10913094E-01 0.81603277E+02</pdfrwt>
<pdfrwt beam="2">  1       -2 0.36106102E-02 0.81603277E+02</pdfrwt>
<totfact> 0.13164097E+05</totfact>
</mgrwt>
</event>
<event>
 8    1  0.8247621E-014  0.7930748E+02  0.7818608E-02  0.1331028E+00
         -2   -1    0    0    0  501 -0.00000000000E+00  0.00000000000E+00  0.10485159568E+03  0.10485159571E+03  0.25500000000E-02 0.  1.
          1   -1    0    0  501    0  0.00000000000E+00 -0.00000000000E+00 -0.14996614330E+02  0.14996615177E+02  0.50400000000E-02 0. -1.
        -24    2    1    2    0    0  0.00000000000E+00  0.17763568394E-14  0.89854981348E+02  0.11984821089E+03  0.79307477450E+02 0.  0.
         66    2    3    3    0    0 -0.32342768489E+02 -0.11376985412E+02  0.74987270421E+02  0.82477761827E+02  0.20000000188E+01 0.  0.
         13    1    3    3    0    0  0.32342768489E+02  0.11376985412E+02  0.14867710927E+02  0.37370449059E+02  0.10566000000E+00 0. -1.
         13    1    4    4    0    0 -0.83623801283E+01 -0.35485821780E+01  0.18861881006E+02  0.20935700513E+02  0.10566000000E+00 0.  1.
        -13    1    4    4    0    0 -0.17825729805E+02 -0.54915532479E+01  0.42233784708E+02  0.46169443737E+02  0.10566000000E+00 0. -1.
        -14    1    4    4    0    0 -0.61546585557E+01 -0.23368499867E+01  0.13891604708E+02  0.15372617576E+02  0.00000000000E+00 0.  1.
<mgrwt>
<rscale>  0 0.79307477E+02</rscale>
<asrwt>0</asrwt>
<pdfrwt beam="1">  1        1 0.23071714E-02 0.79307477E+02</pdfrwt>
<pdfrwt beam="2">  1       -2 0.16131015E-01 0.79307477E+02</pdfrwt>
<totfact> 0.10722890E+05</totfact>
</mgrwt>
</event>
<event>
 8    1  0.8247621E-014  0.8038170E+02  0.7818608E-02  0.1327972E+00
          1   -1    0    0  501    0  0.00000000000E+00  0.00000000000E+00  0.64274788483E+02  0.64274788681E+02  0.50400000000E-02 0. -1.
         -2   -1    0    0    0  501 -0.00000000000E+00 -0.00000000000E+00 -0.25131225604E+02  0.25131225734E+02  0.25500000000E-02 0.  1.
        -24    2    1    2    0    0  0.00000000000E+00  0.00000000000E+00  0.39143562879E+02  0.89406014415E+02  0.80381695047E+02 0.  0.
         66    2    3    3    0    0  0.13511991738E+02  0.22093636373E+02 -0.14564704387E+02  0.29779746498E+02  0.19999996821E+01 0.  0.
         13    1    3    3    0    0 -0.13511991738E+02 -0.22093636373E+02  0.53708267266E+02  0.59626267916E+02  0.10566000000E+00 0. -1.
         13    1    4    4    0    0  0.15261123803E+01  0.35610492715E+01 -0.23075916841E+01  0.45106800294E+01  0.10566000000E+00 0. -1.
        -13    1    4    4    0    0  0.45711696303E+01  0.73608333229E+01 -0.42460065758E+01  0.96497251191E+01  0.10566000000E+00 0.  1.
         14    1    4    4    0    0  0.74147097271E+01  0.11171753778E+02 -0.80111061271E+01  0.15619341350E+02  0.00000000000E+00 0. -1.
<mgrwt>
<rscale>  0 0.80381695E+02</rscale>
<asrwt>0</asrwt>
<pdfrwt beam="1">  1        1 0.98884289E-02 0.80381695E+02</pdfrwt>
<pdfrwt beam="2">  1       -2 0.38663425E-02 0.80381695E+02</pdfrwt>
<totfact> 0.13507428E+05</totfact>
</mgrwt>
</event>
<event>
 8    1  0.8247621E-014  0.8067029E+02  0.7818608E-02  0.1327160E+00
          1   -1    0    0  501    0  0.00000000000E+00  0.00000000000E+00  0.58291323745E+02  0.58291323963E+02  0.50400000000E-02 0. -1.
         -2   -1    0    0    0  501 -0.00000000000E+00 -0.00000000000E+00 -0.27910223629E+02  0.27910223745E+02  0.25500000000E-02 0.  1.
        -24    2    1    2    0    0 -0.22204460493E-15 -0.35527136788E-14  0.30381100116E+02  0.86201547708E+02  0.80670289345E+02 0.  0.
         66    2    3    3    0    0  0.17962467426E+01  0.30450507068E+02 -0.12959628074E+02  0.33202587651E+02  0.19999959644E+01 0.  0.
         13    1    3    3    0    0 -0.17962467426E+01 -0.30450507068E+02  0.43340728191E+02  0.52998960057E+02  0.10566000000E+00 0. -1.
         13    1    4    4    0    0  0.10964381489E+01  0.13394641133E+02 -0.53432465583E+01  0.14463057613E+02  0.10566000000E+00 0.  1.
        -13    1    4    4    0    0  0.10741790950E+01  0.13850598860E+02 -0.60602136515E+01  0.15156856635E+02  0.10566000000E+00 0. -1.
         14    1    4    4    0    0 -0.37437050135E+00  0.32052670744E+01 -0.15561678643E+01  0.35826734029E+01  0.00000000000E+00 0. -1.
<mgrwt>
<rscale>  0 0.80670289E+02</rscale>
<asrwt>0</asrwt>
<pdfrwt beam="1">  1        1 0.89678959E-02 0.80670289E+02</pdfrwt>
<pdfrwt beam="2">  1       -2 0.42938806E-02 0.80670289E+02</pdfrwt>
<totfact> 0.13170319E+05</totfact>
</mgrwt>
</event>
<event>
 8    1  0.8247621E-014  0.7930465E+02  0.7818608E-02  0.1331036E+00
          1   -1    0    0  501    0  0.00000000000E+00  0.00000000000E+00  0.12561630246E+02  0.12561631257E+02  0.50400000000E-02 0. -1.
         -2   -1    0    0    0  501 -0.00000000000E+00 -0.00000000000E+00 -0.12516741739E+03  0.12516741742E+03  0.25500000000E-02 0.  1.
        -24    2    1    2    0    0  0.17763568394E-14  0.00000000000E+00 -0.11260578714E+03  0.13772904867E+03  0.79304650243E+02 0.  0.
         66    2    3    3    0    0 -0.14476211112E+02 -0.27559131506E+02 -0.98922872916E+02  0.10372464126E+03  0.20000004472E+01 0.  0.
         13    1    3    3    0    0  0.14476211112E+02  0.27559131506E+02 -0.13682914229E+02  0.34004407411E+02  0.10566000000E+00 0. -1.
         13    1    4    4    0    0 -0.87711767169E+01 -0.16838764796E+02 -0.58558608810E+02  0.61559721983E+02  0.10566000000E+00 0. -1.
        -13    1    4    4    0    0 -0.49432335725E+01 -0.84078663769E+01 -0.32011031521E+02  0.33464086395E+02  0.10566000000E+00 0.  1.
        -14    1    4    4    0    0 -0.76180082236E+00 -0.23125003329E+01 -0.83532325847E+01  0.87008328852E+01  0.00000000000E+00 0.  1.
<mgrwt>
<rscale>  0 0.79304650E+02</rscale>
<asrwt>0</asrwt>
<pdfrwt beam="1">  1        1 0.19325587E-02 0.79304650E+02</pdfrwt>
<pdfrwt beam="2">  1       -2 0.19256525E-01 0.79304650E+02</pdfrwt>
<totfact> 0.10220301E+05</totfact>
</mgrwt>
</event>
<event>
 8    1  0.8247621E-014  0.8063662E+02  0.7818608E-02  0.1327254E+00
         -2   -1    0    0    0  501 -0.00000000000E+00  0.00000000000E+00  0.40181120945E+03  0.40181120946E+03  0.25500000000E-02 0.  1.
          1   -1    0    0  501    0  0.00000000000E+00 -0.00000000000E+00 -0.40455956242E+01  0.40455987636E+01  0.50400000000E-02 0. -1.
        -24    2    1    2    0    0  0.00000000000E+00 -0.71054273576E-14  0.39776561383E+03  0.40585680822E+03  0.80636624667E+02 0.  0.
         66    2    3    3    0    0  0.12032222409E+02 -0.34349457879E+02  0.28602192959E+03  0.28833522823E+03  0.20000001076E+01 0.  0.
         13    1    3    3    0    0 -0.12032222409E+02  0.34349457879E+02  0.11174368423E+03  0.11752157999E+03  0.10566000000E+00 0. -1.
         13    1    4    4    0    0  0.38395272912E+01 -0.12979075633E+02  0.10951499217E+03  0.11034828067E+03  0.10566000000E+00 0. -1.
        -13    1    4    4    0    0  0.79615516310E+01 -0.20553530271E+02  0.17105942350E+03  0.17247368333E+03  0.10566000000E+00 0.  1.
         14    1    4    4    0    0  0.23114348680E+00 -0.81685197421E+00  0.54475139279E+01  0.55132642285E+01  0.00000000000E+00 0. -1.
<mgrwt>
<rscale>  0 0.80636625E+02</rscale>
<asrwt>0</asrwt>
<pdfrwt beam="1">  1        1 0.62239927E-03 0.80636625E+02</pdfrwt>
<pdfrwt beam="2">  1       -2 0.61817139E-01 0.80636625E+02</pdfrwt>
<totfact> 0.57721708E+04</totfact>
</mgrwt>
</event>
<event>
 8    1  0.8247621E-014  0.8052821E+02  0.7818608E-02  0.1327559E+00
          1   -1    0    0  501    0  0.00000000000E+00  0.00000000000E+00  0.88787697011E+01  0.88787711316E+01  0.50400000000E-02 0. -1.
         -2   -1    0    0    0  501 -0.00000000000E+00 -0.00000000000E+00 -0.18259265691E+03  0.18259265693E+03  0.25500000000E-02 0.  1.
        -24    2    1    2    0    0  0.00000000000E+00  0.88817841970E-15 -0.17371388721E+03  0.19147142806E+03  0.80528213402E+02 0.  0.
         66    2    3    3    0    0  0.26199775711E+02  0.67200357182E+01 -0.15774833447E+03  0.16006287563E+03  0.19999999607E+01 0.  0.
         13    1    3    3    0    0 -0.26199775711E+02 -0.67200357182E+01 -0.15965552739E+02  0.31408552428E+02  0.10566000000E+00 0. -1.
         13    1    4    4    0    0  0.81953596831E+01  0.25458209064E+01 -0.49600239693E+02  0.50337263196E+02  0.10566000000E+00 0. -1.
        -13    1    4    4    0    0  0.82255741871E+01  0.21758681955E+01 -0.45816975834E+02  0.46600438965E+02  0.10566000000E+00 0.  1.
         14    1    4    4    0    0  0.97788418404E+01  0.19983466163E+01 -0.62331118940E+02  0.63125173467E+02  0.00000000000E+00 0. -1.
<mgrwt>
<rscale>  0 0.80528213E+02</rscale>
<asrwt>0</asrwt>
<pdfrwt beam="1">  1        1 0.13659648E-02 0.80528213E+02</pdfrwt>
<pdfrwt beam="2">  1       -2 0.28091175E-01 0.80528213E+02</pdfrwt>
<totfact> 0.86688514E+04</totfact>
</mgrwt>
</event>
<event>
 8    1  0.8247621E-014  0.7706888E+02  0.7818608E-02  0.1337581E+00
         -2   -1    0    0    0  501 -0.00000000000E+00  0.00000000000E+00  0.86442571357E+01  0.86442575118E+01  0.25500000000E-02 0.  1.
          1   -1    0    0  501    0  0.00000000000E+00 -0.00000000000E+00 -0.17177915198E+03  0.17177915206E+03  0.50400000000E-02 0. -1.
        -24    2    1    2    0    0  0.00000000000E+00  0.00000000000E+00 -0.16313489485E+03  0.18042340957E+03  0.77068883498E+02 0.  0.
         66    2    3    3    0    0 -0.33662079114E+02 -0.68541382736E+01 -0.40886080214E+02  0.53439557741E+02  0.19999986265E+01 0.  0.
         13    1    3    3    0    0  0.33662079114E+02  0.68541382736E+01 -0.12224881463E+03  0.12698385183E+03  0.10566000000E+00 0. -1.
         13    1    4    4    0    0 -0.20545205571E+01 -0.59501146190E+00 -0.32353991994E+01  0.38799568779E+01  0.10566000000E+00 0. -1.
        -13    1    4    4    0    0 -0.59148353017E+01 -0.10232824638E+01 -0.67719041346E+01  0.90499852647E+01  0.10566000000E+00 0.  1.
         14    1    4    4    0    0 -0.25692723255E+02 -0.52358443479E+01 -0.30878776880E+02  0.40509615598E+02  0.00000000000E+00 0. -1.
<mgrwt>
<rscale>  0 0.77068883E+02</rscale>
<asrwt>0</asrwt>
<pdfrwt beam="1">  1        1 0.26427559E-01 0.77068883E+02</pdfrwt>
<pdfrwt beam="2">  1       -2 0.13298859E-02 0.77068883E+02</pdfrwt>
<totfact> 0.17882673E+05</totfact>
</mgrwt>
</event>
<event>
 8    1  0.8247621E-014  0.8458644E+02  0.7818608E-02  0.1316518E+00
         -2   -1    0    0    0  501 -0.00000000000E+00  0.00000000000E+00  0.15657360191E+02  0.15657360398E+02  0.25500000000E-02 0.  1.
          1   -1    0    0  501    0  0.00000000000E+00 -0.00000000000E+00 -0.11424126180E+03  0.11424126191E+03  0.50400000000E-02 0. -1.
        -24    2    1    2    0    0 -0.17763568394E-14 -0.71054273576E-14 -0.98583901609E+02  0.12989862231E+03  0.84586443484E+02 0.  0.
         66    2    3    3    0    0  0.13658946631E+02  0.37953484735E+02 -0.29913879717E+02  0.50258074236E+02  0.19999999060E+01 0.  0.
         13    1    3    3    0    0 -0.13658946631E+02 -0.37953484735E+02 -0.68670021892E+02  0.79640548072E+02  0.10566000000E+00 0. -1.
         13    1    4    4    0    0  0.23851631430E+01  0.81242133210E+01 -0.66257339817E+01  0.10751900303E+02  0.10566000000E+00 0. -1.
        -13    1    4    4    0    0  0.72348448355E+01  0.20482793941E+02 -0.16248563845E+02  0.27127749971E+02  0.10566000000E+00 0.  1.
         14    1    4    4    0    0  0.40389386521E+01  0.93464774730E+01 -0.70395818895E+01  0.12378423961E+02  0.00000000000E+00 0. -1.
<mgrwt>
<rscale>  0 0.84586443E+02</rscale>
<asrwt>0</asrwt>
<pdfrwt beam="1">  1        1 0.17575578E-01 0.84586443E+02</pdfrwt>
<pdfrwt beam="2">  1       -2 0.24088247E-02 0.84586443E+02</pdfrwt>
<totfact> 0.12934790E+05</totfact>
</mgrwt>
</event>
<event>
 8    1  0.8247621E-014  0.8014015E+02  0.7818608E-02  0.1328654E+00
          1   -1    0    0  501    0  0.00000000000E+00  0.00000000000E+00  0.43097524205E+03  0.43097524208E+03  0.50400000000E-02 0. -1.
         -2   -1    0    0    0  501 -0.00000000000E+00 -0.00000000000E+00 -0.37255287631E+01  0.37255296358E+01  0.25500000000E-02 0.  1.
        -24    2    1    2    0    0  0.00000000000E+00  0.00000000000E+00  0.42724971328E+03  0.43470077171E+03  0.80140148653E+02 0.  0.
         66    2    3    3    0    0 -0.12576948368E+02  0.36880658826E+02  0.26383822481E+03  0.26670765175E+03  0.20000012003E+01 0.  0.
         13    1    3    3    0    0  0.12576948368E+02 -0.36880658826E+02  0.16341148847E+03  0.16799311996E+03  0.10566000000E+00 0. -1.
         13    1    4    4    0    0 -0.44397813015E+01  0.11473987693E+02  0.79239366973E+02  0.80188855173E+02  0.10566000000E+00 0. -1.
        -13    1    4    4    0    0 -0.64878559037E+01  0.21302330614E+02  0.15335803432E+03  0.15496638158E+03  0.10566000000E+00 0.  1.
        -14    1    4    4    0    0 -0.16493111625E+01  0.41043405186E+01  0.31240823518E+02  0.31552415002E+02  0.00000000000E+00 0.  1.
<mgrwt>
<rscale>  0 0.80140149E+02</rscale>
<asrwt>0</asrwt>
<pdfrwt beam="1">  1        1 0.66303878E-01 0.80140149E+02</pdfrwt>
<pdfrwt beam="2">  1       -2 0.57315839E-03 0.80140149E+02</pdfrwt>
<totfact> 0.19129807E+05</totfact>
</mgrwt>
</event>
<event>
 8    1  0.8247621E-014  0.8038900E+02  0.7818608E-02  0.1327951E+00
         -2   -1    0    0    0  501 -0.00000000000E+00  0.00000000000E+00  0.55564741099E+02  0.55564741158E+02  0.25500000000E-02 0.  1.
          1   -1    0    0  501    0  0.00000000000E+00 -0.00000000000E+00 -0.29075954546E+02  0.29075954983E+02  0.50400000000E-02 0. -1.
        -24    2    1    2    0    0  0.00000000000E+00  0.00000000000E+00  0.26488786553E+02  0.84640696140E+02  0.80389001922E+02 0.  0.
         66    2    3    3    0    0  0.21595915358E+02 -0.33171828215E+02  0.20458452879E+02  0.44601592310E+02  0.19999987883E+01 0.  0.
         13    1    3    3    0    0 -0.21595915358E+02  0.33171828215E+02  0.60303336745E+01  0.40039103830E+02  0.10566000000E+00 0. -1.
         13    1    4    4    0    0  0.46216589767E+01 -0.76906251118E+01  0.51739131419E+01  0.10357894938E+02  0.10566000000E+00 0. -1.
        -13    1    4    4    0    0  0.85094444209E+01 -0.11709407484E+02  0.69874372523E+01  0.16073466066E+02  0.10566000000E+00 0.  1.
        -14    1    4    4    0    0  0.84648119606E+01 -0.13771795619E+02  0.82971024846E+01  0.18170231306E+02  0.00000000000E+00 0.  1.
<mgrwt>
<rscale>  0 0.80389002E+02</rscale>
<asrwt>0</asrwt>
<pdfrwt beam="1">  1        1 0.44732239E-02 0.80389002E+02</pdfrwt>
<pdfrwt beam="2">  1       -2 0.85484216E-02 0.80389002E+02</pdfrwt>
<totfact> 0.11860568E+05</totfact>
</mgrwt>
</event>
<event>
 8    1  0.8247621E-014  0.7991486E+02  0.7818608E-02  0.1329293E+00
          1   -1    0    0  501    0  0.00000000000E+00  0.00000000000E+00  0.15965008230E+03  0.15965008238E+03  0.50400000000E-02 0. -1.
         -2   -1    0    0    0  501 -0.00000000000E+00 -0.00000000000E+00 -0.10000597466E+02  0.10000597791E+02  0.25500000000E-02 0.  1.
        -24    2    1    2    0    0  0.00000000000E+00 -0.17763568394E-14  0.14964948483E+03  0.16965068017E+03  0.79914860768E+02 0.  0.
         66    2    3    3    0    0 -0.37344863934E+02 -0.12095797563E+02  0.59322956989E+02  0.71162914548E+02  0.20000000235E+01 0.  0.
         13    1    3    3    0    0  0.37344863934E+02  0.12095797563E+02  0.90326527846E+02  0.98487765624E+02  0.10566000000E+00 0. -1.
         13    1    4    4    0    0 -0.12018073733E+02 -0.46499755314E+01  0.19273939541E+02  0.23185173671E+02  0.10566000000E+00 0. -1.
        -13    1    4    4    0    0 -0.99693617062E+01 -0.31255294127E+01  0.15021627251E+02  0.18298020555E+02  0.10566000000E+00 0.  1.
        -14    1    4    4    0    0 -0.15357428495E+02 -0.43202926188E+01  0.25027390197E+02  0.29679720322E+02  0.00000000000E+00 0.  1.
<mgrwt>
<rscale>  0 0.79914861E+02</rscale>
<asrwt>0</asrwt>
<pdfrwt beam="1">  1        1 0.24561550E-01 0.79914861E+02</pdfrwt>
<pdfrwt beam="2">  1       -2 0.15385535E-02 0.79914861E+02</pdfrwt>
<totfact> 0.16017706E+05</totfact>
</mgrwt>
</event>
<event>
 8    1  0.8247621E-014  0.7684003E+02  0.7818608E-02  0.1338266E+00
          1   -1    0    0  501    0  0.00000000000E+00  0.00000000000E+00  0.51722001506E+02  0.51722001752E+02  0.50400000000E-02 0. -1.
         -2   -1    0    0    0  501 -0.00000000000E+00 -0.00000000000E+00 -0.28539066230E+02  0.28539066344E+02  0.25500000000E-02 0.  1.
        -24    2    1    2    0    0  0.00000000000E+00  0.00000000000E+00  0.23182935276E+02  0.80261068096E+02  0.76840032300E+02 0.  0.
         66    2    3    3    0    0 -0.21142226795E+02  0.31412283971E+02  0.49628962796E+01  0.38240759634E+02  0.20000049379E+01 0.  0.
         13    1    3    3    0    0  0.21142226795E+02 -0.31412283971E+02  0.18220038997E+02  0.42020308462E+02  0.10566000000E+00 0. -1.
         13    1    4    4    0    0 -0.63554069883E+01  0.98707426006E+01  0.84909841565E+00  0.11770934102E+02  0.10566000000E+00 0. -1.
        -13    1    4    4    0    0 -0.34794527530E+01  0.45749687667E+01  0.59924610204E+00  0.57798953799E+01  0.10566000000E+00 0.  1.
         14    1    4    4    0    0 -0.11307367054E+02  0.16966572604E+02  0.35145517619E+01  0.20689930152E+02  0.00000000000E+00 0. -1.
<mgrwt>
<rscale>  0 0.76840032E+02</rscale>
<asrwt>0</asrwt>
<pdfrwt beam="1">  1        1 0.79572310E-02 0.76840032E+02</pdfrwt>
<pdfrwt beam="2">  1       -2 0.43906256E-02 0.76840032E+02</pdfrwt>
<totfact> 0.14787912E+05</totfact>
</mgrwt>
</event>
<event>
 8    1  0.8247621E-014  0.7990662E+02  0.7818608E-02  0.1329317E+00
          1   -1    0    0  501    0  0.00000000000E+00  0.00000000000E+00  0.10644630714E+02  0.10644631908E+02  0.50400000000E-02 0. -1.
         -2   -1    0    0    0  501 -0.00000000000E+00 -0.00000000000E+00 -0.14995981987E+03  0.14995981989E+03  0.25500000000E-02 0.  1.
        -24    2    1    2    0    0  0.66613381478E-15  0.71054273576E-14 -0.13931518915E+03  0.16060445180E+03  0.79906620553E+02 0.  0.
         66    2    3    3    0    0 -0.18572368075E+01 -0.20489057513E+02 -0.13848002977E+03  0.14001417590E+03  0.20000006124E+01 0.  0.
         13    1    3    3    0    0  0.18572368075E+01  0.20489057513E+02 -0.83515938733E+00  0.20590275898E+02  0.10566000000E+00 0. -1.
         13    1    4    4    0    0  0.40861426503E+00 -0.26901252830E+01 -0.18030008922E+02  0.18234476286E+02  0.10566000000E+00 0. -1.
        -13    1    4    4    0    0 -0.19297674175E+01 -0.15779597526E+02 -0.10609437711E+03  0.10727883164E+03  0.10566000000E+00 0.  1.
         14    1    4    4    0    0 -0.33608365504E+00 -0.20193347031E+01 -0.14355643736E+02  0.14500867972E+02  0.00000000000E+00 0. -1.
<mgrwt>
<rscale>  0 0.79906621E+02</rscale>
<asrwt>0</asrwt>
<pdfrwt beam="1">  1        1 0.16376357E-02 0.79906621E+02</pdfrwt>
<pdfrwt beam="2">  1       -2 0.23070740E-01 0.79906621E+02</pdfrwt>
<totfact> 0.94803097E+04</totfact>
</mgrwt>
</event>
<event>
 8    1  0.8247621E-014  0.7944099E+02  0.7818608E-02  0.1330645E+00
         -2   -1    0    0    0  501 -0.00000000000E+00  0.00000000000E+00  0.94241152873E+01  0.94241156323E+01  0.25500000000E-02 0.  1.
          1   -1    0    0  501    0  0.00000000000E+00 -0.00000000000E+00 -0.16741280168E+03  0.16741280176E+03  0.50400000000E-02 0. -1.
        -24    2    1    2    0    0  0.00000000000E+00  0.35527136788E-14 -0.15798868640E+03  0.17683691739E+03  0.79440986420E+02 0.  0.
         66    2    3    3    0    0 -0.25395052343E+02 -0.28874664592E+02 -0.10097450780E+03  0.10806713722E+03  0.19999960763E+01 0.  0.
         13    1    3    3    0    0  0.25395052343E+02  0.28874664592E+02 -0.57014178601E+02  0.68769780168E+02  0.10566000000E+00 0. -1.
         13    1    4    4    0    0 -0.89393362948E+01 -0.94946755541E+01 -0.33540458525E+02  0.35986582491E+02  0.10566000000E+00 0. -1.
        -13    1    4    4    0    0 -0.43686204566E+01 -0.47637570333E+01 -0.15662066130E+02  0.16943721706E+02  0.10566000000E+00 0.  1.
        -14    1    4    4    0    0 -0.12087095592E+02 -0.14616232005E+02 -0.51771983142E+02  0.55136833028E+02  0.00000000000E+00 0.  1.
<mgrwt>
<rscale>  0 0.79440986E+02</rscale>
<asrwt>0</asrwt>
<pdfrwt beam="1">  1        1 0.25755814E-01 0.79440986E+02</pdfrwt>
<pdfrwt beam="2">  1       -2 0.14498640E-02 0.79440986E+02</pdfrwt>
<totfact> 0.16419041E+05</totfact>
</mgrwt>
</event>
<event>
 8    1  0.8247621E-014  0.8396487E+02  0.7818608E-02  0.1318162E+00
          1   -1    0    0  501    0  0.00000000000E+00  0.00000000000E+00  0.94926225456E+02  0.94926225590E+02  0.50400000000E-02 0. -1.
         -2   -1    0    0    0  501 -0.00000000000E+00 -0.00000000000E+00 -0.18567312848E+02  0.18567313023E+02  0.25500000000E-02 0.  1.
        -24    2    1    2    0    0  0.00000000000E+00  0.00000000000E+00  0.76358912608E+02  0.11349353861E+03  0.83964872252E+02 0.  0.
         66    2    3    3    0    0 -0.33094886736E+02  0.25716732872E+02  0.35532373017E+02  0.54983373884E+02  0.19999984449E+01 0.  0.
         13    1    3    3    0    0  0.33094886736E+02 -0.25716732872E+02  0.40826539591E+02  0.58510164729E+02  0.10566000000E+00 0. -1.
         13    1    4    4    0    0 -0.79030731403E+01  0.60503993180E+01  0.87312120437E+01  0.13240510744E+02  0.10566000000E+00 0.  1.
        -13    1    4    4    0    0 -0.15724026202E+02  0.12007425385E+02  0.15567241105E+02  0.25174856982E+02  0.10566000000E+00 0.  1.
        -14    1    4    4    0    0 -0.94677873933E+01  0.76589081683E+01  0.11233919868E+02  0.16568006158E+02  0.00000000000E+00 0.  1.
<mgrwt>
<rscale>  0 0.83964872E+02</rscale>
<asrwt>0</asrwt>
<pdfrwt beam="1">  1        1 0.14604034E-01 0.83964872E+02</pdfrwt>
<pdfrwt beam="2">  1       -2 0.28565098E-02 0.83964872E+02</pdfrwt>
<totfact> 0.12777653E+05</totfact>
</mgrwt>
</event>
<event>
 8    1  0.8247621E-014  0.8135259E+02  0.7818608E-02  0.1325256E+00
          1   -1    0    0  501    0  0.00000000000E+00  0.00000000000E+00  0.17412345678E+03  0.17412345685E+03  0.50400000000E-02 0. -1.
         -2   -1    0    0    0  501 -0.00000000000E+00 -0.00000000000E+00 -0.95022295682E+01  0.95022299104E+01  0.25500000000E-02 0.  1.
        -24    2    1    2    0    0 -0.71054273576E-14  0.00000000000E+00  0.16462122721E+03  0.18362568676E+03  0.81352593017E+02 0.  0.
         66    2    3    3    0    0  0.33228112885E+02  0.20114256078E+02  0.55286990303E+02  0.67596908833E+02  0.20000008916E+01 0.  0.
         13    1    3    3    0    0 -0.33228112885E+02 -0.20114256078E+02  0.10933423691E+03  0.11602877793E+03  0.10566000000E+00 0. -1.
         13    1    4    4    0    0  0.97696208424E+01  0.67388577738E+01  0.16420790770E+02  0.20261076700E+02  0.10566000000E+00 0. -1.
        -13    1    4    4    0    0  0.12016240595E+02  0.73788238861E+01  0.20121391091E+02  0.24570686263E+02  0.10566000000E+00 0.  1.
         14    1    4    4    0    0  0.11442251448E+02  0.59965744179E+01  0.18744808442E+02  0.22765145870E+02  0.00000000000E+00 0. -1.
<mgrwt>
<rscale>  0 0.81352593E+02</rscale>
<asrwt>0</asrwt>
<pdfrwt beam="1">  1        1 0.26788224E-01 0.81352593E+02</pdfrwt>
<pdfrwt beam="2">  1       -2 0.14618815E-02 0.81352593E+02</pdfrwt>
<totfact> 0.15525725E+05</totfact>
</mgrwt>
</event>
<event>
 8    1  0.9889961E-014  0.7925573E+02  0.7818608E-02  0.1331177E+00
          1   -1    0    0  501    0  0.00000000000E+00  0.00000000000E+00  0.35153504654E+02  0.35153505016E+02  0.50400000000E-02 0. -1.
         -2   -1    0    0    0  501 -0.00000000000E+00 -0.00000000000E+00 -0.44671728609E+02  0.44671728682E+02  0.25500000000E-02 0.  1.
        -24    2    1    2    0    0 -0.88817841970E-15  0.35527136788E-14 -0.95182239552E+01  0.79825233698E+02  0.79255733847E+02 0.  0.
         66    2    3    3    0    0 -0.73591729083E+01 -0.23018996009E+02 -0.36361629804E+02  0.43705831644E+02  0.19999986287E+01 0.  0.
         13    1    3    3    0    0  0.73591729083E+01  0.23018996009E+02  0.26843405849E+02  0.36119402054E+02  0.10566000000E+00 0. -1.
         13    1    4    4    0    0 -0.27026106500E+00 -0.22796616872E+01 -0.34234939946E+01  0.41232721979E+01  0.10566000000E+00 0. -1.
        -13    1    4    4    0    0 -0.14639669988E+01 -0.43206411110E+01 -0.60093161303E+01  0.75454743637E+01  0.10566000000E+00 0.  1.
        -14    1    4    4    0    0 -0.56249448445E+01 -0.16418693211E+02 -0.26928819679E+02  0.32037085082E+02  0.00000000000E+00 0.  1.
<mgrwt>
<rscale>  0 0.79255734E+02</rscale>
<asrwt>0</asrwt>
<pdfrwt beam="1">  1        1 0.54082315E-02 0.79255734E+02</pdfrwt>
<pdfrwt beam="2">  1       -2 0.68725737E-02 0.79255734E+02</pdfrwt>
<totfact> 0.12763873E+05</totfact>
</mgrwt>
</event>
<event>
 8    1  0.8247621E-014  0.8075230E+02  0.7818608E-02  0.1326930E+00
          1   -1    0    0  501    0  0.00000000000E+00  0.00000000000E+00  0.28799902804E+02  0.28799903245E+02  0.50400000000E-02 0. -1.
         -2   -1    0    0    0  501 -0.00000000000E+00 -0.00000000000E+00 -0.56605519095E+02  0.56605519153E+02  0.25500000000E-02 0.  1.
        -24    2    1    2    0    0  0.00000000000E+00  0.71054273576E-14 -0.27805616291E+02  0.85405422397E+02  0.80752299519E+02 0.  0.
         66    2    3    3    0    0  0.24129031175E+02  0.32217520898E+02 -0.16911996951E+02  0.43705771265E+02  0.20000006826E+01 0.  0.
         13    1    3    3    0    0 -0.24129031175E+02 -0.32217520898E+02 -0.10893619340E+02  0.41699651133E+02  0.10566000000E+00 0. -1.
         13    1    4    4    0    0  0.87258540856E+00  0.13462873141E+01 -0.99532158386E+00  0.18909584655E+01  0.10566000000E+00 0. -1.
        -13    1    4    4    0    0  0.18970816654E+02  0.25451835667E+02 -0.13492702857E+02  0.34492782111E+02  0.10566000000E+00 0.  1.
        -14    1    4    4    0    0  0.42856291126E+01  0.54193979164E+01 -0.24239725108E+01  0.73220306883E+01  0.00000000000E+00 0.  1.
<mgrwt>
<rscale>  0 0.80752300E+02</rscale>
<asrwt>0</asrwt>
<pdfrwt beam="1">  1        1 0.44307543E-02 0.80752300E+02</pdfrwt>
<pdfrwt beam="2">  1       -2 0.87085414E-02 0.80752300E+02</pdfrwt>
<totfact> 0.11686963E+05</totfact>
</mgrwt>
</event>
<event>
 8    1  0.8247621E-014  0.7929381E+02  0.7818608E-02  0.1331068E+00
         -2   -1    0    0    0  501 -0.00000000000E+00  0.00000000000E+00  0.16445349693E+02  0.16445349891E+02  0.25500000000E-02 0.  1.
          1   -1    0    0  501    0  0.00000000000E+00 -0.00000000000E+00 -0.95581850691E+02  0.95581850824E+02  0.50400000000E-02 0. -1.
        -24    2    1    2    0    0  0.00000000000E+00 -0.35527136788E-14 -0.79136500998E+02  0.11202720071E+03  0.79293807512E+02 0.  0.
         66    2    3    3    0    0  0.18106150707E+02  0.30774952139E+02 -0.15329918692E+02  0.38909340501E+02  0.19999996399E+01 0.  0.
         13    1    3    3    0    0 -0.18106150707E+02 -0.30774952139E+02 -0.63806582306E+02  0.73117860213E+02  0.10566000000E+00 0. -1.
         13    1    4    4    0    0  0.41617573152E+00  0.70562704781E+00 -0.88270549630E-01  0.83070301290E+00  0.10566000000E+00 0. -1.
        -13    1    4    4    0    0  0.16759791095E+01  0.30838666974E+01 -0.13534462533E+01  0.37632593027E+01  0.10566000000E+00 0.  1.
         14    1    4    4    0    0  0.16013995866E+02  0.26985458394E+02 -0.13888201889E+02  0.34315378186E+02  0.00000000000E+00 0. -1.
<mgrwt>
<rscale>  0 0.79293808E+02</rscale>
<asrwt>0</asrwt>
<pdfrwt beam="1">  1        1 0.14704900E-01 0.79293808E+02</pdfrwt>
<pdfrwt beam="2">  1       -2 0.25300539E-02 0.79293808E+02</pdfrwt>
<totfact> 0.14942471E+05</totfact>
</mgrwt>
</event>
<event>
 8    1  0.8247621E-014  0.7781428E+02  0.7818608E-02  0.1335371E+00
          1   -1    0    0  501    0  0.00000000000E+00  0.00000000000E+00  0.60694341687E+02  0.60694341896E+02  0.50400000000E-02 0. -1.
         -2   -1    0    0    0  501 -0.00000000000E+00 -0.00000000000E+00 -0.24940803117E+02  0.24940803248E+02  0.25500000000E-02 0.  1.
        -24    2    1    2    0    0 -0.17763568394E-14  0.00000000000E+00  0.35753538570E+02  0.85635145144E+02  0.77814282517E+02 0.  0.
         66    2    3    3    0    0 -0.10044939182E+02  0.99409406312E+01 -0.21974076366E+02  0.26202731480E+02  0.20000002701E+01 0.  0.
         13    1    3    3    0    0  0.10044939182E+02 -0.99409406312E+01  0.57727614936E+02  0.59432413664E+02  0.10566000000E+00 0. -1.
         13    1    4    4    0    0 -0.83770993004E+00  0.77583686176E+00 -0.13455374959E+01  0.17678563153E+01  0.10566000000E+00 0. -1.
        -13    1    4    4    0    0 -0.39693406562E+01  0.41680900250E+01 -0.76517077176E+01  0.95754078103E+01  0.10566000000E+00 0.  1.
         14    1    4    4    0    0 -0.52378885952E+01  0.49970137444E+01 -0.12976831152E+02  0.14859467354E+02  0.00000000000E+00 0. -1.
<mgrwt>
<rscale>  0 0.77814283E+02</rscale>
<asrwt>0</asrwt>
<pdfrwt beam="1">  1        1 0.93375911E-02 0.77814283E+02</pdfrwt>
<pdfrwt beam="2">  1       -2 0.38370466E-02 0.77814283E+02</pdfrwt>
<totfact> 0.14636036E+05</totfact>
</mgrwt>
</event>
<event>
 8    1  0.8247621E-014  0.7248451E+02  0.7818608E-02  0.1351843E+00
          1   -1    0    0  501    0  0.00000000000E+00  0.00000000000E+00  0.89285486028E+02  0.89285486170E+02  0.50400000000E-02 0. -1.
         -2   -1    0    0    0  501 -0.00000000000E+00 -0.00000000000E+00 -0.14711248766E+02  0.14711248987E+02  0.25500000000E-02 0.  1.
        -24    2    1    2    0    0 -0.35527136788E-14 -0.35527136788E-14  0.74574237262E+02  0.10399673516E+03  0.72484509106E+02 0.  0.
         66    2    3    3    0    0  0.18823593429E+02  0.30279720564E+02  0.46424306774E+02  0.58569662860E+02  0.20000002657E+01 0.  0.
         13    1    3    3    0    0 -0.18823593429E+02 -0.30279720564E+02  0.28149930487E+02  0.45427072297E+02  0.10566000000E+00 0. -1.
         13    1    4    4    0    0  0.16178975460E+01  0.33250720379E+01  0.46934067415E+01  0.59760294012E+01  0.10566000000E+00 0. -1.
        -13    1    4    4    0    0  0.70844574469E+01  0.12393956685E+02  0.18780006017E+02  0.23590241408E+02  0.10566000000E+00 0.  1.
         14    1    4    4    0    0  0.10121238437E+02  0.14560691841E+02  0.22950894015E+02  0.29003392051E+02  0.00000000000E+00 0. -1.
<mgrwt>
<rscale>  0 0.72484509E+02</rscale>
<asrwt>0</asrwt>
<pdfrwt beam="1">  1        1 0.13736229E-01 0.72484509E+02</pdfrwt>
<pdfrwt beam="2">  1       -2 0.22632690E-02 0.72484509E+02</pdfrwt>
<totfact> 0.18813419E+05</totfact>
</mgrwt>
</event>
<event>
 8    1  0.8247621E-014  0.7906228E+02  0.7818608E-02  0.1331734E+00
         -2   -1    0    0    0  501 -0.00000000000E+00  0.00000000000E+00  0.46023946773E+01  0.46023953837E+01  0.25500000000E-02 0.  1.
          1   -1    0    0  501    0  0.00000000000E+00 -0.00000000000E+00 -0.33954299622E+03  0.33954299626E+03  0.50400000000E-02 0. -1.
        -24    2    1    2    0    0  0.00000000000E+00  0.35527136788E-14 -0.33494060154E+03  0.34414539164E+03  0.79062279414E+02 0.  0.
         66    2    3    3    0    0 -0.32428166726E+02  0.18868566799E+02 -0.11371841191E+03  0.11976429359E+03  0.20000007027E+01 0.  0.
         13    1    3    3    0    0  0.32428166726E+02 -0.18868566799E+02 -0.22122218964E+03  0.22438109805E+03  0.10566000000E+00 0. -1.
         13    1    4    4    0    0 -0.44602175137E+00  0.29994523309E+00 -0.19837942793E+01  0.20580345779E+01  0.10566000000E+00 0.  1.
        -13    1    4    4    0    0 -0.30192195311E+02  0.17888815052E+02 -0.10643141686E+03  0.11206799731E+03  0.10566000000E+00 0.  1.
         14    1    4    4    0    0 -0.17899496635E+01  0.67980651386E+00 -0.53032007612E+01  0.56382617009E+01  0.00000000000E+00 0. -1.
<mgrwt>
<rscale>  0 0.79062279E+02</rscale>
<asrwt>0</asrwt>
<pdfrwt beam="1">  1        1 0.52237365E-01 0.79062279E+02</pdfrwt>
<pdfrwt beam="2">  1       -2 0.70806104E-03 0.79062279E+02</pdfrwt>
<totfact> 0.19043875E+05</totfact>
</mgrwt>
</event>
<event>
 8    1  0.8247621E-014  0.7594861E+02  0.7818608E-02  0.1340958E+00
          1   -1    0    0  501    0  0.00000000000E+00  0.00000000000E+00  0.46611327251E+02  0.46611327524E+02  0.50400000000E-02 0. -1.
         -2   -1    0    0    0  501 -0.00000000000E+00 -0.00000000000E+00 -0.30937710215E+02  0.30937710320E+02  0.25500000000E-02 0.  1.
        -24    2    1    2    0    0  0.00000000000E+00 -0.35527136788E-14  0.15673617037E+02  0.77549037844E+02  0.75948607620E+02 0.  0.
         66    2    3    3    0    0  0.17486850137E+02 -0.29526461861E+02 -0.86991781177E+01  0.35458110253E+02  0.20000012638E+01 0.  0.
         13    1    3    3    0    0 -0.17486850137E+02  0.29526461861E+02  0.24372795154E+02  0.42090927590E+02  0.10566000000E+00 0. -1.
         13    1    4    4    0    0  0.38913834649E+01 -0.64631282233E+01 -0.20418673127E+01  0.78163468360E+01  0.10566000000E+00 0.  1.
        -13    1    4    4    0    0  0.13500238824E+02 -0.23072708690E+02 -0.66377584391E+01  0.27544098020E+02  0.10566000000E+00 0.  1.
        -14    1    4    4    0    0  0.95227848780E-01  0.93750527579E-02 -0.19552365836E-01  0.97665397185E-01  0.00000000000E+00 0.  1.
<mgrwt>
<rscale>  0 0.75948608E+02</rscale>
<asrwt>0</asrwt>
<pdfrwt beam="1">  1        1 0.71709734E-02 0.75948608E+02</pdfrwt>
<pdfrwt beam="2">  1       -2 0.47596478E-02 0.75948608E+02</pdfrwt>
<totfact> 0.15034421E+05</totfact>
</mgrwt>
</event>
<event>
 8    1  0.8247621E-014  0.7925419E+02  0.7818608E-02  0.1331181E+00
         -2   -1    0    0    0  501 -0.00000000000E+00  0.00000000000E+00  0.13428911518E+02  0.13428911760E+02  0.25500000000E-02 0.  1.
          1   -1    0    0  501    0  0.00000000000E+00 -0.00000000000E+00 -0.11693477775E+03  0.11693477786E+03  0.50400000000E-02 0. -1.
        -24    2    1    2    0    0  0.00000000000E+00 -0.17763568394E-14 -0.10350586623E+03  0.13036368962E+03  0.79254193748E+02 0.  0.
         66    2    3    3    0    0 -0.23345922282E+02 -0.91644833224E+01 -0.13739762060E+01  0.25197373880E+02  0.19999995093E+01 0.  0.
         13    1    3    3    0    0  0.23345922282E+02  0.91644833224E+01 -0.10213189003E+03  0.10516631574E+03  0.10566000000E+00 0. -1.
         13    1    4    4    0    0 -0.42278959191E+01 -0.15571057249E+01  0.11725624665E+00  0.45082807371E+01  0.10566000000E+00 0.  1.
        -13    1    4    4    0    0 -0.45157458112E+01 -0.15865895278E+01  0.27740536686E+00  0.47955546430E+01  0.10566000000E+00 0. -1.
         14    1    4    4    0    0 -0.14602280552E+02 -0.60207880697E+01 -0.17686378195E+01  0.15893538500E+02  0.00000000000E+00 0. -1.
<mgrwt>
<rscale>  0 0.79254194E+02</rscale>
<asrwt>0</asrwt>
<pdfrwt beam="1">  1        1 0.17989965E-01 0.79254194E+02</pdfrwt>
<pdfrwt beam="2">  1       -2 0.20659865E-02 0.79254194E+02</pdfrwt>
<totfact> 0.15482982E+05</totfact>
</mgrwt>
</event>
<event>
 8    1  0.8247621E-014  0.7913912E+02  0.7818608E-02  0.1331512E+00
         -2   -1    0    0    0  501 -0.00000000000E+00  0.00000000000E+00  0.87458396443E+01  0.87458400161E+01  0.25500000000E-02 0.  1.
          1   -1    0    0  501    0  0.00000000000E+00 -0.00000000000E+00 -0.17902799608E+03  0.17902799615E+03  0.50400000000E-02 0. -1.
        -24    2    1    2    0    0  0.71054273576E-14  0.35527136788E-14 -0.17028215643E+03  0.18777383617E+03  0.79139122742E+02 0.  0.
         66    2    3    3    0    0 -0.30926194620E+02 -0.23324752256E+02 -0.66321973197E+02  0.76831488776E+02  0.19999893425E+01 0.  0.
         13    1    3    3    0    0  0.30926194620E+02  0.23324752256E+02 -0.10396018324E+03  0.11094234739E+03  0.10566000000E+00 0. -1.
         13    1    4    4    0    0 -0.11386164314E+02 -0.96543180964E+01 -0.24873000154E+02  0.29009100234E+02  0.10566000000E+00 0. -1.
        -13    1    4    4    0    0 -0.14814328874E+02 -0.10590527703E+02 -0.31428189280E+02  0.36323076170E+02  0.10566000000E+00 0.  1.
         14    1    4    4    0    0 -0.47257014314E+01 -0.30799064569E+01 -0.10020783763E+02  0.11499312372E+02  0.00000000000E+00 0. -1.
<mgrwt>
<rscale>  0 0.79139123E+02</rscale>
<asrwt>0</asrwt>
<pdfrwt beam="1">  1        1 0.27542766E-01 0.79139123E+02</pdfrwt>
<pdfrwt beam="2">  1       -2 0.13455140E-02 0.79139123E+02</pdfrwt>
<totfact> 0.16797907E+05</totfact>
</mgrwt>
</event>
<event>
 8    1  0.8247621E-014  0.8174596E+02  0.7818608E-02  0.1324168E+00
          1   -1    0    0  501    0  0.00000000000E+00  0.00000000000E+00  0.10779318655E+03  0.10779318667E+03  0.50400000000E-02 0. -1.
         -2   -1    0    0    0  501 -0.00000000000E+00 -0.00000000000E+00 -0.15498199202E+02  0.15498199412E+02  0.25500000000E-02 0.  1.
        -24    2    1    2    0    0  0.88817841970E-15  0.35527136788E-14  0.92294987351E+02  0.12329138608E+03  0.81745955202E+02 0.  0.
         66    2    3    3    0    0  0.52652778975E+01 -0.21818341846E+02 -0.53001705496E+01  0.23148542095E+02  0.20000002545E+01 0.  0.
         13    1    3    3    0    0 -0.52652778975E+01  0.21818341846E+02  0.97595157900E+02  0.10014284399E+03  0.10566000000E+00 0. -1.
         13    1    4    4    0    0  0.12345788704E+01 -0.53912924787E+01 -0.10083412765E+01  0.56230005997E+01  0.10566000000E+00 0. -1.
        -13    1    4    4    0    0  0.68857513842E+00 -0.36171610821E+01 -0.15992033039E+01  0.40157944741E+01  0.10566000000E+00 0.  1.
        -14    1    4    4    0    0  0.33421238887E+01 -0.12809888285E+02 -0.26926259692E+01  0.13509747021E+02  0.00000000000E+00 0.  1.
<mgrwt>
<rscale>  0 0.81745955E+02</rscale>
<asrwt>0</asrwt>
<pdfrwt beam="1">  1        1 0.16583568E-01 0.81745955E+02</pdfrwt>
<pdfrwt beam="2">  1       -2 0.23843383E-02 0.81745955E+02</pdfrwt>
<totfact> 0.14044327E+05</totfact>
</mgrwt>
</event>
<event>
 8    1  0.8247621E-014  0.7943384E+02  0.7818608E-02  0.1330666E+00
         -2   -1    0    0    0  501 -0.00000000000E+00  0.00000000000E+00  0.79756542795E+01  0.79756546871E+01  0.25500000000E-02 0.  1.
          1   -1    0    0  501    0  0.00000000000E+00 -0.00000000000E+00 -0.19778108507E+03  0.19778108513E+03  0.50400000000E-02 0. -1.
        -24    2    1    2    0    0  0.00000000000E+00 -0.35527136788E-14 -0.18980543079E+03  0.20575673982E+03  0.79433836772E+02 0.  0.
         66    2    3    3    0    0  0.28373947492E+02 -0.15991476041E+02 -0.36201321325E+02  0.48737499565E+02  0.19999989702E+01 0.  0.
         13    1    3    3    0    0 -0.28373947492E+02  0.15991476041E+02 -0.15360410946E+03  0.15701924026E+03  0.10566000000E+00 0. -1.
         13    1    4    4    0    0  0.18602441359E+01 -0.80528169054E+00 -0.28181809334E+01  0.34730814351E+01  0.10566000000E+00 0. -1.
        -13    1    4    4    0    0  0.97164007579E+01 -0.60447033154E+01 -0.12311798975E+02  0.16808879793E+02  0.10566000000E+00 0.  1.
        -14    1    4    4    0    0  0.16797302598E+02 -0.91414910349E+01 -0.21071341417E+02  0.28455538336E+02  0.00000000000E+00 0.  1.
<mgrwt>
<rscale>  0 0.79433837E+02</rscale>
<asrwt>0</asrwt>
<pdfrwt beam="1">  1        1 0.30427856E-01 0.79433837E+02</pdfrwt>
<pdfrwt beam="2">  1       -2 0.12270239E-02 0.79433837E+02</pdfrwt>
<totfact> 0.16954532E+05</totfact>
</mgrwt>
</event>
<event>
 8    1  0.8247621E-014  0.8368094E+02  0.7818608E-02  0.1318918E+00
         -2   -1    0    0    0  501 -0.00000000000E+00  0.00000000000E+00  0.10245401539E+03  0.10245401543E+03  0.25500000000E-02 0.  1.
          1   -1    0    0  501    0  0.00000000000E+00 -0.00000000000E+00 -0.17086933543E+02  0.17086934286E+02  0.50400000000E-02 0. -1.
        -24    2    1    2    0    0  0.00000000000E+00  0.17763568394E-14  0.85367081851E+02  0.11954094971E+03  0.83680941642E+02 0.  0.
         66    2    3    3    0    0  0.82107157412E+01 -0.14165758986E+02  0.97674539044E+02  0.99057560168E+02  0.20000170668E+01 0.  0.
         13    1    3    3    0    0 -0.82107157412E+01  0.14165758986E+02 -0.12307457193E+02  0.20483389544E+02  0.10566000000E+00 0. -1.
         13    1    4    4    0    0  0.44538594675E+01 -0.77530238147E+01  0.58139830937E+02  0.58823442163E+02  0.10566000000E+00 0.  1.
        -13    1    4    4    0    0  0.17351359011E+01 -0.33546348388E+01  0.18416274024E+02  0.18799855969E+02  0.10566000000E+00 0. -1.
         14    1    4    4    0    0  0.20217203726E+01 -0.30581003322E+01  0.21118434083E+02  0.21434262036E+02  0.00000000000E+00 0. -1.
<mgrwt>
<rscale>  0 0.83680942E+02</rscale>
<asrwt>0</asrwt>
<pdfrwt beam="1">  1        1 0.26287590E-02 0.83680942E+02</pdfrwt>
<pdfrwt beam="2">  1       -2 0.15762157E-01 0.83680942E+02</pdfrwt>
<totfact> 0.93999663E+04</totfact>
</mgrwt>
</event>
<event>
 8    1  0.8247621E-014  0.7746002E+02  0.7818608E-02  0.1336418E+00
          1   -1    0    0  501    0  0.00000000000E+00  0.00000000000E+00  0.37329808212E+03  0.37329808215E+03  0.50400000000E-02 0. -1.
         -2   -1    0    0    0  501 -0.00000000000E+00 -0.00000000000E+00 -0.40182727001E+01  0.40182735092E+01  0.25500000000E-02 0.  1.
        -24    2    1    2    0    0  0.00000000000E+00  0.17763568394E-14  0.36927980942E+03  0.37731635566E+03  0.77460019402E+02 0.  0.
         66    2    3    3    0    0  0.33971342847E+02 -0.11867774546E+02  0.25418453527E+03  0.25672684740E+03  0.19999994812E+01 0.  0.
         13    1    3    3    0    0 -0.33971342847E+02  0.11867774546E+02  0.11509527415E+03  0.12058950826E+03  0.10566000000E+00 0. -1.
         13    1    4    4    0    0  0.14830391608E+02 -0.56826527972E+01  0.10959719267E+03  0.11074199232E+03  0.10566000000E+00 0. -1.
        -13    1    4    4    0    0  0.11132151527E+02 -0.36935388879E+01  0.88478064275E+02  0.89252148708E+02  0.10566000000E+00 0.  1.
        -14    1    4    4    0    0  0.80087997118E+01 -0.24915828607E+01  0.56109278321E+02  0.56732706367E+02  0.00000000000E+00 0.  1.
<mgrwt>
<rscale>  0 0.77460019E+02</rscale>
<asrwt>0</asrwt>
<pdfrwt beam="1">  1        1 0.57430494E-01 0.77460019E+02</pdfrwt>
<pdfrwt beam="2">  1       -2 0.61819566E-03 0.77460019E+02</pdfrwt>
<totfact> 0.20432551E+05</totfact>
</mgrwt>
</event>
<event>
 8    1  0.8247621E-014  0.7856625E+02  0.7818608E-02  0.1333170E+00
         -2   -1    0    0    0  501 -0.00000000000E+00  0.00000000000E+00  0.63641030116E+02  0.63641030167E+02  0.25500000000E-02 0.  1.
          1   -1    0    0  501    0  0.00000000000E+00 -0.00000000000E+00 -0.24247941955E+02  0.24247942479E+02  0.50400000000E-02 0. -1.
        -24    2    1    2    0    0 -0.71054273576E-14  0.00000000000E+00  0.39393088162E+02  0.87888972646E+02  0.78566253047E+02 0.  0.
         66    2    3    3    0    0  0.38396775968E+02 -0.24349904981E+01  0.28440381323E+02  0.47886291053E+02  0.19999993826E+01 0.  0.
         13    1    3    3    0    0 -0.38396775968E+02  0.24349904981E+01  0.10952706839E+02  0.40002681593E+02  0.10566000000E+00 0. -1.
         13    1    4    4    0    0  0.50078578052E+01  0.17836422402E+00  0.38582566447E+01  0.63251689278E+01  0.10566000000E+00 0. -1.
        -13    1    4    4    0    0  0.21213937182E+02 -0.10930130922E+01  0.15580603864E+02  0.26343731497E+02  0.10566000000E+00 0.  1.
        -14    1    4    4    0    0  0.12174980982E+02 -0.15203416299E+01  0.90015208137E+01  0.15217390628E+02  0.00000000000E+00 0.  1.
<mgrwt>
<rscale>  0 0.78566253E+02</rscale>
<asrwt>0</asrwt>
<pdfrwt beam="1">  1        1 0.37304526E-02 0.78566253E+02</pdfrwt>
<pdfrwt beam="2">  1       -2 0.97909278E-02 0.78566253E+02</pdfrwt>
<totfact> 0.12256631E+05</totfact>
</mgrwt>
</event>
<event>
 8    1  0.8247621E-014  0.7603230E+02  0.7818608E-02  0.1340704E+00
          1   -1    0    0  501    0  0.00000000000E+00  0.00000000000E+00  0.70106300710E+02  0.70106300891E+02  0.50400000000E-02 0. -1.
         -2   -1    0    0    0  501 -0.00000000000E+00 -0.00000000000E+00 -0.20614805461E+02  0.20614805619E+02  0.25500000000E-02 0.  1.
        -24    2    1    2    0    0  0.00000000000E+00  0.00000000000E+00  0.49491495249E+02  0.90721106510E+02  0.76032302769E+02 0.  0.
         66    2    3    3    0    0 -0.17792022654E+02  0.32887797920E+02  0.16753357142E+02  0.41022412634E+02  0.20000101578E+01 0.  0.
         13    1    3    3    0    0  0.17792022654E+02 -0.32887797920E+02  0.32738138107E+02  0.49698693875E+02  0.10566000000E+00 0. -1.
         13    1    4    4    0    0 -0.45787752606E+01  0.71561388680E+01  0.38555159788E+01  0.93301486528E+01  0.10566000000E+00 0. -1.
        -13    1    4    4    0    0 -0.17219493023E+01  0.26004002254E+01  0.13877470142E+01  0.34152886471E+01  0.10566000000E+00 0.  1.
        -14    1    4    4    0    0 -0.11491298092E+02  0.23131258827E+02  0.11510094149E+02  0.28276975334E+02  0.00000000000E+00 0.  1.
<mgrwt>
<rscale>  0 0.76032303E+02</rscale>
<asrwt>0</asrwt>
<pdfrwt beam="1">  1        1 0.10785585E-01 0.76032303E+02</pdfrwt>
<pdfrwt beam="2">  1       -2 0.31715085E-02 0.76032303E+02</pdfrwt>
<totfact> 0.15938918E+05</totfact>
</mgrwt>
</event>
<event>
 8    1  0.8247621E-014  0.7901135E+02  0.7818608E-02  0.1331881E+00
          1   -1    0    0  501    0  0.00000000000E+00  0.00000000000E+00  0.14405480249E+02  0.14405481131E+02  0.50400000000E-02 0. -1.
         -2   -1    0    0    0  501 -0.00000000000E+00 -0.00000000000E+00 -0.10834058172E+03  0.10834058175E+03  0.25500000000E-02 0.  1.
        -24    2    1    2    0    0 -0.71054273576E-14 -0.88817841970E-15 -0.93935101467E+02  0.12274606288E+03  0.79011345162E+02 0.  0.
         66    2    3    3    0    0 -0.38566511062E+02  0.75775024489E+01 -0.41205829661E+02  0.56979950113E+02  0.19999994873E+01 0.  0.
         13    1    3    3    0    0  0.38566511062E+02 -0.75775024489E+01 -0.52729271806E+02  0.65766112764E+02  0.10566000000E+00 0. -1.
         13    1    4    4    0    0 -0.32877470038E+01  0.86384907538E+00 -0.33244225340E+01  0.47558873837E+01  0.10566000000E+00 0.  1.
        -13    1    4    4    0    0 -0.21476747478E+02  0.32771422542E+01 -0.22996362049E+02  0.31635963319E+02  0.10566000000E+00 0.  1.
        -14    1    4    4    0    0 -0.13802016580E+02  0.34365111194E+01 -0.14885045077E+02  0.20588099410E+02  0.00000000000E+00 0.  1.
<mgrwt>
<rscale>  0 0.79011345E+02</rscale>
<asrwt>0</asrwt>
<pdfrwt beam="1">  1        1 0.22162279E-02 0.79011345E+02</pdfrwt>
<pdfrwt beam="2">  1       -2 0.16667781E-01 0.79011345E+02</pdfrwt>
<totfact> 0.10734955E+05</totfact>
</mgrwt>
</event>
<event>
 8    1  0.8247621E-014  0.8069591E+02  0.7818608E-02  0.1327088E+00
         -2   -1    0    0    0  501 -0.00000000000E+00  0.00000000000E+00  0.14359254679E+02  0.14359254905E+02  0.25500000000E-02 0.  1.
          1   -1    0    0  501    0  0.00000000000E+00 -0.00000000000E+00 -0.11337338531E+03  0.11337338542E+03  0.50400000000E-02 0. -1.
        -24    2    1    2    0    0  0.35527136788E-14 -0.35527136788E-14 -0.99014130631E+02  0.12773264033E+03  0.80695906590E+02 0.  0.
         66    2    3    3    0    0 -0.22526997310E+02  0.24677015820E+02 -0.13807148396E+02  0.36208535835E+02  0.20000007177E+01 0.  0.
         13    1    3    3    0    0  0.22526997310E+02 -0.24677015820E+02 -0.85206982235E+02  0.91524104493E+02  0.10566000000E+00 0. -1.
         13    1    4    4    0    0 -0.15687637444E+01  0.22359980152E+01 -0.77135016966E+00  0.28402204016E+01  0.10566000000E+00 0. -1.
        -13    1    4    4    0    0 -0.89835397395E+01  0.98358293830E+01 -0.60551560822E+01  0.14632962964E+02  0.10566000000E+00 0.  1.
         14    1    4    4    0    0 -0.11974693826E+02  0.12605188422E+02 -0.69806421445E+01  0.18735352469E+02  0.00000000000E+00 0. -1.
<mgrwt>
<rscale>  0 0.80695907E+02</rscale>
<asrwt>0</asrwt>
<pdfrwt beam="1">  1        1 0.17442059E-01 0.80695907E+02</pdfrwt>
<pdfrwt beam="2">  1       -2 0.22091162E-02 0.80695907E+02</pdfrwt>
<totfact> 0.14670836E+05</totfact>
</mgrwt>
</event>
<event>
 8    1  0.8247621E-014  0.7847008E+02  0.7818608E-02  0.1333450E+00
          1   -1    0    0  501    0  0.00000000000E+00  0.00000000000E+00  0.29486988828E+03  0.29486988832E+03  0.50400000000E-02 0. -1.
         -2   -1    0    0    0  501 -0.00000000000E+00 -0.00000000000E+00 -0.52205682067E+01  0.52205688295E+01  0.25500000000E-02 0.  1.
        -24    2    1    2    0    0  0.00000000000E+00  0.00000000000E+00  0.28964932007E+03  0.30009045715E+03  0.78470082548E+02 0.  0.
         66    2    3    3    0    0 -0.11462028682E+02 -0.37493828988E+02  0.14670492511E+03  0.15186671908E+03  0.19999994936E+01 0.  0.
         13    1    3    3    0    0  0.11462028682E+02  0.37493828988E+02  0.14294439496E+03  0.14822373808E+03  0.10566000000E+00 0. -1.
         13    1    4    4    0    0 -0.91160012175E+00 -0.33209908514E+01  0.13930988896E+02  0.14350735544E+02  0.10566000000E+00 0. -1.
        -13    1    4    4    0    0 -0.41876423010E+01 -0.15816589513E+02  0.58961514950E+02  0.61189641779E+02  0.10566000000E+00 0.  1.
        -14    1    4    4    0    0 -0.63627862591E+01 -0.18356248624E+02  0.73812421265E+02  0.76326341754E+02  0.00000000000E+00 0.  1.
<mgrwt>
<rscale>  0 0.78470083E+02</rscale>
<asrwt>0</asrwt>
<pdfrwt beam="1">  1        1 0.45364607E-01 0.78470083E+02</pdfrwt>
<pdfrwt beam="2">  1       -2 0.80316424E-03 0.78470083E+02</pdfrwt>
<totfact> 0.18920701E+05</totfact>
</mgrwt>
</event>
<event>
 8    1  0.8247621E-014  0.7882540E+02  0.7818608E-02  0.1332418E+00
          1   -1    0    0  501    0  0.00000000000E+00  0.00000000000E+00  0.67455115102E+01  0.67455133930E+01  0.50400000000E-02 0. -1.
         -2   -1    0    0    0  501 -0.00000000000E+00 -0.00000000000E+00 -0.23028061671E+03  0.23028061672E+03  0.25500000000E-02 0.  1.
        -24    2    1    2    0    0  0.00000000000E+00 -0.88817841970E-15 -0.22353510520E+03  0.23702613011E+03  0.78825396298E+02 0.  0.
         66    2    3    3    0    0 -0.14342581324E+02  0.63641205251E+01 -0.22047168675E+03  0.22103840464E+03  0.19999996293E+01 0.  0.
         13    1    3    3    0    0  0.14342581324E+02 -0.63641205251E+01 -0.30634184419E+01  0.15987725469E+02  0.10566000000E+00 0. -1.
         13    1    4    4    0    0 -0.84735937648E+01  0.32848276697E+01 -0.12688771319E+03  0.12721279341E+03  0.10566000000E+00 0. -1.
        -13    1    4    4    0    0 -0.51617054426E+01  0.22611473751E+01 -0.80443829056E+02  0.80641036623E+02  0.10566000000E+00 0.  1.
         14    1    4    4    0    0 -0.70728211612E+00  0.81814548025E+00 -0.13140144506E+02  0.13184574610E+02  0.00000000000E+00 0. -1.
<mgrwt>
<rscale>  0 0.78825396E+02</rscale>
<asrwt>0</asrwt>
<pdfrwt beam="1">  1        1 0.10377713E-02 0.78825396E+02</pdfrwt>
<pdfrwt beam="2">  1       -2 0.35427781E-01 0.78825396E+02</pdfrwt>
<totfact> 0.83220923E+04</totfact>
</mgrwt>
</event>
<event>
 8    1  0.8247621E-014  0.8047247E+02  0.7818608E-02  0.1327716E+00
          1   -1    0    0  501    0  0.00000000000E+00  0.00000000000E+00  0.24421012636E+01  0.24421064644E+01  0.50400000000E-02 0. -1.
         -2   -1    0    0    0  501 -0.00000000000E+00 -0.00000000000E+00 -0.66293436404E+03  0.66293436405E+03  0.25500000000E-02 0.  1.
        -24    2    1    2    0    0  0.00000000000E+00 -0.17763568394E-14 -0.66049226278E+03  0.66537647051E+03  0.80472469330E+02 0.  0.
         66    2    3    3    0    0  0.10155600800E+02  0.12404987632E+02 -0.63536423016E+03  0.63556960666E+03  0.19999971318E+01 0.  0.
         13    1    3    3    0    0 -0.10155600800E+02 -0.12404987632E+02 -0.25128032616E+02  0.29806863856E+02  0.10566000000E+00 0. -1.
         13    1    4    4    0    0  0.14220991239E+01  0.26357134764E+01 -0.11589117985E+03  0.11592991884E+03  0.10566000000E+00 0.  1.
        -13    1    4    4    0    0  0.66681569851E+01  0.66727920977E+01 -0.36771918659E+03  0.36784018516E+03  0.10566000000E+00 0. -1.
         14    1    4    4    0    0  0.20653446905E+01  0.30964820576E+01 -0.15175386373E+03  0.15179950265E+03  0.00000000000E+00 0. -1.
<mgrwt>
<rscale>  0 0.80472469E+02</rscale>
<asrwt>0</asrwt>
<pdfrwt beam="1">  1        1 0.37570881E-03 0.80472469E+02</pdfrwt>
<pdfrwt beam="2">  1       -2 0.10198976E+00 0.80472469E+02</pdfrwt>
<totfact> 0.39201265E+04</totfact>
</mgrwt>
</event>
<event>
 8    1  0.8247621E-014  0.7761178E+02  0.7818608E-02  0.1335969E+00
          1   -1    0    0  501    0  0.00000000000E+00  0.00000000000E+00  0.32257548868E+02  0.32257549261E+02  0.50400000000E-02 0. -1.
         -2   -1    0    0    0  501 -0.00000000000E+00 -0.00000000000E+00 -0.46683559597E+02  0.46683559666E+02  0.25500000000E-02 0.  1.
        -24    2    1    2    0    0  0.00000000000E+00  0.00000000000E+00 -0.14426010729E+02  0.78941108928E+02  0.77611783211E+02 0.  0.
         66    2    3    3    0    0 -0.18688915969E+02  0.32119937634E+02 -0.18494897022E+02  0.41557516626E+02  0.19999996502E+01 0.  0.
         13    1    3    3    0    0  0.18688915969E+02 -0.32119937634E+02  0.40688862924E+01  0.37383592302E+02  0.10566000000E+00 0. -1.
         13    1    4    4    0    0 -0.23166744604E+01  0.50261525143E+01 -0.24637947817E+01  0.60589304679E+01  0.10566000000E+00 0. -1.
        -13    1    4    4    0    0 -0.10469973722E+02  0.18078266561E+02 -0.10265852474E+02  0.23277520544E+02  0.10566000000E+00 0.  1.
        -14    1    4    4    0    0 -0.59022677859E+01  0.90155185581E+01 -0.57652497664E+01  0.12221065615E+02  0.00000000000E+00 0.  1.
<mgrwt>
<rscale>  0 0.77611783E+02</rscale>
<asrwt>0</asrwt>
<pdfrwt beam="1">  1        1 0.49626999E-02 0.77611783E+02</pdfrwt>
<pdfrwt beam="2">  1       -2 0.71820861E-02 0.77611783E+02</pdfrwt>
<totfact> 0.13354074E+05</totfact>
</mgrwt>
</event>
<event>
 8    1  0.8247621E-014  0.7071736E+02  0.7818608E-02  0.1357670E+00
         -2   -1    0    0    0  501 -0.00000000000E+00  0.00000000000E+00  0.13781358688E+03  0.13781358690E+03  0.25500000000E-02 0.  1.
          1   -1    0    0  501    0  0.00000000000E+00 -0.00000000000E+00 -0.90719371528E+01  0.90719385528E+01  0.50400000000E-02 0. -1.
        -24    2    1    2    0    0  0.00000000000E+00 -0.17763568394E-14  0.12874164973E+03  0.14688552546E+03  0.70717361476E+02 0.  0.
         66    2    3    3    0    0 -0.31469451664E+02  0.12669775884E+02  0.84919252781E+02  0.91466546332E+02  0.19999990227E+01 0.  0.
         13    1    3    3    0    0  0.31469451664E+02 -0.12669775884E+02  0.43822396945E+02  0.55418979123E+02  0.10566000000E+00 0. -1.
         13    1    4    4    0    0 -0.97075581250E+01  0.32602353200E+01  0.26633150438E+02  0.28534219551E+02  0.10566000000E+00 0. -1.
        -13    1    4    4    0    0 -0.11087021945E+02  0.52547962282E+01  0.30927502148E+02  0.33272458463E+02  0.10566000000E+00 0.  1.
        -14    1    4    4    0    0 -0.10674871594E+02  0.41547443361E+01  0.27358600195E+02  0.29659868318E+02  0.00000000000E+00 0.  1.
<mgrwt>
<rscale>  0 0.70717361E+02</rscale>
<asrwt>0</asrwt>
<pdfrwt beam="1">  1        1 0.13956827E-02 0.70717361E+02</pdfrwt>
<pdfrwt beam="2">  1       -2 0.21202091E-01 0.70717361E+02</pdfrwt>
<totfact> 0.13314484E+05</totfact>
</mgrwt>
</event>
<event>
 8    1  0.8247621E-014  0.8069434E+02  0.7818608E-02  0.1327092E+00
         -2   -1    0    0    0  501 -0.00000000000E+00  0.00000000000E+00  0.27665539098E+02  0.27665539216E+02  0.25500000000E-02 0.  1.
          1   -1    0    0  501    0  0.00000000000E+00 -0.00000000000E+00 -0.58841941229E+02  0.58841941445E+02  0.50400000000E-02 0. -1.
        -24    2    1    2    0    0  0.00000000000E+00  0.00000000000E+00 -0.31176402131E+02  0.86507480661E+02  0.80694337846E+02 0.  0.
         66    2    3    3    0    0  0.25483523330E+02 -0.18548982110E+02 -0.42557227371E+02  0.52996153534E+02  0.19999973170E+01 0.  0.
         13    1    3    3    0    0 -0.25483523330E+02  0.18548982110E+02  0.11380825240E+02  0.33511327127E+02  0.10566000000E+00 0. -1.
         13    1    4    4    0    0  0.23954366621E+01 -0.14701562101E+01 -0.39732521434E+01  0.48679947324E+01  0.10566000000E+00 0. -1.
        -13    1    4    4    0    0  0.86413514670E+01 -0.61514653146E+01 -0.12949514475E+02  0.16739610804E+02  0.10566000000E+00 0.  1.
        -14    1    4    4    0    0  0.14446735200E+02 -0.10927360586E+02 -0.25634460753E+02  0.31388547998E+02  0.00000000000E+00 0.  1.
<mgrwt>
<rscale>  0 0.80694338E+02</rscale>
<asrwt>0</asrwt>
<pdfrwt beam="1">  1        1 0.90526064E-02 0.80694338E+02</pdfrwt>
<pdfrwt beam="2">  1       -2 0.42562368E-02 0.80694338E+02</pdfrwt>
<totfact> 0.13179008E+05</totfact>
</mgrwt>
</event>
<event>
 8    1  0.8247621E-014  0.7649450E+02  0.7818608E-02  0.1339305E+00
          1   -1    0    0  501    0  0.00000000000E+00  0.00000000000E+00  0.46598702318E+02  0.46598702591E+02  0.50400000000E-02 0. -1.
         -2   -1    0    0    0  501 -0.00000000000E+00 -0.00000000000E+00 -0.31392554605E+02  0.31392554709E+02  0.25500000000E-02 0.  1.
        -24    2    1    2    0    0  0.11102230246E-15  0.00000000000E+00  0.15206147713E+02  0.77991257300E+02  0.76494504946E+02 0.  0.
         66    2    3    3    0    0  0.98346040142E+00  0.37727516187E+02  0.13769236355E+02  0.40223433027E+02  0.20000056642E+01 0.  0.
         13    1    3    3    0    0 -0.98346040142E+00 -0.37727516187E+02  0.14369113583E+01  0.37767824273E+02  0.10566000000E+00 0. -1.
         13    1    4    4    0    0 -0.15046844999E+00  0.16251554913E+01  0.52595396129E+00  0.17180112719E+01  0.10566000000E+00 0. -1.
        -13    1    4    4    0    0  0.74132014380E+00  0.22628149133E+02  0.91274192014E+01  0.24411137501E+02  0.10566000000E+00 0.  1.
        -14    1    4    4    0    0  0.39260870761E+00  0.13474211562E+02  0.41158631924E+01  0.14094284254E+02  0.00000000000E+00 0.  1.
<mgrwt>
<rscale>  0 0.76494505E+02</rscale>
<asrwt>0</asrwt>
<pdfrwt beam="1">  1        1 0.71690312E-02 0.76494505E+02</pdfrwt>
<pdfrwt beam="2">  1       -2 0.48296238E-02 0.76494505E+02</pdfrwt>
<totfact> 0.14738625E+05</totfact>
</mgrwt>
</event>
<event>
 8    1  0.8247621E-014  0.7577660E+02  0.7818608E-02  0.1341483E+00
          1   -1    0    0  501    0  0.00000000000E+00  0.00000000000E+00  0.19637571495E+03  0.19637571501E+03  0.50400000000E-02 0. -1.
         -2   -1    0    0    0  501 -0.00000000000E+00 -0.00000000000E+00 -0.73100859075E+01  0.73100863523E+01  0.25500000000E-02 0.  1.
        -24    2    1    2    0    0  0.00000000000E+00  0.00000000000E+00  0.18906562904E+03  0.20368580137E+03  0.75776603205E+02 0.  0.
         66    2    3    3    0    0 -0.17598401708E+02  0.33459434965E+02  0.10016004871E+03  0.10707601455E+03  0.20000007876E+01 0.  0.
         13    1    3    3    0    0  0.17598401708E+02 -0.33459434965E+02  0.88905580331E+02  0.96609786817E+02  0.10566000000E+00 0. -1.
         13    1    4    4    0    0 -0.70378810938E+01  0.12840331396E+02  0.40479491367E+02  0.43046559282E+02  0.10566000000E+00 0. -1.
        -13    1    4    4    0    0 -0.59644797003E+01  0.11974013692E+02  0.35955064769E+02  0.38363131631E+02  0.10566000000E+00 0.  1.
         14    1    4    4    0    0 -0.45960409136E+01  0.86450898773E+01  0.23725492575E+02  0.25666323636E+02  0.00000000000E+00 0. -1.
<mgrwt>
<rscale>  0 0.75776603E+02</rscale>
<asrwt>0</asrwt>
<pdfrwt beam="1">  1        1 0.30211645E-01 0.75776603E+02</pdfrwt>
<pdfrwt beam="2">  1       -2 0.11246288E-02 0.75776603E+02</pdfrwt>
<totfact> 0.19180968E+05</totfact>
</mgrwt>
</event>
<event>
 8    1  0.8247621E-014  0.8002271E+02  0.7818608E-02  0.1328987E+00
          1   -1    0    0  501    0  0.00000000000E+00  0.00000000000E+00  0.19240466293E+03  0.19240466299E+03  0.50400000000E-02 0. -1.
         -2   -1    0    0    0  501 -0.00000000000E+00 -0.00000000000E+00 -0.83205290468E+01  0.83205294375E+01  0.25500000000E-02 0.  1.
        -24    2    1    2    0    0 -0.35527136788E-14  0.35527136788E-14  0.18408413388E+03  0.20072519243E+03  0.80022712588E+02 0.  0.
         66    2    3    3    0    0  0.24789732002E+02 -0.16952564986E+02  0.25877775029E+02  0.39693570016E+02  0.19999969665E+01 0.  0.
         13    1    3    3    0    0 -0.24789732002E+02  0.16952564986E+02  0.15820635885E+03  0.16103162242E+03  0.10566000000E+00 0. -1.
         13    1    4    4    0    0  0.33541028720E+01 -0.23329440072E+01  0.27628034095E+01  0.49332423954E+01  0.10566000000E+00 0. -1.
        -13    1    4    4    0    0  0.18312916420E+02 -0.12803199197E+02  0.19695726116E+02  0.29786198293E+02  0.10566000000E+00 0.  1.
         14    1    4    4    0    0  0.31227127098E+01 -0.18164217820E+01  0.34192455026E+01  0.49741293273E+01  0.00000000000E+00 0. -1.
<mgrwt>
<rscale>  0 0.80022713E+02</rscale>
<asrwt>0</asrwt>
<pdfrwt beam="1">  1        1 0.29600717E-01 0.80022713E+02</pdfrwt>
<pdfrwt beam="2">  1       -2 0.12800815E-02 0.80022713E+02</pdfrwt>
<totfact> 0.16536870E+05</totfact>
</mgrwt>
</event>
<event>
 8    1  0.8247621E-014  0.7848067E+02  0.7818608E-02  0.1333419E+00
         -2   -1    0    0    0  501 -0.00000000000E+00  0.00000000000E+00  0.18224689035E+02  0.18224689214E+02  0.25500000000E-02 0.  1.
          1   -1    0    0  501    0  0.00000000000E+00 -0.00000000000E+00 -0.84489997840E+02  0.84489997991E+02  0.50400000000E-02 0. -1.
        -24    2    1    2    0    0  0.00000000000E+00  0.00000000000E+00 -0.66265308805E+02  0.10271468720E+03  0.78480671611E+02 0.  0.
         66    2    3    3    0    0  0.29432294611E+02 -0.22234183343E+02 -0.15732940319E+02  0.40151516698E+02  0.20000017574E+01 0.  0.
         13    1    3    3    0    0 -0.29432294611E+02  0.22234183343E+02 -0.50532368486E+02  0.62563170507E+02  0.10566000000E+00 0. -1.
         13    1    4    4    0    0  0.29552327102E+01 -0.22306314245E+01 -0.15373525223E+01  0.40104530587E+01  0.10566000000E+00 0.  1.
        -13    1    4    4    0    0  0.12278885887E+02 -0.85991880527E+01 -0.55937156580E+01  0.16000559137E+02  0.10566000000E+00 0.  1.
        -14    1    4    4    0    0  0.14198176014E+02 -0.11404363865E+02 -0.86018721387E+01  0.20140504502E+02  0.00000000000E+00 0.  1.
<mgrwt>
<rscale>  0 0.78480672E+02</rscale>
<asrwt>0</asrwt>
<pdfrwt beam="1">  1        1 0.12998461E-01 0.78480672E+02</pdfrwt>
<pdfrwt beam="2">  1       -2 0.28037984E-02 0.78480672E+02</pdfrwt>
<totfact> 0.15058920E+05</totfact>
</mgrwt>
</event>
<event>
 8    1  0.8247621E-014  0.8142030E+02  0.7818608E-02  0.1325068E+00
          1   -1    0    0  501    0  0.00000000000E+00  0.00000000000E+00  0.19585599650E+03  0.19585599656E+03  0.50400000000E-02 0. -1.
         -2   -1    0    0    0  501 -0.00000000000E+00 -0.00000000000E+00 -0.84619117336E+01  0.84619121178E+01  0.25500000000E-02 0.  1.
        -24    2    1    2    0    0 -0.35527136788E-14  0.35527136788E-14  0.18739408476E+03  0.20431790868E+03  0.81420297242E+02 0.  0.
         66    2    3    3    0    0 -0.24618423401E+02  0.28679662143E+02  0.13153847270E+03  0.13687570858E+03  0.20000018762E+01 0.  0.
         13    1    3    3    0    0  0.24618423401E+02 -0.28679662143E+02  0.55855612066E+02  0.67442200102E+02  0.10566000000E+00 0. -1.
         13    1    4    4    0    0 -0.81747852721E+01  0.89969760284E+01  0.40650354858E+02  0.42429178710E+02  0.10566000000E+00 0.  1.
        -13    1    4    4    0    0 -0.11570013157E+02  0.13109425531E+02  0.60522265250E+02  0.62997444371E+02  0.10566000000E+00 0. -1.
         14    1    4    4    0    0 -0.48736249721E+01  0.65732605839E+01  0.30365852591E+02  0.31449085498E+02  0.00000000000E+00 0. -1.
<mgrwt>
<rscale>  0 0.81420297E+02</rscale>
<asrwt>0</asrwt>
<pdfrwt beam="1">  1        1 0.30131691E-01 0.81420297E+02</pdfrwt>
<pdfrwt beam="2">  1       -2 0.13018326E-02 0.81420297E+02</pdfrwt>
<totfact> 0.15847290E+05</totfact>
</mgrwt>
</event>
<event>
 8    1  0.8247621E-014  0.7954099E+02  0.7818608E-02  0.1330359E+00
         -2   -1    0    0    0  501 -0.00000000000E+00  0.00000000000E+00  0.28297363250E+03  0.28297363251E+03  0.25500000000E-02 0.  1.
          1   -1    0    0  501    0  0.00000000000E+00 -0.00000000000E+00 -0.55895381536E+01  0.55895404258E+01  0.50400000000E-02 0. -1.
        -24    2    1    2    0    0  0.00000000000E+00  0.35527136788E-14  0.27738409435E+03  0.28856317294E+03  0.79540989303E+02 0.  0.
         66    2    3    3    0    0 -0.17465507159E+02 -0.17125067603E+02  0.25242898140E+03  0.25361920769E+03  0.19999950613E+01 0.  0.
         13    1    3    3    0    0  0.17465507159E+02  0.17125067603E+02  0.24955112950E+02  0.34943965246E+02  0.10566000000E+00 0. -1.
         13    1    4    4    0    0 -0.16303372595E+01 -0.19927291833E+01  0.23982825766E+02  0.24120863685E+02  0.10566000000E+00 0. -1.
        -13    1    4    4    0    0 -0.94358110985E+01 -0.95493552735E+01  0.13369454329E+03  0.13436691106E+03  0.10566000000E+00 0.  1.
         14    1    4    4    0    0 -0.63993588015E+01 -0.55829831465E+01  0.94751612338E+02  0.95131432947E+02  0.00000000000E+00 0. -1.
<mgrwt>
<rscale>  0 0.79540989E+02</rscale>
<asrwt>0</asrwt>
<pdfrwt beam="1">  1        1 0.85992902E-03 0.79540989E+02</pdfrwt>
<pdfrwt beam="2">  1       -2 0.43534411E-01 0.79540989E+02</pdfrwt>
<totfact> 0.73576714E+04</totfact>
</mgrwt>
</event>
<event>
 8    1  0.8247621E-014  0.8089124E+02  0.7818608E-02  0.1326541E+00
          1   -1    0    0  501    0  0.00000000000E+00  0.00000000000E+00  0.94324143633E+02  0.94324143768E+02  0.50400000000E-02 0. -1.
         -2   -1    0    0    0  501 -0.00000000000E+00 -0.00000000000E+00 -0.17342835740E+02  0.17342835928E+02  0.25500000000E-02 0.  1.
        -24    2    1    2    0    0  0.00000000000E+00 -0.71054273576E-14  0.76981307893E+02  0.11166697970E+03  0.80891239262E+02 0.  0.
         66    2    3    3    0    0  0.72435415416E+01 -0.39660297757E+02  0.42523406229E+02  0.58631460811E+02  0.20000018016E+01 0.  0.
         13    1    3    3    0    0 -0.72435415416E+01  0.39660297757E+02  0.34457901664E+02  0.53035518885E+02  0.10566000000E+00 0. -1.
         13    1    4    4    0    0  0.36126695907E+01 -0.16770778861E+02  0.17324875932E+02  0.24381814848E+02  0.10566000000E+00 0. -1.
        -13    1    4    4    0    0  0.34166212598E+01 -0.19945749884E+02  0.22289729065E+02  0.30105637762E+02  0.10566000000E+00 0.  1.
         14    1    4    4    0    0  0.21425069114E+00 -0.29437690118E+01  0.29088012328E+01  0.41440082004E+01  0.00000000000E+00 0. -1.
<mgrwt>
<rscale>  0 0.80891239E+02</rscale>
<asrwt>0</asrwt>
<pdfrwt beam="1">  1        1 0.14511407E-01 0.80891239E+02</pdfrwt>
<pdfrwt beam="2">  1       -2 0.26681285E-02 0.80891239E+02</pdfrwt>
<totfact> 0.14125746E+05</totfact>
</mgrwt>
</event>
<event>
 8    1  0.8247621E-014  0.8115149E+02  0.7818608E-02  0.1325815E+00
         -2   -1    0    0    0  501 -0.00000000000E+00  0.00000000000E+00  0.33811303330E+01  0.33811312946E+01  0.25500000000E-02 0.  1.
          1   -1    0    0  501    0  0.00000000000E+00 -0.00000000000E+00 -0.48693499957E+03  0.48693499960E+03  0.50400000000E-02 0. -1.
        -24    2    1    2    0    0  0.00000000000E+00  0.00000000000E+00 -0.48355386924E+03  0.49031613089E+03  0.81151486477E+02 0.  0.
         66    2    3    3    0    0 -0.39495184660E+02  0.78190728862E+01 -0.27113714781E+03  0.27411742086E+03  0.19999963616E+01 0.  0.
         13    1    3    3    0    0  0.39495184660E+02 -0.78190728862E+01 -0.21241672143E+03  0.21619871003E+03  0.10566000000E+00 0. -1.
         13    1    4    4    0    0 -0.25504388432E+02  0.41690766934E+01 -0.17566270329E+03  0.17755351734E+03  0.10566000000E+00 0. -1.
        -13    1    4    4    0    0 -0.79612223592E+01  0.18950831283E+01 -0.53741252658E+02  0.54360884860E+02  0.10566000000E+00 0.  1.
         14    1    4    4    0    0 -0.60295738689E+01  0.17549130646E+01 -0.41733191863E+02  0.42203018659E+02  0.00000000000E+00 0. -1.
<mgrwt>
<rscale>  0 0.81151486E+02</rscale>
<asrwt>0</asrwt>
<pdfrwt beam="1">  1        1 0.74913022E-01 0.81151486E+02</pdfrwt>
<pdfrwt beam="2">  1       -2 0.52017436E-03 0.81151486E+02</pdfrwt>
<totfact> 0.18826499E+05</totfact>
</mgrwt>
</event>
<event>
 8    1  0.8247621E-014  0.7431998E+02  0.7818608E-02  0.1345990E+00
          1   -1    0    0  501    0  0.00000000000E+00  0.00000000000E+00  0.80436407892E+01  0.80436423682E+01  0.50400000000E-02 0. -1.
         -2   -1    0    0    0  501 -0.00000000000E+00 -0.00000000000E+00 -0.17167158224E+03  0.17167158226E+03  0.25500000000E-02 0.  1.
        -24    2    1    2    0    0 -0.88817841970E-15  0.17763568394E-14 -0.16362794145E+03  0.17971522463E+03  0.74319975372E+02 0.  0.
         66    2    3    3    0    0  0.49692834188E+01 -0.12324730461E+02 -0.16571855934E+03  0.16626254438E+03  0.19999987340E+01 0.  0.
         13    1    3    3    0    0 -0.49692834188E+01  0.12324730461E+02  0.20906178905E+01  0.13452680247E+02  0.10566000000E+00 0. -1.
         13    1    4    4    0    0  0.10747163356E+01 -0.28868422049E+01 -0.40407261374E+02  0.40524644464E+02  0.10566000000E+00 0. -1.
        -13    1    4    4    0    0  0.36463887179E+01 -0.71014544253E+01 -0.99612467007E+02  0.99931884566E+02  0.10566000000E+00 0.  1.
        -14    1    4    4    0    0  0.24817836532E+00 -0.23364338306E+01 -0.25698830959E+02  0.25806015349E+02  0.00000000000E+00 0.  1.
<mgrwt>
<rscale>  0 0.74319975E+02</rscale>
<asrwt>0</asrwt>
<pdfrwt beam="1">  1        1 0.12374835E-02 0.74319975E+02</pdfrwt>
<pdfrwt beam="2">  1       -2 0.26411010E-01 0.74319975E+02</pdfrwt>
<totfact> 0.10900853E+05</totfact>
</mgrwt>
</event>
<event>
 8    1  0.8247621E-014  0.7906124E+02  0.7818608E-02  0.1331737E+00
         -2   -1    0    0    0  501 -0.00000000000E+00  0.00000000000E+00  0.41035628921E+03  0.41035628921E+03  0.25500000000E-02 0.  1.
          1   -1    0    0  501    0  0.00000000000E+00 -0.00000000000E+00 -0.38080788329E+01  0.38080821681E+01  0.50400000000E-02 0. -1.
        -24    2    1    2    0    0  0.00000000000E+00  0.00000000000E+00  0.40654821037E+03  0.41416437138E+03  0.79061236802E+02 0.  0.
         66    2    3    3    0    0 -0.14372422594E+02  0.34175436459E+02  0.27487426856E+03  0.27737049321E+03  0.19999998864E+01 0.  0.
         13    1    3    3    0    0  0.14372422594E+02 -0.34175436459E+02  0.13167394181E+03  0.13679387817E+03  0.10566000000E+00 0. -1.
         13    1    4    4    0    0 -0.89433470364E+00  0.19779476866E+01  0.15296959552E+02  0.15450574332E+02  0.10566000000E+00 0.  1.
        -13    1    4    4    0    0 -0.80399993502E+01  0.21422008764E+02  0.17089223049E+03  0.17241725452E+03  0.10566000000E+00 0.  1.
        -14    1    4    4    0    0 -0.54380885400E+01  0.10775480008E+02  0.88685078513E+02  0.89502664358E+02  0.00000000000E+00 0.  1.
<mgrwt>
<rscale>  0 0.79061237E+02</rscale>
<asrwt>0</asrwt>
<pdfrwt beam="1">  1        1 0.58585857E-03 0.79061237E+02</pdfrwt>
<pdfrwt beam="2">  1       -2 0.63131734E-01 0.79061237E+02</pdfrwt>
<totfact> 0.59890665E+04</totfact>
</mgrwt>
</event>
<event>
 8    1  0.8247621E-014  0.7913572E+02  0.7818608E-02  0.1331522E+00
          1   -1    0    0  501    0  0.00000000000E+00  0.00000000000E+00  0.65498680311E+02  0.65498680505E+02  0.50400000000E-02 0. -1.
         -2   -1    0    0    0  501 -0.00000000000E+00 -0.00000000000E+00 -0.23903006103E+02  0.23903006239E+02  0.25500000000E-02 0.  1.
        -24    2    1    2    0    0  0.88817841970E-15 -0.71054273576E-14  0.41595674208E+02  0.89401686744E+02  0.79135715577E+02 0.  0.
         66    2    3    3    0    0  0.50408477317E+01 -0.39211902062E+02  0.21705648914E+02  0.45145526954E+02  0.19999999997E+01 0.  0.
         13    1    3    3    0    0 -0.50408477317E+01  0.39211902062E+02  0.19890025294E+02  0.44256159790E+02  0.10566000000E+00 0. -1.
         13    1    4    4    0    0  0.14765709561E+01 -0.65452759372E+01  0.35201934452E+01  0.75778509361E+01  0.10566000000E+00 0. -1.
        -13    1    4    4    0    0  0.32701640707E+01 -0.30853620548E+02  0.16957285846E+02  0.35358175593E+02  0.10566000000E+00 0.  1.
        -14    1    4    4    0    0  0.29411270492E+00 -0.18130055766E+01  0.12281696235E+01  0.22095004250E+01  0.00000000000E+00 0.  1.
<mgrwt>
<rscale>  0 0.79135716E+02</rscale>
<asrwt>0</asrwt>
<pdfrwt beam="1">  1        1 0.10076720E-01 0.79135716E+02</pdfrwt>
<pdfrwt beam="2">  1       -2 0.36773856E-02 0.79135716E+02</pdfrwt>
<totfact> 0.14141152E+05</totfact>
</mgrwt>
</event>
<event>
 8    1  0.8247621E-014  0.7900066E+02  0.7818608E-02  0.1331912E+00
         -2   -1    0    0    0  501 -0.00000000000E+00  0.00000000000E+00  0.79979432258E+03  0.79979432259E+03  0.25500000000E-02 0.  1.
          1   -1    0    0  501    0  0.00000000000E+00 -0.00000000000E+00 -0.19508435512E+01  0.19508500616E+01  0.50400000000E-02 0. -1.
        -24    2    1    2    0    0  0.88817841970E-15  0.35527136788E-14  0.79784347903E+03  0.80174517265E+03  0.79000663490E+02 0.  0.
         66    2    3    3    0    0  0.75736643576E+01  0.29257612443E+02  0.65689948261E+03  0.65759736805E+03  0.19999855901E+01 0.  0.
         13    1    3    3    0    0 -0.75736643576E+01 -0.29257612443E+02  0.14094399643E+03  0.14414780460E+03  0.10566000000E+00 0. -1.
         13    1    4    4    0    0  0.26868117231E+01  0.10315380981E+02  0.21965014233E+03  0.21990866793E+03  0.10566000000E+00 0. -1.
        -13    1    4    4    0    0  0.17998659657E+01  0.92736535321E+01  0.21768635091E+03  0.21789125430E+03  0.10566000000E+00 0.  1.
        -14    1    4    4    0    0  0.30869866688E+01  0.96685779306E+01  0.21956298937E+03  0.21979744582E+03  0.00000000000E+00 0.  1.
<mgrwt>
<rscale>  0 0.79000663E+02</rscale>
<asrwt>0</asrwt>
<pdfrwt beam="1">  1        1 0.30012961E-03 0.79000663E+02</pdfrwt>
<pdfrwt beam="2">  1       -2 0.12304556E+00 0.79000663E+02</pdfrwt>
<totfact> 0.34330971E+04</totfact>
</mgrwt>
</event>
<event>
 8    1  0.8247621E-014  0.8027362E+02  0.7818608E-02  0.1328277E+00
         -2   -1    0    0    0  501 -0.00000000000E+00  0.00000000000E+00  0.62434692324E+01  0.62434697532E+01  0.25500000000E-02 0.  1.
          1   -1    0    0  501    0  0.00000000000E+00 -0.00000000000E+00 -0.25802375876E+03  0.25802375881E+03  0.50400000000E-02 0. -1.
        -24    2    1    2    0    0  0.00000000000E+00 -0.17763568394E-14 -0.25178028952E+03  0.26426722856E+03  0.80273618938E+02 0.  0.
         66    2    3    3    0    0 -0.36017532729E+02 -0.11309258070E+02 -0.17059932965E+03  0.17473778428E+03  0.19999994133E+01 0.  0.
         13    1    3    3    0    0  0.36017532729E+02  0.11309258070E+02 -0.81180959876E+02  0.89529444276E+02  0.10566000000E+00 0. -1.
         13    1    4    4    0    0 -0.15828834544E+02 -0.55160886325E+01 -0.77558276031E+02  0.79349080535E+02  0.10566000000E+00 0. -1.
        -13    1    4    4    0    0 -0.18535201846E+02 -0.53853070146E+01 -0.86730464221E+02  0.88852348462E+02  0.10566000000E+00 0.  1.
         14    1    4    4    0    0 -0.16534963386E+01 -0.40786242243E+00 -0.63105893960E+01  0.65363552858E+01  0.00000000000E+00 0. -1.
<mgrwt>
<rscale>  0 0.80273619E+02</rscale>
<asrwt>0</asrwt>
<pdfrwt beam="1">  1        1 0.39695955E-01 0.80273619E+02</pdfrwt>
<pdfrwt beam="2">  1       -2 0.96053397E-03 0.80273619E+02</pdfrwt>
<totfact> 0.17365354E+05</totfact>
</mgrwt>
</event>
<event>
 8    1  0.8247621E-014  0.7996539E+02  0.7818608E-02  0.1329150E+00
         -2   -1    0    0    0  501 -0.00000000000E+00  0.00000000000E+00  0.76696919857E+02  0.76696919900E+02  0.25500000000E-02 0.  1.
          1   -1    0    0  501    0  0.00000000000E+00 -0.00000000000E+00 -0.20843285315E+02  0.20843285924E+02  0.50400000000E-02 0. -1.
        -24    2    1    2    0    0 -0.35527136788E-14  0.00000000000E+00  0.55853634542E+02  0.97540205824E+02  0.79965387891E+02 0.  0.
         66    2    3    3    0    0  0.27466082800E+02  0.12329438211E+02  0.59990123326E+02  0.67150693579E+02  0.20000001483E+01 0.  0.
         13    1    3    3    0    0 -0.27466082800E+02 -0.12329438211E+02 -0.41364887836E+01  0.30389512245E+02  0.10566000000E+00 0. -1.
         13    1    4    4    0    0  0.16326763381E+02  0.66587299873E+01  0.35171048963E+02  0.39343560296E+02  0.10566000000E+00 0.  1.
        -13    1    4    4    0    0  0.98684146970E+01  0.50099509673E+01  0.22622252693E+02  0.25184572624E+02  0.10566000000E+00 0. -1.
        -14    1    4    4    0    0  0.12709047218E+01  0.66075725671E+00  0.21968216694E+01  0.26225606593E+01  0.00000000000E+00 0.  1.
<mgrwt>
<rscale>  0 0.79965388E+02</rscale>
<asrwt>0</asrwt>
<pdfrwt beam="1">  1        1 0.32066593E-02 0.79965388E+02</pdfrwt>
<pdfrwt beam="2">  1       -2 0.11799526E-01 0.79965388E+02</pdfrwt>
<totfact> 0.11289491E+05</totfact>
</mgrwt>
</event>
<event>
 8    1  0.8247621E-014  0.8008175E+02  0.7818608E-02  0.1328820E+00
         -2   -1    0    0    0  501 -0.00000000000E+00  0.00000000000E+00  0.14553669165E+02  0.14553669388E+02  0.25500000000E-02 0.  1.
          1   -1    0    0  501    0  0.00000000000E+00 -0.00000000000E+00 -0.11016270793E+03  0.11016270805E+03  0.50400000000E-02 0. -1.
        -24    2    1    2    0    0  0.17763568394E-14  0.00000000000E+00 -0.95609038770E+02  0.12471637744E+03  0.80081748899E+02 0.  0.
         66    2    3    3    0    0 -0.15723673693E+02 -0.36729269915E+02 -0.44354155246E+02  0.59729090743E+02  0.20000026124E+01 0.  0.
         13    1    3    3    0    0  0.15723673693E+02  0.36729269915E+02 -0.51254883523E+02  0.64987286695E+02  0.10566000000E+00 0. -1.
         13    1    4    4    0    0 -0.35036654194E+01 -0.64275040223E+01 -0.76606383917E+01  0.10596462803E+02  0.10566000000E+00 0.  1.
        -13    1    4    4    0    0 -0.37791307887E+01 -0.92918307998E+01 -0.11136462088E+02  0.14988392209E+02  0.10566000000E+00 0. -1.
        -14    1    4    4    0    0 -0.84408774853E+01 -0.21009935093E+02 -0.25557054767E+02  0.34144235732E+02  0.00000000000E+00 0.  1.
<mgrwt>
<rscale>  0 0.80081749E+02</rscale>
<asrwt>0</asrwt>
<pdfrwt beam="1">  1        1 0.16948108E-01 0.80081749E+02</pdfrwt>
<pdfrwt beam="2">  1       -2 0.22390261E-02 0.80081749E+02</pdfrwt>
<totfact> 0.14901895E+05</totfact>
</mgrwt>
</event>
<event>
 8    1  0.8247621E-014  0.7936286E+02  0.7818608E-02  0.1330869E+00
         -2   -1    0    0    0  501 -0.00000000000E+00  0.00000000000E+00  0.69586144522E+02  0.69586144569E+02  0.25500000000E-02 0.  1.
          1   -1    0    0  501    0  0.00000000000E+00 -0.00000000000E+00 -0.22628295894E+02  0.22628296456E+02  0.50400000000E-02 0. -1.
        -24    2    1    2    0    0 -0.88817841970E-15 -0.35527136788E-14  0.46957848628E+02  0.92214441025E+02  0.79362860242E+02 0.  0.
         66    2    3    3    0    0 -0.32106702561E+01 -0.25460253105E+02  0.58623398607E+02  0.64025274453E+02  0.20000032029E+01 0.  0.
         13    1    3    3    0    0  0.32106702561E+01  0.25460253105E+02 -0.11665549979E+02  0.28189166572E+02  0.10566000000E+00 0. -1.
         13    1    4    4    0    0 -0.84957301990E+00 -0.74896095959E+01  0.17634716160E+02  0.19178383777E+02  0.10566000000E+00 0. -1.
        -13    1    4    4    0    0 -0.16280433319E+01 -0.72367614357E+01  0.17791525691E+02  0.19276171602E+02  0.10566000000E+00 0.  1.
         14    1    4    4    0    0 -0.73305390435E+00 -0.10733882073E+02  0.23197156756E+02  0.25570719074E+02  0.00000000000E+00 0. -1.
<mgrwt>
<rscale>  0 0.79362860E+02</rscale>
<asrwt>0</asrwt>
<pdfrwt beam="1">  1        1 0.34812764E-02 0.79362860E+02</pdfrwt>
<pdfrwt beam="2">  1       -2 0.10705561E-01 0.79362860E+02</pdfrwt>
<totfact> 0.11740809E+05</totfact>
</mgrwt>
</event>
<event>
 8    1  0.8247621E-014  0.7907878E+02  0.7818608E-02  0.1331686E+00
          1   -1    0    0  501    0  0.00000000000E+00  0.00000000000E+00  0.14476818228E+03  0.14476818236E+03  0.50400000000E-02 0. -1.
         -2   -1    0    0    0  501 -0.00000000000E+00 -0.00000000000E+00 -0.10799080189E+02  0.10799080490E+02  0.25500000000E-02 0.  1.
        -24    2    1    2    0    0  0.00000000000E+00 -0.35527136788E-14  0.13396910209E+03  0.15556726285E+03  0.79078776910E+02 0.  0.
         66    2    3    3    0    0 -0.34915377353E+02 -0.16644653089E+02  0.82915770285E+02  0.91515862367E+02  0.20000126732E+01 0.  0.
         13    1    3    3    0    0  0.34915377353E+02  0.16644653089E+02  0.51053331804E+02  0.64051400488E+02  0.10566000000E+00 0. -1.
         13    1    4    4    0    0 -0.83253735200E+01 -0.37631230732E+01  0.20928673602E+02  0.22836231788E+02  0.10566000000E+00 0.  1.
        -13    1    4    4    0    0 -0.70048977252E+01 -0.28508092080E+01  0.15372341812E+02  0.17132301716E+02  0.10566000000E+00 0. -1.
        -14    1    4    4    0    0 -0.19585106108E+02 -0.10030720807E+02  0.46614754871E+02  0.51547328862E+02  0.00000000000E+00 0.  1.
<mgrwt>
<rscale>  0 0.79078777E+02</rscale>
<asrwt>0</asrwt>
<pdfrwt beam="1">  1        1 0.22272028E-01 0.79078777E+02</pdfrwt>
<pdfrwt beam="2">  1       -2 0.16613970E-02 0.79078777E+02</pdfrwt>
<totfact> 0.16178851E+05</totfact>
</mgrwt>
</event>
<event>
 8    1  0.8247621E-014  0.7942587E+02  0.7818608E-02  0.1330689E+00
          1   -1    0    0  501    0  0.00000000000E+00  0.00000000000E+00  0.30891594961E+02  0.30891595372E+02  0.50400000000E-02 0. -1.
         -2   -1    0    0    0  501 -0.00000000000E+00 -0.00000000000E+00 -0.51053272423E+02  0.51053272486E+02  0.25500000000E-02 0.  1.
        -24    2    1    2    0    0  0.00000000000E+00 -0.88817841970E-15 -0.20161677461E+02  0.81944867859E+02  0.79425865625E+02 0.  0.
         66    2    3    3    0    0  0.99472610746E+01 -0.73456166804E+01 -0.48995405512E+02  0.50571294191E+02  0.19999868938E+01 0.  0.
         13    1    3    3    0    0 -0.99472610746E+01  0.73456166804E+01  0.28833728051E+02  0.31373573667E+02  0.10566000000E+00 0. -1.
         13    1    4    4    0    0  0.77040153802E+00 -0.74276937055E+00 -0.39061111334E+01  0.40514309928E+01  0.10566000000E+00 0. -1.
        -13    1    4    4    0    0  0.17872815774E+01 -0.67081545707E+00 -0.95098957728E+01  0.97001881662E+01  0.10566000000E+00 0.  1.
        -14    1    4    4    0    0  0.73895779592E+01 -0.59320318528E+01 -0.35579398606E+02  0.36819675032E+02  0.00000000000E+00 0.  1.
<mgrwt>
<rscale>  0 0.79425866E+02</rscale>
<asrwt>0</asrwt>
<pdfrwt beam="1">  1        1 0.47525531E-02 0.79425866E+02</pdfrwt>
<pdfrwt beam="2">  1       -2 0.78543496E-02 0.79425866E+02</pdfrwt>
<totfact> 0.12410882E+05</totfact>
</mgrwt>
</event>
<event>
 8    1  0.8247621E-014  0.8010367E+02  0.7818608E-02  0.1328757E+00
         -2   -1    0    0    0  501 -0.00000000000E+00  0.00000000000E+00  0.78532479247E+02  0.78532479289E+02  0.25500000000E-02 0.  1.
          1   -1    0    0  501    0  0.00000000000E+00 -0.00000000000E+00 -0.20426572845E+02  0.20426573467E+02  0.50400000000E-02 0. -1.
        -24    2    1    2    0    0  0.17763568394E-14  0.00000000000E+00  0.58105906403E+02  0.98959052755E+02  0.80103668851E+02 0.  0.
         66    2    3    3    0    0 -0.90665170875E+01 -0.25204782771E+02  0.65815461782E+02  0.71085566881E+02  0.20000006441E+01 0.  0.
         13    1    3    3    0    0  0.90665170875E+01  0.25204782771E+02 -0.77095553789E+01  0.27873485875E+02  0.10566000000E+00 0. -1.
         13    1    4    4    0    0 -0.19793394954E+01 -0.62945628999E+01  0.17946964200E+02  0.19121819865E+02  0.10566000000E+00 0. -1.
        -13    1    4    4    0    0 -0.14825073632E+01 -0.48419749175E+01  0.12760906237E+02  0.13729327777E+02  0.10566000000E+00 0.  1.
        -14    1    4    4    0    0 -0.56046702289E+01 -0.14068244954E+02  0.35107591345E+02  0.38234419239E+02  0.00000000000E+00 0.  1.
<mgrwt>
<rscale>  0 0.80103669E+02</rscale>
<asrwt>0</asrwt>
<pdfrwt beam="1">  1        1 0.31425497E-02 0.80103669E+02</pdfrwt>
<pdfrwt beam="2">  1       -2 0.12081920E-01 0.80103669E+02</pdfrwt>
<totfact> 0.11183613E+05</totfact>
</mgrwt>
</event>
<event>
 8    1  0.8247621E-014  0.7423882E+02  0.7818608E-02  0.1346244E+00
         -2   -1    0    0    0  501 -0.00000000000E+00  0.00000000000E+00  0.89120857504E+02  0.89120857540E+02  0.25500000000E-02 0.  1.
          1   -1    0    0  501    0  0.00000000000E+00 -0.00000000000E+00 -0.15460470530E+02  0.15460471351E+02  0.50400000000E-02 0. -1.
        -24    2    1    2    0    0 -0.35527136788E-14  0.00000000000E+00  0.73660386974E+02  0.10458132889E+03  0.74238815613E+02 0.  0.
         66    2    3    3    0    0 -0.17406352769E+02 -0.30996089631E+02  0.51772398927E+02  0.62834067019E+02  0.19999995675E+01 0.  0.
         13    1    3    3    0    0  0.17406352769E+02  0.30996089631E+02  0.21887988046E+02  0.41747261873E+02  0.10566000000E+00 0. -1.
         13    1    4    4    0    0 -0.33243433191E+01 -0.72708791561E+01  0.11998893723E+02  0.14418791795E+02  0.10566000000E+00 0. -1.
        -13    1    4    4    0    0 -0.10632062887E+01 -0.21410936826E+01  0.37636336144E+01  0.44599093925E+01  0.10566000000E+00 0.  1.
        -14    1    4    4    0    0 -0.13018803161E+02 -0.21584116792E+02  0.36009871590E+02  0.43955365832E+02  0.00000000000E+00 0.  1.
<mgrwt>
<rscale>  0 0.74238816E+02</rscale>
<asrwt>0</asrwt>
<pdfrwt beam="1">  1        1 0.23785341E-02 0.74238816E+02</pdfrwt>
<pdfrwt beam="2">  1       -2 0.13710901E-01 0.74238816E+02</pdfrwt>
<totfact> 0.13199373E+05</totfact>
</mgrwt>
</event>
<event>
 8    1  0.8247621E-014  0.7884529E+02  0.7818608E-02  0.1332361E+00
          1   -1    0    0  501    0  0.00000000000E+00  0.00000000000E+00  0.26421197680E+02  0.26421198161E+02  0.50400000000E-02 0. -1.
         -2   -1    0    0    0  501 -0.00000000000E+00 -0.00000000000E+00 -0.58821888294E+02  0.58821888350E+02  0.25500000000E-02 0.  1.
        -24    2    1    2    0    0  0.35527136788E-14  0.44408920985E-15 -0.32400690614E+02  0.85243086510E+02  0.78845285500E+02 0.  0.
         66    2    3    3    0    0 -0.17633675122E+02 -0.37383833611E+01 -0.54085009332E+02  0.57044809067E+02  0.19999996609E+01 0.  0.
         13    1    3    3    0    0  0.17633675122E+02  0.37383833611E+01  0.21684318718E+02  0.28198277443E+02  0.10566000000E+00 0. -1.
         13    1    4    4    0    0 -0.64441988437E+01 -0.90299379283E+00 -0.21415258165E+02  0.22382304234E+02  0.10566000000E+00 0. -1.
        -13    1    4    4    0    0 -0.12631343145E+01 -0.33430152322E+00 -0.46571239481E+01  0.48381022425E+01  0.10566000000E+00 0.  1.
        -14    1    4    4    0    0 -0.99263419635E+01 -0.25010880450E+01 -0.28012627219E+02  0.29824402591E+02  0.00000000000E+00 0.  1.
<mgrwt>
<rscale>  0 0.78845285E+02</rscale>
<asrwt>0</asrwt>
<pdfrwt beam="1">  1        1 0.40647997E-02 0.78845285E+02</pdfrwt>
<pdfrwt beam="2">  1       -2 0.90495212E-02 0.78845285E+02</pdfrwt>
<totfact> 0.12327384E+05</totfact>
</mgrwt>
</event>
<event>
 8    1  0.8247621E-014  0.7990063E+02  0.7818608E-02  0.1329334E+00
         -2   -1    0    0    0  501 -0.00000000000E+00  0.00000000000E+00  0.62391389181E+01  0.62391394392E+01  0.25500000000E-02 0.  1.
          1   -1    0    0  501    0  0.00000000000E+00 -0.00000000000E+00 -0.25580893330E+03  0.25580893335E+03  0.50400000000E-02 0. -1.
        -24    2    1    2    0    0  0.00000000000E+00 -0.44408920985E-15 -0.24956979438E+03  0.26204807279E+03  0.79900626934E+02 0.  0.
         66    2    3    3    0    0  0.34745661932E+02  0.21425795419E+01 -0.18897785670E+03  0.19216784850E+03  0.20000012020E+01 0.  0.
         13    1    3    3    0    0 -0.34745661932E+02 -0.21425795419E+01 -0.60591937677E+02  0.69880224282E+02  0.10566000000E+00 0. -1.
         13    1    4    4    0    0  0.84375253643E+01  0.37831592654E+00 -0.46750947636E+02  0.47507864887E+02  0.10566000000E+00 0.  1.
        -13    1    4    4    0    0  0.18826894820E+02  0.19950826207E+01 -0.10100769319E+03  0.10276671431E+03  0.10566000000E+00 0.  1.
        -14    1    4    4    0    0  0.74812417482E+01 -0.23081900530E+00 -0.41219215878E+02  0.41893269306E+02  0.00000000000E+00 0.  1.
<mgrwt>
<rscale>  0 0.79900627E+02</rscale>
<asrwt>0</asrwt>
<pdfrwt beam="1">  1        1 0.39355213E-01 0.79900627E+02</pdfrwt>
<pdfrwt beam="2">  1       -2 0.95986776E-03 0.79900627E+02</pdfrwt>
<totfact> 0.17550828E+05</totfact>
</mgrwt>
</event>
<event>
 8    1  0.8247621E-014  0.8086056E+02  0.7818608E-02  0.1326627E+00
          1   -1    0    0  501    0  0.00000000000E+00  0.00000000000E+00  0.79289101082E+01  0.79289117100E+01  0.50400000000E-02 0. -1.
         -2   -1    0    0    0  501 -0.00000000000E+00 -0.00000000000E+00 -0.20615786527E+03  0.20615786529E+03  0.25500000000E-02 0.  1.
        -24    2    1    2    0    0  0.00000000000E+00  0.00000000000E+00 -0.19822895516E+03  0.21408677700E+03  0.80860555402E+02 0.  0.
         66    2    3    3    0    0  0.38398307735E+01  0.28293490112E+02 -0.17486756910E+03  0.17719461786E+03  0.19999981309E+01 0.  0.
         13    1    3    3    0    0 -0.38398307735E+01 -0.28293490112E+02 -0.23361386068E+02  0.36892159142E+02  0.10566000000E+00 0. -1.
         13    1    4    4    0    0  0.18642273732E+00  0.79049204920E+00 -0.65763438367E+01  0.66271482110E+01  0.10566000000E+00 0. -1.
        -13    1    4    4    0    0  0.35681930793E+01  0.25649714048E+02 -0.15528999759E+03  0.15743453988E+03  0.10566000000E+00 0.  1.
        -14    1    4    4    0    0  0.85214956883E-01  0.18532840148E+01 -0.13001227672E+02  0.13132929765E+02  0.00000000000E+00 0.  1.
<mgrwt>
<rscale>  0 0.80860555E+02</rscale>
<asrwt>0</asrwt>
<pdfrwt beam="1">  1        1 0.12198326E-02 0.80860555E+02</pdfrwt>
<pdfrwt beam="2">  1       -2 0.31716591E-01 0.80860555E+02</pdfrwt>
<totfact> 0.81736010E+04</totfact>
</mgrwt>
</event>
<event>
 8    1  0.8247621E-014  0.7926812E+02  0.7818608E-02  0.1331141E+00
         -2   -1    0    0    0  501 -0.00000000000E+00  0.00000000000E+00  0.13344044931E+02  0.13344045174E+02  0.25500000000E-02 0.  1.
          1   -1    0    0  501    0  0.00000000000E+00 -0.00000000000E+00 -0.11771981434E+03  0.11771981444E+03  0.50400000000E-02 0. -1.
        -24    2    1    2    0    0  0.00000000000E+00  0.00000000000E+00 -0.10437576941E+03  0.13106385962E+03  0.79268115022E+02 0.  0.
         66    2    3    3    0    0  0.29684825447E+02  0.26204870391E+02 -0.53849006547E+02  0.66870020171E+02  0.19999993758E+01 0.  0.
         13    1    3    3    0    0 -0.29684825447E+02 -0.26204870391E+02 -0.50526762858E+02  0.64193839447E+02  0.10566000000E+00 0. -1.
         13    1    4    4    0    0  0.13300226804E+02  0.11691579121E+02 -0.22569272053E+02  0.28687493101E+02  0.10566000000E+00 0. -1.
        -13    1    4    4    0    0  0.66877598442E+01  0.57459760775E+01 -0.12140112133E+02  0.15004527965E+02  0.10566000000E+00 0.  1.
         14    1    4    4    0    0  0.96968387992E+01  0.87673151924E+01 -0.19139622361E+02  0.23177999105E+02  0.00000000000E+00 0. -1.
<mgrwt>
<rscale>  0 0.79268115E+02</rscale>
<asrwt>0</asrwt>
<pdfrwt beam="1">  1        1 0.18110740E-01 0.79268115E+02</pdfrwt>
<pdfrwt beam="2">  1       -2 0.20529301E-02 0.79268115E+02</pdfrwt>
<totfact> 0.15493666E+05</totfact>
</mgrwt>
</event>
<event>
 8    1  0.8247621E-014  0.7912688E+02  0.7818608E-02  0.1331548E+00
         -2   -1    0    0    0  501 -0.00000000000E+00  0.00000000000E+00  0.59327181402E+02  0.59327181456E+02  0.25500000000E-02 0.  1.
          1   -1    0    0  501    0  0.00000000000E+00 -0.00000000000E+00 -0.26383618630E+02  0.26383619111E+02  0.50400000000E-02 0. -1.
        -24    2    1    2    0    0  0.00000000000E+00  0.00000000000E+00  0.32943562772E+02  0.85710800568E+02  0.79126879161E+02 0.  0.
         66    2    3    3    0    0 -0.19281976656E+02  0.18290648406E+02  0.48191179908E+02  0.55070248431E+02  0.19999996108E+01 0.  0.
         13    1    3    3    0    0  0.19281976656E+02 -0.18290648406E+02 -0.15247617136E+02  0.30640552136E+02  0.10566000000E+00 0. -1.
         13    1    4    4    0    0 -0.93133191172E+01  0.96404547116E+01  0.24504834236E+02  0.27931601189E+02  0.10566000000E+00 0. -1.
        -13    1    4    4    0    0 -0.97624929459E+01  0.86425320467E+01  0.23271564390E+02  0.26675391317E+02  0.10566000000E+00 0.  1.
         14    1    4    4    0    0 -0.20616459263E+00  0.76616473925E-02  0.41478128214E+00  0.46325592507E+00  0.00000000000E+00 0. -1.
<mgrwt>
<rscale>  0 0.79126879E+02</rscale>
<asrwt>0</asrwt>
<pdfrwt beam="1">  1        1 0.40590183E-02 0.79126879E+02</pdfrwt>
<pdfrwt beam="2">  1       -2 0.91272587E-02 0.79126879E+02</pdfrwt>
<totfact> 0.12197562E+05</totfact>
</mgrwt>
</event>
<event>
 8    1  0.8247621E-014  0.8036555E+02  0.7818608E-02  0.1328017E+00
         -2   -1    0    0    0  501 -0.00000000000E+00  0.00000000000E+00  0.65546388976E+02  0.65546389026E+02  0.25500000000E-02 0.  1.
          1   -1    0    0  501    0  0.00000000000E+00 -0.00000000000E+00 -0.24633780338E+02  0.24633780853E+02  0.50400000000E-02 0. -1.
        -24    2    1    2    0    0  0.00000000000E+00  0.00000000000E+00  0.40912608639E+02  0.90180169879E+02  0.80365549172E+02 0.  0.
         66    2    3    3    0    0 -0.10246892485E+02 -0.65087791429E+01  0.63422831912E+02  0.64605097496E+02  0.20000008102E+01 0.  0.
         13    1    3    3    0    0  0.10246892485E+02  0.65087791429E+01 -0.22510223273E+02  0.25575072383E+02  0.10566000000E+00 0. -1.
         13    1    4    4    0    0 -0.43475534418E+01 -0.33781649842E+01  0.25211376212E+02  0.25805772109E+02  0.10566000000E+00 0. -1.
        -13    1    4    4    0    0 -0.28249458016E+01 -0.17204126839E+01  0.16873059127E+02  0.17194517351E+02  0.10566000000E+00 0.  1.
         14    1    4    4    0    0 -0.30743932418E+01 -0.14102014748E+01  0.21338396573E+02  0.21604808037E+02  0.00000000000E+00 0. -1.
<mgrwt>
<rscale>  0 0.80365549E+02</rscale>
<asrwt>0</asrwt>
<pdfrwt beam="1">  1        1 0.37898124E-02 0.80365549E+02</pdfrwt>
<pdfrwt beam="2">  1       -2 0.10084060E-01 0.80365549E+02</pdfrwt>
<totfact> 0.11507548E+05</totfact>
</mgrwt>
</event>
<event>
 8    1  0.8247621E-014  0.7786408E+02  0.7818608E-02  0.1335225E+00
          1   -1    0    0  501    0  0.00000000000E+00  0.00000000000E+00  0.18476793963E+02  0.18476794651E+02  0.50400000000E-02 0. -1.
         -2   -1    0    0    0  501 -0.00000000000E+00 -0.00000000000E+00 -0.82032826666E+02  0.82032826706E+02  0.25500000000E-02 0.  1.
        -24    2    1    2    0    0  0.35527136788E-14  0.00000000000E+00 -0.63556032703E+02  0.10050962136E+03  0.77864078318E+02 0.  0.
         66    2    3    3    0    0 -0.16551137296E+02  0.33930557965E+02 -0.43940716865E+02  0.57965589001E+02  0.19999999865E+01 0.  0.
         13    1    3    3    0    0  0.16551137296E+02 -0.33930557965E+02 -0.19615315838E+02  0.42544032356E+02  0.10566000000E+00 0. -1.
         13    1    4    4    0    0 -0.41644028988E+01  0.78560367866E+01 -0.93727289255E+01  0.12919704991E+02  0.10566000000E+00 0. -1.
        -13    1    4    4    0    0 -0.62122472021E+01  0.12004793391E+02 -0.16177683962E+02  0.21081643723E+02  0.10566000000E+00 0.  1.
        -14    1    4    4    0    0 -0.61744871956E+01  0.14069727788E+02 -0.18390303977E+02  0.23964240287E+02  0.00000000000E+00 0.  1.
<mgrwt>
<rscale>  0 0.77864078E+02</rscale>
<asrwt>0</asrwt>
<pdfrwt beam="1">  1        1 0.28425838E-02 0.77864078E+02</pdfrwt>
<pdfrwt beam="2">  1       -2 0.12620435E-01 0.77864078E+02</pdfrwt>
<totfact> 0.11908813E+05</totfact>
</mgrwt>
</event>
<event>
 8    1  0.8247621E-014  0.8083232E+02  0.7818608E-02  0.1326706E+00
          1   -1    0    0  501    0  0.00000000000E+00  0.00000000000E+00  0.56781724834E+02  0.56781725058E+02  0.50400000000E-02 0. -1.
         -2   -1    0    0    0  501 -0.00000000000E+00 -0.00000000000E+00 -0.28767461908E+02  0.28767462021E+02  0.25500000000E-02 0.  1.
        -24    2    1    2    0    0  0.00000000000E+00 -0.35527136788E-14  0.28014262926E+02  0.85549187078E+02  0.80832323253E+02 0.  0.
         66    2    3    3    0    0  0.32792432866E+02 -0.14597352996E+02 -0.55862954931E+01  0.36381768417E+02  0.20000020077E+01 0.  0.
         13    1    3    3    0    0 -0.32792432866E+02  0.14597352996E+02  0.33600558419E+02  0.49167418662E+02  0.10566000000E+00 0. -1.
         13    1    4    4    0    0  0.53582766360E+01 -0.16238609118E+01 -0.75995518799E+00  0.56512608055E+01  0.10566000000E+00 0. -1.
        -13    1    4    4    0    0  0.98918823920E+01 -0.46233085592E+01 -0.15953386978E+01  0.11035424273E+02  0.10566000000E+00 0.  1.
         14    1    4    4    0    0  0.17542273838E+02 -0.83501835250E+01 -0.32310016073E+01  0.19695083338E+02  0.00000000000E+00 0. -1.
<mgrwt>
<rscale>  0 0.80832323E+02</rscale>
<asrwt>0</asrwt>
<pdfrwt beam="1">  1        1 0.87356500E-02 0.80832323E+02</pdfrwt>
<pdfrwt beam="2">  1       -2 0.44257634E-02 0.80832323E+02</pdfrwt>
<totfact> 0.13043284E+05</totfact>
</mgrwt>
</event>
<event>
 8    1  0.8247621E-014  0.7943029E+02  0.7818608E-02  0.1330676E+00
         -2   -1    0    0    0  501 -0.00000000000E+00  0.00000000000E+00  0.19429724833E+03  0.19429724834E+03  0.25500000000E-02 0.  1.
          1   -1    0    0  501    0  0.00000000000E+00 -0.00000000000E+00 -0.81179350509E+01  0.81179366154E+01  0.50400000000E-02 0. -1.
        -24    2    1    2    0    0  0.88817841970E-15  0.00000000000E+00  0.18617931327E+03  0.20241518496E+03  0.79430286478E+02 0.  0.
         66    2    3    3    0    0 -0.67142506107E+01  0.10290043233E+02  0.18932324052E+03  0.18973206257E+03  0.20000037651E+01 0.  0.
         13    1    3    3    0    0  0.67142506107E+01 -0.10290043233E+02 -0.31439272435E+01  0.12683122390E+02  0.10566000000E+00 0. -1.
         13    1    4    4    0    0 -0.74103904905E+00  0.81533606047E+00  0.23023648518E+02  0.23050237892E+02  0.10566000000E+00 0. -1.
        -13    1    4    4    0    0 -0.11518127649E+01  0.15384627134E+01  0.36306262181E+02  0.36357246565E+02  0.10566000000E+00 0.  1.
        -14    1    4    4    0    0 -0.48213987968E+01  0.79362444592E+01  0.12999332982E+03  0.13032457811E+03  0.00000000000E+00 0.  1.
<mgrwt>
<rscale>  0 0.79430286E+02</rscale>
<asrwt>0</asrwt>
<pdfrwt beam="1">  1        1 0.12489133E-02 0.79430286E+02</pdfrwt>
<pdfrwt beam="2">  1       -2 0.29891883E-01 0.79430286E+02</pdfrwt>
<totfact> 0.87670601E+04</totfact>
</mgrwt>
</event>
<event>
 8    1  0.8247621E-014  0.7933407E+02  0.7818608E-02  0.1330952E+00
          1   -1    0    0  501    0  0.00000000000E+00  0.00000000000E+00  0.29108535530E+01  0.29108579163E+01  0.50400000000E-02 0. -1.
         -2   -1    0    0    0  501 -0.00000000000E+00 -0.00000000000E+00 -0.54055369544E+03  0.54055369544E+03  0.25500000000E-02 0.  1.
        -24    2    1    2    0    0  0.00000000000E+00  0.00000000000E+00 -0.53764284189E+03  0.54346455336E+03  0.79334074198E+02 0.  0.
         66    2    3    3    0    0 -0.69498738938E+01 -0.18223543572E+02 -0.50540961438E+03  0.50578975533E+03  0.19999994588E+01 0.  0.
         13    1    3    3    0    0  0.69498738938E+01  0.18223543572E+02 -0.32233227502E+02  0.37674798031E+02  0.10566000000E+00 0. -1.
         13    1    4    4    0    0 -0.18145181170E+01 -0.36139569358E+01 -0.10197107449E+03  0.10205128298E+03  0.10566000000E+00 0. -1.
        -13    1    4    4    0    0 -0.43723954403E+01 -0.11087947322E+02 -0.32100404922E+03  0.32122526550E+03  0.10566000000E+00 0.  1.
         14    1    4    4    0    0 -0.76296033653E+00 -0.35216393139E+01 -0.82434490673E+02  0.82513206849E+02  0.00000000000E+00 0. -1.
<mgrwt>
<rscale>  0 0.79334074E+02</rscale>
<asrwt>0</asrwt>
<pdfrwt beam="1">  1        1 0.44782439E-03 0.79334074E+02</pdfrwt>
<pdfrwt beam="2">  1       -2 0.83162027E-01 0.79334074E+02</pdfrwt>
<totfact> 0.48426384E+04</totfact>
</mgrwt>
</event>
<event>
 8    1  0.8247621E-014  0.7934989E+02  0.7818608E-02  0.1330907E+00
          1   -1    0    0  501    0  0.00000000000E+00  0.00000000000E+00  0.17855114567E+02  0.17855115278E+02  0.50400000000E-02 0. -1.
         -2   -1    0    0    0  501 -0.00000000000E+00 -0.00000000000E+00 -0.88159676526E+02  0.88159676563E+02  0.25500000000E-02 0.  1.
        -24    2    1    2    0    0 -0.44408920985E-15  0.71054273576E-14 -0.70304561959E+02  0.10601479184E+03  0.79349887567E+02 0.  0.
         66    2    3    3    0    0 -0.36606517809E+01  0.23557489043E+02 -0.77502855973E+02  0.81111333001E+02  0.19999989576E+01 0.  0.
         13    1    3    3    0    0  0.36606517809E+01 -0.23557489043E+02  0.71982940135E+01  0.24903458840E+02  0.10566000000E+00 0. -1.
         13    1    4    4    0    0 -0.21140430693E+00  0.42205412473E+01 -0.12101818788E+02  0.12818847148E+02  0.10566000000E+00 0. -1.
        -13    1    4    4    0    0 -0.28211902415E+00  0.23072155132E+01 -0.69806171852E+01  0.73581937247E+01  0.10566000000E+00 0.  1.
         14    1    4    4    0    0 -0.31671284498E+01  0.17029732283E+02 -0.58420420000E+02  0.60934292128E+02  0.00000000000E+00 0. -1.
<mgrwt>
<rscale>  0 0.79349888E+02</rscale>
<asrwt>0</asrwt>
<pdfrwt beam="1">  1        1 0.27469408E-02 0.79349888E+02</pdfrwt>
<pdfrwt beam="2">  1       -2 0.13563027E-01 0.79349888E+02</pdfrwt>
<totfact> 0.11167145E+05</totfact>
</mgrwt>
</event>
<event>
 8    1  0.8247621E-014  0.8009421E+02  0.7818608E-02  0.1328784E+00
         -2   -1    0    0    0  501 -0.00000000000E+00  0.00000000000E+00  0.29962366480E+02  0.29962366589E+02  0.25500000000E-02 0.  1.
          1   -1    0    0  501    0  0.00000000000E+00 -0.00000000000E+00 -0.53526159572E+02  0.53526159809E+02  0.50400000000E-02 0. -1.
        -24    2    1    2    0    0  0.00000000000E+00  0.00000000000E+00 -0.23563793091E+02  0.83488526398E+02  0.80094205129E+02 0.  0.
         66    2    3    3    0    0  0.36212387068E+02 -0.46325544221E+01  0.53060466922E+01  0.36945252439E+02  0.20000021580E+01 0.  0.
         13    1    3    3    0    0 -0.36212387068E+02  0.46325544221E+01 -0.28869839783E+02  0.46543273959E+02  0.10566000000E+00 0. -1.
         13    1    4    4    0    0  0.43421355014E+01 -0.84820975884E+00  0.43064238653E+00  0.44463712629E+01  0.10566000000E+00 0. -1.
        -13    1    4    4    0    0  0.64567327901E+01 -0.57649299314E+00  0.39934099014E+00  0.64955661613E+01  0.10566000000E+00 0.  1.
        -14    1    4    4    0    0  0.25413518777E+02 -0.32078516701E+01  0.44760633155E+01  0.26003315015E+02  0.00000000000E+00 0.  1.
<mgrwt>
<rscale>  0 0.80094205E+02</rscale>
<asrwt>0</asrwt>
<pdfrwt beam="1">  1        1 0.82347938E-02 0.80094205E+02</pdfrwt>
<pdfrwt beam="2">  1       -2 0.46095948E-02 0.80094205E+02</pdfrwt>
<totfact> 0.13255276E+05</totfact>
</mgrwt>
</event>
<event>
 8    1  0.8247621E-014  0.8045893E+02  0.7818608E-02  0.1327754E+00
          1   -1    0    0  501    0  0.00000000000E+00  0.00000000000E+00  0.63698521845E+01  0.63698541784E+01  0.50400000000E-02 0. -1.
         -2   -1    0    0    0  501 -0.00000000000E+00 -0.00000000000E+00 -0.25407332831E+03  0.25407332832E+03  0.25500000000E-02 0.  1.
        -24    2    1    2    0    0  0.35527136788E-14  0.00000000000E+00 -0.24770347613E+03  0.26044318250E+03  0.80458928819E+02 0.  0.
         66    2    3    3    0    0 -0.30993138640E+02  0.19408943166E+02 -0.17800804822E+03  0.18173647661E+03  0.19999953168E+01 0.  0.
         13    1    3    3    0    0  0.30993138640E+02 -0.19408943166E+02 -0.69695427905E+02  0.78706705892E+02  0.10566000000E+00 0. -1.
         13    1    4    4    0    0 -0.11474211802E+02  0.82355086571E+01 -0.70495065162E+02  0.71896081364E+02  0.10566000000E+00 0. -1.
        -13    1    4    4    0    0 -0.12190205411E+02  0.70231309565E+01 -0.67515653255E+02  0.68965934163E+02  0.10566000000E+00 0.  1.
         14    1    4    4    0    0 -0.73287214272E+01  0.41503035522E+01 -0.39997329803E+02  0.40874461081E+02  0.00000000000E+00 0. -1.
<mgrwt>
<rscale>  0 0.80458929E+02</rscale>
<asrwt>0</asrwt>
<pdfrwt beam="1">  1        1 0.97997761E-03 0.80458929E+02</pdfrwt>
<pdfrwt beam="2">  1       -2 0.39088197E-01 0.80458929E+02</pdfrwt>
<totfact> 0.75397434E+04</totfact>
</mgrwt>
</event>
<event>
 8    1  0.8247621E-014  0.8180810E+02  0.7818608E-02  0.1323997E+00
          1   -1    0    0  501    0  0.00000000000E+00  0.00000000000E+00  0.32287331698E+02  0.32287332092E+02  0.50400000000E-02 0. -1.
         -2   -1    0    0    0  501 -0.00000000000E+00 -0.00000000000E+00 -0.51820367599E+02  0.51820367661E+02  0.25500000000E-02 0.  1.
        -24    2    1    2    0    0 -0.35527136788E-14 -0.35527136788E-14 -0.19533035900E+02  0.84107699753E+02  0.81808102693E+02 0.  0.
         66    2    3    3    0    0  0.17329548078E+02  0.25892450382E+02 -0.36981415773E+02  0.48397906312E+02  0.19999998577E+01 0.  0.
         13    1    3    3    0    0 -0.17329548078E+02 -0.25892450382E+02  0.17448379873E+02  0.35709793441E+02  0.10566000000E+00 0. -1.
         13    1    4    4    0    0  0.32039843831E+01  0.45670885725E+01 -0.58681312591E+01  0.80975269352E+01  0.10566000000E+00 0. -1.
        -13    1    4    4    0    0  0.64633133828E+01  0.86126075394E+01 -0.12819932136E+02  0.16742558124E+02  0.10566000000E+00 0.  1.
         14    1    4    4    0    0  0.76622503119E+01  0.12712754270E+02 -0.18293352378E+02  0.23557821253E+02  0.00000000000E+00 0. -1.
<mgrwt>
<rscale>  0 0.81808103E+02</rscale>
<asrwt>0</asrwt>
<pdfrwt beam="1">  1        1 0.49672819E-02 0.81808103E+02</pdfrwt>
<pdfrwt beam="2">  1       -2 0.79723642E-02 0.81808103E+02</pdfrwt>
<totfact> 0.11491148E+05</totfact>
</mgrwt>
</event>
<event>
 8    1  0.9559092E-014  0.8006421E+02  0.7818608E-02  0.1328869E+00
          1   -1    0    0  501    0  0.00000000000E+00  0.00000000000E+00  0.12979920316E+03  0.12979920326E+03  0.50400000000E-02 0. -1.
         -2   -1    0    0    0  501 -0.00000000000E+00 -0.00000000000E+00 -0.12346527071E+02  0.12346527334E+02  0.25500000000E-02 0.  1.
        -24    2    1    2    0    0 -0.35527136788E-14  0.17763568394E-14  0.11745267609E+03  0.14214573059E+03  0.80064209264E+02 0.  0.
         66    2    3    3    0    0  0.19475414422E+02 -0.96004171514E+01 -0.89426900210E+00  0.21823370439E+02  0.20000009720E+01 0.  0.
         13    1    3    3    0    0 -0.19475414422E+02  0.96004171514E+01  0.11834694509E+03  0.12032236015E+03  0.10566000000E+00 0. -1.
         13    1    4    4    0    0  0.15855938381E+01 -0.66645081119E+00  0.27834764391E+00  0.17455388708E+01  0.10566000000E+00 0. -1.
        -13    1    4    4    0    0  0.60538977419E+00 -0.14374746301E+00 -0.20068190989E+00  0.66226684680E+00  0.10566000000E+00 0.  1.
        -14    1    4    4    0    0  0.17284430810E+02 -0.87902188772E+01 -0.97193473613E+00  0.19415564721E+02  0.00000000000E+00 0.  1.
<mgrwt>
<rscale>  0 0.80064209E+02</rscale>
<asrwt>0</asrwt>
<pdfrwt beam="1">  1        1 0.19969108E-01 0.80064209E+02</pdfrwt>
<pdfrwt beam="2">  1       -2 0.18994657E-02 0.80064209E+02</pdfrwt>
<totfact> 0.15345770E+05</totfact>
</mgrwt>
</event>
<event>
 8    1  0.8247621E-014  0.8229657E+02  0.7818608E-02  0.1322658E+00
         -2   -1    0    0    0  501 -0.00000000000E+00  0.00000000000E+00  0.71476693720E+02  0.71476693766E+02  0.25500000000E-02 0.  1.
          1   -1    0    0  501    0  0.00000000000E+00 -0.00000000000E+00 -0.23688578424E+02  0.23688578960E+02  0.50400000000E-02 0. -1.
        -24    2    1    2    0    0  0.00000000000E+00  0.00000000000E+00  0.47788115296E+02  0.95165272726E+02  0.82296568394E+02 0.  0.
         66    2    3    3    0    0  0.19133495079E+02  0.29068931330E+02  0.49245112442E+02  0.60333858638E+02  0.19999990476E+01 0.  0.
         13    1    3    3    0    0 -0.19133495079E+02 -0.29068931330E+02 -0.14569971457E+01  0.34831414087E+02  0.10566000000E+00 0. -1.
         13    1    4    4    0    0  0.13161984901E+01  0.29378638970E+01  0.47701061462E+01  0.57557362191E+01  0.10566000000E+00 0.  1.
        -13    1    4    4    0    0  0.74105990755E+01  0.10467059859E+02  0.18428355443E+02  0.22451988088E+02  0.10566000000E+00 0. -1.
        -14    1    4    4    0    0  0.10406697514E+02  0.15664007574E+02  0.26046650853E+02  0.32126134331E+02  0.00000000000E+00 0.  1.
<mgrwt>
<rscale>  0 0.82296568E+02</rscale>
<asrwt>0</asrwt>
<pdfrwt beam="1">  1        1 0.36443968E-02 0.82296568E+02</pdfrwt>
<pdfrwt beam="2">  1       -2 0.10996414E-01 0.82296568E+02</pdfrwt>
<totfact> 0.10648349E+05</totfact>
</mgrwt>
</event>
<event>
 8    1  0.8247621E-014  0.8207250E+02  0.7818608E-02  0.1323271E+00
         -2   -1    0    0    0  501 -0.00000000000E+00  0.00000000000E+00  0.13128422098E+02  0.13128422346E+02  0.25500000000E-02 0.  1.
          1   -1    0    0  501    0  0.00000000000E+00 -0.00000000000E+00 -0.12826933444E+03  0.12826933454E+03  0.50400000000E-02 0. -1.
        -24    2    1    2    0    0  0.00000000000E+00  0.35527136788E-14 -0.11514091234E+03  0.14139775689E+03  0.82072504270E+02 0.  0.
         66    2    3    3    0    0 -0.22975240195E+02 -0.25172845210E+02 -0.18301324806E+02  0.38735930113E+02  0.19999985159E+01 0.  0.
         13    1    3    3    0    0  0.22975240195E+02  0.25172845210E+02 -0.96839587537E+02  0.10266182677E+03  0.10566000000E+00 0. -1.
         13    1    4    4    0    0 -0.46786233806E+00 -0.23753180978E+00 -0.35486712231E+00  0.64219252419E+00  0.10566000000E+00 0. -1.
        -13    1    4    4    0    0 -0.62773607480E+01 -0.64495091323E+01 -0.49497069424E+01  0.10271912619E+02  0.10566000000E+00 0.  1.
         14    1    4    4    0    0 -0.16230017109E+02 -0.18485804268E+02 -0.12996750741E+02  0.27821824969E+02  0.00000000000E+00 0. -1.
<mgrwt>
<rscale>  0 0.82072504E+02</rscale>
<asrwt>0</asrwt>
<pdfrwt beam="1">  1        1 0.19733743E-01 0.82072504E+02</pdfrwt>
<pdfrwt beam="2">  1       -2 0.20197574E-02 0.82072504E+02</pdfrwt>
<totfact> 0.14327072E+05</totfact>
</mgrwt>
</event>
<event>
 8    1  0.8247621E-014  0.8212531E+02  0.7818608E-02  0.1323126E+00
         -2   -1    0    0    0  501 -0.00000000000E+00  0.00000000000E+00  0.15728095849E+02  0.15728096056E+02  0.25500000000E-02 0.  1.
          1   -1    0    0  501    0  0.00000000000E+00 -0.00000000000E+00 -0.10720571490E+03  0.10720571502E+03  0.50400000000E-02 0. -1.
        -24    2    1    2    0    0  0.71054273576E-14 -0.35527136788E-14 -0.91477619055E+02  0.12293381108E+03  0.82125313506E+02 0.  0.
         66    2    3    3    0    0 -0.29766304640E+02  0.27946021742E+02 -0.39571540482E+02  0.56893935398E+02  0.20000114619E+01 0.  0.
         13    1    3    3    0    0  0.29766304640E+02 -0.27946021742E+02 -0.51906078573E+02  0.66039875681E+02  0.10566000000E+00 0. -1.
         13    1    4    4    0    0 -0.91296443460E+01  0.93364643724E+01 -0.13222307759E+02  0.18583879018E+02  0.10566000000E+00 0. -1.
        -13    1    4    4    0    0 -0.15831779264E+02  0.14228177459E+02 -0.20803721086E+02  0.29763942002E+02  0.10566000000E+00 0.  1.
         14    1    4    4    0    0 -0.48048810301E+01  0.43813799109E+01 -0.55455116375E+01  0.85461143778E+01  0.00000000000E+00 0. -1.
<mgrwt>
<rscale>  0 0.82125314E+02</rscale>
<asrwt>0</asrwt>
<pdfrwt beam="1">  1        1 0.16493187E-01 0.82125314E+02</pdfrwt>
<pdfrwt beam="2">  1       -2 0.24197071E-02 0.82125314E+02</pdfrwt>
<totfact> 0.13856438E+05</totfact>
</mgrwt>
</event>
<event>
 8    1  0.8247621E-014  0.8088105E+02  0.7818608E-02  0.1326570E+00
         -2   -1    0    0    0  501 -0.00000000000E+00  0.00000000000E+00  0.12008230276E+03  0.12008230278E+03  0.25500000000E-02 0.  1.
          1   -1    0    0  501    0  0.00000000000E+00 -0.00000000000E+00 -0.13619291238E+02  0.13619292171E+02  0.50400000000E-02 0. -1.
        -24    2    1    2    0    0 -0.35527136788E-14  0.00000000000E+00  0.10646301152E+03  0.13370159495E+03  0.80881046431E+02 0.  0.
         66    2    3    3    0    0  0.23681735276E+02 -0.68348526654E+01  0.10621085529E+03  0.10905175635E+03  0.19999959804E+01 0.  0.
         13    1    3    3    0    0 -0.23681735276E+02  0.68348526654E+01  0.25215622839E+00  0.24649838609E+02  0.10566000000E+00 0. -1.
         13    1    4    4    0    0  0.10641010500E+02 -0.27061232350E+01  0.46041678680E+02  0.47332880190E+02  0.10566000000E+00 0. -1.
        -13    1    4    4    0    0  0.58038599325E+01 -0.22098465328E+01  0.29800786792E+02  0.30441193624E+02  0.10566000000E+00 0.  1.
        -14    1    4    4    0    0  0.72368648441E+01 -0.19188828977E+01  0.30368389819E+02  0.31277682532E+02  0.00000000000E+00 0.  1.
<mgrwt>
<rscale>  0 0.80881046E+02</rscale>
<asrwt>0</asrwt>
<pdfrwt beam="1">  1        1 0.20952757E-02 0.80881046E+02</pdfrwt>
<pdfrwt beam="2">  1       -2 0.18474200E-01 0.80881046E+02</pdfrwt>
<totfact> 0.98321662E+04</totfact>
</mgrwt>
</event>
<event>
 8    1  0.8247621E-014  0.7986912E+02  0.7818608E-02  0.1329423E+00
         -2   -1    0    0    0  501 -0.00000000000E+00  0.00000000000E+00  0.73561257172E+03  0.73561257172E+03  0.25500000000E-02 0.  1.
          1   -1    0    0  501    0  0.00000000000E+00 -0.00000000000E+00 -0.21679442193E+01  0.21679500777E+01  0.50400000000E-02 0. -1.
        -24    2    1    2    0    0  0.00000000000E+00 -0.44408920985E-15  0.73344462750E+03  0.73778052180E+03  0.79869122576E+02 0.  0.
         66    2    3    3    0    0  0.32773316063E+02 -0.31253960103E+01  0.57533689096E+03  0.57628152533E+03  0.19999954658E+01 0.  0.
         13    1    3    3    0    0 -0.32773316063E+02  0.31253960103E+01  0.15810773653E+03  0.16149899647E+03  0.10566000000E+00 0. -1.
         13    1    4    4    0    0  0.20867369596E+01 -0.65148043753E-01  0.30388808507E+02  0.30460623137E+02  0.10566000000E+00 0. -1.
        -13    1    4    4    0    0  0.25040245322E+02 -0.28851226355E+01  0.44552808922E+03  0.44624054866E+03  0.10566000000E+00 0.  1.
         14    1    4    4    0    0  0.56463337812E+01 -0.17512533102E+00  0.99419993234E+02  0.99580353528E+02  0.00000000000E+00 0. -1.
<mgrwt>
<rscale>  0 0.79869123E+02</rscale>
<asrwt>0</asrwt>
<pdfrwt beam="1">  1        1 0.33353022E-03 0.79869123E+02</pdfrwt>
<pdfrwt beam="2">  1       -2 0.11317120E+00 0.79869123E+02</pdfrwt>
<totfact> 0.36252050E+04</totfact>
</mgrwt>
</event>
<event>
 8    1  0.8247621E-014  0.8023803E+02  0.7818608E-02  0.1328377E+00
         -2   -1    0    0    0  501 -0.00000000000E+00  0.00000000000E+00  0.11889013745E+02  0.11889014019E+02  0.25500000000E-02 0.  1.
          1   -1    0    0  501    0  0.00000000000E+00 -0.00000000000E+00 -0.13538006997E+03  0.13538007006E+03  0.50400000000E-02 0. -1.
        -24    2    1    2    0    0  0.00000000000E+00  0.00000000000E+00 -0.12349105622E+03  0.14726908408E+03  0.80238034367E+02 0.  0.
         66    2    3    3    0    0  0.14039511690E+02 -0.33438971786E+02 -0.30406567938E+02  0.47369104872E+02  0.20000000241E+01 0.  0.
         13    1    3    3    0    0 -0.14039511690E+02  0.33438971786E+02 -0.93084488287E+02  0.99899979211E+02  0.10566000000E+00 0. -1.
         13    1    4    4    0    0  0.31349364492E+01 -0.89263055534E+01 -0.77770022877E+01  0.12247435895E+02  0.10566000000E+00 0. -1.
        -13    1    4    4    0    0  0.65783925013E+01 -0.15963317389E+02 -0.14048630246E+02  0.22259333453E+02  0.10566000000E+00 0.  1.
         14    1    4    4    0    0  0.43261827397E+01 -0.85493488433E+01 -0.85809354037E+01  0.12862335524E+02  0.00000000000E+00 0. -1.
<mgrwt>
<rscale>  0 0.80238034E+02</rscale>
<asrwt>0</asrwt>
<pdfrwt beam="1">  1        1 0.20827702E-01 0.80238034E+02</pdfrwt>
<pdfrwt beam="2">  1       -2 0.18290792E-02 0.80238034E+02</pdfrwt>
<totfact> 0.15372751E+05</totfact>
</mgrwt>
</event>
<event>
 8    1  0.8247621E-014  0.8048798E+02  0.7818608E-02  0.1327672E+00
          1   -1    0    0  501    0  0.00000000000E+00  0.00000000000E+00  0.34287829410E+03  0.34287829414E+03  0.50400000000E-02 0. -1.
         -2   -1    0    0    0  501 -0.00000000000E+00 -0.00000000000E+00 -0.47234800919E+01  0.47234807803E+01  0.25500000000E-02 0.  1.
        -24    2    1    2    0    0  0.00000000000E+00  0.00000000000E+00  0.33815481401E+03  0.34760177492E+03  0.80487984749E+02 0.  0.
         66    2    3    3    0    0  0.38812491761E+02 -0.99063750589E+01  0.18476959211E+03  0.18907233524E+03  0.20000003233E+01 0.  0.
         13    1    3    3    0    0 -0.38812491761E+02  0.99063750589E+01  0.15338522190E+03  0.15852943968E+03  0.10566000000E+00 0. -1.
         13    1    4    4    0    0  0.91036591051E+01 -0.28125880585E+01  0.44797755903E+02  0.45799971164E+02  0.10566000000E+00 0. -1.
        -13    1    4    4    0    0  0.29264552505E+00 -0.14621045746E+00  0.19052448824E+01  0.19360116215E+01  0.10566000000E+00 0.  1.
        -14    1    4    4    0    0  0.29416187131E+02 -0.69475765430E+01  0.13806659132E+03  0.14133635245E+03  0.00000000000E+00 0.  1.
<mgrwt>
<rscale>  0 0.80487985E+02</rscale>
<asrwt>0</asrwt>
<pdfrwt beam="1">  1        1 0.52750524E-01 0.80487985E+02</pdfrwt>
<pdfrwt beam="2">  1       -2 0.72668907E-03 0.80487985E+02</pdfrwt>
<totfact> 0.18201314E+05</totfact>
</mgrwt>
</event>
<event>
 8    1  0.8247621E-014  0.7870968E+02  0.7818608E-02  0.1332754E+00
          1   -1    0    0  501    0  0.00000000000E+00  0.00000000000E+00  0.14903679138E+03  0.14903679146E+03  0.50400000000E-02 0. -1.
         -2   -1    0    0    0  501 -0.00000000000E+00 -0.00000000000E+00 -0.10392088316E+02  0.10392088629E+02  0.25500000000E-02 0.  1.
        -24    2    1    2    0    0  0.00000000000E+00  0.35527136788E-14  0.13864470306E+03  0.15942888009E+03  0.78709682507E+02 0.  0.
         66    2    3    3    0    0  0.17305068517E+02 -0.21323826582E+02  0.12340916272E+02  0.30173981934E+02  0.19999987089E+01 0.  0.
         13    1    3    3    0    0 -0.17305068517E+02  0.21323826582E+02  0.12630378679E+03  0.12925489816E+03  0.10566000000E+00 0. -1.
         13    1    4    4    0    0  0.81716841893E+00 -0.89249569888E+00  0.77649275261E+00  0.14416718863E+01  0.10566000000E+00 0. -1.
        -13    1    4    4    0    0  0.48648957076E+01 -0.49929882432E+01  0.28008857059E+01  0.75135388876E+01  0.10566000000E+00 0.  1.
        -14    1    4    4    0    0  0.11623004391E+02 -0.15438342640E+02  0.87635378137E+01  0.21218771160E+02  0.00000000000E+00 0.  1.
<mgrwt>
<rscale>  0 0.78709683E+02</rscale>
<asrwt>0</asrwt>
<pdfrwt beam="1">  1        1 0.22928734E-01 0.78709683E+02</pdfrwt>
<pdfrwt beam="2">  1       -2 0.15987830E-02 0.78709683E+02</pdfrwt>
<totfact> 0.16469407E+05</totfact>
</mgrwt>
</event>
<event>
 8    1  0.8247621E-014  0.8506461E+02  0.7818608E-02  0.1315264E+00
         -2   -1    0    0    0  501 -0.00000000000E+00  0.00000000000E+00  0.20915094352E+02  0.20915094507E+02  0.25500000000E-02 0.  1.
          1   -1    0    0  501    0  0.00000000000E+00 -0.00000000000E+00 -0.86492414732E+02  0.86492414879E+02  0.50400000000E-02 0. -1.
        -24    2    1    2    0    0  0.71054273576E-14  0.00000000000E+00 -0.65577320380E+02  0.10740750939E+03  0.85064611469E+02 0.  0.
         66    2    3    3    0    0  0.33918587199E+02  0.45438598459E+01 -0.96684756256E+00  0.34293614799E+02  0.20000004752E+01 0.  0.
         13    1    3    3    0    0 -0.33918587199E+02 -0.45438598459E+01 -0.64610472818E+02  0.73113894587E+02  0.10566000000E+00 0. -1.
         13    1    4    4    0    0  0.34557747135E+01  0.87849096765E+00 -0.26240088325E+00  0.35768902010E+01  0.10566000000E+00 0. -1.
        -13    1    4    4    0    0  0.81888558940E+01  0.62071562304E+00 -0.60705754604E+00  0.82354314785E+01  0.10566000000E+00 0.  1.
        -14    1    4    4    0    0  0.22273956592E+02  0.30446532552E+01 -0.97389133272E-01  0.22481293120E+02  0.00000000000E+00 0.  1.
<mgrwt>
<rscale>  0 0.85064611E+02</rscale>
<asrwt>0</asrwt>
<pdfrwt beam="1">  1        1 0.13306525E-01 0.85064611E+02</pdfrwt>
<pdfrwt beam="2">  1       -2 0.32177069E-02 0.85064611E+02</pdfrwt>
<totfact> 0.12137481E+05</totfact>
</mgrwt>
</event>
<event>
 8    1  0.8247621E-014  0.8018833E+02  0.7818608E-02  0.1328518E+00
          1   -1    0    0  501    0  0.00000000000E+00  0.00000000000E+00  0.28271804613E+02  0.28271805063E+02  0.50400000000E-02 0. -1.
         -2   -1    0    0    0  501 -0.00000000000E+00 -0.00000000000E+00 -0.56860253136E+02  0.56860253193E+02  0.25500000000E-02 0.  1.
        -24    2    1    2    0    0  0.00000000000E+00  0.00000000000E+00 -0.28588448523E+02  0.85132058256E+02  0.80188328040E+02 0.  0.
         66    2    3    3    0    0  0.19089935843E+02 -0.23072545144E+02 -0.42567138219E+02  0.52083867388E+02  0.19999990103E+01 0.  0.
         13    1    3    3    0    0 -0.19089935843E+02  0.23072545144E+02  0.13978689696E+02  0.33048190867E+02  0.10566000000E+00 0. -1.
         13    1    4    4    0    0  0.90623760327E+00 -0.71024016414E+00 -0.14533252797E+01  0.18571553755E+01  0.10566000000E+00 0. -1.
        -13    1    4    4    0    0  0.17974290352E+02 -0.22142923863E+02 -0.40413868703E+02  0.49463887215E+02  0.10566000000E+00 0.  1.
        -14    1    4    4    0    0  0.20940788800E+00 -0.21938111698E+00 -0.69994423596E+00  0.76282479738E+00  0.00000000000E+00 0.  1.
<mgrwt>
<rscale>  0 0.80188328E+02</rscale>
<asrwt>0</asrwt>
<pdfrwt beam="1">  1        1 0.43495085E-02 0.80188328E+02</pdfrwt>
<pdfrwt beam="2">  1       -2 0.87477312E-02 0.80188328E+02</pdfrwt>
<totfact> 0.11885920E+05</totfact>
</mgrwt>
</event>
<event>
 8    1  0.8247621E-014  0.7183172E+02  0.7818608E-02  0.1353973E+00
          1   -1    0    0  501    0  0.00000000000E+00  0.00000000000E+00  0.18697393846E+03  0.18697393852E+03  0.50400000000E-02 0. -1.
         -2   -1    0    0    0  501 -0.00000000000E+00 -0.00000000000E+00 -0.68990838197E+01  0.68990842910E+01  0.25500000000E-02 0.  1.
        -24    2    1    2    0    0  0.00000000000E+00  0.00000000000E+00  0.18007485464E+03  0.19387302282E+03  0.71831717946E+02 0.  0.
         66    2    3    3    0    0  0.24213100115E+02 -0.26243730275E+02  0.80399477213E+02  0.87994792643E+02  0.20000000334E+01 0.  0.
         13    1    3    3    0    0 -0.24213100115E+02  0.26243730275E+02  0.99675377424E+02  0.10587823017E+03  0.10566000000E+00 0. -1.
         13    1    4    4    0    0  0.11980748162E+01 -0.18887952909E+01  0.51175824350E+01  0.55860312325E+01  0.10566000000E+00 0. -1.
        -13    1    4    4    0    0  0.18309294247E+02 -0.19936464426E+02  0.60663208490E+02  0.66428374193E+02  0.10566000000E+00 0.  1.
        -14    1    4    4    0    0  0.47057310523E+01 -0.44184705587E+01  0.14618686288E+02  0.15980387217E+02  0.00000000000E+00 0.  1.
<mgrwt>
<rscale>  0 0.71831718E+02</rscale>
<asrwt>0</asrwt>
<pdfrwt beam="1">  1        1 0.28765219E-01 0.71831718E+02</pdfrwt>
<pdfrwt beam="2">  1       -2 0.10613976E-02 0.71831718E+02</pdfrwt>
<totfact> 0.21872273E+05</totfact>
</mgrwt>
</event>
<event>
 8    1  0.8247621E-014  0.8430260E+02  0.7818608E-02  0.1317266E+00
         -2   -1    0    0    0  501 -0.00000000000E+00  0.00000000000E+00  0.11700202056E+02  0.11700202334E+02  0.25500000000E-02 0.  1.
          1   -1    0    0  501    0  0.00000000000E+00 -0.00000000000E+00 -0.15185481035E+03  0.15185481043E+03  0.50400000000E-02 0. -1.
        -24    2    1    2    0    0  0.17763568394E-14  0.00000000000E+00 -0.14015460829E+03  0.16355501277E+03  0.84302597678E+02 0.  0.
         66    2    3    3    0    0 -0.11584300409E+02 -0.34249400003E+02 -0.28167970368E+02  0.45876486032E+02  0.19999998719E+01 0.  0.
         13    1    3    3    0    0  0.11584300409E+02  0.34249400003E+02 -0.11198663792E+03  0.11767852673E+03  0.10566000000E+00 0. -1.
         13    1    4    4    0    0 -0.15668220017E+01 -0.54588717324E+01 -0.49679748527E+01  0.75462672857E+01  0.10566000000E+00 0. -1.
        -13    1    4    4    0    0 -0.59424303456E+01 -0.16703649539E+02 -0.14283014348E+02  0.22767082581E+02  0.10566000000E+00 0.  1.
        -14    1    4    4    0    0 -0.40750480619E+01 -0.12086878731E+02 -0.89169811664E+01  0.15563136165E+02  0.00000000000E+00 0.  1.
<mgrwt>
<rscale>  0 0.84302598E+02</rscale>
<asrwt>0</asrwt>
<pdfrwt beam="1">  1        1 0.23362277E-01 0.84302598E+02</pdfrwt>
<pdfrwt beam="2">  1       -2 0.18000312E-02 0.84302598E+02</pdfrwt>
<totfact> 0.13751893E+05</totfact>
</mgrwt>
</event>
<event>
 8    1  0.8247621E-014  0.6979046E+02  0.7818608E-02  0.1360807E+00
          1   -1    0    0  501    0  0.00000000000E+00  0.00000000000E+00  0.11947473805E+03  0.11947473816E+03  0.50400000000E-02 0. -1.
         -2   -1    0    0    0  501 -0.00000000000E+00 -0.00000000000E+00 -0.10191921208E+02  0.10191921527E+02  0.25500000000E-02 0.  1.
        -24    2    1    2    0    0  0.00000000000E+00  0.17763568394E-14  0.10928281684E+03  0.12966665968E+03  0.69790461931E+02 0.  0.
         66    2    3    3    0    0  0.32237497245E+02  0.12099901924E+02  0.44508342270E+02  0.56308581905E+02  0.20000023311E+01 0.  0.
         13    1    3    3    0    0 -0.32237497245E+02 -0.12099901924E+02  0.64774474572E+02  0.73358077778E+02  0.10566000000E+00 0. -1.
         13    1    4    4    0    0  0.17088293142E+02  0.55493475801E+01  0.23835106883E+02  0.29848425506E+02  0.10566000000E+00 0. -1.
        -13    1    4    4    0    0  0.13230295254E+02  0.58979658321E+01  0.18291316676E+02  0.23332598296E+02  0.10566000000E+00 0.  1.
         14    1    4    4    0    0  0.19189088493E+01  0.65258851151E+00  0.23819187109E+01  0.31275581022E+01  0.00000000000E+00 0. -1.
<mgrwt>
<rscale>  0 0.69790462E+02</rscale>
<asrwt>0</asrwt>
<pdfrwt beam="1">  1        1 0.18380728E-01 0.69790462E+02</pdfrwt>
<pdfrwt beam="2">  1       -2 0.15679880E-02 0.69790462E+02</pdfrwt>
<totfact> 0.21797865E+05</totfact>
</mgrwt>
</event>
<event>
 8    1  0.8247621E-014  0.8058951E+02  0.7818608E-02  0.1327387E+00
         -2   -1    0    0    0  501 -0.00000000000E+00  0.00000000000E+00  0.89733514424E+02  0.89733514461E+02  0.25500000000E-02 0.  1.
          1   -1    0    0  501    0  0.00000000000E+00 -0.00000000000E+00 -0.18094323126E+02  0.18094323828E+02  0.50400000000E-02 0. -1.
        -24    2    1    2    0    0 -0.35527136788E-14 -0.88817841970E-15  0.71639191298E+02  0.10782783829E+03  0.80589509120E+02 0.  0.
         66    2    3    3    0    0 -0.16875418931E+02  0.64274179092E+01  0.84001205509E+02  0.85943551130E+02  0.19999971884E+01 0.  0.
         13    1    3    3    0    0  0.16875418931E+02 -0.64274179092E+01 -0.12362014211E+02  0.21884287159E+02  0.10566000000E+00 0. -1.
         13    1    4    4    0    0 -0.34707106814E+00  0.83020978802E-01  0.20603027513E+01  0.20936480773E+01  0.10566000000E+00 0.  1.
        -13    1    4    4    0    0 -0.77793456410E+00  0.43969385585E-01  0.49699744269E+01  0.50317914636E+01  0.10566000000E+00 0.  1.
        -14    1    4    4    0    0 -0.15750413298E+02  0.63004275448E+01  0.76970928331E+02  0.78818111589E+02  0.00000000000E+00 0.  1.
<mgrwt>
<rscale>  0 0.80589509E+02</rscale>
<asrwt>0</asrwt>
<pdfrwt beam="1">  1        1 0.27837421E-02 0.80589509E+02</pdfrwt>
<pdfrwt beam="2">  1       -2 0.13805156E-01 0.80589509E+02</pdfrwt>
<totfact> 0.10689960E+05</totfact>
</mgrwt>
</event>
<event>
 8    1  0.8247621E-014  0.8480250E+02  0.7818608E-02  0.1315950E+00
          1   -1    0    0  501    0  0.00000000000E+00  0.00000000000E+00  0.18193559744E+02  0.18193560442E+02  0.50400000000E-02 0. -1.
         -2   -1    0    0    0  501 -0.00000000000E+00 -0.00000000000E+00 -0.98818811284E+02  0.98818811317E+02  0.25500000000E-02 0.  1.
        -24    2    1    2    0    0  0.00000000000E+00  0.17763568394E-14 -0.80625251540E+02  0.11701237176E+03  0.84802499719E+02 0.  0.
         66    2    3    3    0    0 -0.40275994871E+02 -0.13157499394E+02 -0.41390705255E+02  0.59266061579E+02  0.20000051067E+01 0.  0.
         13    1    3    3    0    0  0.40275994871E+02  0.13157499394E+02 -0.39234546285E+02  0.57746310180E+02  0.10566000000E+00 0. -1.
         13    1    4    4    0    0 -0.19631931166E+02 -0.67942429424E+01 -0.19472023460E+02  0.28473589871E+02  0.10566000000E+00 0. -1.
        -13    1    4    4    0    0 -0.14656796493E+02 -0.42003845821E+01 -0.14945370269E+02  0.21350413827E+02  0.10566000000E+00 0.  1.
         14    1    4    4    0    0 -0.59872672116E+01 -0.21628718696E+01 -0.69733115259E+01  0.94420578809E+01  0.00000000000E+00 0. -1.
<mgrwt>
<rscale>  0 0.84802500E+02</rscale>
<asrwt>0</asrwt>
<pdfrwt beam="1">  1        1 0.27990093E-02 0.84802500E+02</pdfrwt>
<pdfrwt beam="2">  1       -2 0.15202894E-01 0.84802500E+02</pdfrwt>
<totfact> 0.91674379E+04</totfact>
</mgrwt>
</event>
<event>
 8    1  0.8247621E-014  0.7922287E+02  0.7818608E-02  0.1331271E+00
          1   -1    0    0  501    0  0.00000000000E+00  0.00000000000E+00  0.15110792997E+03  0.15110793005E+03  0.50400000000E-02 0. -1.
         -2   -1    0    0    0  501 -0.00000000000E+00 -0.00000000000E+00 -0.10383741962E+02  0.10383742275E+02  0.25500000000E-02 0.  1.
        -24    2    1    2    0    0 -0.17763568394E-14  0.35527136788E-14  0.14072418801E+03  0.16149167233E+03  0.79222870063E+02 0.  0.
         66    2    3    3    0    0  0.10924413647E+02  0.24724868087E+02  0.11453760248E+02  0.29425338341E+02  0.19999993068E+01 0.  0.
         13    1    3    3    0    0 -0.10924413647E+02 -0.24724868087E+02  0.12927042776E+03  0.13206633399E+03  0.10566000000E+00 0. -1.
         13    1    4    4    0    0  0.37795815732E+00  0.17206503666E+01  0.50681248064E+00  0.18361680149E+01  0.10566000000E+00 0. -1.
        -13    1    4    4    0    0  0.80613898977E+01  0.16671575794E+02  0.81948370233E+01  0.20250776884E+02  0.10566000000E+00 0.  1.
        -14    1    4    4    0    0  0.24850655922E+01  0.63326419270E+01  0.27521107438E+01  0.73383934427E+01  0.00000000000E+00 0.  1.
<mgrwt>
<rscale>  0 0.79222870E+02</rscale>
<asrwt>0</asrwt>
<pdfrwt beam="1">  1        1 0.23247374E-01 0.79222870E+02</pdfrwt>
<pdfrwt beam="2">  1       -2 0.15974988E-02 0.79222870E+02</pdfrwt>
<totfact> 0.16227403E+05</totfact>
</mgrwt>
</event>
<event>
 8    1  0.8247621E-014  0.7929393E+02  0.7818608E-02  0.1331067E+00
          1   -1    0    0  501    0  0.00000000000E+00  0.00000000000E+00  0.34535295818E+02  0.34535296186E+02  0.50400000000E-02 0. -1.
         -2   -1    0    0    0  501 -0.00000000000E+00 -0.00000000000E+00 -0.45515225529E+02  0.45515225600E+02  0.25500000000E-02 0.  1.
        -24    2    1    2    0    0  0.00000000000E+00 -0.71054273576E-14 -0.10979929710E+02  0.80050521786E+02  0.79293929035E+02 0.  0.
         66    2    3    3    0    0 -0.71009190032E+01  0.29685085101E+02 -0.30998104136E+02  0.43548935526E+02  0.19999993318E+01 0.  0.
         13    1    3    3    0    0  0.71009190032E+01 -0.29685085101E+02  0.20018174426E+02  0.36501586260E+02  0.10566000000E+00 0. -1.
         13    1    4    4    0    0 -0.16630367419E+01  0.45329474387E+01 -0.46236415673E+01  0.66859949944E+01  0.10566000000E+00 0. -1.
        -13    1    4    4    0    0 -0.30236776830E+01  0.15118145721E+02 -0.16425810314E+02  0.22528190457E+02  0.10566000000E+00 0.  1.
         14    1    4    4    0    0 -0.24142045782E+01  0.10033991941E+02 -0.99486522542E+01  0.14334750074E+02  0.00000000000E+00 0. -1.
<mgrwt>
<rscale>  0 0.79293929E+02</rscale>
<asrwt>0</asrwt>
<pdfrwt beam="1">  1        1 0.53131225E-02 0.79293929E+02</pdfrwt>
<pdfrwt beam="2">  1       -2 0.70023424E-02 0.79293929E+02</pdfrwt>
<totfact> 0.12708806E+05</totfact>
</mgrwt>
</event>
<event>
 8    1  0.8247621E-014  0.7985560E+02  0.7818608E-02  0.1329462E+00
         -2   -1    0    0    0  501 -0.00000000000E+00  0.00000000000E+00  0.20163062532E+02  0.20163062693E+02  0.25500000000E-02 0.  1.
          1   -1    0    0  501    0  0.00000000000E+00 -0.00000000000E+00 -0.79066812132E+02  0.79066812292E+02  0.50400000000E-02 0. -1.
        -24    2    1    2    0    0  0.00000000000E+00  0.00000000000E+00 -0.58903749600E+02  0.99229874985E+02  0.79855597002E+02 0.  0.
         66    2    3    3    0    0  0.61577229456E+01  0.39360239173E+02 -0.32270503673E+02  0.51308200012E+02  0.20000003888E+01 0.  0.
         13    1    3    3    0    0 -0.61577229456E+01 -0.39360239173E+02 -0.26633245927E+02  0.47921674973E+02  0.10566000000E+00 0. -1.
         13    1    4    4    0    0  0.25959902702E+01  0.11630883317E+02 -0.97477212245E+01  0.15396293234E+02  0.10566000000E+00 0. -1.
        -13    1    4    4    0    0  0.17239515358E+01  0.14485708244E+02 -0.12284630688E+02  0.19071734777E+02  0.10566000000E+00 0.  1.
         14    1    4    4    0    0  0.18377811397E+01  0.13243647611E+02 -0.10238151761E+02  0.16840172002E+02  0.00000000000E+00 0. -1.
<mgrwt>
<rscale>  0 0.79855597E+02</rscale>
<asrwt>0</asrwt>
<pdfrwt beam="1">  1        1 0.12164125E-01 0.79855597E+02</pdfrwt>
<pdfrwt beam="2">  1       -2 0.31020097E-02 0.79855597E+02</pdfrwt>
<totfact> 0.14212451E+05</totfact>
</mgrwt>
</event>
<event>
 8    1  0.8247621E-014  0.8004125E+02  0.7818608E-02  0.1328934E+00
          1   -1    0    0  501    0  0.00000000000E+00  0.00000000000E+00  0.35226738823E+02  0.35226739183E+02  0.50400000000E-02 0. -1.
         -2   -1    0    0    0  501 -0.00000000000E+00 -0.00000000000E+00 -0.45466891730E+02  0.45466891801E+02  0.25500000000E-02 0.  1.
        -24    2    1    2    0    0  0.00000000000E+00  0.00000000000E+00 -0.10240152907E+02  0.80693630985E+02  0.80041247803E+02 0.  0.
         66    2    3    3    0    0  0.83355385583E+01 -0.36582982571E+02 -0.19087134531E+02  0.42143973856E+02  0.20000027506E+01 0.  0.
         13    1    3    3    0    0 -0.83355385583E+01  0.36582982571E+02  0.88469816236E+01  0.38549657128E+02  0.10566000000E+00 0. -1.
         13    1    4    4    0    0  0.30911730459E+01 -0.12785025679E+02 -0.70574399657E+01  0.14927520065E+02  0.10566000000E+00 0. -1.
        -13    1    4    4    0    0  0.40541055558E+01 -0.18339186837E+02 -0.99491983815E+01  0.21254629099E+02  0.10566000000E+00 0.  1.
        -14    1    4    4    0    0  0.11902599567E+01 -0.54587700555E+01 -0.20804961835E+01  0.59618246916E+01  0.00000000000E+00 0.  1.
<mgrwt>
<rscale>  0 0.80041248E+02</rscale>
<asrwt>0</asrwt>
<pdfrwt beam="1">  1        1 0.54194984E-02 0.80041248E+02</pdfrwt>
<pdfrwt beam="2">  1       -2 0.69949064E-02 0.80041248E+02</pdfrwt>
<totfact> 0.12415793E+05</totfact>
</mgrwt>
</event>
<event>
 8    1  0.8247621E-014  0.8575079E+02  0.7818608E-02  0.1313481E+00
          1   -1    0    0  501    0  0.00000000000E+00  0.00000000000E+00  0.11251199412E+02  0.11251200541E+02  0.50400000000E-02 0. -1.
         -2   -1    0    0    0  501 -0.00000000000E+00 -0.00000000000E+00 -0.16338695878E+03  0.16338695880E+03  0.25500000000E-02 0.  1.
        -24    2    1    2    0    0 -0.14210854715E-13  0.00000000000E+00 -0.15213575937E+03  0.17463815934E+03  0.85750786699E+02 0.  0.
         66    2    3    3    0    0  0.34468832785E+02 -0.53324883057E+01 -0.12680964580E+03  0.13153411014E+03  0.19999993457E+01 0.  0.
         13    1    3    3    0    0 -0.34468832785E+02  0.53324883057E+01 -0.25326113571E+02  0.43104049203E+02  0.10566000000E+00 0. -1.
         13    1    4    4    0    0  0.15380519140E+02 -0.31471057928E+01 -0.57673406750E+02  0.59772047431E+02  0.10566000000E+00 0. -1.
        -13    1    4    4    0    0  0.46855856752E+00  0.42149799339E-01 -0.17185856043E+01  0.17849437671E+01  0.10566000000E+00 0. -1.
        -14    1    4    4    0    0  0.18619755078E+02 -0.22275323123E+01 -0.67417653446E+02  0.69977118942E+02  0.00000000000E+00 0.  1.
<mgrwt>
<rscale>  0 0.85750787E+02</rscale>
<asrwt>0</asrwt>
<pdfrwt beam="1">  1        1 0.17309540E-02 0.85750787E+02</pdfrwt>
<pdfrwt beam="2">  1       -2 0.25136453E-01 0.85750787E+02</pdfrwt>
<totfact> 0.76753641E+04</totfact>
</mgrwt>
</event>
<event>
 8    1  0.8247621E-014  0.8013234E+02  0.7818608E-02  0.1328676E+00
         -2   -1    0    0    0  501 -0.00000000000E+00  0.00000000000E+00  0.59925139312E+01  0.59925144737E+01  0.25500000000E-02 0.  1.
          1   -1    0    0  501    0  0.00000000000E+00 -0.00000000000E+00 -0.26788388442E+03  0.26788388446E+03  0.50400000000E-02 0. -1.
        -24    2    1    2    0    0  0.00000000000E+00  0.00000000000E+00 -0.26189137048E+03  0.27387639894E+03  0.80132340290E+02 0.  0.
         66    2    3    3    0    0 -0.20860417434E+02  0.34147533416E+02 -0.12609546793E+03  0.13230751334E+03  0.20000000979E+01 0.  0.
         13    1    3    3    0    0  0.20860417434E+02 -0.34147533416E+02 -0.13579590255E+03  0.14156888559E+03  0.10566000000E+00 0. -1.
         13    1    4    4    0    0 -0.27022800937E+01  0.34510596746E+01 -0.13892751594E+02  0.14568179072E+02  0.10566000000E+00 0. -1.
        -13    1    4    4    0    0 -0.10509767065E+02  0.16883769171E+02 -0.63397957584E+02  0.66444179994E+02  0.10566000000E+00 0.  1.
         14    1    4    4    0    0 -0.76483702756E+01  0.13812704570E+02 -0.48804758751E+02  0.51295154276E+02  0.00000000000E+00 0. -1.
<mgrwt>
<rscale>  0 0.80132340E+02</rscale>
<asrwt>0</asrwt>
<pdfrwt beam="1">  1        1 0.41212896E-01 0.80132340E+02</pdfrwt>
<pdfrwt beam="2">  1       -2 0.92192547E-03 0.80132340E+02</pdfrwt>
<totfact> 0.17574809E+05</totfact>
</mgrwt>
</event>
<event>
 8    1  0.8247621E-014  0.7916402E+02  0.7818608E-02  0.1331441E+00
          1   -1    0    0  501    0  0.00000000000E+00  0.00000000000E+00  0.36541699618E+02  0.36541699965E+02  0.50400000000E-02 0. -1.
         -2   -1    0    0    0  501 -0.00000000000E+00 -0.00000000000E+00 -0.42875280653E+02  0.42875280729E+02  0.25500000000E-02 0.  1.
        -24    2    1    2    0    0 -0.35527136788E-14  0.00000000000E+00 -0.63335810352E+01  0.79416980694E+02  0.79164023229E+02 0.  0.
         66    2    3    3    0    0 -0.21785393412E+02  0.32684231586E+02 -0.78601077929E+01  0.40107900210E+02  0.20000010691E+01 0.  0.
         13    1    3    3    0    0  0.21785393412E+02 -0.32684231586E+02  0.15265267577E+01  0.39309080484E+02  0.10566000000E+00 0. -1.
         13    1    4    4    0    0 -0.67588718850E+00  0.81596977274E+00 -0.31385151052E+00  0.11100887207E+01  0.10566000000E+00 0.  1.
        -13    1    4    4    0    0 -0.36651716282E+01  0.66997390693E+01 -0.14361961304E+01  0.77713454447E+01  0.10566000000E+00 0.  1.
        -14    1    4    4    0    0 -0.17444334595E+02  0.25168522744E+02 -0.61100601520E+01  0.31226466045E+02  0.00000000000E+00 0.  1.
<mgrwt>
<rscale>  0 0.79164023E+02</rscale>
<asrwt>0</asrwt>
<pdfrwt beam="1">  1        1 0.56218000E-02 0.79164023E+02</pdfrwt>
<pdfrwt beam="2">  1       -2 0.65961970E-02 0.79164023E+02</pdfrwt>
<totfact> 0.12887973E+05</totfact>
</mgrwt>
</event>
<event>
 8    1  0.8247621E-014  0.7829686E+02  0.7818608E-02  0.1333955E+00
         -2   -1    0    0    0  501 -0.00000000000E+00  0.00000000000E+00  0.36909097935E+01  0.36909106744E+01  0.25500000000E-02 0.  1.
          1   -1    0    0  501    0  0.00000000000E+00 -0.00000000000E+00 -0.41523617048E+03  0.41523617051E+03  0.50400000000E-02 0. -1.
        -24    2    1    2    0    0  0.00000000000E+00  0.00000000000E+00 -0.41154526068E+03  0.41892708118E+03  0.78296856620E+02 0.  0.
         66    2    3    3    0    0 -0.80089314564E+01  0.37954290146E+02 -0.17866445674E+03  0.18283779483E+03  0.19999976141E+01 0.  0.
         13    1    3    3    0    0  0.80089314564E+01 -0.37954290146E+02 -0.23288080394E+03  0.23608928636E+03  0.10566000000E+00 0. -1.
         13    1    4    4    0    0 -0.19774576844E+01  0.11586449763E+02 -0.57421429472E+02  0.58612182041E+02  0.10566000000E+00 0. -1.
        -13    1    4    4    0    0 -0.26610135548E+01  0.12667680716E+02 -0.56860467126E+02  0.58315306856E+02  0.10566000000E+00 0.  1.
         14    1    4    4    0    0 -0.33704602172E+01  0.13700159667E+02 -0.64382560145E+02  0.65910305931E+02  0.00000000000E+00 0. -1.
<mgrwt>
<rscale>  0 0.78296857E+02</rscale>
<asrwt>0</asrwt>
<pdfrwt beam="1">  1        1 0.63882451E-01 0.78296857E+02</pdfrwt>
<pdfrwt beam="2">  1       -2 0.56783267E-03 0.78296857E+02</pdfrwt>
<totfact> 0.20217107E+05</totfact>
</mgrwt>
</event>
<event>
 8    1  0.8247621E-014  0.7719237E+02  0.7818608E-02  0.1337213E+00
          1   -1    0    0  501    0  0.00000000000E+00  0.00000000000E+00  0.71612593681E+02  0.71612593858E+02  0.50400000000E-02 0. -1.
         -2   -1    0    0    0  501 -0.00000000000E+00 -0.00000000000E+00 -0.20801725102E+02  0.20801725258E+02  0.25500000000E-02 0.  1.
        -24    2    1    2    0    0  0.35527136788E-14  0.00000000000E+00  0.50810868579E+02  0.92414319116E+02  0.77192370167E+02 0.  0.
         66    2    3    3    0    0  0.17413548768E+02  0.83141530378E+01 -0.14559279428E+02  0.24255502841E+02  0.19999947973E+01 0.  0.
         13    1    3    3    0    0 -0.17413548768E+02 -0.83141530378E+01  0.65370148007E+02  0.68158816275E+02  0.10566000000E+00 0. -1.
         13    1    4    4    0    0  0.58264086296E+00  0.43022664879E+00 -0.10018713876E+01  0.12407560830E+01  0.10566000000E+00 0. -1.
        -13    1    4    4    0    0  0.21539415144E+01  0.80119432678E+00 -0.17379100839E+01  0.28832051422E+01  0.10566000000E+00 0. -1.
        -14    1    4    4    0    0  0.14676966391E+02  0.70827320623E+01 -0.11819497957E+02  0.20131541616E+02  0.00000000000E+00 0.  1.
<mgrwt>
<rscale>  0 0.77192370E+02</rscale>
<asrwt>0</asrwt>
<pdfrwt beam="1">  1        1 0.11017322E-01 0.77192370E+02</pdfrwt>
<pdfrwt beam="2">  1       -2 0.32002654E-02 0.77192370E+02</pdfrwt>
<totfact> 0.15346025E+05</totfact>
</mgrwt>
</event>
<event>
 8    1  0.8247621E-014  0.8172762E+02  0.7818608E-02  0.1324219E+00
         -2   -1    0    0    0  501 -0.00000000000E+00  0.00000000000E+00  0.81912048135E+01  0.81912052105E+01  0.25500000000E-02 0.  1.
          1   -1    0    0  501    0  0.00000000000E+00 -0.00000000000E+00 -0.20385902407E+03  0.20385902413E+03  0.50400000000E-02 0. -1.
        -24    2    1    2    0    0  0.00000000000E+00  0.71054273576E-14 -0.19566781926E+03  0.21205022935E+03  0.81727622453E+02 0.  0.
         66    2    3    3    0    0  0.85879217091E+01  0.39454108507E+02 -0.11377393880E+03  0.12074306699E+03  0.19999994533E+01 0.  0.
         13    1    3    3    0    0 -0.85879217091E+01 -0.39454108507E+02 -0.81893880454E+02  0.91307162355E+02  0.10566000000E+00 0. -1.
         13    1    4    4    0    0  0.23971729336E+00  0.17972061748E+01 -0.55092246022E+01  0.58008735694E+01  0.10566000000E+00 0. -1.
        -13    1    4    4    0    0  0.75031076939E+01  0.35603940702E+02 -0.10213802572E+03  0.10842566431E+03  0.10566000000E+00 0.  1.
        -14    1    4    4    0    0  0.84509672185E+00  0.20529616303E+01 -0.61266884829E+01  0.65165291138E+01  0.00000000000E+00 0.  1.
<mgrwt>
<rscale>  0 0.81727622E+02</rscale>
<asrwt>0</asrwt>
<pdfrwt beam="1">  1        1 0.31362923E-01 0.81727622E+02</pdfrwt>
<pdfrwt beam="2">  1       -2 0.12601855E-02 0.81727622E+02</pdfrwt>
<totfact> 0.15812274E+05</totfact>
</mgrwt>
</event>
<event>
 8    1  0.8247621E-014  0.7915006E+02  0.7818608E-02  0.1331481E+00
          1   -1    0    0  501    0  0.00000000000E+00  0.00000000000E+00  0.10594326926E+03  0.10594326938E+03  0.50400000000E-02 0. -1.
         -2   -1    0    0    0  501 -0.00000000000E+00 -0.00000000000E+00 -0.14783223304E+02  0.14783223524E+02  0.25500000000E-02 0.  1.
        -24    2    1    2    0    0  0.17763568394E-14  0.00000000000E+00  0.91160045952E+02  0.12072649290E+03  0.79150060707E+02 0.  0.
         66    2    3    3    0    0 -0.14918696265E+02  0.34875290300E+02  0.28533691589E+02  0.47508156422E+02  0.19999997749E+01 0.  0.
         13    1    3    3    0    0  0.14918696265E+02 -0.34875290300E+02  0.62626354363E+02  0.73218336478E+02  0.10566000000E+00 0. -1.
         13    1    4    4    0    0 -0.48381730214E+00  0.63215935692E+00  0.80164986650E+00  0.11346854976E+01  0.10566000000E+00 0. -1.
        -13    1    4    4    0    0 -0.90241533412E+01  0.21336884407E+02  0.17694648628E+02  0.29151496254E+02  0.10566000000E+00 0.  1.
         14    1    4    4    0    0 -0.54107256222E+01  0.12906246536E+02  0.10037393095E+02  0.17221974670E+02  0.00000000000E+00 0. -1.
<mgrwt>
<rscale>  0 0.79150061E+02</rscale>
<asrwt>0</asrwt>
<pdfrwt beam="1">  1        1 0.16298965E-01 0.79150061E+02</pdfrwt>
<pdfrwt beam="2">  1       -2 0.22743420E-02 0.79150061E+02</pdfrwt>
<totfact> 0.15277092E+05</totfact>
</mgrwt>
</event>
<event>
 8    1  0.8247621E-014  0.7709931E+02  0.7818608E-02  0.1337491E+00
          1   -1    0    0  501    0  0.00000000000E+00  0.00000000000E+00  0.44603399258E+02  0.44603399542E+02  0.50400000000E-02 0. -1.
         -2   -1    0    0    0  501 -0.00000000000E+00 -0.00000000000E+00 -0.33317551516E+02  0.33317551614E+02  0.25500000000E-02 0.  1.
        -24    2    1    2    0    0  0.00000000000E+00  0.00000000000E+00  0.11285847741E+02  0.77920951156E+02  0.77099314328E+02 0.  0.
         66    2    3    3    0    0  0.31335812852E+02 -0.20730593976E+02 -0.29516256749E+01  0.37741260926E+02  0.19999971155E+01 0.  0.
         13    1    3    3    0    0 -0.31335812852E+02  0.20730593976E+02  0.14237473416E+02  0.40179690230E+02  0.10566000000E+00 0. -1.
         13    1    4    4    0    0  0.12034768776E+02 -0.78766240802E+01 -0.20403810691E+01  0.14527600812E+02  0.10566000000E+00 0. -1.
        -13    1    4    4    0    0  0.79622102103E+01 -0.53868928055E+01 -0.62013836886E+00  0.96338539102E+01  0.10566000000E+00 0.  1.
         14    1    4    4    0    0  0.11338833866E+02 -0.74670770901E+01 -0.29110623693E+00  0.13579806204E+02  0.00000000000E+00 0. -1.
<mgrwt>
<rscale>  0 0.77099314E+02</rscale>
<asrwt>0</asrwt>
<pdfrwt beam="1">  1        1 0.68620615E-02 0.77099314E+02</pdfrwt>
<pdfrwt beam="2">  1       -2 0.51257772E-02 0.77099314E+02</pdfrwt>
<totfact> 0.14324026E+05</totfact>
</mgrwt>
</event>
<event>
 8    1  0.8247621E-014  0.8007502E+02  0.7818608E-02  0.1328839E+00
          1   -1    0    0  501    0  0.00000000000E+00  0.00000000000E+00  0.14426901415E+02  0.14426902295E+02  0.50400000000E-02 0. -1.
         -2   -1    0    0    0  501 -0.00000000000E+00 -0.00000000000E+00 -0.11111203025E+03  0.11111203028E+03  0.25500000000E-02 0.  1.
        -24    2    1    2    0    0  0.71054273576E-14  0.00000000000E+00 -0.96685128835E+02  0.12553893257E+03  0.80075023910E+02 0.  0.
         66    2    3    3    0    0  0.33492260410E+02  0.17926177191E+02 -0.68074045784E+02  0.77981760946E+02  0.19999986810E+01 0.  0.
         13    1    3    3    0    0 -0.33492260410E+02 -0.17926177191E+02 -0.28611083051E+02  0.47557171629E+02  0.10566000000E+00 0. -1.
         13    1    4    4    0    0  0.80951994567E+01  0.37544959290E+01 -0.15410477825E+02  0.17807933197E+02  0.10566000000E+00 0. -1.
        -13    1    4    4    0    0  0.36797904484E+01  0.19745379990E+01 -0.67153785479E+01  0.79086744231E+01  0.10566000000E+00 0.  1.
        -14    1    4    4    0    0  0.21717270504E+02  0.12197143263E+02 -0.45948189412E+02  0.52265153326E+02  0.00000000000E+00 0.  1.
<mgrwt>
<rscale>  0 0.80075024E+02</rscale>
<asrwt>0</asrwt>
<pdfrwt beam="1">  1        1 0.22195234E-02 0.80075024E+02</pdfrwt>
<pdfrwt beam="2">  1       -2 0.17094158E-01 0.80075024E+02</pdfrwt>
<totfact> 0.10304461E+05</totfact>
</mgrwt>
</event>
<event>
 8    1  0.8247621E-014  0.7935679E+02  0.7818608E-02  0.1330887E+00
         -2   -1    0    0    0  501 -0.00000000000E+00  0.00000000000E+00  0.45789220409E+03  0.45789220409E+03  0.25500000000E-02 0.  1.
          1   -1    0    0  501    0  0.00000000000E+00 -0.00000000000E+00 -0.34383077004E+01  0.34383113943E+01  0.50400000000E-02 0. -1.
        -24    2    1    2    0    0  0.17763568394E-14 -0.27755575616E-16  0.45445389639E+03  0.46133051549E+03  0.79356792903E+02 0.  0.
         66    2    3    3    0    0 -0.14839676082E+02  0.20934328418E+00  0.44113466754E+03  0.44138877955E+03  0.20000009631E+01 0.  0.
         13    1    3    3    0    0  0.14839676082E+02 -0.20934328418E+00  0.13319228850E+02  0.19941735933E+02  0.10566000000E+00 0. -1.
         13    1    4    4    0    0 -0.11905768250E+02 -0.13463688627E+00  0.33908747668E+03  0.33929646837E+03  0.10566000000E+00 0. -1.
        -13    1    4    4    0    0 -0.36631887582E+00 -0.75269465052E-01  0.20342697499E+02  0.20346409034E+02  0.10566000000E+00 0.  1.
        -14    1    4    4    0    0 -0.25675889566E+01  0.41924963550E+00  0.81704493361E+02  0.81745902152E+02  0.00000000000E+00 0.  1.
<mgrwt>
<rscale>  0 0.79356793E+02</rscale>
<asrwt>0</asrwt>
<pdfrwt beam="1">  1        1 0.52897036E-03 0.79356793E+02</pdfrwt>
<pdfrwt beam="2">  1       -2 0.70445001E-01 0.79356793E+02</pdfrwt>
<totfact> 0.54938953E+04</totfact>
</mgrwt>
</event>
<event>
 8    1  0.8247621E-014  0.7775467E+02  0.7818608E-02  0.1335547E+00
          1   -1    0    0  501    0  0.00000000000E+00  0.00000000000E+00  0.25397052431E+02  0.25397052931E+02  0.50400000000E-02 0. -1.
         -2   -1    0    0    0  501 -0.00000000000E+00 -0.00000000000E+00 -0.59512695839E+02  0.59512695893E+02  0.25500000000E-02 0.  1.
        -24    2    1    2    0    0 -0.11102230246E-15  0.00000000000E+00 -0.34115643407E+02  0.84909748825E+02  0.77754667515E+02 0.  0.
         66    2    3    3    0    0 -0.82503349117E+00  0.38818171115E+02 -0.18578691265E+02  0.43089429183E+02  0.20000123116E+01 0.  0.
         13    1    3    3    0    0  0.82503349117E+00 -0.38818171115E+02 -0.15536952142E+02  0.41820319641E+02  0.10566000000E+00 0. -1.
         13    1    4    4    0    0 -0.10411809248E+01  0.17603544568E+02 -0.82955647487E+01  0.19488365698E+02  0.10566000000E+00 0.  1.
        -13    1    4    4    0    0 -0.30494199456E+00  0.26292285826E+01 -0.13722357393E+01  0.29832913903E+01  0.10566000000E+00 0. -1.
         14    1    4    4    0    0  0.52108942818E+00  0.18585397965E+02 -0.89108907771E+01  0.20617772095E+02  0.00000000000E+00 0. -1.
<mgrwt>
<rscale>  0 0.77754668E+02</rscale>
<asrwt>0</asrwt>
<pdfrwt beam="1">  1        1 0.39072389E-02 0.77754668E+02</pdfrwt>
<pdfrwt beam="2">  1       -2 0.91557993E-02 0.77754668E+02</pdfrwt>
<totfact> 0.12741703E+05</totfact>
</mgrwt>
</event>
<event>
 8    1  0.8247621E-014  0.7955557E+02  0.7818608E-02  0.1330317E+00
          1   -1    0    0  501    0  0.00000000000E+00  0.00000000000E+00  0.97473312179E+02  0.97473312309E+02  0.50400000000E-02 0. -1.
         -2   -1    0    0    0  501 -0.00000000000E+00 -0.00000000000E+00 -0.16232877011E+02  0.16232877211E+02  0.25500000000E-02 0.  1.
        -24    2    1    2    0    0  0.00000000000E+00  0.00000000000E+00  0.81240435168E+02  0.11370618952E+03  0.79555573212E+02 0.  0.
         66    2    3    3    0    0  0.36930336769E+02 -0.50846251085E+01  0.60376137605E+02  0.70985781479E+02  0.19999984453E+01 0.  0.
         13    1    3    3    0    0 -0.36930336769E+02  0.50846251085E+01  0.20864297563E+02  0.42720408041E+02  0.10566000000E+00 0. -1.
         13    1    4    4    0    0  0.30338061714E+01 -0.77398491704E+00  0.52062747764E+01  0.60761413430E+01  0.10566000000E+00 0. -1.
        -13    1    4    4    0    0  0.19385729863E+02 -0.22227355364E+01  0.30258838953E+02  0.36004938195E+02  0.10566000000E+00 0.  1.
        -14    1    4    4    0    0  0.14510800735E+02 -0.20879046550E+01  0.24911023875E+02  0.28904701941E+02  0.00000000000E+00 0.  1.
<mgrwt>
<rscale>  0 0.79555573E+02</rscale>
<asrwt>0</asrwt>
<pdfrwt beam="1">  1        1 0.14995894E-01 0.79555573E+02</pdfrwt>
<pdfrwt beam="2">  1       -2 0.24973658E-02 0.79555573E+02</pdfrwt>
<totfact> 0.14858285E+05</totfact>
</mgrwt>
</event>
<event>
 8    1  0.8247621E-014  0.7994027E+02  0.7818608E-02  0.1329221E+00
         -2   -1    0    0    0  501 -0.00000000000E+00  0.00000000000E+00  0.27828654406E+02  0.27828654523E+02  0.25500000000E-02 0.  1.
          1   -1    0    0  501    0  0.00000000000E+00 -0.00000000000E+00 -0.57408867627E+02  0.57408867848E+02  0.50400000000E-02 0. -1.
        -24    2    1    2    0    0  0.00000000000E+00  0.00000000000E+00 -0.29580213221E+02  0.85237522371E+02  0.79940266485E+02 0.  0.
         66    2    3    3    0    0 -0.59634410826E+01  0.38004708831E+02 -0.33308609403E+01  0.38665425768E+02  0.19999980869E+01 0.  0.
         13    1    3    3    0    0  0.59634410826E+01 -0.38004708831E+02 -0.26249352281E+02  0.46572096603E+02  0.10566000000E+00 0. -1.
         13    1    4    4    0    0 -0.50791135374E+00  0.46046922216E+01 -0.29075159309E+00  0.46429371009E+01  0.10566000000E+00 0. -1.
        -13    1    4    4    0    0 -0.37805842669E+01  0.24965420611E+02 -0.15756257355E+01  0.25299383474E+02  0.10566000000E+00 0.  1.
         14    1    4    4    0    0 -0.16749454619E+01  0.84345959983E+01 -0.14644836117E+01  0.87231051928E+01  0.00000000000E+00 0. -1.
<mgrwt>
<rscale>  0 0.79940266E+02</rscale>
<asrwt>0</asrwt>
<pdfrwt beam="1">  1        1 0.88321335E-02 0.79940266E+02</pdfrwt>
<pdfrwt beam="2">  1       -2 0.42813315E-02 0.79940266E+02</pdfrwt>
<totfact> 0.13473013E+05</totfact>
</mgrwt>
</event>
<event>
 8    1  0.8247621E-014  0.7237442E+02  0.7818608E-02  0.1352200E+00
          1   -1    0    0  501    0  0.00000000000E+00  0.00000000000E+00  0.25703311730E+02  0.25703312225E+02  0.50400000000E-02 0. -1.
         -2   -1    0    0    0  501 -0.00000000000E+00 -0.00000000000E+00 -0.50947298013E+02  0.50947298077E+02  0.25500000000E-02 0.  1.
        -24    2    1    2    0    0  0.00000000000E+00 -0.17763568394E-14 -0.25243986283E+02  0.76650610301E+02  0.72374423771E+02 0.  0.
         66    2    3    3    0    0 -0.34152295607E+02 -0.82276944712E+01 -0.35558505776E+01  0.35365496206E+02  0.19999992577E+01 0.  0.
         13    1    3    3    0    0  0.34152295607E+02  0.82276944712E+01 -0.21688135705E+02  0.41285114096E+02  0.10566000000E+00 0. -1.
         13    1    4    4    0    0 -0.31728949312E+01 -0.50087997542E+00 -0.56967674720E+00  0.32640218483E+01  0.10566000000E+00 0. -1.
        -13    1    4    4    0    0 -0.56038735506E+00 -0.29878467471E+00 -0.14586006221E+00  0.66011018997E+00  0.10566000000E+00 0. -1.
        -14    1    4    4    0    0 -0.30419013320E+02 -0.74280298210E+01 -0.28403137682E+01  0.31441364167E+02  0.00000000000E+00 0.  1.
<mgrwt>
<rscale>  0 0.72374424E+02</rscale>
<asrwt>0</asrwt>
<pdfrwt beam="1">  1        1 0.39543557E-02 0.72374424E+02</pdfrwt>
<pdfrwt beam="2">  1       -2 0.78380459E-02 0.72374424E+02</pdfrwt>
<totfact> 0.15681216E+05</totfact>
</mgrwt>
</event>
<event>
 8    1  0.8247621E-014  0.7577020E+02  0.7818608E-02  0.1341502E+00
          1   -1    0    0  501    0  0.00000000000E+00  0.00000000000E+00  0.46934885563E+02  0.46934885833E+02  0.50400000000E-02 0. -1.
         -2   -1    0    0    0  501 -0.00000000000E+00 -0.00000000000E+00 -0.30580254816E+02  0.30580254922E+02  0.25500000000E-02 0.  1.
        -24    2    1    2    0    0  0.27755575616E-16  0.00000000000E+00  0.16354630747E+02  0.77515140755E+02  0.75770199283E+02 0.  0.
         66    2    3    3    0    0  0.13292483090E+00 -0.35065237674E+02  0.22783576961E+02  0.41865020481E+02  0.19999996474E+01 0.  0.
         13    1    3    3    0    0 -0.13292483090E+00  0.35065237674E+02 -0.64289462139E+01  0.35650120275E+02  0.10566000000E+00 0. -1.
         13    1    4    4    0    0  0.56311894276E+00 -0.55282354361E+01  0.35338856556E+01  0.65861978290E+01  0.10566000000E+00 0. -1.
        -13    1    4    4    0    0  0.16787408989E+00 -0.13703805975E+02  0.94800267437E+01  0.16664469719E+02  0.10566000000E+00 0.  1.
         14    1    4    4    0    0 -0.59806820175E+00 -0.15833196262E+02  0.97696645618E+01  0.18614352933E+02  0.00000000000E+00 0. -1.
<mgrwt>
<rscale>  0 0.75770199E+02</rscale>
<asrwt>0</asrwt>
<pdfrwt beam="1">  1        1 0.72207517E-02 0.75770199E+02</pdfrwt>
<pdfrwt beam="2">  1       -2 0.47046546E-02 0.75770199E+02</pdfrwt>
<totfact> 0.15148294E+05</totfact>
</mgrwt>
</event>
<event>
 8    1  0.8247621E-014  0.8507337E+02  0.7818608E-02  0.1315241E+00
         -2   -1    0    0    0  501 -0.00000000000E+00  0.00000000000E+00  0.19581207745E+03  0.19581207747E+03  0.25500000000E-02 0.  1.
          1   -1    0    0  501    0  0.00000000000E+00 -0.00000000000E+00 -0.92403371415E+01  0.92403385160E+01  0.50400000000E-02 0. -1.
        -24    2    1    2    0    0  0.00000000000E+00  0.00000000000E+00  0.18657174031E+03  0.20505241598E+03  0.85073374322E+02 0.  0.
         66    2    3    3    0    0 -0.40519058813E+02 -0.11680142784E+02  0.10634952751E+03  0.11442220881E+03  0.20000009500E+01 0.  0.
         13    1    3    3    0    0  0.40519058813E+02  0.11680142784E+02  0.80222212796E+02  0.90630207175E+02  0.10566000000E+00 0. -1.
         13    1    4    4    0    0 -0.10063753252E+02 -0.34302322958E+01  0.25308331024E+02  0.27451200454E+02  0.10566000000E+00 0. -1.
        -13    1    4    4    0    0 -0.13598811974E+01 -0.23133751119E+00  0.36318144985E+01  0.38863909353E+01  0.10566000000E+00 0.  1.
        -14    1    4    4    0    0 -0.29095424364E+02 -0.80185729768E+01  0.77409381988E+02  0.83084617417E+02  0.00000000000E+00 0.  1.
<mgrwt>
<rscale>  0 0.85073374E+02</rscale>
<asrwt>0</asrwt>
<pdfrwt beam="1">  1        1 0.14215906E-02 0.85073374E+02</pdfrwt>
<pdfrwt beam="2">  1       -2 0.30124933E-01 0.85073374E+02</pdfrwt>
<totfact> 0.73199167E+04</totfact>
</mgrwt>
</event>
<event>
 8    1  0.8247621E-014  0.8000053E+02  0.7818608E-02  0.1329050E+00
         -2   -1    0    0    0  501 -0.00000000000E+00  0.00000000000E+00  0.22850409318E+02  0.22850409460E+02  0.25500000000E-02 0.  1.
          1   -1    0    0  501    0  0.00000000000E+00 -0.00000000000E+00 -0.70021561964E+02  0.70021562146E+02  0.50400000000E-02 0. -1.
        -24    2    1    2    0    0  0.00000000000E+00  0.17763568394E-14 -0.47171152646E+02  0.92871971606E+02  0.80000534173E+02 0.  0.
         66    2    3    3    0    0 -0.36895719944E+02  0.11784637114E+02 -0.35083403255E+02  0.52297390012E+02  0.19999990139E+01 0.  0.
         13    1    3    3    0    0  0.36895719944E+02 -0.11784637114E+02 -0.12087749391E+02  0.40574581594E+02  0.10566000000E+00 0. -1.
         13    1    4    4    0    0 -0.46611575772E+01  0.13924032045E+01 -0.46148321786E+01  0.67061924156E+01  0.10566000000E+00 0. -1.
        -13    1    4    4    0    0 -0.30997677747E+02  0.96659444738E+01 -0.29401018603E+02  0.43803168461E+02  0.10566000000E+00 0.  1.
         14    1    4    4    0    0 -0.12368846200E+01  0.72628943595E+00 -0.10675524733E+01  0.17880291360E+01  0.00000000000E+00 0. -1.
<mgrwt>
<rscale>  0 0.80000534E+02</rscale>
<asrwt>0</asrwt>
<pdfrwt beam="1">  1        1 0.10772548E-01 0.80000534E+02</pdfrwt>
<pdfrwt beam="2">  1       -2 0.35154476E-02 0.80000534E+02</pdfrwt>
<totfact> 0.13871054E+05</totfact>
</mgrwt>
</event>
<event>
 8    1  0.8247621E-014  0.7936828E+02  0.7818608E-02  0.1330854E+00
         -2   -1    0    0    0  501 -0.00000000000E+00  0.00000000000E+00  0.31467742473E+03  0.31467742474E+03  0.25500000000E-02 0.  1.
          1   -1    0    0  501    0  0.00000000000E+00 -0.00000000000E+00 -0.50045872407E+01  0.50045897785E+01  0.50400000000E-02 0. -1.
        -24    2    1    2    0    0  0.88817841970E-15  0.00000000000E+00  0.30967283749E+03  0.31968201452E+03  0.79368281626E+02 0.  0.
         66    2    3    3    0    0 -0.69291972277E+01 -0.39011696510E+02  0.16179342294E+03  0.16658642787E+03  0.20000015684E+01 0.  0.
         13    1    3    3    0    0  0.69291972277E+01  0.39011696510E+02  0.14787941456E+03  0.15309558665E+03  0.10566000000E+00 0. -1.
         13    1    4    4    0    0 -0.16518417953E+00 -0.78974002926E+00  0.38232610009E+01  0.39088954762E+01  0.10566000000E+00 0. -1.
        -13    1    4    4    0    0 -0.23299171510E+01 -0.91724181613E+01  0.38932212141E+02  0.40066071371E+02  0.10566000000E+00 0.  1.
        -14    1    4    4    0    0 -0.44340958971E+01 -0.29049538319E+02  0.11903794980E+03  0.12261146102E+03  0.00000000000E+00 0.  1.
<mgrwt>
<rscale>  0 0.79368282E+02</rscale>
<asrwt>0</asrwt>
<pdfrwt beam="1">  1        1 0.76993658E-03 0.79368282E+02</pdfrwt>
<pdfrwt beam="2">  1       -2 0.48411919E-01 0.79368282E+02</pdfrwt>
<totfact> 0.69853325E+04</totfact>
</mgrwt>
</event>
<event>
 8    1  0.8247621E-014  0.8060028E+02  0.7818608E-02  0.1327356E+00
          1   -1    0    0  501    0  0.00000000000E+00  0.00000000000E+00  0.11286776337E+03  0.11286776348E+03  0.50400000000E-02 0. -1.
         -2   -1    0    0    0  501 -0.00000000000E+00 -0.00000000000E+00 -0.14389418255E+02  0.14389418481E+02  0.25500000000E-02 0.  1.
        -24    2    1    2    0    0  0.88817841970E-15  0.00000000000E+00  0.98478345113E+02  0.12725718196E+03  0.80600284769E+02 0.  0.
         66    2    3    3    0    0 -0.67510668638E+01 -0.16906552479E+02 -0.74532264443E+01  0.19772683372E+02  0.20000007010E+01 0.  0.
         13    1    3    3    0    0  0.67510668638E+01  0.16906552479E+02  0.10593157156E+03  0.10748449859E+03  0.10566000000E+00 0. -1.
         13    1    4    4    0    0 -0.51327405992E+00 -0.10107752084E+01 -0.20985633036E+00  0.11577221158E+01  0.10566000000E+00 0.  1.
        -13    1    4    4    0    0 -0.62662520739E+01 -0.15088510382E+02 -0.69589702487E+01  0.17758589234E+02  0.10566000000E+00 0.  1.
        -14    1    4    4    0    0  0.28459270047E-01 -0.80726688765E+00 -0.28439986522E+00  0.85637202271E+00  0.00000000000E+00 0.  1.
<mgrwt>
<rscale>  0 0.80600285E+02</rscale>
<asrwt>0</asrwt>
<pdfrwt beam="1">  1        1 0.17364271E-01 0.80600285E+02</pdfrwt>
<pdfrwt beam="2">  1       -2 0.22137567E-02 0.80600285E+02</pdfrwt>
<totfact> 0.14706385E+05</totfact>
</mgrwt>
</event>
<event>
 8    1  0.8247621E-014  0.7818721E+02  0.7818608E-02  0.1334276E+00
          1   -1    0    0  501    0  0.00000000000E+00  0.00000000000E+00  0.49206946421E+02  0.49206946679E+02  0.50400000000E-02 0. -1.
         -2   -1    0    0    0  501 -0.00000000000E+00 -0.00000000000E+00 -0.31058826666E+02  0.31058826771E+02  0.25500000000E-02 0.  1.
        -24    2    1    2    0    0  0.35527136788E-14  0.35527136788E-14  0.18148119755E+02  0.80265773451E+02  0.78187212107E+02 0.  0.
         66    2    3    3    0    0 -0.30835059034E+02 -0.23686743576E+02  0.12981327680E+02  0.41041169039E+02  0.20000002138E+01 0.  0.
         13    1    3    3    0    0  0.30835059034E+02  0.23686743576E+02  0.51667920753E+01  0.39224604412E+02  0.10566000000E+00 0. -1.
         13    1    4    4    0    0 -0.26685543012E+01 -0.27739028771E+01  0.14025022722E+01  0.40980356134E+01  0.10566000000E+00 0. -1.
        -13    1    4    4    0    0 -0.13097486564E+02 -0.97578275233E+01  0.53974484874E+01  0.17201830324E+02  0.10566000000E+00 0.  1.
         14    1    4    4    0    0 -0.15069018169E+02 -0.11155013175E+02  0.61813769200E+01  0.19741303102E+02  0.00000000000E+00 0. -1.
<mgrwt>
<rscale>  0 0.78187212E+02</rscale>
<asrwt>0</asrwt>
<pdfrwt beam="1">  1        1 0.75702996E-02 0.78187212E+02</pdfrwt>
<pdfrwt beam="2">  1       -2 0.47782810E-02 0.78187212E+02</pdfrwt>
<totfact> 0.13987040E+05</totfact>
</mgrwt>
</event>
<event>
 8    1  0.8247621E-014  0.7911071E+02  0.7818608E-02  0.1331594E+00
         -2   -1    0    0    0  501 -0.00000000000E+00  0.00000000000E+00  0.10415790114E+02  0.10415790426E+02  0.25500000000E-02 0.  1.
          1   -1    0    0  501    0  0.00000000000E+00 -0.00000000000E+00 -0.15021672705E+03  0.15021672713E+03  0.50400000000E-02 0. -1.
        -24    2    1    2    0    0  0.00000000000E+00  0.00000000000E+00 -0.13980093693E+03  0.16063251756E+03  0.79110705530E+02 0.  0.
         66    2    3    3    0    0  0.92915712987E+01 -0.35918016775E+02 -0.42239321031E+02  0.56254755138E+02  0.20000020631E+01 0.  0.
         13    1    3    3    0    0 -0.92915712987E+01  0.35918016775E+02 -0.97561615903E+02  0.10437776242E+03  0.10566000000E+00 0. -1.
         13    1    4    4    0    0  0.27422290600E+01 -0.88214327838E+01 -0.10447233331E+02  0.13946087081E+02  0.10566000000E+00 0. -1.
        -13    1    4    4    0    0  0.23708455487E+01 -0.12753612592E+02 -0.14421990662E+02  0.19397951475E+02  0.10566000000E+00 0.  1.
        -14    1    4    4    0    0  0.41784966900E+01 -0.14342971399E+02 -0.17370097039E+02  0.22910716582E+02  0.00000000000E+00 0.  1.
<mgrwt>
<rscale>  0 0.79110706E+02</rscale>
<asrwt>0</asrwt>
<pdfrwt beam="1">  1        1 0.23110264E-01 0.79110706E+02</pdfrwt>
<pdfrwt beam="2">  1       -2 0.16024294E-02 0.79110706E+02</pdfrwt>
<totfact> 0.16271150E+05</totfact>
</mgrwt>
</event>
<event>
 8    1  0.8247621E-014  0.8102832E+02  0.7818608E-02  0.1326158E+00
          1   -1    0    0  501    0  0.00000000000E+00  0.00000000000E+00  0.35548825873E+02  0.35548826231E+02  0.50400000000E-02 0. -1.
         -2   -1    0    0    0  501 -0.00000000000E+00 -0.00000000000E+00 -0.46173035895E+02  0.46173035965E+02  0.25500000000E-02 0.  1.
        -24    2    1    2    0    0  0.00000000000E+00 -0.17763568394E-14 -0.10624210022E+02  0.81721862196E+02  0.81028321729E+02 0.  0.
         66    2    3    3    0    0  0.38141227275E+02 -0.10867971447E+02 -0.13541505360E+02  0.41955195281E+02  0.20000055642E+01 0.  0.
         13    1    3    3    0    0 -0.38141227275E+02  0.10867971447E+02  0.29172953382E+01  0.39766666915E+02  0.10566000000E+00 0. -1.
         13    1    4    4    0    0  0.72557998260E+00 -0.10137914406E+00 -0.39129450641E+00  0.83726905374E+00  0.10566000000E+00 0. -1.
        -13    1    4    4    0    0  0.68488156284E+01 -0.24187118336E+01 -0.21294486359E+01  0.75698188865E+01  0.10566000000E+00 0.  1.
         14    1    4    4    0    0  0.30566831664E+02 -0.83478804694E+01 -0.11020762217E+02  0.33548107341E+02  0.00000000000E+00 0. -1.
<mgrwt>
<rscale>  0 0.81028322E+02</rscale>
<asrwt>0</asrwt>
<pdfrwt beam="1">  1        1 0.54690502E-02 0.81028322E+02</pdfrwt>
<pdfrwt beam="2">  1       -2 0.71035440E-02 0.81028322E+02</pdfrwt>
<totfact> 0.12008902E+05</totfact>
</mgrwt>
</event>
<event>
 8    1  0.8247621E-014  0.7969864E+02  0.7818608E-02  0.1329909E+00
          1   -1    0    0  501    0  0.00000000000E+00  0.00000000000E+00  0.19276941578E+01  0.19277007464E+01  0.50400000000E-02 0. -1.
         -2   -1    0    0    0  501 -0.00000000000E+00 -0.00000000000E+00 -0.82376430738E+03  0.82376430738E+03  0.25500000000E-02 0.  1.
        -24    2    1    2    0    0  0.00000000000E+00  0.00000000000E+00 -0.82183661322E+03  0.82569200813E+03  0.79698641506E+02 0.  0.
         66    2    3    3    0    0 -0.16631682523E+02  0.66287662249E+01 -0.77971479494E+03  0.77992289033E+03  0.19999998551E+01 0.  0.
         13    1    3    3    0    0  0.16631682523E+02 -0.66287662249E+01 -0.42121818276E+02  0.45769117799E+02  0.10566000000E+00 0. -1.
         13    1    4    4    0    0 -0.12903662124E+01  0.81949944253E+00 -0.82487331247E+02  0.82501561225E+02  0.10566000000E+00 0. -1.
        -13    1    4    4    0    0 -0.76655446704E+01  0.30073595224E+01 -0.32663679041E+03  0.32674058334E+03  0.10566000000E+00 0.  1.
        -14    1    4    4    0    0 -0.76757716400E+01  0.28019072601E+01 -0.37059067329E+03  0.37068074577E+03  0.00000000000E+00 0.  1.
<mgrwt>
<rscale>  0 0.79698642E+02</rscale>
<asrwt>0</asrwt>
<pdfrwt beam="1">  1        1 0.29656950E-03 0.79698642E+02</pdfrwt>
<pdfrwt beam="2">  1       -2 0.12673269E+00 0.79698642E+02</pdfrwt>
<totfact> 0.32560424E+04</totfact>
</mgrwt>
</event>
<event>
 8    1  0.8247621E-014  0.8227834E+02  0.7818608E-02  0.1322707E+00
         -2   -1    0    0    0  501 -0.00000000000E+00  0.00000000000E+00  0.67838810221E+01  0.67838815014E+01  0.25500000000E-02 0.  1.
          1   -1    0    0  501    0  0.00000000000E+00 -0.00000000000E+00 -0.24947834515E+03  0.24947834520E+03  0.50400000000E-02 0. -1.
        -24    2    1    2    0    0  0.00000000000E+00 -0.11102230246E-15 -0.24269446413E+03  0.25626222670E+03  0.82278344150E+02 0.  0.
         66    2    3    3    0    0 -0.40445388416E+02 -0.34432359709E+00 -0.98430183356E+02  0.10643518684E+03  0.19999999041E+01 0.  0.
         13    1    3    3    0    0  0.40445388416E+02  0.34432359709E+00 -0.14426428077E+03  0.14982703986E+03  0.10566000000E+00 0. -1.
         13    1    4    4    0    0 -0.10513849248E+02 -0.69306268792E+00 -0.26834353865E+02  0.28829066465E+02  0.10566000000E+00 0. -1.
        -13    1    4    4    0    0 -0.33602282169E+01  0.98867089226E-01 -0.86929851555E+01  0.93209475548E+01  0.10566000000E+00 0.  1.
        -14    1    4    4    0    0 -0.26571310950E+02  0.24987200160E+00 -0.62902844335E+02  0.68285172821E+02  0.00000000000E+00 0.  1.
<mgrwt>
<rscale>  0 0.82278344E+02</rscale>
<asrwt>0</asrwt>
<pdfrwt beam="1">  1        1 0.38381277E-01 0.82278344E+02</pdfrwt>
<pdfrwt beam="2">  1       -2 0.10436742E-02 0.82278344E+02</pdfrwt>
<totfact> 0.16160570E+05</totfact>
</mgrwt>
</event>
<event>
 8    1  0.8622096E-014  0.8349254E+02  0.7818608E-02  0.1319422E+00
         -2   -1    0    0    0  501 -0.00000000000E+00  0.00000000000E+00  0.26130207000E+01  0.26130219443E+01  0.25500000000E-02 0.  1.
          1   -1    0    0  501    0  0.00000000000E+00 -0.00000000000E+00 -0.66694867158E+03  0.66694867160E+03  0.50400000000E-02 0. -1.
        -24    2    1    2    0    0 -0.35527136788E-14  0.00000000000E+00 -0.66433565088E+03  0.66956169355E+03  0.83492541167E+02 0.  0.
         66    2    3    3    0    0  0.28867492277E+02 -0.25348563961E+02 -0.46287114935E+03  0.46446698775E+03  0.20000000715E+01 0.  0.
         13    1    3    3    0    0 -0.28867492277E+02  0.25348563961E+02 -0.20146450153E+03  0.20509470580E+03  0.10566000000E+00 0. -1.
         13    1    4    4    0    0  0.32005445060E+01 -0.30091463679E+01 -0.48635294794E+02  0.48833405684E+02  0.10566000000E+00 0.  1.
        -13    1    4    4    0    0  0.15923358473E+01 -0.10730252190E+01 -0.26119452599E+02  0.26190148618E+02  0.10566000000E+00 0.  1.
        -14    1    4    4    0    0  0.24074611924E+02 -0.21266392374E+02 -0.38811640196E+03  0.38944343345E+03  0.00000000000E+00 0.  1.
<mgrwt>
<rscale>  0 0.83492541E+02</rscale>
<asrwt>0</asrwt>
<pdfrwt beam="1">  1        1 0.10260735E+00 0.83492541E+02</pdfrwt>
<pdfrwt beam="2">  1       -2 0.40200381E-03 0.83492541E+02</pdfrwt>
<totfact> 0.17896069E+05</totfact>
</mgrwt>
</event>
<event>
 8    1  0.8247621E-014  0.8101860E+02  0.7818608E-02  0.1326185E+00
          1   -1    0    0  501    0  0.00000000000E+00  0.00000000000E+00  0.17792341842E+03  0.17792341849E+03  0.50400000000E-02 0. -1.
         -2   -1    0    0    0  501 -0.00000000000E+00 -0.00000000000E+00 -0.92230877469E+01  0.92230880994E+01  0.25500000000E-02 0.  1.
        -24    2    1    2    0    0  0.00000000000E+00  0.00000000000E+00  0.16870033067E+03  0.18714650659E+03  0.81018598851E+02 0.  0.
         66    2    3    3    0    0  0.35003145732E+02 -0.51655340641E+01  0.38954341123E+02  0.52662545013E+02  0.20000004058E+01 0.  0.
         13    1    3    3    0    0 -0.35003145732E+02  0.51655340641E+01  0.12974598955E+03  0.13448396157E+03  0.10566000000E+00 0. -1.
         13    1    4    4    0    0  0.14762220759E+02 -0.20977142225E+01  0.15122310700E+02  0.21237208189E+02  0.10566000000E+00 0. -1.
        -13    1    4    4    0    0  0.13091217851E+02 -0.22648052285E+01  0.15200642853E+02  0.20188611511E+02  0.10566000000E+00 0.  1.
         14    1    4    4    0    0  0.71497071216E+01 -0.80301461298E+00  0.86313875700E+01  0.11236725314E+02  0.00000000000E+00 0. -1.
<mgrwt>
<rscale>  0 0.81018599E+02</rscale>
<asrwt>0</asrwt>
<pdfrwt beam="1">  1        1 0.27372833E-01 0.81018599E+02</pdfrwt>
<pdfrwt beam="2">  1       -2 0.14189366E-02 0.81018599E+02</pdfrwt>
<totfact> 0.15761916E+05</totfact>
</mgrwt>
</event>
<event>
 8    1  0.8247621E-014  0.8166646E+02  0.7818608E-02  0.1324388E+00
         -2   -1    0    0    0  501 -0.00000000000E+00  0.00000000000E+00  0.40523160672E+02  0.40523160753E+02  0.25500000000E-02 0.  1.
          1   -1    0    0  501    0  0.00000000000E+00 -0.00000000000E+00 -0.41145668719E+02  0.41145669028E+02  0.50400000000E-02 0. -1.
        -24    2    1    2    0    0  0.00000000000E+00  0.88817841970E-15 -0.62250804686E+00  0.81668829780E+02  0.81666457260E+02 0.  0.
         66    2    3    3    0    0 -0.34904144866E+02  0.66106649995E+01  0.19772652861E+02  0.40705749171E+02  0.19999984549E+01 0.  0.
         13    1    3    3    0    0  0.34904144866E+02 -0.66106649995E+01 -0.20395160908E+02  0.40963080610E+02  0.10566000000E+00 0. -1.
         13    1    4    4    0    0 -0.11964967713E+02  0.29795139392E+01  0.72637032516E+01  0.14311202069E+02  0.10566000000E+00 0.  1.
        -13    1    4    4    0    0 -0.22422823704E+02  0.34292579608E+01  0.12282986799E+02  0.25795847762E+02  0.10566000000E+00 0. -1.
         14    1    4    4    0    0 -0.51635344851E+00  0.20189309953E+00  0.22596280993E+00  0.59869933931E+00  0.00000000000E+00 0. -1.
<mgrwt>
<rscale>  0 0.81666457E+02</rscale>
<asrwt>0</asrwt>
<pdfrwt beam="1">  1        1 0.63301029E-02 0.81666457E+02</pdfrwt>
<pdfrwt beam="2">  1       -2 0.62343324E-02 0.81666457E+02</pdfrwt>
<totfact> 0.12035762E+05</totfact>
</mgrwt>
</event>
<event>
 8    1  0.8247621E-014  0.7911184E+02  0.7818608E-02  0.1331591E+00
         -2   -1    0    0    0  501 -0.00000000000E+00  0.00000000000E+00  0.34227162165E+02  0.34227162260E+02  0.25500000000E-02 0.  1.
          1   -1    0    0  501    0  0.00000000000E+00 -0.00000000000E+00 -0.45714306383E+02  0.45714306660E+02  0.50400000000E-02 0. -1.
        -24    2    1    2    0    0  0.00000000000E+00  0.00000000000E+00 -0.11487144218E+02  0.79941468920E+02  0.79111844694E+02 0.  0.
         66    2    3    3    0    0 -0.13296823430E+02 -0.35589138158E+02  0.52885490762E+01  0.38410428508E+02  0.19999996601E+01 0.  0.
         13    1    3    3    0    0  0.13296823430E+02  0.35589138158E+02 -0.16775693294E+02  0.41531040412E+02  0.10566000000E+00 0. -1.
         13    1    4    4    0    0 -0.35547486431E+01 -0.84378220666E+01  0.20388644400E+01  0.93808960864E+01  0.10566000000E+00 0. -1.
        -13    1    4    4    0    0 -0.40247158125E+01 -0.11025565851E+02  0.13623435578E+01  0.11816453940E+02  0.10566000000E+00 0.  1.
         14    1    4    4    0    0 -0.57173589744E+01 -0.16125750241E+02  0.18873410785E+01  0.17213078481E+02  0.00000000000E+00 0. -1.
<mgrwt>
<rscale>  0 0.79111845E+02</rscale>
<asrwt>0</asrwt>
<pdfrwt beam="1">  1        1 0.70329703E-02 0.79111845E+02</pdfrwt>
<pdfrwt beam="2">  1       -2 0.52657173E-02 0.79111845E+02</pdfrwt>
<totfact> 0.13383039E+05</totfact>
</mgrwt>
</event>
<event>
 8    1  0.8247621E-014  0.7833655E+02  0.7818608E-02  0.1333839E+00
          1   -1    0    0  501    0  0.00000000000E+00  0.00000000000E+00  0.32686943887E+03  0.32686943891E+03  0.50400000000E-02 0. -1.
         -2   -1    0    0    0  501 -0.00000000000E+00 -0.00000000000E+00 -0.46934749492E+01  0.46934756419E+01  0.25500000000E-02 0.  1.
        -24    2    1    2    0    0  0.00000000000E+00  0.00000000000E+00  0.32217596392E+03  0.33156291455E+03  0.78336546880E+02 0.  0.
         66    2    3    3    0    0  0.29758614710E+02 -0.83747300496E+01  0.26281232327E+03  0.26463187355E+03  0.19999970458E+01 0.  0.
         13    1    3    3    0    0 -0.29758614710E+02  0.83747300496E+01  0.59363640656E+02  0.66931040996E+02  0.10566000000E+00 0. -1.
         13    1    4    4    0    0  0.13720435773E+02 -0.43369961776E+01  0.12410642505E+03  0.12493788776E+03  0.10566000000E+00 0. -1.
        -13    1    4    4    0    0  0.88171489120E+01 -0.15960906709E+01  0.76006302205E+02  0.76532729987E+02  0.10566000000E+00 0.  1.
        -14    1    4    4    0    0  0.72210300252E+01 -0.24416432011E+01  0.62699596006E+02  0.63161255810E+02  0.00000000000E+00 0.  1.
<mgrwt>
<rscale>  0 0.78336547E+02</rscale>
<asrwt>0</asrwt>
<pdfrwt beam="1">  1        1 0.50287625E-01 0.78336547E+02</pdfrwt>
<pdfrwt beam="2">  1       -2 0.72207285E-03 0.78336547E+02</pdfrwt>
<totfact> 0.19376152E+05</totfact>
</mgrwt>
</event>
<event>
 8    1  0.8247621E-014  0.7919799E+02  0.7818608E-02  0.1331343E+00
         -2   -1    0    0    0  501 -0.00000000000E+00  0.00000000000E+00  0.22328473497E+03  0.22328473499E+03  0.25500000000E-02 0.  1.
          1   -1    0    0  501    0  0.00000000000E+00 -0.00000000000E+00 -0.70227830280E+01  0.70227848365E+01  0.50400000000E-02 0. -1.
        -24    2    1    2    0    0 -0.17763568394E-14  0.00000000000E+00  0.21626195194E+03  0.23030751982E+03  0.79197991315E+02 0.  0.
         66    2    3    3    0    0 -0.11015450363E+02 -0.94462217016E+01  0.21526397027E+03  0.21576178565E+03  0.19999995501E+01 0.  0.
         13    1    3    3    0    0  0.11015450363E+02  0.94462217016E+01  0.99798167006E+00  0.14545734172E+02  0.10566000000E+00 0. -1.
         13    1    4    4    0    0 -0.17433131496E+01 -0.97214641658E+00  0.25766204749E+02  0.25843619727E+02  0.10566000000E+00 0. -1.
        -13    1    4    4    0    0 -0.89452190612E+01 -0.81163089564E+01  0.18511984377E+03  0.18551350123E+03  0.10566000000E+00 0.  1.
        -14    1    4    4    0    0 -0.32691815276E+00 -0.35776632858E+00  0.43779217498E+01  0.44046646945E+01  0.00000000000E+00 0.  1.
<mgrwt>
<rscale>  0 0.79197991E+02</rscale>
<asrwt>0</asrwt>
<pdfrwt beam="1">  1        1 0.10804283E-02 0.79197991E+02</pdfrwt>
<pdfrwt beam="2">  1       -2 0.34351499E-01 0.79197991E+02</pdfrwt>
<totfact> 0.83349115E+04</totfact>
</mgrwt>
</event>
<event>
 8    1  0.8247621E-014  0.8047402E+02  0.7818608E-02  0.1327712E+00
         -2   -1    0    0    0  501 -0.00000000000E+00  0.00000000000E+00  0.55124246478E+01  0.55124252376E+01  0.25500000000E-02 0.  1.
          1   -1    0    0  501    0  0.00000000000E+00 -0.00000000000E+00 -0.29370318802E+03  0.29370318807E+03  0.50400000000E-02 0. -1.
        -24    2    1    2    0    0  0.35527136788E-14  0.35527136788E-14 -0.28819076338E+03  0.29921561330E+03  0.80474015372E+02 0.  0.
         66    2    3    3    0    0  0.23987563767E+02  0.31263171735E+02 -0.17398115691E+03  0.17839908093E+03  0.19999984295E+01 0.  0.
         13    1    3    3    0    0 -0.23987563767E+02 -0.31263171735E+02 -0.11420960646E+03  0.12081653238E+03  0.10566000000E+00 0. -1.
         13    1    4    4    0    0  0.94557721098E+01  0.12680734714E+02 -0.67245989868E+02  0.69081451754E+02  0.10566000000E+00 0. -1.
        -13    1    4    4    0    0  0.13691886679E+02  0.17510322334E+02 -0.10175851239E+03  0.10415798173E+03  0.10566000000E+00 0.  1.
        -14    1    4    4    0    0  0.83990497845E+00  0.10721146874E+01 -0.49766546524E+01  0.51596474497E+01  0.00000000000E+00 0.  1.
<mgrwt>
<rscale>  0 0.80474015E+02</rscale>
<asrwt>0</asrwt>
<pdfrwt beam="1">  1        1 0.45185094E-01 0.80474015E+02</pdfrwt>
<pdfrwt beam="2">  1       -2 0.84806561E-03 0.80474015E+02</pdfrwt>
<totfact> 0.17690822E+05</totfact>
</mgrwt>
</event>
<event>
 8    1  0.8247621E-014  0.7951592E+02  0.7818608E-02  0.1330431E+00
          1   -1    0    0  501    0  0.00000000000E+00  0.00000000000E+00  0.27752000548E+02  0.27752001006E+02  0.50400000000E-02 0. -1.
         -2   -1    0    0    0  501 -0.00000000000E+00 -0.00000000000E+00 -0.56957886611E+02  0.56957886668E+02  0.25500000000E-02 0.  1.
        -24    2    1    2    0    0  0.00000000000E+00  0.17763568394E-14 -0.29205886063E+02  0.84709887674E+02  0.79515918463E+02 0.  0.
         66    2    3    3    0    0 -0.28626500429E+02  0.85092814602E+01 -0.42530975496E+02  0.52007386696E+02  0.19999991527E+01 0.  0.
         13    1    3    3    0    0  0.28626500429E+02 -0.85092814602E+01  0.13325089433E+02  0.32702500977E+02  0.10566000000E+00 0. -1.
         13    1    4    4    0    0 -0.18236827400E+01  0.94110657360E+00 -0.33337452616E+01  0.39161871538E+01  0.10566000000E+00 0. -1.
        -13    1    4    4    0    0 -0.11112875026E+02  0.30638802918E+01 -0.16898466107E+02  0.20456115824E+02  0.10566000000E+00 0.  1.
         14    1    4    4    0    0 -0.15689942663E+02  0.45042945948E+01 -0.22298764127E+02  0.27635083719E+02  0.00000000000E+00 0. -1.
<mgrwt>
<rscale>  0 0.79515918E+02</rscale>
<asrwt>0</asrwt>
<pdfrwt beam="1">  1        1 0.42695386E-02 0.79515918E+02</pdfrwt>
<pdfrwt beam="2">  1       -2 0.87627518E-02 0.79515918E+02</pdfrwt>
<totfact> 0.12137589E+05</totfact>
</mgrwt>
</event>
<event>
 8    1  0.8247621E-014  0.8213518E+02  0.7818608E-02  0.1323099E+00
          1   -1    0    0  501    0  0.00000000000E+00  0.00000000000E+00  0.24157813249E+03  0.24157813254E+03  0.50400000000E-02 0. -1.
         -2   -1    0    0    0  501 -0.00000000000E+00 -0.00000000000E+00 -0.69813724536E+01  0.69813729193E+01  0.25500000000E-02 0.  1.
        -24    2    1    2    0    0  0.71054273576E-14  0.00000000000E+00  0.23459676003E+03  0.24855950546E+03  0.82135180865E+02 0.  0.
         66    2    3    3    0    0 -0.35724384827E+02 -0.12263872686E+02  0.16596740899E+03  0.17022283950E+03  0.19999992244E+01 0.  0.
         13    1    3    3    0    0  0.35724384827E+02  0.12263872686E+02  0.68629351044E+02  0.78336665957E+02  0.10566000000E+00 0. -1.
         13    1    4    4    0    0 -0.59897298959E+01 -0.22434194678E+01  0.27711458389E+02  0.28440215984E+02  0.10566000000E+00 0.  1.
        -13    1    4    4    0    0 -0.10094531942E+02 -0.39616360512E+01  0.44937908739E+02  0.46227923825E+02  0.10566000000E+00 0. -1.
        -14    1    4    4    0    0 -0.19640122989E+02 -0.60588171667E+01  0.93318041860E+02  0.95554699691E+02  0.00000000000E+00 0.  1.
<mgrwt>
<rscale>  0 0.82135181E+02</rscale>
<asrwt>0</asrwt>
<pdfrwt beam="1">  1        1 0.37165862E-01 0.82135181E+02</pdfrwt>
<pdfrwt beam="2">  1       -2 0.10740575E-02 0.82135181E+02</pdfrwt>
<totfact> 0.16133242E+05</totfact>
</mgrwt>
</event>
<event>
 8    1  0.8247621E-014  0.8082427E+02  0.7818608E-02  0.1326728E+00
         -2   -1    0    0    0  501 -0.00000000000E+00  0.00000000000E+00  0.67188753352E+01  0.67188758191E+01  0.25500000000E-02 0.  1.
          1   -1    0    0  501    0  0.00000000000E+00 -0.00000000000E+00 -0.24306754306E+03  0.24306754311E+03  0.50400000000E-02 0. -1.
        -24    2    1    2    0    0 -0.14210854715E-13  0.00000000000E+00 -0.23634866772E+03  0.24978641893E+03  0.80824268306E+02 0.  0.
         66    2    3    3    0    0  0.39576958897E+02 -0.70203414276E+01 -0.13041953828E+03  0.13648764357E+03  0.20000032147E+01 0.  0.
         13    1    3    3    0    0 -0.39576958897E+02  0.70203414276E+01 -0.10592912944E+03  0.11329877536E+03  0.10566000000E+00 0. -1.
         13    1    4    4    0    0  0.69091760954E+01 -0.77014936065E+00 -0.24451362808E+02  0.25420663869E+02  0.10566000000E+00 0. -1.
        -13    1    4    4    0    0  0.88437648007E+01 -0.15003580702E+01 -0.28008625209E+02  0.29410159815E+02  0.10566000000E+00 0.  1.
         14    1    4    4    0    0  0.23824018001E+02 -0.47498339968E+01 -0.77959550265E+02  0.81656819888E+02  0.00000000000E+00 0. -1.
<mgrwt>
<rscale>  0 0.80824268E+02</rscale>
<asrwt>0</asrwt>
<pdfrwt beam="1">  1        1 0.37395000E-01 0.80824268E+02</pdfrwt>
<pdfrwt beam="2">  1       -2 0.10336734E-02 0.80824268E+02</pdfrwt>
<totfact> 0.16856483E+05</totfact>
</mgrwt>
</event>
<event>
 8    1  0.8247621E-014  0.7899018E+02  0.7818608E-02  0.1331942E+00
         -2   -1    0    0    0  501 -0.00000000000E+00  0.00000000000E+00  0.40538341640E+02  0.40538341720E+02  0.25500000000E-02 0.  1.
          1   -1    0    0  501    0  0.00000000000E+00 -0.00000000000E+00 -0.38478684142E+02  0.38478684472E+02  0.50400000000E-02 0. -1.
        -24    2    1    2    0    0 -0.44408920985E-15  0.00000000000E+00  0.20596574978E+01  0.79017026192E+02  0.78990178119E+02 0.  0.
         66    2    3    3    0    0 -0.36106292543E+01  0.32013608955E+02  0.23840634595E+02  0.40128339801E+02  0.19999988394E+01 0.  0.
         13    1    3    3    0    0  0.36106292543E+01 -0.32013608955E+02 -0.21780977097E+02  0.38888686391E+02  0.10566000000E+00 0. -1.
         13    1    4    4    0    0 -0.97130055733E+00  0.53760485094E+01  0.44215806039E+01  0.70290014526E+01  0.10566000000E+00 0. -1.
        -13    1    4    4    0    0  0.52268786720E-01  0.42996322663E+01  0.29226718208E+01  0.52002638644E+01  0.10566000000E+00 0.  1.
        -14    1    4    4    0    0 -0.26915974837E+01  0.22337928179E+02  0.16496382170E+02  0.27899074484E+02  0.00000000000E+00 0.  1.
<mgrwt>
<rscale>  0 0.78990178E+02</rscale>
<asrwt>0</asrwt>
<pdfrwt beam="1">  1        1 0.59197976E-02 0.78990178E+02</pdfrwt>
<pdfrwt beam="2">  1       -2 0.62366680E-02 0.78990178E+02</pdfrwt>
<totfact> 0.13077813E+05</totfact>
</mgrwt>
</event>
<event>
 8    1  0.8247621E-014  0.7888653E+02  0.7818608E-02  0.1332241E+00
         -2   -1    0    0    0  501 -0.00000000000E+00  0.00000000000E+00  0.61367256730E+01  0.61367262028E+01  0.25500000000E-02 0.  1.
          1   -1    0    0  501    0  0.00000000000E+00 -0.00000000000E+00 -0.25351813056E+03  0.25351813061E+03  0.50400000000E-02 0. -1.
        -24    2    1    2    0    0  0.71054273576E-14  0.00000000000E+00 -0.24738140488E+03  0.25965485681E+03  0.78886533595E+02 0.  0.
         66    2    3    3    0    0  0.33066698471E+02  0.16845174644E+02 -0.80028976841E+02  0.88237200798E+02  0.20000034958E+01 0.  0.
         13    1    3    3    0    0 -0.33066698471E+02 -0.16845174644E+02 -0.16735242804E+03  0.17141765601E+03  0.10566000000E+00 0. -1.
         13    1    4    4    0    0  0.41412474460E+01  0.19900644907E+01 -0.92704838919E+01  0.10347140799E+02  0.10566000000E+00 0. -1.
        -13    1    4    4    0    0  0.78621249030E+01  0.46493974970E+01 -0.18686701515E+02  0.20799852947E+02  0.10566000000E+00 0.  1.
        -14    1    4    4    0    0  0.21063326122E+02  0.10205712656E+02 -0.52071791433E+02  0.57090207052E+02  0.00000000000E+00 0.  1.
<mgrwt>
<rscale>  0 0.78886534E+02</rscale>
<asrwt>0</asrwt>
<pdfrwt beam="1">  1        1 0.39002781E-01 0.78886534E+02</pdfrwt>
<pdfrwt beam="2">  1       -2 0.94411188E-03 0.78886534E+02</pdfrwt>
<totfact> 0.18121341E+05</totfact>
</mgrwt>
</event>
<event>
 8    1  0.8247621E-014  0.7400952E+02  0.7818608E-02  0.1346966E+00
         -2   -1    0    0    0  501 -0.00000000000E+00  0.00000000000E+00  0.24403525986E+01  0.24403539309E+01  0.25500000000E-02 0.  1.
          1   -1    0    0  501    0  0.00000000000E+00 -0.00000000000E+00 -0.56112875174E+03  0.56112875176E+03  0.50400000000E-02 0. -1.
        -24    2    1    2    0    0  0.17763568394E-14 -0.17763568394E-14 -0.55868839914E+03  0.56356910569E+03  0.74009523421E+02 0.  0.
         66    2    3    3    0    0 -0.82507585891E+01  0.10852566595E+02 -0.54129081560E+03  0.54146615801E+03  0.20000005875E+01 0.  0.
         13    1    3    3    0    0  0.82507585891E+01 -0.10852566595E+02 -0.17397583538E+02  0.22102947676E+02  0.10566000000E+00 0. -1.
         13    1    4    4    0    0 -0.92962143091E+00  0.14042220975E+01 -0.74835956000E+02  0.74854976522E+02  0.10566000000E+00 0. -1.
        -13    1    4    4    0    0 -0.42266925432E+01  0.46211920345E+01 -0.27014540792E+03  0.27021801001E+03  0.10566000000E+00 0.  1.
         14    1    4    4    0    0 -0.30944446150E+01  0.48271524627E+01 -0.19630945167E+03  0.19639317148E+03  0.00000000000E+00 0. -1.
<mgrwt>
<rscale>  0 0.74009523E+02</rscale>
<asrwt>0</asrwt>
<pdfrwt beam="1">  1        1 0.86327398E-01 0.74009523E+02</pdfrwt>
<pdfrwt beam="2">  1       -2 0.37543941E-03 0.74009523E+02</pdfrwt>
<totfact> 0.24302764E+05</totfact>
</mgrwt>
</event>
<event>
 8    1  0.8247621E-014  0.7660906E+02  0.7818608E-02  0.1338959E+00
         -2   -1    0    0    0  501 -0.00000000000E+00  0.00000000000E+00  0.85031193001E+02  0.85031193040E+02  0.25500000000E-02 0.  1.
          1   -1    0    0  501    0  0.00000000000E+00 -0.00000000000E+00 -0.17255278027E+02  0.17255278763E+02  0.50400000000E-02 0. -1.
        -24    2    1    2    0    0  0.00000000000E+00  0.00000000000E+00  0.67775914974E+02  0.10228647180E+03  0.76609057319E+02 0.  0.
         66    2    3    3    0    0  0.25543463966E+02  0.27666119848E+02  0.43098433973E+02  0.57265676925E+02  0.20000010005E+01 0.  0.
         13    1    3    3    0    0 -0.25543463966E+02 -0.27666119848E+02  0.24677481002E+02  0.45020794878E+02  0.10566000000E+00 0. -1.
         13    1    4    4    0    0  0.71898401321E+01  0.69352274733E+01  0.12159555964E+02  0.15737126374E+02  0.10566000000E+00 0. -1.
        -13    1    4    4    0    0  0.62053034162E+01  0.73506535925E+01  0.11267202155E+02  0.14815495508E+02  0.10566000000E+00 0.  1.
         14    1    4    4    0    0  0.12148320417E+02  0.13380238782E+02  0.19671675854E+02  0.26713055043E+02  0.00000000000E+00 0. -1.
<mgrwt>
<rscale>  0 0.76609057E+02</rscale>
<asrwt>0</asrwt>
<pdfrwt beam="1">  1        1 0.26546583E-02 0.76609057E+02</pdfrwt>
<pdfrwt beam="2">  1       -2 0.13081722E-01 0.76609057E+02</pdfrwt>
<totfact> 0.12314481E+05</totfact>
</mgrwt>
</event>
<event>
 8    1  0.8247621E-014  0.8006716E+02  0.7818608E-02  0.1328861E+00
         -2   -1    0    0    0  501 -0.00000000000E+00  0.00000000000E+00  0.34333889690E+01  0.34333899159E+01  0.25500000000E-02 0.  1.
          1   -1    0    0  501    0  0.00000000000E+00 -0.00000000000E+00 -0.46679452805E+03  0.46679452808E+03  0.50400000000E-02 0. -1.
        -24    2    1    2    0    0  0.17763568394E-14  0.71054273576E-14 -0.46336113908E+03  0.47022791800E+03  0.80067157123E+02 0.  0.
         66    2    3    3    0    0 -0.91946543223E+01 -0.38911678160E+02 -0.24017602528E+03  0.24348959624E+03  0.19999980452E+01 0.  0.
         13    1    3    3    0    0  0.91946543223E+01  0.38911678160E+02 -0.22318511380E+03  0.22673832175E+03  0.10566000000E+00 0. -1.
         13    1    4    4    0    0 -0.20121943380E+01 -0.83954614223E+01 -0.53859179987E+02  0.54546815960E+02  0.10566000000E+00 0.  1.
        -13    1    4    4    0    0 -0.16536417290E+01 -0.61176413863E+01 -0.41421981759E+02  0.41904078608E+02  0.10566000000E+00 0.  1.
        -14    1    4    4    0    0 -0.55288182553E+01 -0.24398575351E+02 -0.14489486354E+03  0.14703870168E+03  0.00000000000E+00 0.  1.
<mgrwt>
<rscale>  0 0.80067157E+02</rscale>
<asrwt>0</asrwt>
<pdfrwt beam="1">  1        1 0.71814493E-01 0.80067157E+02</pdfrwt>
<pdfrwt beam="2">  1       -2 0.52821413E-03 0.80067157E+02</pdfrwt>
<totfact> 0.19395989E+05</totfact>
</mgrwt>
</event>
<event>
 8    1  0.8247621E-014  0.8192872E+02  0.7818608E-02  0.1323665E+00
          1   -1    0    0  501    0  0.00000000000E+00  0.00000000000E+00  0.15376279330E+03  0.15376279338E+03  0.50400000000E-02 0. -1.
         -2   -1    0    0    0  501 -0.00000000000E+00 -0.00000000000E+00 -0.10913425141E+02  0.10913425439E+02  0.25500000000E-02 0.  1.
        -24    2    1    2    0    0  0.11102230246E-15  0.00000000000E+00  0.14284936816E+03  0.16467621882E+03  0.81928719395E+02 0.  0.
         66    2    3    3    0    0 -0.55265747034E+00 -0.39700181445E+02  0.51400992816E+02  0.64980550139E+02  0.19999992206E+01 0.  0.
         13    1    3    3    0    0  0.55265747034E+00  0.39700181445E+02  0.91448375342E+02  0.99695668681E+02  0.10566000000E+00 0. -1.
         13    1    4    4    0    0  0.20069929173E-01 -0.98066152256E+00  0.92005693036E+00  0.13489879965E+01  0.10566000000E+00 0.  1.
        -13    1    4    4    0    0 -0.39345167614E-02 -0.38292399927E+00  0.49912722596E+00  0.63791715209E+00  0.10566000000E+00 0.  1.
        -14    1    4    4    0    0 -0.56879288276E+00 -0.38336595923E+02  0.49981808660E+02  0.62993644991E+02  0.00000000000E+00 0.  1.
<mgrwt>
<rscale>  0 0.81928719E+02</rscale>
<asrwt>0</asrwt>
<pdfrwt beam="1">  1        1 0.23655812E-01 0.81928719E+02</pdfrwt>
<pdfrwt beam="2">  1       -2 0.16789887E-02 0.81928719E+02</pdfrwt>
<totfact> 0.14882008E+05</totfact>
</mgrwt>
</event>
<event>
 8    1  0.8247621E-014  0.7743972E+02  0.7818608E-02  0.1336478E+00
         -2   -1    0    0    0  501 -0.00000000000E+00  0.00000000000E+00  0.36075576568E+03  0.36075576569E+03  0.25500000000E-02 0.  1.
          1   -1    0    0  501    0  0.00000000000E+00 -0.00000000000E+00 -0.41557947758E+01  0.41557978320E+01  0.50400000000E-02 0. -1.
        -24    2    1    2    0    0 -0.88817841970E-15  0.00000000000E+00  0.35659997090E+03  0.36491156352E+03  0.77439718120E+02 0.  0.
         66    2    3    3    0    0 -0.75431683355E+01 -0.19359289939E+02  0.33223721871E+03  0.33289225132E+03  0.19999990638E+01 0.  0.
         13    1    3    3    0    0  0.75431683355E+01  0.19359289939E+02  0.24362752197E+02  0.32019312206E+02  0.10566000000E+00 0. -1.
         13    1    4    4    0    0 -0.15482746875E+01 -0.49486095405E+01  0.77863795778E+02  0.78036323260E+02  0.10566000000E+00 0. -1.
        -13    1    4    4    0    0 -0.59019927007E+01 -0.13223492537E+02  0.23368737988E+03  0.23413563793E+03  0.10566000000E+00 0.  1.
         14    1    4    4    0    0 -0.92900947352E-01 -0.11871878607E+01  0.20686043051E+02  0.20720290121E+02  0.00000000000E+00 0. -1.
<mgrwt>
<rscale>  0 0.77439718E+02</rscale>
<asrwt>0</asrwt>
<pdfrwt beam="1">  1        1 0.63935308E-03 0.77439718E+02</pdfrwt>
<pdfrwt beam="2">  1       -2 0.55500904E-01 0.77439718E+02</pdfrwt>
<totfact> 0.68662339E+04</totfact>
</mgrwt>
</event>
<event>
 8    1  0.8247621E-014  0.7810375E+02  0.7818608E-02  0.1334520E+00
         -2   -1    0    0    0  501 -0.00000000000E+00  0.00000000000E+00  0.25717836771E+03  0.25717836773E+03  0.25500000000E-02 0.  1.
          1   -1    0    0  501    0  0.00000000000E+00 -0.00000000000E+00 -0.59299253294E+01  0.59299274712E+01  0.50400000000E-02 0. -1.
        -24    2    1    2    0    0  0.00000000000E+00  0.00000000000E+00  0.25124844238E+03  0.26310829520E+03  0.78103746397E+02 0.  0.
         66    2    3    3    0    0 -0.20309084840E+01 -0.17032546924E+02  0.24379424640E+03  0.24440512847E+03  0.19999997368E+01 0.  0.
         13    1    3    3    0    0  0.20309084840E+01  0.17032546924E+02  0.74541959850E+01  0.18703166732E+02  0.10566000000E+00 0. -1.
         13    1    4    4    0    0 -0.12092016537E+01 -0.89136223062E+01  0.13483724318E+03  0.13513699769E+03  0.10566000000E+00 0.  1.
        -13    1    4    4    0    0 -0.25820716122E+00 -0.52657753016E+01  0.76226878301E+02  0.76409051820E+02  0.10566000000E+00 0. -1.
         14    1    4    4    0    0 -0.56349966912E+00 -0.28531493161E+01  0.32730124916E+02  0.32859078957E+02  0.00000000000E+00 0. -1.
<mgrwt>
<rscale>  0 0.78103746E+02</rscale>
<asrwt>0</asrwt>
<pdfrwt beam="1">  1        1 0.91229654E-03 0.78103746E+02</pdfrwt>
<pdfrwt beam="2">  1       -2 0.39565895E-01 0.78103746E+02</pdfrwt>
<totfact> 0.80928339E+04</totfact>
</mgrwt>
</event>
<event>
 8    1  0.8247621E-014  0.7797720E+02  0.7818608E-02  0.1334892E+00
         -2   -1    0    0    0  501 -0.00000000000E+00  0.00000000000E+00  0.26081631284E+01  0.26081643749E+01  0.25500000000E-02 0.  1.
          1   -1    0    0  501    0  0.00000000000E+00 -0.00000000000E+00 -0.58282809086E+03  0.58282809088E+03  0.50400000000E-02 0. -1.
        -24    2    1    2    0    0  0.00000000000E+00 -0.35527136788E-14 -0.58021992773E+03  0.58543625525E+03  0.77977204567E+02 0.  0.
         66    2    3    3    0    0  0.22296488364E+02  0.25894586935E+02 -0.43084700809E+03  0.43220458975E+03  0.19999999745E+01 0.  0.
         13    1    3    3    0    0 -0.22296488364E+02 -0.25894586935E+02 -0.14937291964E+03  0.15323166550E+03  0.10566000000E+00 0. -1.
         13    1    4    4    0    0  0.58691111029E+01  0.76912295054E+01 -0.12915861670E+03  0.12952050382E+03  0.10566000000E+00 0. -1.
        -13    1    4    4    0    0  0.48673980711E+01  0.58887384630E+01 -0.94084255663E+02  0.94393999451E+02  0.10566000000E+00 0.  1.
         14    1    4    4    0    0  0.11559979190E+02  0.12314618967E+02 -0.20760413572E+03  0.20829008648E+03  0.00000000000E+00 0. -1.
<mgrwt>
<rscale>  0 0.77977205E+02</rscale>
<asrwt>0</asrwt>
<pdfrwt beam="1">  1        1 0.89665757E-01 0.77977205E+02</pdfrwt>
<pdfrwt beam="2">  1       -2 0.40125643E-03 0.77977205E+02</pdfrwt>
<totfact> 0.21275387E+05</totfact>
</mgrwt>
</event>
<event>
 8    1  0.8247621E-014  0.7929600E+02  0.7818608E-02  0.1331061E+00
         -2   -1    0    0    0  501 -0.00000000000E+00  0.00000000000E+00  0.39274021821E+01  0.39274030100E+01  0.25500000000E-02 0.  1.
          1   -1    0    0  501    0  0.00000000000E+00 -0.00000000000E+00 -0.40025533320E+03  0.40025533323E+03  0.50400000000E-02 0. -1.
        -24    2    1    2    0    0  0.17763568394E-14  0.00000000000E+00 -0.39632793102E+03  0.40418273624E+03  0.79295998455E+02 0.  0.
         66    2    3    3    0    0 -0.85815214634E+01  0.37376740659E+02 -0.24908123702E+03  0.25202405818E+03  0.20000029635E+01 0.  0.
         13    1    3    3    0    0  0.85815214634E+01 -0.37376740659E+02 -0.14724669399E+03  0.15215867806E+03  0.10566000000E+00 0. -1.
         13    1    4    4    0    0 -0.44776421022E+00  0.10230104332E+01 -0.87262637786E+01  0.87980615310E+01  0.10566000000E+00 0. -1.
        -13    1    4    4    0    0 -0.24944869541E+01  0.12824718004E+02 -0.84370504742E+02  0.85376162314E+02  0.10566000000E+00 0.  1.
         14    1    4    4    0    0 -0.56392702991E+01  0.23529012222E+02 -0.15598446850E+03  0.15784983433E+03  0.00000000000E+00 0. -1.
<mgrwt>
<rscale>  0 0.79295998E+02</rscale>
<asrwt>0</asrwt>
<pdfrwt beam="1">  1        1 0.61577712E-01 0.79295998E+02</pdfrwt>
<pdfrwt beam="2">  1       -2 0.60421610E-03 0.79295998E+02</pdfrwt>
<totfact> 0.19441381E+05</totfact>
</mgrwt>
</event>
<event>
 8    1  0.8247621E-014  0.7941696E+02  0.7818608E-02  0.1330714E+00
          1   -1    0    0  501    0  0.00000000000E+00  0.00000000000E+00  0.14813423291E+02  0.14813424149E+02  0.50400000000E-02 0. -1.
         -2   -1    0    0    0  501 -0.00000000000E+00 -0.00000000000E+00 -0.10644152000E+03  0.10644152003E+03  0.25500000000E-02 0.  1.
        -24    2    1    2    0    0  0.44408920985E-15 -0.71054273576E-14 -0.91628096707E+02  0.12125494418E+03  0.79416959029E+02 0.  0.
         66    2    3    3    0    0  0.36107442321E+01 -0.38351303717E+02 -0.60399771301E+02  0.71665838092E+02  0.20000013724E+01 0.  0.
         13    1    3    3    0    0 -0.36107442321E+01  0.38351303717E+02 -0.31228325406E+02  0.49589106086E+02  0.10566000000E+00 0. -1.
         13    1    4    4    0    0  0.48191441278E-02 -0.31233802601E+01 -0.52153408564E+01  0.60800059011E+01  0.10566000000E+00 0. -1.
        -13    1    4    4    0    0  0.86696373182E+00 -0.49440572285E+01 -0.71809449935E+01  0.87619896728E+01  0.10566000000E+00 0.  1.
        -14    1    4    4    0    0  0.27389613562E+01 -0.30283866228E+02 -0.48003485451E+02  0.56823842518E+02  0.00000000000E+00 0.  1.
<mgrwt>
<rscale>  0 0.79416959E+02</rscale>
<asrwt>0</asrwt>
<pdfrwt beam="1">  1        1 0.22789883E-02 0.79416959E+02</pdfrwt>
<pdfrwt beam="2">  1       -2 0.16375618E-01 0.79416959E+02</pdfrwt>
<totfact> 0.10643834E+05</totfact>
</mgrwt>
</event>
<event>
 8    1  0.8247621E-014  0.7894674E+02  0.7818608E-02  0.1332067E+00
         -2   -1    0    0    0  501 -0.00000000000E+00  0.00000000000E+00  0.33672732352E+02  0.33672732449E+02  0.25500000000E-02 0.  1.
          1   -1    0    0  501    0  0.00000000000E+00 -0.00000000000E+00 -0.46273249950E+02  0.46273250224E+02  0.50400000000E-02 0. -1.
        -24    2    1    2    0    0 -0.35527136788E-14  0.00000000000E+00 -0.12600517598E+02  0.79945982673E+02  0.78946735853E+02 0.  0.
         66    2    3    3    0    0  0.26977612381E+02 -0.11375130687E+02  0.20468126495E+02  0.35778895899E+02  0.20000053992E+01 0.  0.
         13    1    3    3    0    0 -0.26977612381E+02  0.11375130687E+02 -0.33068644093E+02  0.44167086774E+02  0.10566000000E+00 0. -1.
         13    1    4    4    0    0  0.78516309920E+01 -0.30011854090E+01  0.50561371902E+01  0.98097354916E+01  0.10566000000E+00 0. -1.
        -13    1    4    4    0    0  0.68871548764E+01 -0.31506962453E+01  0.50455693134E+01  0.91010286701E+01  0.10566000000E+00 0.  1.
         14    1    4    4    0    0  0.12238826513E+02 -0.52232490329E+01  0.10366419992E+02  0.16868131738E+02  0.00000000000E+00 0. -1.
<mgrwt>
<rscale>  0 0.78946736E+02</rscale>
<asrwt>0</asrwt>
<pdfrwt beam="1">  1        1 0.71189616E-02 0.78946736E+02</pdfrwt>
<pdfrwt beam="2">  1       -2 0.51804203E-02 0.78946736E+02</pdfrwt>
<totfact> 0.13486873E+05</totfact>
</mgrwt>
</event>
<event>
 8    1  0.8247621E-014  0.8149696E+02  0.7818608E-02  0.1324856E+00
         -2   -1    0    0    0  501 -0.00000000000E+00  0.00000000000E+00  0.15435465814E+02  0.15435466025E+02  0.25500000000E-02 0.  1.
          1   -1    0    0  501    0  0.00000000000E+00 -0.00000000000E+00 -0.10757294244E+03  0.10757294256E+03  0.50400000000E-02 0. -1.
        -24    2    1    2    0    0  0.00000000000E+00  0.35527136788E-14 -0.92137476629E+02  0.12300840859E+03  0.81496956896E+02 0.  0.
         66    2    3    3    0    0 -0.22364972973E+02  0.25310611809E+02 -0.11756698243E+02  0.35819534386E+02  0.20000009547E+01 0.  0.
         13    1    3    3    0    0  0.22364972973E+02 -0.25310611809E+02 -0.80380778386E+02  0.87188874200E+02  0.10566000000E+00 0. -1.
         13    1    4    4    0    0 -0.11396344561E+02  0.12030779282E+02 -0.57792968546E+01  0.17550719520E+02  0.10566000000E+00 0. -1.
        -13    1    4    4    0    0 -0.69813237069E+01  0.77383385543E+01 -0.32550520418E+01  0.10919125062E+02  0.10566000000E+00 0.  1.
        -14    1    4    4    0    0 -0.39873047050E+01  0.55414939724E+01 -0.27223493467E+01  0.73496898044E+01  0.00000000000E+00 0.  1.
<mgrwt>
<rscale>  0 0.81496957E+02</rscale>
<asrwt>0</asrwt>
<pdfrwt beam="1">  1        1 0.16549683E-01 0.81496957E+02</pdfrwt>
<pdfrwt beam="2">  1       -2 0.23746871E-02 0.81496957E+02</pdfrwt>
<totfact> 0.14155635E+05</totfact>
</mgrwt>
</event>
<event>
 8    1  0.8247621E-014  0.7995468E+02  0.7818608E-02  0.1329180E+00
          1   -1    0    0  501    0  0.00000000000E+00  0.00000000000E+00  0.17572578319E+01  0.17572650595E+01  0.50400000000E-02 0. -1.
         -2   -1    0    0    0  501 -0.00000000000E+00 -0.00000000000E+00 -0.90947640348E+03  0.90947640348E+03  0.25500000000E-02 0.  1.
        -24    2    1    2    0    0  0.00000000000E+00  0.71054273576E-14 -0.90771914564E+03  0.91123366854E+03  0.79954682854E+02 0.  0.
         66    2    3    3    0    0 -0.45338185062E+01 -0.31589270854E+02 -0.72808189382E+03  0.72878370019E+03  0.20000030046E+01 0.  0.
         13    1    3    3    0    0  0.45338185062E+01  0.31589270854E+02 -0.17963725183E+03  0.18244996835E+03  0.10566000000E+00 0. -1.
         13    1    4    4    0    0 -0.15785674622E+01 -0.95134190223E+01 -0.23770048634E+03  0.23789604744E+03  0.10566000000E+00 0. -1.
        -13    1    4    4    0    0 -0.91862933114E+00 -0.45884427505E+01 -0.10041724963E+03  0.10052627952E+03  0.10566000000E+00 0.  1.
         14    1    4    4    0    0 -0.20366217129E+01 -0.17487409081E+02 -0.38996415785E+03  0.39036137324E+03  0.00000000000E+00 0. -1.
<mgrwt>
<rscale>  0 0.79954683E+02</rscale>
<asrwt>0</asrwt>
<pdfrwt beam="1">  1        1 0.27034864E-03 0.79954683E+02</pdfrwt>
<pdfrwt beam="2">  1       -2 0.13991907E+00 0.79954683E+02</pdfrwt>
<totfact> 0.29071868E+04</totfact>
</mgrwt>
</event>
<event>
 8    1  0.8247621E-014  0.7611286E+02  0.7818608E-02  0.1340459E+00
         -2   -1    0    0    0  501 -0.00000000000E+00  0.00000000000E+00  0.15681221271E+03  0.15681221273E+03  0.25500000000E-02 0.  1.
          1   -1    0    0  501    0  0.00000000000E+00 -0.00000000000E+00 -0.92358360867E+01  0.92358374618E+01  0.50400000000E-02 0. -1.
        -24    2    1    2    0    0 -0.35527136788E-14 -0.88817841970E-15  0.14757637663E+03  0.16604805019E+03  0.76112863798E+02 0.  0.
         66    2    3    3    0    0  0.19465965528E+02  0.79330963520E+01  0.14297995369E+03  0.14453070604E+03  0.19999997906E+01 0.  0.
         13    1    3    3    0    0 -0.19465965528E+02 -0.79330963520E+01  0.45964229347E+01  0.21517344155E+02  0.10566000000E+00 0. -1.
         13    1    4    4    0    0  0.70806328419E+00  0.31350276478E+00  0.36820655535E+01  0.37640946287E+01  0.10566000000E+00 0. -1.
        -13    1    4    4    0    0  0.16344907047E+02  0.65689337861E+01  0.12375719103E+03  0.12500464140E+03  0.10566000000E+00 0.  1.
        -14    1    4    4    0    0  0.24129951972E+01  0.10506598011E+01  0.15540697110E+02  0.15761970007E+02  0.00000000000E+00 0.  1.
<mgrwt>
<rscale>  0 0.76112864E+02</rscale>
<asrwt>0</asrwt>
<pdfrwt beam="1">  1        1 0.14208981E-02 0.76112864E+02</pdfrwt>
<pdfrwt beam="2">  1       -2 0.24124953E-01 0.76112864E+02</pdfrwt>
<totfact> 0.10584204E+05</totfact>
</mgrwt>
</event>
<event>
 8    1  0.8247621E-014  0.7914192E+02  0.7818608E-02  0.1331504E+00
         -2   -1    0    0    0  501 -0.00000000000E+00  0.00000000000E+00  0.22894273109E+02  0.22894273251E+02  0.25500000000E-02 0.  1.
          1   -1    0    0  501    0  0.00000000000E+00 -0.00000000000E+00 -0.68395304358E+02  0.68395304543E+02  0.50400000000E-02 0. -1.
        -24    2    1    2    0    0  0.00000000000E+00  0.35527136788E-14 -0.45501031248E+02  0.91289577795E+02  0.79141917902E+02 0.  0.
         66    2    3    3    0    0  0.24486775012E+02 -0.28121171945E+02 -0.75733165887E+01  0.38101936698E+02  0.19999984748E+01 0.  0.
         13    1    3    3    0    0 -0.24486775012E+02  0.28121171945E+02 -0.37927714660E+02  0.53187641097E+02  0.10566000000E+00 0. -1.
         13    1    4    4    0    0  0.72577299333E+01 -0.83568933795E+01 -0.14712132797E+01  0.11166375566E+02  0.10566000000E+00 0. -1.
        -13    1    4    4    0    0  0.88906112380E+00 -0.79557664808E+00 -0.22020204052E+00  0.12177950809E+01  0.10566000000E+00 0.  1.
        -14    1    4    4    0    0  0.16339983955E+02 -0.18968701918E+02 -0.58819012685E+01  0.25717766051E+02  0.00000000000E+00 0.  1.
<mgrwt>
<rscale>  0 0.79141918E+02</rscale>
<asrwt>0</asrwt>
<pdfrwt beam="1">  1        1 0.10522354E-01 0.79141918E+02</pdfrwt>
<pdfrwt beam="2">  1       -2 0.35221959E-02 0.79141918E+02</pdfrwt>
<totfact> 0.14234088E+05</totfact>
</mgrwt>
</event>
<event>
 8    1  0.8707747E-014  0.8376615E+02  0.7818608E-02  0.1318691E+00
          1   -1    0    0  501    0  0.00000000000E+00  0.00000000000E+00  0.29968583512E+02  0.29968583936E+02  0.50400000000E-02 0. -1.
         -2   -1    0    0    0  501 -0.00000000000E+00 -0.00000000000E+00 -0.58534361174E+02  0.58534361229E+02  0.25500000000E-02 0.  1.
        -24    2    1    2    0    0  0.17763568394E-14  0.00000000000E+00 -0.28565777662E+02  0.88502945165E+02  0.83766148589E+02 0.  0.
         66    2    3    3    0    0 -0.11353993620E+02 -0.64953984616E+01 -0.56302352878E+02  0.57836479098E+02  0.20000006452E+01 0.  0.
         13    1    3    3    0    0  0.11353993620E+02  0.64953984616E+01  0.27736575216E+02  0.30666466067E+02  0.10566000000E+00 0. -1.
         13    1    4    4    0    0 -0.47005472649E+01 -0.22834659873E+01 -0.21565119159E+02  0.22189522074E+02  0.10566000000E+00 0. -1.
        -13    1    4    4    0    0 -0.61413292405E+01 -0.34177786819E+01 -0.29564185595E+02  0.30388309757E+02  0.10566000000E+00 0.  1.
         14    1    4    4    0    0 -0.51211711462E+00 -0.79415379234E+00 -0.51730481238E+01  0.52586472668E+01  0.00000000000E+00 0. -1.
<mgrwt>
<rscale>  0 0.83766149E+02</rscale>
<asrwt>0</asrwt>
<pdfrwt beam="1">  1        1 0.46105514E-02 0.83766149E+02</pdfrwt>
<pdfrwt beam="2">  1       -2 0.90052863E-02 0.83766149E+02</pdfrwt>
<totfact> 0.10587597E+05</totfact>
</mgrwt>
</event>
<event>
 8    1  0.8247621E-014  0.7908957E+02  0.7818608E-02  0.1331655E+00
         -2   -1    0    0    0  501 -0.00000000000E+00  0.00000000000E+00  0.16159161504E+03  0.16159161506E+03  0.25500000000E-02 0.  1.
          1   -1    0    0  501    0  0.00000000000E+00 -0.00000000000E+00 -0.96774197254E+01  0.96774210378E+01  0.50400000000E-02 0. -1.
        -24    2    1    2    0    0  0.00000000000E+00  0.00000000000E+00  0.15191419531E+03  0.17126903609E+03  0.79089569399E+02 0.  0.
         66    2    3    3    0    0 -0.32978016854E+02 -0.13640508727E+02  0.11276638208E+03  0.11829568884E+03  0.19999995547E+01 0.  0.
         13    1    3    3    0    0  0.32978016854E+02  0.13640508727E+02  0.39147813232E+02  0.52973347250E+02  0.10566000000E+00 0. -1.
         13    1    4    4    0    0 -0.96802603149E+01 -0.44967663783E+01  0.33331363402E+02  0.34998847093E+02  0.10566000000E+00 0. -1.
        -13    1    4    4    0    0 -0.19433865488E+02 -0.81279962632E+01  0.65974755358E+02  0.69256183548E+02  0.10566000000E+00 0.  1.
         14    1    4    4    0    0 -0.38638910506E+01 -0.10157460853E+01  0.13460263318E+02  0.14040658202E+02  0.00000000000E+00 0. -1.
<mgrwt>
<rscale>  0 0.79089569E+02</rscale>
<asrwt>0</asrwt>
<pdfrwt beam="1">  1        1 0.14888340E-02 0.79089569E+02</pdfrwt>
<pdfrwt beam="2">  1       -2 0.24860248E-01 0.79089569E+02</pdfrwt>
<totfact> 0.94922133E+04</totfact>
</mgrwt>
</event>
<event>
 8    1  0.8247621E-014  0.7935379E+02  0.7818608E-02  0.1330895E+00
          1   -1    0    0  501    0  0.00000000000E+00  0.00000000000E+00  0.35914104252E+01  0.35914139617E+01  0.50400000000E-02 0. -1.
         -2   -1    0    0    0  501 -0.00000000000E+00 -0.00000000000E+00 -0.43833897480E+03  0.43833897481E+03  0.25500000000E-02 0.  1.
        -24    2    1    2    0    0 -0.71054273576E-14 -0.88817841970E-15 -0.43474756438E+03  0.44193038877E+03  0.79353788743E+02 0.  0.
         66    2    3    3    0    0 -0.36892841825E+02 -0.68623719744E+01 -0.28884770505E+03  0.29128194356E+03  0.20000020340E+01 0.  0.
         13    1    3    3    0    0  0.36892841825E+02  0.68623719744E+01 -0.14589985933E+03  0.15064844521E+03  0.10566000000E+00 0. -1.
         13    1    4    4    0    0 -0.11417681395E+02 -0.18392378672E+01 -0.89197240587E+02  0.89943899942E+02  0.10566000000E+00 0. -1.
        -13    1    4    4    0    0 -0.18102809907E+02 -0.41149556231E+01 -0.14613711026E+03  0.14731161103E+03  0.10566000000E+00 0.  1.
         14    1    4    4    0    0 -0.73723505224E+01 -0.90817848417E+00 -0.53513354203E+02  0.54026432590E+02  0.00000000000E+00 0. -1.
<mgrwt>
<rscale>  0 0.79353789E+02</rscale>
<asrwt>0</asrwt>
<pdfrwt beam="1">  1        1 0.55252530E-03 0.79353789E+02</pdfrwt>
<pdfrwt beam="2">  1       -2 0.67436723E-01 0.79353789E+02</pdfrwt>
<totfact> 0.56685158E+04</totfact>
</mgrwt>
</event>
<event>
 8    1  0.8247621E-014  0.8385346E+02  0.7818608E-02  0.1318458E+00
          1   -1    0    0  501    0  0.00000000000E+00  0.00000000000E+00  0.17325135872E+03  0.17325135880E+03  0.50400000000E-02 0. -1.
         -2   -1    0    0    0  501 -0.00000000000E+00 -0.00000000000E+00 -0.10146244014E+02  0.10146244335E+02  0.25500000000E-02 0.  1.
        -24    2    1    2    0    0 -0.35527136788E-14  0.35527136788E-14  0.16310511471E+03  0.18339760313E+03  0.83853457829E+02 0.  0.
         66    2    3    3    0    0  0.29705420543E+02 -0.27541389459E+02  0.58154212270E+02  0.70900299920E+02  0.19999952550E+01 0.  0.
         13    1    3    3    0    0 -0.29705420543E+02  0.27541389459E+02  0.10495090244E+03  0.11249730321E+03  0.10566000000E+00 0. -1.
         13    1    4    4    0    0  0.95688323075E+01 -0.95625008822E+01  0.19261558400E+02  0.23537688308E+02  0.10566000000E+00 0. -1.
        -13    1    4    4    0    0  0.14561730102E+02 -0.12497325684E+02  0.28474269197E+02  0.34336894198E+02  0.10566000000E+00 0.  1.
        -14    1    4    4    0    0  0.55748581330E+01 -0.54815628934E+01  0.10418384673E+02  0.13025717414E+02  0.00000000000E+00 0.  1.
<mgrwt>
<rscale>  0 0.83853458E+02</rscale>
<asrwt>0</asrwt>
<pdfrwt beam="1">  1        1 0.26654055E-01 0.83853458E+02</pdfrwt>
<pdfrwt beam="2">  1       -2 0.15609607E-02 0.83853458E+02</pdfrwt>
<totfact> 0.14304980E+05</totfact>
</mgrwt>
</event>
<event>
 8    1  0.8247621E-014  0.8037127E+02  0.7818608E-02  0.1328001E+00
          1   -1    0    0  501    0  0.00000000000E+00  0.00000000000E+00  0.11245239979E+03  0.11245239990E+03  0.50400000000E-02 0. -1.
         -2   -1    0    0    0  501 -0.00000000000E+00 -0.00000000000E+00 -0.14360611631E+02  0.14360611857E+02  0.25500000000E-02 0.  1.
        -24    2    1    2    0    0 -0.35527136788E-14  0.17763568394E-14  0.98091788157E+02  0.12681301176E+03  0.80371270038E+02 0.  0.
         66    2    3    3    0    0 -0.15290584876E+02  0.10320562426E+02 -0.72101393037E+01  0.19907337982E+02  0.20000005284E+01 0.  0.
         13    1    3    3    0    0  0.15290584876E+02 -0.10320562426E+02  0.10530192746E+03  0.10690567378E+03  0.10566000000E+00 0. -1.
         13    1    4    4    0    0 -0.44616047445E+01  0.31300567329E+01 -0.23133268856E+01  0.59216397529E+01  0.10566000000E+00 0. -1.
        -13    1    4    4    0    0 -0.10113380429E+02  0.70230051628E+01 -0.48957428082E+01  0.13250755710E+02  0.10566000000E+00 0.  1.
        -14    1    4    4    0    0 -0.71559970249E+00  0.16750053055E+00 -0.10696098264E-02  0.73494251884E+00  0.00000000000E+00 0.  1.
<mgrwt>
<rscale>  0 0.80371270E+02</rscale>
<asrwt>0</asrwt>
<pdfrwt beam="1">  1        1 0.17300369E-01 0.80371270E+02</pdfrwt>
<pdfrwt beam="2">  1       -2 0.22093250E-02 0.80371270E+02</pdfrwt>
<totfact> 0.14810128E+05</totfact>
</mgrwt>
</event>
<event>
 8    1  0.8247621E-014  0.7747265E+02  0.7818608E-02  0.1336381E+00
         -2   -1    0    0    0  501 -0.00000000000E+00  0.00000000000E+00  0.11048113831E+02  0.11048114125E+02  0.25500000000E-02 0.  1.
          1   -1    0    0  501    0  0.00000000000E+00 -0.00000000000E+00 -0.13581528913E+03  0.13581528922E+03  0.50400000000E-02 0. -1.
        -24    2    1    2    0    0  0.00000000000E+00  0.35527136788E-14 -0.12476717530E+03  0.14686340335E+03  0.77472648149E+02 0.  0.
         66    2    3    3    0    0 -0.12190414503E+02 -0.26817464145E+02 -0.14816835065E+02  0.33035150835E+02  0.20000000938E+01 0.  0.
         13    1    3    3    0    0  0.12190414503E+02  0.26817464145E+02 -0.10995034023E+03  0.11382825251E+03  0.10566000000E+00 0. -1.
         13    1    4    4    0    0 -0.31796930726E+01 -0.80767012904E+01 -0.45261010196E+01  0.97898062414E+01  0.10566000000E+00 0. -1.
        -13    1    4    4    0    0 -0.12126074187E+01 -0.37116264840E+01 -0.17226472257E+01  0.42691059262E+01  0.10566000000E+00 0.  1.
        -14    1    4    4    0    0 -0.77981140113E+01 -0.15029136371E+02 -0.85680868200E+01  0.18976238667E+02  0.00000000000E+00 0.  1.
<mgrwt>
<rscale>  0 0.77472648E+02</rscale>
<asrwt>0</asrwt>
<pdfrwt beam="1">  1        1 0.20894659E-01 0.77472648E+02</pdfrwt>
<pdfrwt beam="2">  1       -2 0.16997099E-02 0.77472648E+02</pdfrwt>
<totfact> 0.16894030E+05</totfact>
</mgrwt>
</event>
<event>
 8    1  0.8247621E-014  0.7916664E+02  0.7818608E-02  0.1331433E+00
         -2   -1    0    0    0  501 -0.00000000000E+00  0.00000000000E+00  0.73405523224E+02  0.73405523268E+02  0.25500000000E-02 0.  1.
          1   -1    0    0  501    0  0.00000000000E+00 -0.00000000000E+00 -0.21344976042E+02  0.21344976637E+02  0.50400000000E-02 0. -1.
        -24    2    1    2    0    0  0.00000000000E+00  0.35527136788E-14  0.52060547182E+02  0.94750499905E+02  0.79166638551E+02 0.  0.
         66    2    3    3    0    0 -0.86093978655E+01  0.17828762358E+02  0.67035160491E+02  0.69926384480E+02  0.20000013783E+01 0.  0.
         13    1    3    3    0    0  0.86093978655E+01 -0.17828762358E+02 -0.14974613310E+02  0.24824115425E+02  0.10566000000E+00 0. -1.
         13    1    4    4    0    0 -0.17281020515E+01  0.49413764703E+01  0.16104872963E+02  0.16934628290E+02  0.10566000000E+00 0. -1.
        -13    1    4    4    0    0 -0.14466746748E+01  0.30181247617E+01  0.10504222150E+02  0.11025052911E+02  0.10566000000E+00 0.  1.
         14    1    4    4    0    0 -0.54346211392E+01  0.98692611264E+01  0.40426065378E+02  0.41966703279E+02  0.00000000000E+00 0. -1.
<mgrwt>
<rscale>  0 0.79166639E+02</rscale>
<asrwt>0</asrwt>
<pdfrwt beam="1">  1        1 0.32838425E-02 0.79166639E+02</pdfrwt>
<pdfrwt beam="2">  1       -2 0.11293157E-01 0.79166639E+02</pdfrwt>
<totfact> 0.11687745E+05</totfact>
</mgrwt>
</event>
<event>
 8    1  0.8247621E-014  0.7986417E+02  0.7818608E-02  0.1329437E+00
         -2   -1    0    0    0  501 -0.00000000000E+00  0.00000000000E+00  0.61476817380E+02  0.61476817433E+02  0.25500000000E-02 0.  1.
          1   -1    0    0  501    0  0.00000000000E+00 -0.00000000000E+00 -0.25937764278E+02  0.25937764767E+02  0.50400000000E-02 0. -1.
        -24    2    1    2    0    0  0.00000000000E+00 -0.17763568394E-14  0.35539053103E+02  0.87414582201E+02  0.79864165218E+02 0.  0.
         66    2    3    3    0    0 -0.91119449289E+01 -0.92521286786E+01  0.59083229807E+02  0.60526502199E+02  0.19999996273E+01 0.  0.
         13    1    3    3    0    0  0.91119449289E+01  0.92521286786E+01 -0.23544176704E+02  0.26888080002E+02  0.10566000000E+00 0. -1.
         13    1    4    4    0    0 -0.50548573777E+00 -0.88620339983E+00  0.31560028822E+01  0.33184922065E+01  0.10566000000E+00 0. -1.
        -13    1    4    4    0    0 -0.30878753119E+01 -0.25044333549E+01  0.17428036730E+02  0.17876095454E+02  0.10566000000E+00 0.  1.
         14    1    4    4    0    0 -0.55185838793E+01 -0.58614919239E+01  0.38499190194E+02  0.39331914538E+02  0.00000000000E+00 0. -1.
<mgrwt>
<rscale>  0 0.79864165E+02</rscale>
<asrwt>0</asrwt>
<pdfrwt beam="1">  1        1 0.39904253E-02 0.79864165E+02</pdfrwt>
<pdfrwt beam="2">  1       -2 0.94579719E-02 0.79864165E+02</pdfrwt>
<totfact> 0.11835876E+05</totfact>
</mgrwt>
</event>
<event>
 8    1  0.8247621E-014  0.7940584E+02  0.7818608E-02  0.1330746E+00
         -2   -1    0    0    0  501 -0.00000000000E+00  0.00000000000E+00  0.51377822990E+02  0.51377823053E+02  0.25500000000E-02 0.  1.
          1   -1    0    0  501    0  0.00000000000E+00 -0.00000000000E+00 -0.30680980054E+02  0.30680980468E+02  0.50400000000E-02 0. -1.
        -24    2    1    2    0    0  0.35527136788E-14  0.00000000000E+00  0.20696842936E+02  0.82058803522E+02  0.79405843160E+02 0.  0.
         66    2    3    3    0    0 -0.28247697123E+02 -0.27085336679E+02  0.35966603536E+01  0.39350780105E+02  0.20000183476E+01 0.  0.
         13    1    3    3    0    0  0.28247697123E+02  0.27085336679E+02  0.17100182582E+02  0.42708023417E+02  0.10566000000E+00 0. -1.
         13    1    4    4    0    0 -0.46256128828E+00 -0.31171230846E+00  0.19986529188E+00  0.60186184391E+00  0.10566000000E+00 0. -1.
        -13    1    4    4    0    0 -0.97577958416E+01 -0.97269051262E+01  0.16515197945E+01  0.13876813204E+02  0.10566000000E+00 0.  1.
        -14    1    4    4    0    0 -0.18027339993E+02 -0.17046719244E+02  0.17452752672E+01  0.24872105057E+02  0.00000000000E+00 0.  1.
<mgrwt>
<rscale>  0 0.79405843E+02</rscale>
<asrwt>0</asrwt>
<pdfrwt beam="1">  1        1 0.47201508E-02 0.79405843E+02</pdfrwt>
<pdfrwt beam="2">  1       -2 0.79042805E-02 0.79405843E+02</pdfrwt>
<totfact> 0.12405087E+05</totfact>
</mgrwt>
</event>
<event>
 8    1  0.8247621E-014  0.8010364E+02  0.7818608E-02  0.1328758E+00
          1   -1    0    0  501    0  0.00000000000E+00  0.00000000000E+00  0.48783239649E+01  0.48783265684E+01  0.50400000000E-02 0. -1.
         -2   -1    0    0    0  501 -0.00000000000E+00 -0.00000000000E+00 -0.32883176525E+03  0.32883176526E+03  0.25500000000E-02 0.  1.
        -24    2    1    2    0    0  0.00000000000E+00  0.00000000000E+00 -0.32395344129E+03  0.33371009183E+03  0.80103640789E+02 0.  0.
         66    2    3    3    0    0 -0.19749155974E+02  0.44912295298E+01 -0.30590587491E+03  0.30658213355E+03  0.20000006080E+01 0.  0.
         13    1    3    3    0    0  0.19749155974E+02 -0.44912295298E+01 -0.18047566377E+02  0.27127958282E+02  0.10566000000E+00 0. -1.
         13    1    4    4    0    0 -0.27804562441E+01  0.13079134732E+01 -0.48488398715E+02  0.48585775167E+02  0.10566000000E+00 0. -1.
        -13    1    4    4    0    0 -0.15089868970E+02  0.28760733839E+01 -0.22655442272E+03  0.22707464315E+03  0.10566000000E+00 0.  1.
        -14    1    4    4    0    0 -0.18788307594E+01  0.30724267267E+00 -0.30863053481E+02  0.30921715238E+02  0.00000000000E+00 0.  1.
<mgrwt>
<rscale>  0 0.80103641E+02</rscale>
<asrwt>0</asrwt>
<pdfrwt beam="1">  1        1 0.75051184E-03 0.80103641E+02</pdfrwt>
<pdfrwt beam="2">  1       -2 0.50589485E-01 0.80103641E+02</pdfrwt>
<totfact> 0.66515558E+04</totfact>
</mgrwt>
</event>
<event>
 8    1  0.8247621E-014  0.8108105E+02  0.7818608E-02  0.1326011E+00
          1   -1    0    0  501    0  0.00000000000E+00  0.00000000000E+00  0.15767856556E+02  0.15767857362E+02  0.50400000000E-02 0. -1.
         -2   -1    0    0    0  501 -0.00000000000E+00 -0.00000000000E+00 -0.10423320545E+03  0.10423320548E+03  0.25500000000E-02 0.  1.
        -24    2    1    2    0    0  0.00000000000E+00  0.17763568394E-14 -0.88465348892E+02  0.12000106284E+03  0.81081052833E+02 0.  0.
         66    2    3    3    0    0  0.35973246965E+02 -0.15057298318E+02 -0.60521661485E+02  0.72025469465E+02  0.20000032403E+01 0.  0.
         13    1    3    3    0    0 -0.35973246965E+02  0.15057298318E+02 -0.27943687408E+02  0.47975593377E+02  0.10566000000E+00 0. -1.
         13    1    4    4    0    0  0.27269570669E+02 -0.11340844367E+02 -0.46946070244E+02  0.55463401544E+02  0.10566000000E+00 0. -1.
        -13    1    4    4    0    0  0.14812910578E+01 -0.63876719762E+00 -0.19344246618E+01  0.25209937601E+01  0.10566000000E+00 0.  1.
        -14    1    4    4    0    0  0.72223852382E+01 -0.30776867533E+01 -0.11641166579E+02  0.14041074161E+02  0.00000000000E+00 0.  1.
<mgrwt>
<rscale>  0 0.81081053E+02</rscale>
<asrwt>0</asrwt>
<pdfrwt beam="1">  1        1 0.24258242E-02 0.81081053E+02</pdfrwt>
<pdfrwt beam="2">  1       -2 0.16035877E-01 0.81081053E+02</pdfrwt>
<totfact> 0.10147589E+05</totfact>
</mgrwt>
</event>
<event>
 8    1  0.8247621E-014  0.7894725E+02  0.7818608E-02  0.1332066E+00
          1   -1    0    0  501    0  0.00000000000E+00  0.00000000000E+00  0.14410836036E+02  0.14410836917E+02  0.50400000000E-02 0. -1.
         -2   -1    0    0    0  501 -0.00000000000E+00 -0.00000000000E+00 -0.10812467718E+03  0.10812467721E+03  0.25500000000E-02 0.  1.
        -24    2    1    2    0    0  0.35527136788E-14 -0.44408920985E-15 -0.93713841142E+02  0.12253551412E+03  0.78947249479E+02 0.  0.
         66    2    3    3    0    0  0.22401953176E+02 -0.21687505960E+01 -0.97171993135E+02  0.99764458715E+02  0.19999968813E+01 0.  0.
         13    1    3    3    0    0 -0.22401953176E+02  0.21687505960E+01  0.34581519936E+01  0.22771055410E+02  0.10566000000E+00 0. -1.
         13    1    4    4    0    0  0.10554222560E+02 -0.10255748243E+01 -0.43736180918E+02  0.45003423235E+02  0.10566000000E+00 0. -1.
        -13    1    4    4    0    0  0.10676121347E+02 -0.13776351165E+01 -0.47240774476E+02  0.48451825380E+02  0.10566000000E+00 0.  1.
        -14    1    4    4    0    0  0.11716092694E+01  0.23445934480E+00 -0.61950377414E+01  0.63092100997E+01  0.00000000000E+00 0.  1.
<mgrwt>
<rscale>  0 0.78947249E+02</rscale>
<asrwt>0</asrwt>
<pdfrwt beam="1">  1        1 0.22170518E-02 0.78947249E+02</pdfrwt>
<pdfrwt beam="2">  1       -2 0.16634565E-01 0.78947249E+02</pdfrwt>
<totfact> 0.10762894E+05</totfact>
</mgrwt>
</event>
<event>
 8    1  0.8247621E-014  0.8092452E+02  0.7818608E-02  0.1326448E+00
          1   -1    0    0  501    0  0.00000000000E+00  0.00000000000E+00  0.74770986243E+02  0.74770986413E+02  0.50400000000E-02 0. -1.
         -2   -1    0    0    0  501 -0.00000000000E+00 -0.00000000000E+00 -0.21896118871E+02  0.21896119019E+02  0.25500000000E-02 0.  1.
        -24    2    1    2    0    0 -0.35527136788E-14  0.00000000000E+00  0.52874867373E+02  0.96667105432E+02  0.80924518367E+02 0.  0.
         66    2    3    3    0    0 -0.19086327363E+02  0.32817894257E+02  0.98204309961E+01  0.39265034639E+02  0.20000011458E+01 0.  0.
         13    1    3    3    0    0  0.19086327363E+02 -0.32817894257E+02  0.43054436377E+02  0.57402070794E+02  0.10566000000E+00 0. -1.
         13    1    4    4    0    0 -0.13950931877E+01  0.28832632771E+01  0.74891569329E+00  0.32911291191E+01  0.10566000000E+00 0. -1.
        -13    1    4    4    0    0 -0.46031366201E+00  0.12342293768E+01  0.15102634441E+00  0.13301066928E+01  0.10566000000E+00 0.  1.
         14    1    4    4    0    0 -0.17230920513E+02  0.28700401603E+02  0.89204889584E+01  0.34643798827E+02  0.00000000000E+00 0. -1.
<mgrwt>
<rscale>  0 0.80924518E+02</rscale>
<asrwt>0</asrwt>
<pdfrwt beam="1">  1        1 0.11503229E-01 0.80924518E+02</pdfrwt>
<pdfrwt beam="2">  1       -2 0.33686337E-02 0.80924518E+02</pdfrwt>
<totfact> 0.13583339E+05</totfact>
</mgrwt>
</event>
<event>
 8    1  0.8247621E-014  0.8276255E+02  0.7818608E-02  0.1321390E+00
          1   -1    0    0  501    0  0.00000000000E+00  0.00000000000E+00  0.10193571073E+03  0.10193571086E+03  0.50400000000E-02 0. -1.
         -2   -1    0    0    0  501 -0.00000000000E+00 -0.00000000000E+00 -0.16798921788E+02  0.16798921981E+02  0.25500000000E-02 0.  1.
        -24    2    1    2    0    0  0.00000000000E+00  0.35527136788E-14  0.85136788945E+02  0.11873463284E+03  0.82762553148E+02 0.  0.
         66    2    3    3    0    0 -0.38086589387E+02 -0.15911878464E+02  0.38899467571E+02  0.56753367772E+02  0.20000021867E+01 0.  0.
         13    1    3    3    0    0  0.38086589387E+02  0.15911878464E+02  0.46237321374E+02  0.61981265067E+02  0.10566000000E+00 0. -1.
         13    1    4    4    0    0 -0.17364802445E+02 -0.73994266400E+01  0.18893219282E+02  0.26706792721E+02  0.10566000000E+00 0. -1.
        -13    1    4    4    0    0 -0.16014005846E+02 -0.68567724888E+01  0.15245029475E+02  0.23149207329E+02  0.10566000000E+00 0.  1.
        -14    1    4    4    0    0 -0.47077810956E+01 -0.16556793356E+01  0.47612188134E+01  0.68973677222E+01  0.00000000000E+00 0.  1.
<mgrwt>
<rscale>  0 0.82762553E+02</rscale>
<asrwt>0</asrwt>
<pdfrwt beam="1">  1        1 0.15682417E-01 0.82762553E+02</pdfrwt>
<pdfrwt beam="2">  1       -2 0.25844496E-02 0.82762553E+02</pdfrwt>
<totfact> 0.13451859E+05</totfact>
</mgrwt>
</event>
<event>
 8    1  0.8247621E-014  0.7979848E+02  0.7818608E-02  0.1329624E+00
          1   -1    0    0  501    0  0.00000000000E+00  0.00000000000E+00  0.30147778178E+02  0.30147778599E+02  0.50400000000E-02 0. -1.
         -2   -1    0    0    0  501 -0.00000000000E+00 -0.00000000000E+00 -0.52804867011E+02  0.52804867073E+02  0.25500000000E-02 0.  1.
        -24    2    1    2    0    0  0.00000000000E+00  0.00000000000E+00 -0.22657088834E+02  0.82952645672E+02  0.79798482126E+02 0.  0.
         66    2    3    3    0    0 -0.19634989574E+02  0.19187697056E+02 -0.41396549399E+02  0.49712924250E+02  0.20000003596E+01 0.  0.
         13    1    3    3    0    0  0.19634989574E+02 -0.19187697056E+02  0.18739460566E+02  0.33239721422E+02  0.10566000000E+00 0. -1.
         13    1    4    4    0    0 -0.74837792598E+01  0.77022342298E+01 -0.17762468837E+02  0.20756874219E+02  0.10566000000E+00 0. -1.
        -13    1    4    4    0    0 -0.27661967460E+01  0.28024904192E+01 -0.58679357301E+01  0.70675052710E+01  0.10566000000E+00 0.  1.
         14    1    4    4    0    0 -0.93850135685E+01  0.86829724067E+01 -0.17766144833E+02  0.21888544760E+02  0.00000000000E+00 0. -1.
<mgrwt>
<rscale>  0 0.79798482E+02</rscale>
<asrwt>0</asrwt>
<pdfrwt beam="1">  1        1 0.46381198E-02 0.79798482E+02</pdfrwt>
<pdfrwt beam="2">  1       -2 0.81238257E-02 0.79798482E+02</pdfrwt>
<totfact> 0.12193341E+05</totfact>
</mgrwt>
</event>
<event>
 8    1  0.8247621E-014  0.7983691E+02  0.7818608E-02  0.1329515E+00
          1   -1    0    0  501    0  0.00000000000E+00  0.00000000000E+00  0.83751014923E+02  0.83751015074E+02  0.50400000000E-02 0. -1.
         -2   -1    0    0    0  501 -0.00000000000E+00 -0.00000000000E+00 -0.19026433865E+02  0.19026434036E+02  0.25500000000E-02 0.  1.
        -24    2    1    2    0    0  0.00000000000E+00  0.00000000000E+00  0.64724581058E+02  0.10277744911E+03  0.79836912844E+02 0.  0.
         66    2    3    3    0    0  0.27110704224E+02  0.17952592655E+02  0.26287095836E+01  0.32683267577E+02  0.19999997194E+01 0.  0.
         13    1    3    3    0    0 -0.27110704224E+02 -0.17952592655E+02  0.62095871474E+02  0.70094181533E+02  0.10566000000E+00 0. -1.
         13    1    4    4    0    0  0.18219976692E+01  0.11295039559E+01  0.39490224747E+00  0.21823305235E+01  0.10566000000E+00 0. -1.
        -13    1    4    4    0    0  0.18513004706E+02  0.12407924252E+02  0.23709856639E+01  0.22412511340E+02  0.10566000000E+00 0.  1.
        -14    1    4    4    0    0  0.67757018485E+01  0.44151644474E+01 -0.13717832768E+00  0.80884257140E+01  0.00000000000E+00 0.  1.
<mgrwt>
<rscale>  0 0.79836913E+02</rscale>
<asrwt>0</asrwt>
<pdfrwt beam="1">  1        1 0.12884771E-01 0.79836913E+02</pdfrwt>
<pdfrwt beam="2">  1       -2 0.29271437E-02 0.79836913E+02</pdfrwt>
<totfact> 0.14354215E+05</totfact>
</mgrwt>
</event>
<event>
 8    1  0.8247621E-014  0.7926179E+02  0.7818608E-02  0.1331160E+00
          1   -1    0    0  501    0  0.00000000000E+00  0.00000000000E+00  0.58942511820E+02  0.58942512035E+02  0.50400000000E-02 0. -1.
         -2   -1    0    0    0  501 -0.00000000000E+00 -0.00000000000E+00 -0.26646437487E+02  0.26646437609E+02  0.25500000000E-02 0.  1.
        -24    2    1    2    0    0 -0.35527136788E-14  0.71054273576E-14  0.32296074333E+02  0.85588949644E+02  0.79261793343E+02 0.  0.
         66    2    3    3    0    0 -0.20845938772E+02  0.25729418917E+02 -0.73027016182E+01  0.33968891702E+02  0.19999978633E+01 0.  0.
         13    1    3    3    0    0  0.20845938772E+02 -0.25729418917E+02  0.39598775951E+02  0.51620057942E+02  0.10566000000E+00 0. -1.
         13    1    4    4    0    0 -0.89430839375E+00  0.83016063183E+00 -0.24225914044E+00  0.12485222082E+01  0.10566000000E+00 0. -1.
        -13    1    4    4    0    0 -0.71829099509E+01  0.80240972005E+01 -0.18627418235E+01  0.10929835423E+02  0.10566000000E+00 0.  1.
        -14    1    4    4    0    0 -0.12768720427E+02  0.16875161085E+02 -0.51977006543E+01  0.21790534071E+02  0.00000000000E+00 0.  1.
<mgrwt>
<rscale>  0 0.79261793E+02</rscale>
<asrwt>0</asrwt>
<pdfrwt beam="1">  1        1 0.90680788E-02 0.79261793E+02</pdfrwt>
<pdfrwt beam="2">  1       -2 0.40994519E-02 0.79261793E+02</pdfrwt>
<totfact> 0.13850300E+05</totfact>
</mgrwt>
</event>
<event>
 8    1  0.8247621E-014  0.7920751E+02  0.7818608E-02  0.1331316E+00
         -2   -1    0    0    0  501 -0.00000000000E+00  0.00000000000E+00  0.13305125084E+03  0.13305125086E+03  0.25500000000E-02 0.  1.
          1   -1    0    0  501    0  0.00000000000E+00 -0.00000000000E+00 -0.11788368814E+02  0.11788369892E+02  0.50400000000E-02 0. -1.
        -24    2    1    2    0    0  0.17763568394E-14 -0.71054273576E-14  0.12126288202E+03  0.14483962075E+03  0.79207507117E+02 0.  0.
         66    2    3    3    0    0  0.13323916454E+02 -0.33526673712E+02  0.90431294763E+02  0.97382666186E+02  0.20000002569E+01 0.  0.
         13    1    3    3    0    0 -0.13323916454E+02  0.33526673712E+02  0.30831587261E+02  0.47456954569E+02  0.10566000000E+00 0. -1.
         13    1    4    4    0    0  0.78238123381E+01 -0.19663683360E+02  0.52041480723E+02  0.56180061968E+02  0.10566000000E+00 0. -1.
        -13    1    4    4    0    0  0.37194003249E+01 -0.80362550156E+01  0.21864533576E+02  0.23589920008E+02  0.10566000000E+00 0.  1.
         14    1    4    4    0    0  0.17807037910E+01 -0.58267353367E+01  0.16525280464E+02  0.17612684210E+02  0.00000000000E+00 0. -1.
<mgrwt>
<rscale>  0 0.79207507E+02</rscale>
<asrwt>0</asrwt>
<pdfrwt beam="1">  1        1 0.18135954E-02 0.79207507E+02</pdfrwt>
<pdfrwt beam="2">  1       -2 0.20469423E-01 0.79207507E+02</pdfrwt>
<totfact> 0.10069205E+05</totfact>
</mgrwt>
</event>
<event>
 8    1  0.8247621E-014  0.7804706E+02  0.7818608E-02  0.1334687E+00
         -2   -1    0    0    0  501 -0.00000000000E+00  0.00000000000E+00  0.24213012625E+02  0.24213012759E+02  0.25500000000E-02 0.  1.
          1   -1    0    0  501    0  0.00000000000E+00 -0.00000000000E+00 -0.62893277273E+02  0.62893277475E+02  0.50400000000E-02 0. -1.
        -24    2    1    2    0    0  0.00000000000E+00  0.00000000000E+00 -0.38680264648E+02  0.87106290234E+02  0.78047055839E+02 0.  0.
         66    2    3    3    0    0  0.99013081725E+01 -0.36714296051E+02 -0.29008957005E+02  0.47869562624E+02  0.20000003109E+01 0.  0.
         13    1    3    3    0    0 -0.99013081725E+01  0.36714296051E+02 -0.96713076422E+01  0.39236727610E+02  0.10566000000E+00 0. -1.
         13    1    4    4    0    0  0.67640570972E+01 -0.27451066038E+02 -0.21351836095E+02  0.35429162617E+02  0.10566000000E+00 0. -1.
        -13    1    4    4    0    0  0.29062608967E+01 -0.85715462248E+01 -0.68403155969E+01  0.11345432499E+02  0.10566000000E+00 0.  1.
         14    1    4    4    0    0  0.23099017866E+00 -0.69168378760E+00 -0.81680531339E+00  0.10949675085E+01  0.00000000000E+00 0. -1.
<mgrwt>
<rscale>  0 0.78047056E+02</rscale>
<asrwt>0</asrwt>
<pdfrwt beam="1">  1        1 0.96758888E-02 0.78047056E+02</pdfrwt>
<pdfrwt beam="2">  1       -2 0.37250789E-02 0.78047056E+02</pdfrwt>
<totfact> 0.14596224E+05</totfact>
</mgrwt>
</event>
<event>
 8    1  0.1035113E-013  0.7962664E+02  0.7818608E-02  0.1330114E+00
         -2   -1    0    0    0  501 -0.00000000000E+00  0.00000000000E+00  0.23118243568E+03  0.23118243569E+03  0.25500000000E-02 0.  1.
          1   -1    0    0  501    0  0.00000000000E+00 -0.00000000000E+00 -0.68564909876E+01  0.68564928399E+01  0.50400000000E-02 0. -1.
        -24    2    1    2    0    0 -0.35527136788E-14 -0.43368086899E-18  0.22432594469E+03  0.23803892853E+03  0.79626641493E+02 0.  0.
         66    2    3    3    0    0  0.20879656401E+02 -0.27522475111E-02  0.21348398223E+03  0.21451193610E+03  0.19999999864E+01 0.  0.
         13    1    3    3    0    0 -0.20879656401E+02  0.27522475111E-02  0.10841962459E+02  0.23526992434E+02  0.10566000000E+00 0. -1.
         13    1    4    4    0    0  0.64642506717E+00 -0.19931890509E+00  0.67492114457E+01  0.67838493916E+01  0.10566000000E+00 0. -1.
        -13    1    4    4    0    0  0.34176600385E+01 -0.34357225951E+00  0.31059546542E+02  0.31249080586E+02  0.10566000000E+00 0.  1.
        -14    1    4    4    0    0  0.16815571296E+02  0.54013891709E+00  0.17567522424E+03  0.17647900612E+03  0.00000000000E+00 0.  1.
<mgrwt>
<rscale>  0 0.79626641E+02</rscale>
<asrwt>0</asrwt>
<pdfrwt beam="1">  1        1 0.10548450E-02 0.79626641E+02</pdfrwt>
<pdfrwt beam="2">  1       -2 0.35566527E-01 0.79626641E+02</pdfrwt>
<totfact> 0.80935162E+04</totfact>
</mgrwt>
</event>
<event>
 8    1  0.8247621E-014  0.7876245E+02  0.7818608E-02  0.1332601E+00
         -2   -1    0    0    0  501 -0.00000000000E+00  0.00000000000E+00  0.17256988545E+03  0.17256988547E+03  0.25500000000E-02 0.  1.
          1   -1    0    0  501    0  0.00000000000E+00 -0.00000000000E+00 -0.89869726793E+01  0.89869740926E+01  0.50400000000E-02 0. -1.
        -24    2    1    2    0    0  0.00000000000E+00 -0.35527136788E-14  0.16358291277E+03  0.18155685956E+03  0.78762452370E+02 0.  0.
         66    2    3    3    0    0 -0.45083784752E+01 -0.28549777098E+02  0.14341537098E+03  0.14631262379E+03  0.19999999559E+01 0.  0.
         13    1    3    3    0    0  0.45083784752E+01  0.28549777098E+02  0.20167541792E+02  0.35244235767E+02  0.10566000000E+00 0. -1.
         13    1    4    4    0    0 -0.44956754273E+00 -0.34068573704E+01  0.14684284033E+02  0.15081384211E+02  0.10566000000E+00 0. -1.
        -13    1    4    4    0    0 -0.25317406303E+01 -0.16960914425E+02  0.89162166212E+02  0.90796395173E+02  0.10566000000E+00 0.  1.
        -14    1    4    4    0    0 -0.15270703021E+01 -0.81820053031E+01  0.39568920733E+02  0.40434844410E+02  0.00000000000E+00 0.  1.
<mgrwt>
<rscale>  0 0.78762452E+02</rscale>
<asrwt>0</asrwt>
<pdfrwt beam="1">  1        1 0.13826114E-02 0.78762452E+02</pdfrwt>
<pdfrwt beam="2">  1       -2 0.26549211E-01 0.78762452E+02</pdfrwt>
<totfact> 0.93730250E+04</totfact>
</mgrwt>
</event>
<event>
 8    1  0.9647721E-014  0.7207980E+02  0.7818608E-02  0.1353160E+00
          1   -1    0    0  501    0  0.00000000000E+00  0.00000000000E+00  0.86215799180E+02  0.86215799327E+02  0.50400000000E-02 0. -1.
         -2   -1    0    0    0  501 -0.00000000000E+00 -0.00000000000E+00 -0.15065386189E+02  0.15065386405E+02  0.25500000000E-02 0.  1.
        -24    2    1    2    0    0  0.00000000000E+00  0.00000000000E+00  0.71150412991E+02  0.10128118573E+03  0.72079798241E+02 0.  0.
         66    2    3    3    0    0 -0.19960641264E+02 -0.25532132988E+02  0.13539249145E+02  0.35179942337E+02  0.20000152179E+01 0.  0.
         13    1    3    3    0    0  0.19960641264E+02  0.25532132988E+02  0.57611163846E+02  0.66101243395E+02  0.10566000000E+00 0. -1.
         13    1    4    4    0    0 -0.62972883047E+00 -0.56791793206E+00  0.51458966216E+00  0.99752480344E+00  0.10566000000E+00 0. -1.
        -13    1    4    4    0    0 -0.45956463718E+00 -0.86691314432E+00  0.55703460451E+00  0.11332209148E+01  0.10566000000E+00 0.  1.
        -14    1    4    4    0    0 -0.18871347796E+02 -0.24097301911E+02  0.12467624878E+02  0.33049196619E+02  0.00000000000E+00 0.  1.
<mgrwt>
<rscale>  0 0.72079798E+02</rscale>
<asrwt>0</asrwt>
<pdfrwt beam="1">  1        1 0.13263969E-01 0.72079798E+02</pdfrwt>
<pdfrwt beam="2">  1       -2 0.23177517E-02 0.72079798E+02</pdfrwt>
<totfact> 0.18993738E+05</totfact>
</mgrwt>
</event>
<event>
 8    1  0.8247621E-014  0.8124342E+02  0.7818608E-02  0.1325559E+00
         -2   -1    0    0    0  501 -0.00000000000E+00  0.00000000000E+00  0.27872339584E+03  0.27872339585E+03  0.25500000000E-02 0.  1.
          1   -1    0    0  501    0  0.00000000000E+00 -0.00000000000E+00 -0.59202889428E+01  0.59202910881E+01  0.50400000000E-02 0. -1.
        -24    2    1    2    0    0 -0.71054273576E-14  0.17763568394E-14  0.27280310690E+03  0.28464368694E+03  0.81243420545E+02 0.  0.
         66    2    3    3    0    0  0.29373213578E+02 -0.10115370585E+02  0.22804856531E+03  0.23016353868E+03  0.19999996020E+01 0.  0.
         13    1    3    3    0    0 -0.29373213578E+02  0.10115370585E+02  0.44754541583E+02  0.54480148259E+02  0.10566000000E+00 0. -1.
         13    1    4    4    0    0  0.17668492305E+01 -0.57196925457E+00  0.16494236644E+02  0.16598792472E+02  0.10566000000E+00 0. -1.
        -13    1    4    4    0    0  0.54962856498E+01 -0.20854771823E+01  0.39416123804E+02  0.39852231441E+02  0.10566000000E+00 0.  1.
        -14    1    4    4    0    0  0.22110078697E+02 -0.74579241484E+01  0.17213820487E+03  0.17371251477E+03  0.00000000000E+00 0.  1.
<mgrwt>
<rscale>  0 0.81243421E+02</rscale>
<asrwt>0</asrwt>
<pdfrwt beam="1">  1        1 0.91081404E-03 0.81243421E+02</pdfrwt>
<pdfrwt beam="2">  1       -2 0.42880514E-01 0.81243421E+02</pdfrwt>
<totfact> 0.70207671E+04</totfact>
</mgrwt>
</event>
<event>
 8    1  0.8247621E-014  0.8025766E+02  0.7818608E-02  0.1328322E+00
          1   -1    0    0  501    0  0.00000000000E+00  0.00000000000E+00  0.61181859526E+02  0.61181859733E+02  0.50400000000E-02 0. -1.
         -2   -1    0    0    0  501 -0.00000000000E+00 -0.00000000000E+00 -0.26320267219E+02  0.26320267342E+02  0.25500000000E-02 0.  1.
        -24    2    1    2    0    0  0.00000000000E+00  0.00000000000E+00  0.34861592307E+02  0.87502127076E+02  0.80257657732E+02 0.  0.
         66    2    3    3    0    0 -0.48544007548E+01  0.12096373961E+02 -0.23908509904E+02  0.27303924880E+02  0.19999995867E+01 0.  0.
         13    1    3    3    0    0  0.48544007548E+01 -0.12096373961E+02  0.58770102211E+02  0.60198202196E+02  0.10566000000E+00 0. -1.
         13    1    4    4    0    0 -0.73782180034E+00  0.33413073690E+01 -0.65929323337E+01  0.74287708765E+01  0.10566000000E+00 0. -1.
        -13    1    4    4    0    0 -0.28301783152E+01  0.69061661195E+01 -0.14023204443E+02  0.15886046288E+02  0.10566000000E+00 0.  1.
         14    1    4    4    0    0 -0.12864006392E+01  0.18489004720E+01 -0.32923731265E+01  0.39891077153E+01  0.00000000000E+00 0. -1.
<mgrwt>
<rscale>  0 0.80257658E+02</rscale>
<asrwt>0</asrwt>
<pdfrwt beam="1">  1        1 0.94125937E-02 0.80257658E+02</pdfrwt>
<pdfrwt beam="2">  1       -2 0.40492719E-02 0.80257658E+02</pdfrwt>
<totfact> 0.13460124E+05</totfact>
</mgrwt>
</event>
<event>
 8    1  0.8247621E-014  0.7912180E+02  0.7818608E-02  0.1331562E+00
         -2   -1    0    0    0  501 -0.00000000000E+00  0.00000000000E+00  0.16735752522E+03  0.16735752524E+03  0.25500000000E-02 0.  1.
          1   -1    0    0  501    0  0.00000000000E+00 -0.00000000000E+00 -0.93516233750E+01  0.93516247332E+01  0.50400000000E-02 0. -1.
        -24    2    1    2    0    0  0.88817841970E-15 -0.35527136788E-14  0.15800590185E+03  0.17670914997E+03  0.79121796404E+02 0.  0.
         66    2    3    3    0    0  0.77225613998E+01  0.18525718896E+02  0.15512671585E+03  0.15643253558E+03  0.20000004712E+01 0.  0.
         13    1    3    3    0    0 -0.77225613998E+01 -0.18525718896E+02  0.28791859923E+01  0.20276614392E+02  0.10566000000E+00 0. -1.
         13    1    4    4    0    0  0.13312663192E+01  0.28930780748E+01  0.21377830523E+02  0.21613999461E+02  0.10566000000E+00 0. -1.
        -13    1    4    4    0    0 -0.37890613274E-01  0.21327466268E+00  0.21703237387E+01  0.21836645683E+01  0.10566000000E+00 0. -1.
        -14    1    4    4    0    0  0.64291856939E+01  0.15419366158E+02  0.13157856159E+03  0.13263487155E+03  0.00000000000E+00 0.  1.
<mgrwt>
<rscale>  0 0.79121796E+02</rscale>
<asrwt>0</asrwt>
<pdfrwt beam="1">  1        1 0.14387114E-02 0.79121796E+02</pdfrwt>
<pdfrwt beam="2">  1       -2 0.25747311E-01 0.79121796E+02</pdfrwt>
<totfact> 0.93663964E+04</totfact>
</mgrwt>
</event>
<event>
 8    1  0.8247621E-014  0.7747642E+02  0.7818608E-02  0.1336369E+00
          1   -1    0    0  501    0  0.00000000000E+00  0.00000000000E+00  0.32263810805E+02  0.32263811199E+02  0.50400000000E-02 0. -1.
         -2   -1    0    0    0  501 -0.00000000000E+00 -0.00000000000E+00 -0.46511833943E+02  0.46511834013E+02  0.25500000000E-02 0.  1.
        -24    2    1    2    0    0 -0.35527136788E-14  0.71054273576E-14 -0.14248023138E+02  0.78775645211E+02  0.77476422963E+02 0.  0.
         66    2    3    3    0    0 -0.16644794340E+02  0.33411666299E+02 -0.17560198675E+02  0.41300716335E+02  0.19999921799E+01 0.  0.
         13    1    3    3    0    0  0.16644794340E+02 -0.33411666299E+02  0.33121755373E+01  0.37474928877E+02  0.10566000000E+00 0. -1.
         13    1    4    4    0    0 -0.68139118941E+01  0.13534656131E+02 -0.70825976805E+01  0.16726944306E+02  0.10566000000E+00 0. -1.
        -13    1    4    4    0    0 -0.93868251389E+01  0.19487549174E+02 -0.10293856716E+02  0.23955202131E+02  0.10566000000E+00 0.  1.
         14    1    4    4    0    0 -0.44405730742E+00  0.38946099359E+00 -0.18374427877E+00  0.61856989725E+00  0.00000000000E+00 0. -1.
<mgrwt>
<rscale>  0 0.77476423E+02</rscale>
<asrwt>0</asrwt>
<pdfrwt beam="1">  1        1 0.49636632E-02 0.77476423E+02</pdfrwt>
<pdfrwt beam="2">  1       -2 0.71556668E-02 0.77476423E+02</pdfrwt>
<totfact> 0.13420879E+05</totfact>
</mgrwt>
</event>
<event>
 8    1  0.8247621E-014  0.7581846E+02  0.7818608E-02  0.1341355E+00
         -2   -1    0    0    0  501 -0.00000000000E+00  0.00000000000E+00  0.44229650294E+02  0.44229650368E+02  0.25500000000E-02 0.  1.
          1   -1    0    0  501    0  0.00000000000E+00 -0.00000000000E+00 -0.32491993953E+02  0.32491994344E+02  0.50400000000E-02 0. -1.
        -24    2    1    2    0    0 -0.17763568394E-14  0.35527136788E-14  0.11737656341E+02  0.76721644711E+02  0.75818455476E+02 0.  0.
         66    2    3    3    0    0  0.14509277070E+02 -0.19349723783E+02  0.35377981592E+02  0.42901427775E+02  0.19999980160E+01 0.  0.
         13    1    3    3    0    0 -0.14509277070E+02  0.19349723783E+02 -0.23640325251E+02  0.33820216936E+02  0.10566000000E+00 0. -1.
         13    1    4    4    0    0  0.13349724408E+01 -0.11240327902E+01  0.21247267693E+01  0.27515866352E+01  0.10566000000E+00 0. -1.
        -13    1    4    4    0    0  0.31673283301E+01 -0.41363925574E+01  0.81411333765E+01  0.96659675578E+01  0.10566000000E+00 0.  1.
        -14    1    4    4    0    0  0.10006976299E+02 -0.14089298435E+02  0.25112121446E+02  0.30483873583E+02  0.00000000000E+00 0.  1.
<mgrwt>
<rscale>  0 0.75818455E+02</rscale>
<asrwt>0</asrwt>
<pdfrwt beam="1">  1        1 0.49987684E-02 0.75818455E+02</pdfrwt>
<pdfrwt beam="2">  1       -2 0.68045615E-02 0.75818455E+02</pdfrwt>
<totfact> 0.14285494E+05</totfact>
</mgrwt>
</event>
<event>
 8    1  0.8247621E-014  0.8021314E+02  0.7818608E-02  0.1328448E+00
          1   -1    0    0  501    0  0.00000000000E+00  0.00000000000E+00  0.14330771664E+03  0.14330771673E+03  0.50400000000E-02 0. -1.
         -2   -1    0    0    0  501 -0.00000000000E+00 -0.00000000000E+00 -0.11224355405E+02  0.11224355694E+02  0.25500000000E-02 0.  1.
        -24    2    1    2    0    0  0.35527136788E-14 -0.35527136788E-14  0.13208336124E+03  0.15453207243E+03  0.80213135410E+02 0.  0.
         66    2    3    3    0    0  0.23943881845E+02  0.31846096933E+02  0.74490819641E+02  0.84500683897E+02  0.20000001275E+01 0.  0.
         13    1    3    3    0    0 -0.23943881845E+02 -0.31846096933E+02  0.57592541598E+02  0.70031388530E+02  0.10566000000E+00 0. -1.
         13    1    4    4    0    0  0.40613497539E+01  0.60949291475E+01  0.12980573958E+02  0.14904669988E+02  0.10566000000E+00 0. -1.
        -13    1    4    4    0    0  0.18766642724E+02  0.24485135769E+02  0.58846080583E+02  0.66442314204E+02  0.10566000000E+00 0.  1.
        -14    1    4    4    0    0  0.11158893671E+01  0.12660320165E+01  0.26641651000E+01  0.31536997046E+01  0.00000000000E+00 0.  1.
<mgrwt>
<rscale>  0 0.80213135E+02</rscale>
<asrwt>0</asrwt>
<pdfrwt beam="1">  1        1 0.22047341E-01 0.80213135E+02</pdfrwt>
<pdfrwt beam="2">  1       -2 0.17268239E-02 0.80213135E+02</pdfrwt>
<totfact> 0.15545597E+05</totfact>
</mgrwt>
</event>
<event>
 8    1  0.8247621E-014  0.8012851E+02  0.7818608E-02  0.1328687E+00
         -2   -1    0    0    0  501 -0.00000000000E+00  0.00000000000E+00  0.60033310183E+02  0.60033310237E+02  0.25500000000E-02 0.  1.
          1   -1    0    0  501    0  0.00000000000E+00 -0.00000000000E+00 -0.26737562344E+02  0.26737562819E+02  0.50400000000E-02 0. -1.
        -24    2    1    2    0    0  0.00000000000E+00  0.35527136788E-14  0.33295747839E+02  0.86770873056E+02  0.80128506704E+02 0.  0.
         66    2    3    3    0    0  0.23005744507E+02  0.21119035442E+02  0.43792530355E+02  0.53824377863E+02  0.19999997755E+01 0.  0.
         13    1    3    3    0    0 -0.23005744507E+02 -0.21119035442E+02 -0.10496782516E+02  0.32946495193E+02  0.10566000000E+00 0. -1.
         13    1    4    4    0    0  0.28597734584E+01  0.35276765169E+01  0.66632306773E+01  0.80642800631E+01  0.10566000000E+00 0. -1.
        -13    1    4    4    0    0  0.14064904976E+02  0.12261928482E+02  0.26109203106E+02  0.32091713773E+02  0.10566000000E+00 0.  1.
         14    1    4    4    0    0  0.60810660726E+01  0.53294304431E+01  0.11020096572E+02  0.13668384026E+02  0.00000000000E+00 0. -1.
<mgrwt>
<rscale>  0 0.80128507E+02</rscale>
<asrwt>0</asrwt>
<pdfrwt beam="1">  1        1 0.41134712E-02 0.80128507E+02</pdfrwt>
<pdfrwt beam="2">  1       -2 0.92358939E-02 0.80128507E+02</pdfrwt>
<totfact> 0.11789760E+05</totfact>
</mgrwt>
</event>
<event>
 8    1  0.8247621E-014  0.8100895E+02  0.7818608E-02  0.1326212E+00
          1   -1    0    0  501    0  0.00000000000E+00  0.00000000000E+00  0.59653815787E+01  0.59653837078E+01  0.50400000000E-02 0. -1.
         -2   -1    0    0    0  501 -0.00000000000E+00 -0.00000000000E+00 -0.27502214764E+03  0.27502214765E+03  0.25500000000E-02 0.  1.
        -24    2    1    2    0    0 -0.71054273576E-14  0.11102230246E-15 -0.26905676606E+03  0.28098753136E+03  0.81008946519E+02 0.  0.
         66    2    3    3    0    0  0.36404558004E+02 -0.83078196679E+00 -0.19593919044E+03  0.19930416052E+03  0.20000024901E+01 0.  0.
         13    1    3    3    0    0 -0.36404558004E+02  0.83078196679E+00 -0.73117575618E+02  0.81683370832E+02  0.10566000000E+00 0. -1.
         13    1    4    4    0    0  0.25885423404E+01  0.12710856474E+00 -0.15678496587E+02  0.15891605561E+02  0.10566000000E+00 0. -1.
        -13    1    4    4    0    0  0.10207388532E+02  0.32163983099E+00 -0.54400814122E+02  0.55351187648E+02  0.10566000000E+00 0.  1.
         14    1    4    4    0    0  0.23608627132E+02 -0.12795303625E+01 -0.12585987973E+03  0.12806136732E+03  0.00000000000E+00 0. -1.
<mgrwt>
<rscale>  0 0.81008947E+02</rscale>
<asrwt>0</asrwt>
<pdfrwt beam="1">  1        1 0.91775139E-03 0.81008947E+02</pdfrwt>
<pdfrwt beam="2">  1       -2 0.42311090E-01 0.81008947E+02</pdfrwt>
<totfact> 0.71221762E+04</totfact>
</mgrwt>
</event>
<event>
 8    1  0.8247621E-014  0.7734679E+02  0.7818608E-02  0.1336754E+00
         -2   -1    0    0    0  501 -0.00000000000E+00  0.00000000000E+00  0.49062107057E+01  0.49062113683E+01  0.25500000000E-02 0.  1.
          1   -1    0    0  501    0  0.00000000000E+00 -0.00000000000E+00 -0.30484453991E+03  0.30484453995E+03  0.50400000000E-02 0. -1.
        -24    2    1    2    0    0  0.35527136788E-14  0.00000000000E+00 -0.29993832921E+03  0.30975075132E+03  0.77346794487E+02 0.  0.
         66    2    3    3    0    0  0.29032940711E+02  0.20594467126E+02 -0.89787702430E+02  0.96606807422E+02  0.20000025427E+01 0.  0.
         13    1    3    3    0    0 -0.29032940711E+02 -0.20594467126E+02 -0.21015062678E+03  0.21314394390E+03  0.10566000000E+00 0. -1.
         13    1    4    4    0    0  0.75651464721E+01  0.44883691692E+01 -0.22293506756E+02  0.23966403703E+02  0.10566000000E+00 0. -1.
        -13    1    4    4    0    0  0.19013214358E+02  0.14010289059E+02 -0.58749169329E+02  0.63318769576E+02  0.10566000000E+00 0.  1.
         14    1    4    4    0    0  0.24545798808E+01  0.20958088977E+01 -0.87450263442E+01  0.93216341426E+01  0.00000000000E+00 0. -1.
<mgrwt>
<rscale>  0 0.77346794E+02</rscale>
<asrwt>0</asrwt>
<pdfrwt beam="1">  1        1 0.46899145E-01 0.77346794E+02</pdfrwt>
<pdfrwt beam="2">  1       -2 0.75480194E-03 0.77346794E+02</pdfrwt>
<totfact> 0.19775878E+05</totfact>
</mgrwt>
</event>
<event>
 8    1  0.8247621E-014  0.8030481E+02  0.7818608E-02  0.1328189E+00
         -2   -1    0    0    0  501 -0.00000000000E+00  0.00000000000E+00  0.41706249334E+01  0.41706257130E+01  0.25500000000E-02 0.  1.
          1   -1    0    0  501    0  0.00000000000E+00 -0.00000000000E+00 -0.38656451670E+03  0.38656451673E+03  0.50400000000E-02 0. -1.
        -24    2    1    2    0    0  0.00000000000E+00 -0.35527136788E-14 -0.38239389177E+03  0.39073514245E+03  0.80304813566E+02 0.  0.
         66    2    3    3    0    0 -0.33587125615E+02 -0.21331417483E+02 -0.16599211428E+03  0.17070590611E+03  0.19999997328E+01 0.  0.
         13    1    3    3    0    0  0.33587125615E+02  0.21331417483E+02 -0.21640177749E+03  0.22002923634E+03  0.10566000000E+00 0. -1.
         13    1    4    4    0    0 -0.11304826622E+01 -0.83299366808E+00 -0.48345034898E+01  0.50354202932E+01  0.10566000000E+00 0. -1.
        -13    1    4    4    0    0 -0.12904386294E+02 -0.83278270763E+01 -0.66796674823E+02  0.68539644155E+02  0.10566000000E+00 0.  1.
        -14    1    4    4    0    0 -0.19552256660E+02 -0.12170596738E+02 -0.94360935964E+02  0.97130841660E+02  0.00000000000E+00 0.  1.
<mgrwt>
<rscale>  0 0.80304814E+02</rscale>
<asrwt>0</asrwt>
<pdfrwt beam="1">  1        1 0.59471436E-01 0.80304814E+02</pdfrwt>
<pdfrwt beam="2">  1       -2 0.64163497E-03 0.80304814E+02</pdfrwt>
<totfact> 0.18698287E+05</totfact>
</mgrwt>
</event>
<event>
 8    1  0.8247621E-014  0.7905697E+02  0.7818608E-02  0.1331749E+00
         -2   -1    0    0    0  501 -0.00000000000E+00  0.00000000000E+00  0.12096830895E+02  0.12096831163E+02  0.25500000000E-02 0.  1.
          1   -1    0    0  501    0  0.00000000000E+00 -0.00000000000E+00 -0.12916614754E+03  0.12916614764E+03  0.50400000000E-02 0. -1.
        -24    2    1    2    0    0  0.00000000000E+00  0.71054273576E-14 -0.11706931665E+03  0.14126297881E+03  0.79056968575E+02 0.  0.
         66    2    3    3    0    0 -0.71136087186E+01 -0.37648761575E+02 -0.41390034655E+02  0.56437289511E+02  0.20000003677E+01 0.  0.
         13    1    3    3    0    0  0.71136087186E+01  0.37648761575E+02 -0.75679281994E+02  0.84825689295E+02  0.10566000000E+00 0. -1.
         13    1    4    4    0    0 -0.63522984580E+01 -0.34287783819E+02 -0.37238914400E+02  0.51017170881E+02  0.10566000000E+00 0. -1.
        -13    1    4    4    0    0 -0.71462701678E+00 -0.23392502849E+01 -0.26992597488E+01  0.36441666943E+01  0.10566000000E+00 0.  1.
         14    1    4    4    0    0 -0.46683243753E-01 -0.10217274706E+01 -0.14518605056E+01  0.17759519355E+01  0.00000000000E+00 0. -1.
<mgrwt>
<rscale>  0 0.79056969E+02</rscale>
<asrwt>0</asrwt>
<pdfrwt beam="1">  1        1 0.19871714E-01 0.79056969E+02</pdfrwt>
<pdfrwt beam="2">  1       -2 0.18610510E-02 0.79056969E+02</pdfrwt>
<totfact> 0.15861579E+05</totfact>
</mgrwt>
</event>
<event>
 8    1  0.8247621E-014  0.7936445E+02  0.7818608E-02  0.1330865E+00
         -2   -1    0    0    0  501 -0.00000000000E+00  0.00000000000E+00  0.40314981432E+01  0.40314989496E+01  0.25500000000E-02 0.  1.
          1   -1    0    0  501    0  0.00000000000E+00 -0.00000000000E+00 -0.39059395003E+03  0.39059395006E+03  0.50400000000E-02 0. -1.
        -24    2    1    2    0    0  0.35527136788E-14 -0.35527136788E-14 -0.38656245188E+03  0.39462544901E+03  0.79364449215E+02 0.  0.
         66    2    3    3    0    0 -0.22027128014E+02 -0.30004840331E+02 -0.26143346839E+03  0.26407753257E+03  0.20000007863E+01 0.  0.
         13    1    3    3    0    0  0.22027128014E+02  0.30004840331E+02 -0.12512898350E+03  0.13054791644E+03  0.10566000000E+00 0. -1.
         13    1    4    4    0    0 -0.54947682650E+01 -0.63466619377E+01 -0.58297132962E+02  0.58898552374E+02  0.10566000000E+00 0. -1.
        -13    1    4    4    0    0 -0.17072231951E+01 -0.29443420084E+01 -0.23150868573E+02  0.23399949586E+02  0.10566000000E+00 0. -1.
        -14    1    4    4    0    0 -0.14825136554E+02 -0.20713836385E+02 -0.17998546685E+03  0.18177903061E+03  0.00000000000E+00 0.  1.
<mgrwt>
<rscale>  0 0.79364449E+02</rscale>
<asrwt>0</asrwt>
<pdfrwt beam="1">  1        1 0.60091347E-01 0.79364449E+02</pdfrwt>
<pdfrwt beam="2">  1       -2 0.62023086E-03 0.79364449E+02</pdfrwt>
<totfact> 0.19319384E+05</totfact>
</mgrwt>
</event>
<event>
 8    1  0.8247621E-014  0.8423673E+02  0.7818608E-02  0.1317441E+00
          1   -1    0    0  501    0  0.00000000000E+00  0.00000000000E+00  0.10043822717E+02  0.10043823982E+02  0.50400000000E-02 0. -1.
         -2   -1    0    0    0  501 -0.00000000000E+00 -0.00000000000E+00 -0.17662164716E+03  0.17662164717E+03  0.25500000000E-02 0.  1.
        -24    2    1    2    0    0 -0.71054273576E-14  0.17763568394E-14 -0.16657782444E+03  0.18666547116E+03  0.84236729086E+02 0.  0.
         66    2    3    3    0    0 -0.39537003491E+02  0.10384483282E+02 -0.10559921046E+03  0.11325283829E+03  0.19999979583E+01 0.  0.
         13    1    3    3    0    0  0.39537003491E+02 -0.10384483282E+02 -0.60978613977E+02  0.73412632869E+02  0.10566000000E+00 0. -1.
         13    1    4    4    0    0 -0.13429390310E+02  0.42725850050E+01 -0.35518545107E+02  0.38212324154E+02  0.10566000000E+00 0. -1.
        -13    1    4    4    0    0 -0.18582061213E+02  0.39702344734E+01 -0.49164886274E+02  0.52709135518E+02  0.10566000000E+00 0.  1.
         14    1    4    4    0    0 -0.75255519689E+01  0.21416638035E+01 -0.20915779081E+02  0.22331378615E+02  0.00000000000E+00 0. -1.
<mgrwt>
<rscale>  0 0.84236729E+02</rscale>
<asrwt>0</asrwt>
<pdfrwt beam="1">  1        1 0.15452037E-02 0.84236729E+02</pdfrwt>
<pdfrwt beam="2">  1       -2 0.27172559E-01 0.84236729E+02</pdfrwt>
<totfact> 0.78144064E+04</totfact>
</mgrwt>
</event>
<event>
 8    1  0.8247621E-014  0.7916928E+02  0.7818608E-02  0.1331426E+00
          1   -1    0    0  501    0  0.00000000000E+00  0.00000000000E+00  0.15589455243E+03  0.15589455251E+03  0.50400000000E-02 0. -1.
         -2   -1    0    0    0  501 -0.00000000000E+00 -0.00000000000E+00 -0.10051304909E+02  0.10051305232E+02  0.25500000000E-02 0.  1.
        -24    2    1    2    0    0  0.00000000000E+00  0.71054273576E-14  0.14584324752E+03  0.16594585775E+03  0.79169279743E+02 0.  0.
         66    2    3    3    0    0  0.18335632161E+01 -0.35153769865E+02  0.35134392759E+02  0.49775245382E+02  0.20000021254E+01 0.  0.
         13    1    3    3    0    0 -0.18335632161E+01  0.35153769865E+02  0.11070885476E+03  0.11617061236E+03  0.10566000000E+00 0. -1.
         13    1    4    4    0    0 -0.13972435462E+00 -0.78743539163E+01  0.72965914323E+01  0.10736683988E+02  0.10566000000E+00 0. -1.
        -13    1    4    4    0    0  0.18908053362E+00 -0.26520571749E+01  0.23220175782E+01  0.35315844002E+01  0.10566000000E+00 0.  1.
        -14    1    4    4    0    0  0.17842070371E+01 -0.24627358774E+02  0.25515783748E+02  0.35506976994E+02  0.00000000000E+00 0.  1.
<mgrwt>
<rscale>  0 0.79169280E+02</rscale>
<asrwt>0</asrwt>
<pdfrwt beam="1">  1        1 0.23983776E-01 0.79169280E+02</pdfrwt>
<pdfrwt beam="2">  1       -2 0.15463547E-02 0.79169280E+02</pdfrwt>
<totfact> 0.16350643E+05</totfact>
</mgrwt>
</event>
<event>
 8    1  0.8247621E-014  0.7934750E+02  0.7818608E-02  0.1330913E+00
         -2   -1    0    0    0  501 -0.00000000000E+00  0.00000000000E+00  0.24314009354E+03  0.24314009356E+03  0.25500000000E-02 0.  1.
          1   -1    0    0  501    0  0.00000000000E+00 -0.00000000000E+00 -0.64736593612E+01  0.64736613231E+01  0.50400000000E-02 0. -1.
        -24    2    1    2    0    0  0.00000000000E+00  0.00000000000E+00  0.23666643418E+03  0.24961375488E+03  0.79347498743E+02 0.  0.
         66    2    3    3    0    0  0.23054530674E+02  0.30909949297E+02  0.14742241049E+03  0.15239522126E+03  0.19999996129E+01 0.  0.
         13    1    3    3    0    0 -0.23054530674E+02 -0.30909949297E+02  0.89244023690E+02  0.97218533616E+02  0.10566000000E+00 0. -1.
         13    1    4    4    0    0  0.19742360890E+02  0.26456285232E+02  0.12569695768E+03  0.12995934817E+03  0.10566000000E+00 0. -1.
        -13    1    4    4    0    0  0.26847785870E+01  0.37663802360E+01  0.19029279828E+02  0.19583623540E+02  0.10566000000E+00 0.  1.
         14    1    4    4    0    0  0.62739119669E+00  0.68728382913E+00  0.26961729842E+01  0.28522495572E+01  0.00000000000E+00 0. -1.
<mgrwt>
<rscale>  0 0.79347499E+02</rscale>
<asrwt>0</asrwt>
<pdfrwt beam="1">  1        1 0.99594772E-03 0.79347499E+02</pdfrwt>
<pdfrwt beam="2">  1       -2 0.37406169E-01 0.79347499E+02</pdfrwt>
<totfact> 0.79804052E+04</totfact>
</mgrwt>
</event>
<event>
 8    1  0.8247621E-014  0.8487509E+02  0.7818608E-02  0.1315760E+00
         -2   -1    0    0    0  501 -0.00000000000E+00  0.00000000000E+00  0.55897516471E+02  0.55897516529E+02  0.25500000000E-02 0.  1.
          1   -1    0    0  501    0  0.00000000000E+00 -0.00000000000E+00 -0.32218696162E+02  0.32218696556E+02  0.50400000000E-02 0. -1.
        -24    2    1    2    0    0  0.35527136788E-14  0.00000000000E+00  0.23678820309E+02  0.88116213085E+02  0.84875087494E+02 0.  0.
         66    2    3    3    0    0 -0.11723683741E+02  0.35340189891E+02  0.32933338185E+02  0.49749156290E+02  0.20000013871E+01 0.  0.
         13    1    3    3    0    0  0.11723683741E+02 -0.35340189891E+02 -0.92545178761E+01  0.38367056795E+02  0.10566000000E+00 0. -1.
         13    1    4    4    0    0 -0.40288961512E+01  0.13069244305E+02  0.11628112366E+02  0.17951638146E+02  0.10566000000E+00 0. -1.
        -13    1    4    4    0    0 -0.44213620199E+01  0.11982890513E+02  0.12408032230E+02  0.17807541521E+02  0.10566000000E+00 0.  1.
        -14    1    4    4    0    0 -0.32734255700E+01  0.10288055072E+02  0.88971935892E+01  0.13989976623E+02  0.00000000000E+00 0.  1.
<mgrwt>
<rscale>  0 0.84875087E+02</rscale>
<asrwt>0</asrwt>
<pdfrwt beam="1">  1        1 0.49567225E-02 0.84875087E+02</pdfrwt>
<pdfrwt beam="2">  1       -2 0.85996179E-02 0.84875087E+02</pdfrwt>
<totfact> 0.10330036E+05</totfact>
</mgrwt>
</event>
<event>
 8    1  0.8247621E-014  0.7951613E+02  0.7818608E-02  0.1330430E+00
         -2   -1    0    0    0  501 -0.00000000000E+00  0.00000000000E+00  0.37950218749E+01  0.37950227316E+01  0.25500000000E-02 0.  1.
          1   -1    0    0  501    0  0.00000000000E+00 -0.00000000000E+00 -0.41652031716E+03  0.41652031719E+03  0.50400000000E-02 0. -1.
        -24    2    1    2    0    0  0.00000000000E+00  0.00000000000E+00 -0.41272529529E+03  0.42031533993E+03  0.79516134247E+02 0.  0.
         66    2    3    3    0    0  0.11959250513E+01 -0.39647738465E+02 -0.19429445287E+03  0.19831214741E+03  0.19999983425E+01 0.  0.
         13    1    3    3    0    0 -0.11959250513E+01  0.39647738465E+02 -0.21843084242E+03  0.22200319252E+03  0.10566000000E+00 0. -1.
         13    1    4    4    0    0  0.59892511842E+00 -0.11496435211E+02 -0.58141106567E+02  0.59269943232E+02  0.10566000000E+00 0.  1.
        -13    1    4    4    0    0  0.86081187146E+00 -0.23770155369E+02 -0.11680795030E+03  0.11920515803E+03  0.10566000000E+00 0.  1.
        -14    1    4    4    0    0 -0.26381193861E+00 -0.43811478839E+01 -0.19345395997E+02  0.19837046146E+02  0.00000000000E+00 0.  1.
<mgrwt>
<rscale>  0 0.79516134E+02</rscale>
<asrwt>0</asrwt>
<pdfrwt beam="1">  1        1 0.64080013E-01 0.79516134E+02</pdfrwt>
<pdfrwt beam="2">  1       -2 0.58384991E-03 0.79516134E+02</pdfrwt>
<totfact> 0.19423931E+05</totfact>
</mgrwt>
</event>
<event>
 8    1  0.8247621E-014  0.8081356E+02  0.7818608E-02  0.1326758E+00
         -2   -1    0    0    0  501 -0.00000000000E+00  0.00000000000E+00  0.49532468896E+03  0.49532468896E+03  0.25500000000E-02 0.  1.
          1   -1    0    0  501    0  0.00000000000E+00 -0.00000000000E+00 -0.32962356443E+01  0.32962394974E+01  0.50400000000E-02 0. -1.
        -24    2    1    2    0    0  0.35527136788E-14  0.17763568394E-14  0.49202845331E+03  0.49862092846E+03  0.80813559692E+02 0.  0.
         66    2    3    3    0    0  0.30938054260E+02  0.15292795171E+02  0.37553929657E+03  0.37712702907E+03  0.20000011589E+01 0.  0.
         13    1    3    3    0    0 -0.30938054260E+02 -0.15292795171E+02  0.11648915674E+03  0.12149389939E+03  0.10566000000E+00 0. -1.
         13    1    4    4    0    0  0.28293415133E+01  0.18464024499E+01  0.37487518199E+02  0.37639600956E+02  0.10566000000E+00 0.  1.
        -13    1    4    4    0    0  0.26651073363E+02  0.12743696845E+02  0.31697218515E+03  0.31834581643E+03  0.10566000000E+00 0. -1.
         14    1    4    4    0    0  0.14576393834E+01  0.70269587591E+00  0.21079593226E+02  0.21141611685E+02  0.00000000000E+00 0. -1.
<mgrwt>
<rscale>  0 0.80813560E+02</rscale>
<asrwt>0</asrwt>
<pdfrwt beam="1">  1        1 0.50711333E-03 0.80813560E+02</pdfrwt>
<pdfrwt beam="2">  1       -2 0.76203820E-01 0.80813560E+02</pdfrwt>
<totfact> 0.49441284E+04</totfact>
</mgrwt>
</event>
<event>
 8    1  0.8247621E-014  0.7842341E+02  0.7818608E-02  0.1333586E+00
         -2   -1    0    0    0  501 -0.00000000000E+00  0.00000000000E+00  0.14779327798E+03  0.14779327800E+03  0.25500000000E-02 0.  1.
          1   -1    0    0  501    0  0.00000000000E+00 -0.00000000000E+00 -0.10403435308E+02  0.10403436529E+02  0.50400000000E-02 0. -1.
        -24    2    1    2    0    0  0.00000000000E+00  0.00000000000E+00  0.13738984267E+03  0.15819671453E+03  0.78423412442E+02 0.  0.
         66    2    3    3    0    0 -0.81355496527E+01  0.21976415300E+02  0.13209418495E+03  0.13417162031E+03  0.20000006629E+01 0.  0.
         13    1    3    3    0    0  0.81355496527E+01 -0.21976415300E+02  0.52956577283E+01  0.24025094223E+02  0.10566000000E+00 0. -1.
         13    1    4    4    0    0 -0.14937242677E+01  0.58142019558E+01  0.35476912312E+02  0.35981365007E+02  0.10566000000E+00 0. -1.
        -13    1    4    4    0    0 -0.43422208654E+01  0.10696090061E+02  0.66523080230E+02  0.67517350303E+02  0.10566000000E+00 0.  1.
         14    1    4    4    0    0 -0.22996045196E+01  0.54661232829E+01  0.30094192404E+02  0.30672905000E+02  0.00000000000E+00 0. -1.
<mgrwt>
<rscale>  0 0.78423412E+02</rscale>
<asrwt>0</asrwt>
<pdfrwt beam="1">  1        1 0.16005287E-02 0.78423412E+02</pdfrwt>
<pdfrwt beam="2">  1       -2 0.22737426E-01 0.78423412E+02</pdfrwt>
<totfact> 0.99957285E+04</totfact>
</mgrwt>
</event>
<event>
 8    1  0.8247621E-014  0.8021100E+02  0.7818608E-02  0.1328454E+00
         -2   -1    0    0    0  501 -0.00000000000E+00  0.00000000000E+00  0.75477255087E+02  0.75477255130E+02  0.25500000000E-02 0.  1.
          1   -1    0    0  501    0  0.00000000000E+00 -0.00000000000E+00 -0.21310408427E+02  0.21310409023E+02  0.50400000000E-02 0. -1.
        -24    2    1    2    0    0  0.71054273576E-14  0.22204460493E-15  0.54166846660E+02  0.96787664154E+02  0.80211000836E+02 0.  0.
         66    2    3    3    0    0  0.37094248295E+02  0.16223207144E+01  0.88867527833E+01  0.38230741022E+02  0.20000007626E+01 0.  0.
         13    1    3    3    0    0 -0.37094248295E+02 -0.16223207144E+01  0.45280093877E+02  0.58556923131E+02  0.10566000000E+00 0. -1.
         13    1    4    4    0    0  0.51361857257E+00  0.10666082869E+00  0.30711739910E-01  0.53599236658E+00  0.10566000000E+00 0.  1.
        -13    1    4    4    0    0  0.18022101460E+01 -0.16954023620E+00  0.60199388332E+00  0.19105669245E+01  0.10566000000E+00 0.  1.
        -14    1    4    4    0    0  0.34778419576E+02  0.16852001219E+01  0.82540471601E+01  0.35784181731E+02  0.00000000000E+00 0.  1.
<mgrwt>
<rscale>  0 0.80211001E+02</rscale>
<asrwt>0</asrwt>
<pdfrwt beam="1">  1        1 0.32785244E-02 0.80211001E+02</pdfrwt>
<pdfrwt beam="2">  1       -2 0.11611886E-01 0.80211001E+02</pdfrwt>
<totfact> 0.11239492E+05</totfact>
</mgrwt>
</event>
<event>
 8    1  0.8247621E-014  0.8235682E+02  0.7818608E-02  0.1322493E+00
         -2   -1    0    0    0  501 -0.00000000000E+00  0.00000000000E+00  0.10897535679E+03  0.10897535682E+03  0.25500000000E-02 0.  1.
          1   -1    0    0  501    0  0.00000000000E+00 -0.00000000000E+00 -0.15560045226E+02  0.15560046042E+02  0.50400000000E-02 0. -1.
        -24    2    1    2    0    0  0.00000000000E+00 -0.17763568394E-14  0.93415311567E+02  0.12453540286E+03  0.82356822009E+02 0.  0.
         66    2    3    3    0    0 -0.24330334766E+02  0.10515090823E+02  0.94340642053E+02  0.98013718804E+02  0.20000015208E+01 0.  0.
         13    1    3    3    0    0  0.24330334766E+02 -0.10515090823E+02 -0.92533048569E+00  0.26521684060E+02  0.10566000000E+00 0. -1.
         13    1    4    4    0    0 -0.10217085670E+02  0.37140347012E+01  0.40677473312E+02  0.42105235926E+02  0.10566000000E+00 0. -1.
        -13    1    4    4    0    0 -0.11294690985E+02  0.52584245433E+01  0.43547367687E+02  0.45294651667E+02  0.10566000000E+00 0.  1.
        -14    1    4    4    0    0 -0.28185581106E+01  0.15426315790E+01  0.10115801054E+02  0.10613831211E+02  0.00000000000E+00 0.  1.
<mgrwt>
<rscale>  0 0.82356822E+02</rscale>
<asrwt>0</asrwt>
<pdfrwt beam="1">  1        1 0.23938531E-02 0.82356822E+02</pdfrwt>
<pdfrwt beam="2">  1       -2 0.16765440E-01 0.82356822E+02</pdfrwt>
<totfact> 0.96373449E+04</totfact>
</mgrwt>
</event>
<event>
 8    1  0.8247621E-014  0.7894681E+02  0.7818608E-02  0.1332067E+00
         -2   -1    0    0    0  501 -0.00000000000E+00  0.00000000000E+00  0.71071329418E+02  0.71071329464E+02  0.25500000000E-02 0.  1.
          1   -1    0    0  501    0  0.00000000000E+00 -0.00000000000E+00 -0.21923746308E+02  0.21923746888E+02  0.50400000000E-02 0. -1.
        -24    2    1    2    0    0  0.35527136788E-14 -0.11102230246E-15  0.49147583110E+02  0.92995076351E+02  0.78946813109E+02 0.  0.
         66    2    3    3    0    0 -0.23711762858E+02  0.54139264297E+00  0.61720124442E+02  0.66150695870E+02  0.19999998028E+01 0.  0.
         13    1    3    3    0    0  0.23711762858E+02 -0.54139264297E+00 -0.12572541332E+02  0.26844380481E+02  0.10566000000E+00 0. -1.
         13    1    4    4    0    0 -0.35077371770E+01 -0.20699515343E+00  0.95511645450E+01  0.10177572171E+02  0.10566000000E+00 0. -1.
        -13    1    4    4    0    0 -0.31661977962E+01 -0.58609974727E-01  0.98062367907E+01  0.10305420304E+02  0.10566000000E+00 0.  1.
         14    1    4    4    0    0 -0.17037827885E+02  0.80699777113E+00  0.42362723106E+02  0.45667703395E+02  0.00000000000E+00 0. -1.
<mgrwt>
<rscale>  0 0.78946813E+02</rscale>
<asrwt>0</asrwt>
<pdfrwt beam="1">  1        1 0.33728841E-02 0.78946813E+02</pdfrwt>
<pdfrwt beam="2">  1       -2 0.10934051E-01 0.78946813E+02</pdfrwt>
<totfact> 0.11848275E+05</totfact>
</mgrwt>
</event>
<event>
 8    1  0.8247621E-014  0.8129386E+02  0.7818608E-02  0.1325419E+00
         -2   -1    0    0    0  501 -0.00000000000E+00  0.00000000000E+00  0.62025852223E+02  0.62025852275E+02  0.25500000000E-02 0.  1.
          1   -1    0    0  501    0  0.00000000000E+00 -0.00000000000E+00 -0.26636843817E+02  0.26636844294E+02  0.50400000000E-02 0. -1.
        -24    2    1    2    0    0  0.17763568394E-14  0.35527136788E-14  0.35389008405E+02  0.88662696569E+02  0.81293861066E+02 0.  0.
         66    2    3    3    0    0  0.12801709196E+02  0.18965294599E+02  0.54312544093E+02  0.58969641413E+02  0.20000012381E+01 0.  0.
         13    1    3    3    0    0 -0.12801709196E+02 -0.18965294599E+02 -0.18923535688E+02  0.29693055156E+02  0.10566000000E+00 0. -1.
         13    1    4    4    0    0  0.54457495682E+01  0.65118439504E+01  0.19971578742E+02  0.21701046553E+02  0.10566000000E+00 0. -1.
        -13    1    4    4    0    0  0.62840284472E+01  0.10170562464E+02  0.28162421015E+02  0.30595138108E+02  0.10566000000E+00 0.  1.
         14    1    4    4    0    0  0.10719311801E+01  0.22828881846E+01  0.61785443356E+01  0.66734567523E+01  0.00000000000E+00 0. -1.
<mgrwt>
<rscale>  0 0.81293861E+02</rscale>
<asrwt>0</asrwt>
<pdfrwt beam="1">  1        1 0.40979760E-02 0.81293861E+02</pdfrwt>
<pdfrwt beam="2">  1       -2 0.95424388E-02 0.81293861E+02</pdfrwt>
<totfact> 0.11296934E+05</totfact>
</mgrwt>
</event>
<event>
 8    1  0.8247621E-014  0.7636148E+02  0.7818608E-02  0.1339706E+00
          1   -1    0    0  501    0  0.00000000000E+00  0.00000000000E+00  0.15614315654E+02  0.15614316467E+02  0.50400000000E-02 0. -1.
         -2   -1    0    0    0  501 -0.00000000000E+00 -0.00000000000E+00 -0.93361053929E+02  0.93361053963E+02  0.25500000000E-02 0.  1.
        -24    2    1    2    0    0  0.00000000000E+00  0.00000000000E+00 -0.77746738275E+02  0.10897537043E+03  0.76361482752E+02 0.  0.
         66    2    3    3    0    0  0.10485706321E+02  0.80742925586E+01 -0.89969756711E+02  0.90959888724E+02  0.19999991869E+01 0.  0.
         13    1    3    3    0    0 -0.10485706321E+02 -0.80742925586E+01  0.12223018436E+02  0.18015481706E+02  0.10566000000E+00 0. -1.
         13    1    4    4    0    0  0.26088352432E+01  0.25058975553E+01 -0.25495163630E+02  0.25750729629E+02  0.10566000000E+00 0. -1.
        -13    1    4    4    0    0  0.59326124898E+01  0.44073417385E+01 -0.53035155531E+02  0.53547730469E+02  0.10566000000E+00 0.  1.
         14    1    4    4    0    0  0.19442585881E+01  0.11610532647E+01 -0.11439437551E+02  0.11661428627E+02  0.00000000000E+00 0. -1.
<mgrwt>
<rscale>  0 0.76361483E+02</rscale>
<asrwt>0</asrwt>
<pdfrwt beam="1">  1        1 0.24022025E-02 0.76361483E+02</pdfrwt>
<pdfrwt beam="2">  1       -2 0.14363239E-01 0.76361483E+02</pdfrwt>
<totfact> 0.12153733E+05</totfact>
</mgrwt>
</event>
<event>
 8    1  0.8247621E-014  0.7864328E+02  0.7818608E-02  0.1332946E+00
         -2   -1    0    0    0  501 -0.00000000000E+00  0.00000000000E+00  0.11187273937E+02  0.11187274228E+02  0.25500000000E-02 0.  1.
          1   -1    0    0  501    0  0.00000000000E+00 -0.00000000000E+00 -0.13820982288E+03  0.13820982297E+03  0.50400000000E-02 0. -1.
        -24    2    1    2    0    0 -0.88817841970E-15  0.00000000000E+00 -0.12702254894E+03  0.14939709720E+03  0.78643275056E+02 0.  0.
         66    2    3    3    0    0 -0.70782369715E+01 -0.23682177564E+02 -0.55189621022E+01  0.25404840377E+02  0.19999997733E+01 0.  0.
         13    1    3    3    0    0  0.70782369715E+01  0.23682177564E+02 -0.12150358684E+03  0.12399225682E+03  0.10566000000E+00 0. -1.
         13    1    4    4    0    0 -0.12843885426E+01 -0.47717145838E+01 -0.13855026531E+01  0.51331954605E+01  0.10566000000E+00 0. -1.
        -13    1    4    4    0    0  0.71592824202E-01 -0.48418531169E+00 -0.19494428766E+00  0.53733440186E+00  0.10566000000E+00 0.  1.
        -14    1    4    4    0    0 -0.58654412531E+01 -0.18426277668E+02 -0.39385151615E+01  0.19734310514E+02  0.00000000000E+00 0.  1.
<mgrwt>
<rscale>  0 0.78643275E+02</rscale>
<asrwt>0</asrwt>
<pdfrwt beam="1">  1        1 0.21263049E-01 0.78643275E+02</pdfrwt>
<pdfrwt beam="2">  1       -2 0.17211192E-02 0.78643275E+02</pdfrwt>
<totfact> 0.16281842E+05</totfact>
</mgrwt>
</event>
<event>
 8    1  0.8247621E-014  0.7782701E+02  0.7818608E-02  0.1335334E+00
         -2   -1    0    0    0  501 -0.00000000000E+00  0.00000000000E+00  0.65448512682E+01  0.65448517649E+01  0.25500000000E-02 0.  1.
          1   -1    0    0  501    0  0.00000000000E+00 -0.00000000000E+00 -0.23136672517E+03  0.23136672523E+03  0.50400000000E-02 0. -1.
        -24    2    1    2    0    0  0.00000000000E+00  0.00000000000E+00 -0.22482187390E+03  0.23791157699E+03  0.77827009972E+02 0.  0.
         66    2    3    3    0    0  0.51502557559E+01  0.32286147255E+02 -0.48119709906E+02  0.58210195905E+02  0.19999967367E+01 0.  0.
         13    1    3    3    0    0 -0.51502557559E+01 -0.32286147255E+02 -0.17670216400E+03  0.17970138109E+03  0.10566000000E+00 0. -1.
         13    1    4    4    0    0  0.28716518113E+01  0.15235393925E+02 -0.24247191665E+02  0.28780220289E+02  0.10566000000E+00 0. -1.
        -13    1    4    4    0    0  0.25708815600E+00  0.15256897591E+01 -0.19678874965E+01  0.25055076922E+01  0.10566000000E+00 0.  1.
         14    1    4    4    0    0  0.20215157886E+01  0.15525063571E+02 -0.21904630744E+02  0.26924467924E+02  0.00000000000E+00 0. -1.
<mgrwt>
<rscale>  0 0.77827010E+02</rscale>
<asrwt>0</asrwt>
<pdfrwt beam="1">  1        1 0.35594875E-01 0.77827010E+02</pdfrwt>
<pdfrwt beam="2">  1       -2 0.10069004E-02 0.77827010E+02</pdfrwt>
<totfact> 0.18449636E+05</totfact>
</mgrwt>
</event>
<event>
 8    1  0.8247621E-014  0.8217851E+02  0.7818608E-02  0.1322980E+00
         -2   -1    0    0    0  501 -0.00000000000E+00  0.00000000000E+00  0.13362953177E+02  0.13362953421E+02  0.25500000000E-02 0.  1.
          1   -1    0    0  501    0  0.00000000000E+00 -0.00000000000E+00 -0.12634383454E+03  0.12634383464E+03  0.50400000000E-02 0. -1.
        -24    2    1    2    0    0  0.35527136788E-14  0.00000000000E+00 -0.11298088136E+03  0.13970678806E+03  0.82178507391E+02 0.  0.
         66    2    3    3    0    0 -0.28189777272E+02 -0.27531561330E+02 -0.36868561841E+02  0.53999456060E+02  0.19999976492E+01 0.  0.
         13    1    3    3    0    0  0.28189777272E+02  0.27531561330E+02 -0.76112319523E+02  0.85707332003E+02  0.10566000000E+00 0. -1.
         13    1    4    4    0    0 -0.33709574254E+01 -0.27951112862E+01 -0.37359955843E+01  0.57571545148E+01  0.10566000000E+00 0. -1.
        -13    1    4    4    0    0 -0.92750325864E+01 -0.95433511730E+01 -0.11778463032E+02  0.17772032425E+02  0.10566000000E+00 0.  1.
        -14    1    4    4    0    0 -0.15543787260E+02 -0.15193098871E+02 -0.21354103225E+02  0.30470269120E+02  0.00000000000E+00 0.  1.
<mgrwt>
<rscale>  0 0.82178507E+02</rscale>
<asrwt>0</asrwt>
<pdfrwt beam="1">  1        1 0.19437512E-01 0.82178507E+02</pdfrwt>
<pdfrwt beam="2">  1       -2 0.20558391E-02 0.82178507E+02</pdfrwt>
<totfact> 0.14238517E+05</totfact>
</mgrwt>
</event>
<event>
 8    1  0.8935217E-014  0.8571473E+02  0.7818608E-02  0.1313574E+00
          1   -1    0    0  501    0  0.00000000000E+00  0.00000000000E+00  0.13230359357E+03  0.13230359367E+03  0.50400000000E-02 0. -1.
         -2   -1    0    0    0  501 -0.00000000000E+00 -0.00000000000E+00 -0.13882871919E+02  0.13882872153E+02  0.25500000000E-02 0.  1.
        -24    2    1    2    0    0  0.17763568394E-14  0.35527136788E-14  0.11842072165E+03  0.14618646582E+03  0.85714733111E+02 0.  0.
         66    2    3    3    0    0  0.11339746084E+02  0.27442344602E+02  0.65904169002E+01  0.30481235413E+02  0.19999997244E+01 0.  0.
         13    1    3    3    0    0 -0.11339746084E+02 -0.27442344602E+02  0.11183030475E+03  0.11570523041E+03  0.10566000000E+00 0. -1.
         13    1    4    4    0    0  0.88062421444E+00  0.29797812258E+01  0.99805794809E+00  0.32652532618E+01  0.10566000000E+00 0. -1.
        -13    1    4    4    0    0  0.50980044687E+01  0.12473204229E+02  0.34399611935E+01  0.13907371080E+02  0.10566000000E+00 0.  1.
        -14    1    4    4    0    0  0.53611174010E+01  0.11989359147E+02  0.21523977586E+01  0.13308611071E+02  0.00000000000E+00 0.  1.
<mgrwt>
<rscale>  0 0.85714733E+02</rscale>
<asrwt>0</asrwt>
<pdfrwt beam="1">  1        1 0.20354399E-01 0.85714733E+02</pdfrwt>
<pdfrwt beam="2">  1       -2 0.21358265E-02 0.85714733E+02</pdfrwt>
<totfact> 0.12815707E+05</totfact>
</mgrwt>
</event>
<event>
 8    1  0.8247621E-014  0.8056626E+02  0.7818608E-02  0.1327452E+00
         -2   -1    0    0    0  501 -0.00000000000E+00  0.00000000000E+00  0.13569585176E+03  0.13569585178E+03  0.25500000000E-02 0.  1.
          1   -1    0    0  501    0  0.00000000000E+00 -0.00000000000E+00 -0.11958585097E+02  0.11958586159E+02  0.50400000000E-02 0. -1.
        -24    2    1    2    0    0  0.00000000000E+00  0.35527136788E-14  0.12373726666E+03  0.14765443794E+03  0.80566257718E+02 0.  0.
         66    2    3    3    0    0 -0.24571904425E+02  0.27431228180E+02  0.91711398389E+02  0.98849538912E+02  0.19999955577E+01 0.  0.
         13    1    3    3    0    0  0.24571904425E+02 -0.27431228180E+02  0.32025868274E+02  0.48804899029E+02  0.10566000000E+00 0. -1.
         13    1    4    4    0    0 -0.72238413640E+01  0.81431608104E+01  0.28935131945E+02  0.30915173891E+02  0.10566000000E+00 0. -1.
        -13    1    4    4    0    0 -0.97596857311E+01  0.10840875191E+02  0.36721504981E+02  0.39512733803E+02  0.10566000000E+00 0.  1.
         14    1    4    4    0    0 -0.75883773304E+01  0.84471921778E+01  0.26054761463E+02  0.28421631218E+02  0.00000000000E+00 0. -1.
<mgrwt>
<rscale>  0 0.80566258E+02</rscale>
<asrwt>0</asrwt>
<pdfrwt beam="1">  1        1 0.18397825E-02 0.80566258E+02</pdfrwt>
<pdfrwt beam="2">  1       -2 0.20876284E-01 0.80566258E+02</pdfrwt>
<totfact> 0.95809949E+04</totfact>
</mgrwt>
</event>
<event>
 8    1  0.8247621E-014  0.8074291E+02  0.7818608E-02  0.1326956E+00
         -2   -1    0    0    0  501 -0.00000000000E+00  0.00000000000E+00  0.36243234171E+03  0.36243234172E+03  0.25500000000E-02 0.  1.
          1   -1    0    0  501    0  0.00000000000E+00 -0.00000000000E+00 -0.44969882593E+01  0.44969910836E+01  0.50400000000E-02 0. -1.
        -24    2    1    2    0    0  0.00000000000E+00  0.00000000000E+00  0.35793535345E+03  0.36692933280E+03  0.80742913133E+02 0.  0.
         66    2    3    3    0    0 -0.38155751862E+02  0.55452315908E+01  0.23308474518E+03  0.23626068108E+03  0.19999987309E+01 0.  0.
         13    1    3    3    0    0  0.38155751862E+02 -0.55452315908E+01  0.12485060827E+03  0.13066865173E+03  0.10566000000E+00 0. -1.
         13    1    4    4    0    0 -0.17622759729E+02  0.18401256219E+01  0.10871715580E+03  0.11015161757E+03  0.10566000000E+00 0.  1.
        -13    1    4    4    0    0 -0.19697486913E+01  0.20824098737E+00  0.10617039344E+02  0.10800738988E+02  0.10566000000E+00 0. -1.
        -14    1    4    4    0    0 -0.18563243443E+02  0.34968649815E+01  0.11375055003E+03  0.11530832452E+03  0.00000000000E+00 0.  1.
<mgrwt>
<rscale>  0 0.80742913E+02</rscale>
<asrwt>0</asrwt>
<pdfrwt beam="1">  1        1 0.69184443E-03 0.80742913E+02</pdfrwt>
<pdfrwt beam="2">  1       -2 0.55758833E-01 0.80742913E+02</pdfrwt>
<totfact> 0.61465782E+04</totfact>
</mgrwt>
</event>
<event>
 8    1  0.8247621E-014  0.8249176E+02  0.7818608E-02  0.1322125E+00
         -2   -1    0    0    0  501 -0.00000000000E+00  0.00000000000E+00  0.10168619119E+03  0.10168619122E+03  0.25500000000E-02 0.  1.
          1   -1    0    0  501    0  0.00000000000E+00 -0.00000000000E+00 -0.16730122783E+02  0.16730123543E+02  0.50400000000E-02 0. -1.
        -24    2    1    2    0    0  0.17763568394E-14 -0.17763568394E-14  0.84956068406E+02  0.11841631476E+03  0.82491757426E+02 0.  0.
         66    2    3    3    0    0  0.13011396788E+02  0.14348059754E+02  0.94737004594E+02  0.96717440557E+02  0.20000008333E+01 0.  0.
         13    1    3    3    0    0 -0.13011396788E+02 -0.14348059754E+02 -0.97809361884E+01  0.21698874207E+02  0.10566000000E+00 0. -1.
         13    1    4    4    0    0  0.42810926736E+01  0.53794427316E+01  0.37743815130E+02  0.38364995806E+02  0.10566000000E+00 0. -1.
        -13    1    4    4    0    0  0.21016537000E+01  0.20187543621E+01  0.13608429546E+02  0.13917357371E+02  0.10566000000E+00 0.  1.
         14    1    4    4    0    0  0.66286504142E+01  0.69498626607E+01  0.43384759918E+02  0.44435087380E+02  0.00000000000E+00 0. -1.
<mgrwt>
<rscale>  0 0.82491757E+02</rscale>
<asrwt>0</asrwt>
<pdfrwt beam="1">  1        1 0.25738651E-02 0.82491757E+02</pdfrwt>
<pdfrwt beam="2">  1       -2 0.15644029E-01 0.82491757E+02</pdfrwt>
<totfact> 0.97699467E+04</totfact>
</mgrwt>
</event>
<event>
 8    1  0.8247621E-014  0.8088822E+02  0.7818608E-02  0.1326550E+00
          1   -1    0    0  501    0  0.00000000000E+00  0.00000000000E+00  0.72819340052E+01  0.72819357493E+01  0.50400000000E-02 0. -1.
         -2   -1    0    0    0  501 -0.00000000000E+00 -0.00000000000E+00 -0.22462791202E+03  0.22462791203E+03  0.25500000000E-02 0.  1.
        -24    2    1    2    0    0 -0.35527136788E-14  0.35527136788E-14 -0.21734597801E+03  0.23190984778E+03  0.80888215086E+02 0.  0.
         66    2    3    3    0    0 -0.18117878049E+02  0.21676512348E+02 -0.19161568679E+03  0.19369744478E+03  0.19999997847E+01 0.  0.
         13    1    3    3    0    0  0.18117878049E+02 -0.21676512348E+02 -0.25730291227E+02  0.38212403002E+02  0.10566000000E+00 0. -1.
         13    1    4    4    0    0 -0.73353653589E+00  0.11664103183E+01 -0.84229521008E+01  0.85355653011E+01  0.10566000000E+00 0. -1.
        -13    1    4    4    0    0 -0.46448063876E+01  0.45496451624E+01 -0.42320265911E+02  0.42816930860E+02  0.10566000000E+00 0.  1.
        -14    1    4    4    0    0 -0.12739535125E+02  0.15960456867E+02 -0.14087246878E+03  0.14234494862E+03  0.00000000000E+00 0.  1.
<mgrwt>
<rscale>  0 0.80888215E+02</rscale>
<asrwt>0</asrwt>
<pdfrwt beam="1">  1        1 0.11202978E-02 0.80888215E+02</pdfrwt>
<pdfrwt beam="2">  1       -2 0.34558135E-01 0.80888215E+02</pdfrwt>
<totfact> 0.78719221E+04</totfact>
</mgrwt>
</event>
<event>
 8    1  0.8247621E-014  0.7539069E+02  0.7818608E-02  0.1342665E+00
          1   -1    0    0  501    0  0.00000000000E+00  0.00000000000E+00  0.59973090217E+02  0.59973090429E+02  0.50400000000E-02 0. -1.
         -2   -1    0    0    0  501 -0.00000000000E+00 -0.00000000000E+00 -0.23692944370E+02  0.23692944507E+02  0.25500000000E-02 0.  1.
        -24    2    1    2    0    0  0.00000000000E+00  0.00000000000E+00  0.36280145847E+02  0.83666034936E+02  0.75390691861E+02 0.  0.
         66    2    3    3    0    0  0.10336910622E+02 -0.31192309676E+02 -0.22838435743E+01  0.33000421861E+02  0.19999993605E+01 0.  0.
         13    1    3    3    0    0 -0.10336910622E+02  0.31192309676E+02  0.38563989422E+02  0.50665613075E+02  0.10566000000E+00 0. -1.
         13    1    4    4    0    0  0.13295117603E+01 -0.31677672050E+01 -0.18747458840E+00  0.34421884526E+01  0.10566000000E+00 0. -1.
        -13    1    4    4    0    0  0.16345008038E+01 -0.34661305083E+01 -0.29086237719E-01  0.38337532031E+01  0.10566000000E+00 0.  1.
         14    1    4    4    0    0  0.73728980575E+01 -0.24558411962E+02 -0.20672827482E+01  0.25724480206E+02  0.00000000000E+00 0. -1.
<mgrwt>
<rscale>  0 0.75390692E+02</rscale>
<asrwt>0</asrwt>
<pdfrwt beam="1">  1        1 0.92266291E-02 0.75390692E+02</pdfrwt>
<pdfrwt beam="2">  1       -2 0.36450685E-02 0.75390692E+02</pdfrwt>
<totfact> 0.15931163E+05</totfact>
</mgrwt>
</event>
<event>
 8    1  0.8247621E-014  0.8118843E+02  0.7818608E-02  0.1325712E+00
          1   -1    0    0  501    0  0.00000000000E+00  0.00000000000E+00  0.20180366398E+03  0.20180366404E+03  0.50400000000E-02 0. -1.
         -2   -1    0    0    0  501 -0.00000000000E+00 -0.00000000000E+00 -0.81658084184E+01  0.81658088166E+01  0.25500000000E-02 0.  1.
        -24    2    1    2    0    0  0.00000000000E+00  0.00000000000E+00  0.19363785556E+03  0.20996947286E+03  0.81188425446E+02 0.  0.
         66    2    3    3    0    0  0.33233116597E+02 -0.23224133262E+02  0.93143416107E+02  0.10160460803E+03  0.20000010104E+01 0.  0.
         13    1    3    3    0    0 -0.33233116597E+02  0.23224133262E+02  0.10049443945E+03  0.10836486483E+03  0.10566000000E+00 0. -1.
         13    1    4    4    0    0  0.18693844845E+01 -0.10843072875E+01  0.41917627524E+01  0.47172406821E+01  0.10566000000E+00 0. -1.
        -13    1    4    4    0    0  0.16095297853E+02 -0.11472300284E+02  0.44629419613E+02  0.48810537242E+02  0.10566000000E+00 0.  1.
         14    1    4    4    0    0  0.15268434259E+02 -0.10667525691E+02  0.44322233741E+02  0.48076830105E+02  0.00000000000E+00 0. -1.
<mgrwt>
<rscale>  0 0.81188425E+02</rscale>
<asrwt>0</asrwt>
<pdfrwt beam="1">  1        1 0.31046718E-01 0.81188425E+02</pdfrwt>
<pdfrwt beam="2">  1       -2 0.12562782E-02 0.81188425E+02</pdfrwt>
<totfact> 0.16061303E+05</totfact>
</mgrwt>
</event>
<event>
 8    1  0.8247621E-014  0.8107871E+02  0.7818608E-02  0.1326018E+00
         -2   -1    0    0    0  501 -0.00000000000E+00  0.00000000000E+00  0.20379487380E+02  0.20379487539E+02  0.25500000000E-02 0.  1.
          1   -1    0    0  501    0  0.00000000000E+00 -0.00000000000E+00 -0.80641843254E+02  0.80641843412E+02  0.50400000000E-02 0. -1.
        -24    2    1    2    0    0  0.00000000000E+00 -0.71054273576E-14 -0.60262355875E+02  0.10102133095E+03  0.81078713430E+02 0.  0.
         66    2    3    3    0    0 -0.90992987848E+01  0.33463013663E+02 -0.40476172335E+01  0.34970755432E+02  0.20000021071E+01 0.  0.
         13    1    3    3    0    0  0.90992987848E+01 -0.33463013663E+02 -0.56214738641E+02  0.66050575519E+02  0.10566000000E+00 0. -1.
         13    1    4    4    0    0 -0.93231601878E+00  0.61207659889E+01 -0.65036378687E+00  0.62263252839E+01  0.10566000000E+00 0. -1.
        -13    1    4    4    0    0 -0.66771755746E+01  0.22802408577E+02 -0.30240334053E+01  0.23951836102E+02  0.10566000000E+00 0.  1.
         14    1    4    4    0    0 -0.14898071914E+01  0.45398390974E+01 -0.37322004129E+00  0.47925940468E+01  0.00000000000E+00 0. -1.
<mgrwt>
<rscale>  0 0.81078713E+02</rscale>
<asrwt>0</asrwt>
<pdfrwt beam="1">  1        1 0.12406437E-01 0.81078713E+02</pdfrwt>
<pdfrwt beam="2">  1       -2 0.31353058E-02 0.81078713E+02</pdfrwt>
<totfact> 0.13679061E+05</totfact>
</mgrwt>
</event>
<event>
 8    1  0.8247621E-014  0.7940516E+02  0.7818608E-02  0.1330748E+00
         -2   -1    0    0    0  501 -0.00000000000E+00  0.00000000000E+00  0.65769931939E+01  0.65769936883E+01  0.25500000000E-02 0.  1.
          1   -1    0    0  501    0  0.00000000000E+00 -0.00000000000E+00 -0.23966802470E+03  0.23966802475E+03  0.50400000000E-02 0. -1.
        -24    2    1    2    0    0  0.35527136788E-14  0.35527136788E-14 -0.23309103151E+03  0.24624501844E+03  0.79405164433E+02 0.  0.
         66    2    3    3    0    0  0.22714478706E+02  0.25940217085E+02 -0.55735492074E+02  0.65568952133E+02  0.20000004547E+01 0.  0.
         13    1    3    3    0    0 -0.22714478706E+02 -0.25940217085E+02 -0.17735553943E+03  0.18067606631E+03  0.10566000000E+00 0. -1.
         13    1    4    4    0    0  0.38338777032E+01  0.44105048831E+01 -0.93154089465E+01  0.10997235082E+02  0.10566000000E+00 0. -1.
        -13    1    4    4    0    0  0.11910018215E+02  0.14548932034E+02 -0.29356248932E+02  0.34861446794E+02  0.10566000000E+00 0.  1.
         14    1    4    4    0    0  0.69705827878E+01  0.69807801683E+01 -0.17063834196E+02  0.19710270257E+02  0.00000000000E+00 0. -1.
<mgrwt>
<rscale>  0 0.79405164E+02</rscale>
<asrwt>0</asrwt>
<pdfrwt beam="1">  1        1 0.36871997E-01 0.79405164E+02</pdfrwt>
<pdfrwt beam="2">  1       -2 0.10118453E-02 0.79405164E+02</pdfrwt>
<totfact> 0.17616941E+05</totfact>
</mgrwt>
</event>
<event>
 8    1  0.8247621E-014  0.7933083E+02  0.7818608E-02  0.1330961E+00
         -2   -1    0    0    0  501 -0.00000000000E+00  0.00000000000E+00  0.11856299399E+02  0.11856299673E+02  0.25500000000E-02 0.  1.
          1   -1    0    0  501    0  0.00000000000E+00 -0.00000000000E+00 -0.13270119504E+03  0.13270119513E+03  0.50400000000E-02 0. -1.
        -24    2    1    2    0    0  0.00000000000E+00 -0.17763568394E-14 -0.12084489564E+03  0.14455749481E+03  0.79330829459E+02 0.  0.
         66    2    3    3    0    0  0.29838105802E+02 -0.10312879150E+02 -0.16778123278E+02  0.35807449712E+02  0.19999999783E+01 0.  0.
         13    1    3    3    0    0 -0.29838105802E+02  0.10312879150E+02 -0.10406677236E+03  0.10875004510E+03  0.10566000000E+00 0. -1.
         13    1    4    4    0    0  0.17296005502E+02 -0.55771361952E+01 -0.10516322704E+02  0.20996677397E+02  0.10566000000E+00 0.  1.
        -13    1    4    4    0    0  0.10595715772E+01 -0.24806349882E+00 -0.53652119076E+00  0.12178860581E+01  0.10566000000E+00 0. -1.
        -14    1    4    4    0    0  0.11482528723E+02 -0.44876794565E+01 -0.57252793831E+01  0.13592886257E+02  0.00000000000E+00 0.  1.
<mgrwt>
<rscale>  0 0.79330829E+02</rscale>
<asrwt>0</asrwt>
<pdfrwt beam="1">  1        1 0.20415568E-01 0.79330829E+02</pdfrwt>
<pdfrwt beam="2">  1       -2 0.18240462E-02 0.79330829E+02</pdfrwt>
<totfact> 0.15791293E+05</totfact>
</mgrwt>
</event>
<event>
 8    1  0.8247621E-014  0.8086168E+02  0.7818608E-02  0.1326624E+00
         -2   -1    0    0    0  501 -0.00000000000E+00  0.00000000000E+00  0.23077180107E+02  0.23077180248E+02  0.25500000000E-02 0.  1.
          1   -1    0    0  501    0  0.00000000000E+00 -0.00000000000E+00 -0.70834158500E+02  0.70834158680E+02  0.50400000000E-02 0. -1.
        -24    2    1    2    0    0  0.00000000000E+00  0.00000000000E+00 -0.47756978394E+02  0.93911338927E+02  0.80861675681E+02 0.  0.
         66    2    3    3    0    0  0.39520132714E+02  0.83979917324E+01 -0.24508174654E+02  0.47297122274E+02  0.19999989286E+01 0.  0.
         13    1    3    3    0    0 -0.39520132714E+02 -0.83979917324E+01 -0.23248803740E+02  0.46614216653E+02  0.10566000000E+00 0. -1.
         13    1    4    4    0    0  0.20321216561E+02  0.44092931166E+01 -0.13561007467E+02  0.24825506961E+02  0.10566000000E+00 0. -1.
        -13    1    4    4    0    0  0.14618420027E+02  0.33031166338E+01 -0.85962844362E+01  0.17277617131E+02  0.10566000000E+00 0.  1.
        -14    1    4    4    0    0  0.45804961253E+01  0.68558198194E+00 -0.23508827508E+01  0.51939981821E+01  0.00000000000E+00 0.  1.
<mgrwt>
<rscale>  0 0.80861676E+02</rscale>
<asrwt>0</asrwt>
<pdfrwt beam="1">  1        1 0.10897563E-01 0.80861676E+02</pdfrwt>
<pdfrwt beam="2">  1       -2 0.35503355E-02 0.80861676E+02</pdfrwt>
<totfact> 0.13494827E+05</totfact>
</mgrwt>
</event>
<event>
 8    1  0.8247621E-014  0.7977153E+02  0.7818608E-02  0.1329701E+00
         -2   -1    0    0    0  501 -0.00000000000E+00  0.00000000000E+00  0.93102718311E+01  0.93102721803E+01  0.25500000000E-02 0.  1.
          1   -1    0    0  501    0  0.00000000000E+00 -0.00000000000E+00 -0.17087301725E+03  0.17087301732E+03  0.50400000000E-02 0. -1.
        -24    2    1    2    0    0  0.00000000000E+00  0.71054273576E-14 -0.16156274542E+03  0.18018328950E+03  0.79771530694E+02 0.  0.
         66    2    3    3    0    0  0.20103801369E+02  0.32499115306E+02 -0.55226005504E+02  0.67188295169E+02  0.19999996544E+01 0.  0.
         13    1    3    3    0    0 -0.20103801369E+02 -0.32499115306E+02 -0.10633673991E+03  0.11299499433E+03  0.10566000000E+00 0. -1.
         13    1    4    4    0    0  0.65448308023E+01  0.89831657373E+01 -0.16140259963E+02  0.19597225125E+02  0.10566000000E+00 0. -1.
        -13    1    4    4    0    0  0.76689834842E+01  0.13769424876E+02 -0.22995630010E+02  0.27878675232E+02  0.10566000000E+00 0.  1.
         14    1    4    4    0    0  0.58899870827E+01  0.97465246923E+01 -0.16090115532E+02  0.19712394812E+02  0.00000000000E+00 0. -1.
<mgrwt>
<rscale>  0 0.79771531E+02</rscale>
<asrwt>0</asrwt>
<pdfrwt beam="1">  1        1 0.26288154E-01 0.79771531E+02</pdfrwt>
<pdfrwt beam="2">  1       -2 0.14323497E-02 0.79771531E+02</pdfrwt>
<totfact> 0.16301194E+05</totfact>
</mgrwt>
</event>
<event>
 8    1  0.8247621E-014  0.8225586E+02  0.7818608E-02  0.1322769E+00
         -2   -1    0    0    0  501 -0.00000000000E+00  0.00000000000E+00  0.89481295322E+01  0.89481298955E+01  0.25500000000E-02 0.  1.
          1   -1    0    0  501    0  0.00000000000E+00 -0.00000000000E+00 -0.18903464007E+03  0.18903464014E+03  0.50400000000E-02 0. -1.
        -24    2    1    2    0    0  0.35527136788E-14  0.71054273576E-14 -0.18008651054E+03  0.19798277003E+03  0.82255856643E+02 0.  0.
         66    2    3    3    0    0 -0.16582073914E+02 -0.33614181031E+02 -0.49489827108E+02  0.62113777144E+02  0.19999955559E+01 0.  0.
         13    1    3    3    0    0  0.16582073914E+02  0.33614181031E+02 -0.13059668343E+03  0.13586899289E+03  0.10566000000E+00 0. -1.
         13    1    4    4    0    0 -0.44362539525E+01 -0.98666233500E+01 -0.15021958177E+02  0.18512185094E+02  0.10566000000E+00 0. -1.
        -13    1    4    4    0    0 -0.47007242848E+01 -0.10520827772E+02 -0.14651914927E+02  0.18640665248E+02  0.10566000000E+00 0.  1.
         14    1    4    4    0    0 -0.74450956766E+01 -0.13226729910E+02 -0.19815954004E+02  0.24960926803E+02  0.00000000000E+00 0. -1.
<mgrwt>
<rscale>  0 0.82255857E+02</rscale>
<asrwt>0</asrwt>
<pdfrwt beam="1">  1        1 0.29082250E-01 0.82255857E+02</pdfrwt>
<pdfrwt beam="2">  1       -2 0.13766355E-02 0.82255857E+02</pdfrwt>
<totfact> 0.15316095E+05</totfact>
</mgrwt>
</event>
<event>
 8    1  0.8247621E-014  0.7979644E+02  0.7818608E-02  0.1329630E+00
         -2   -1    0    0    0  501 -0.00000000000E+00  0.00000000000E+00  0.10276258017E+03  0.10276258021E+03  0.25500000000E-02 0.  1.
          1   -1    0    0  501    0  0.00000000000E+00 -0.00000000000E+00 -0.15490734174E+02  0.15490734994E+02  0.50400000000E-02 0. -1.
        -24    2    1    2    0    0  0.00000000000E+00  0.00000000000E+00  0.87271846000E+02  0.11825331520E+03  0.79796437585E+02 0.  0.
         66    2    3    3    0    0 -0.13043548740E+02  0.24364664234E+02  0.86256823921E+02  0.90598072281E+02  0.20000003104E+01 0.  0.
         13    1    3    3    0    0  0.13043548740E+02 -0.24364664234E+02  0.10150220788E+01  0.27655242917E+02  0.10566000000E+00 0. -1.
         13    1    4    4    0    0 -0.45081193752E+01  0.96888016336E+01  0.31606384644E+02  0.33364213338E+02  0.10566000000E+00 0. -1.
        -13    1    4    4    0    0 -0.72422640656E+01  0.13024271594E+02  0.47713600135E+02  0.49986806672E+02  0.10566000000E+00 0.  1.
         14    1    4    4    0    0 -0.12931652993E+01  0.16515910058E+01  0.69368391424E+01  0.72470522717E+01  0.00000000000E+00 0. -1.
<mgrwt>
<rscale>  0 0.79796438E+02</rscale>
<asrwt>0</asrwt>
<pdfrwt beam="1">  1        1 0.23831899E-02 0.79796438E+02</pdfrwt>
<pdfrwt beam="2">  1       -2 0.15809628E-01 0.79796438E+02</pdfrwt>
<totfact> 0.10609569E+05</totfact>
</mgrwt>
</event>
<event>
 8    1  0.8247621E-014  0.8039043E+02  0.7818608E-02  0.1327947E+00
          1   -1    0    0  501    0  0.00000000000E+00  0.00000000000E+00  0.20357560427E+02  0.20357561051E+02  0.50400000000E-02 0. -1.
         -2   -1    0    0    0  501 -0.00000000000E+00 -0.00000000000E+00 -0.79363893508E+02  0.79363893549E+02  0.25500000000E-02 0.  1.
        -24    2    1    2    0    0 -0.35527136788E-14  0.00000000000E+00 -0.59006333081E+02  0.99721454600E+02  0.80390429554E+02 0.  0.
         66    2    3    3    0    0  0.26529323663E+02  0.25186660470E+02 -0.50109998240E+02  0.62074026835E+02  0.20000010523E+01 0.  0.
         13    1    3    3    0    0 -0.26529323663E+02 -0.25186660470E+02 -0.88963348405E+01  0.37647427765E+02  0.10566000000E+00 0. -1.
         13    1    4    4    0    0  0.13888347456E+02  0.14236764562E+02 -0.26266690684E+02  0.32947258820E+02  0.10566000000E+00 0. -1.
        -13    1    4    4    0    0  0.16255556553E+01  0.13053119095E+01 -0.28834064870E+01  0.35597004613E+01  0.10566000000E+00 0.  1.
         14    1    4    4    0    0  0.11015420552E+02  0.96445839987E+01 -0.20959901069E+02  0.25567067553E+02  0.00000000000E+00 0. -1.
<mgrwt>
<rscale>  0 0.80390430E+02</rscale>
<asrwt>0</asrwt>
<pdfrwt beam="1">  1        1 0.31319325E-02 0.80390430E+02</pdfrwt>
<pdfrwt beam="2">  1       -2 0.12209830E-01 0.80390430E+02</pdfrwt>
<totfact> 0.11057237E+05</totfact>
</mgrwt>
</event>
<event>
 8    1  0.8247621E-014  0.8129901E+02  0.7818608E-02  0.1325405E+00
         -2   -1    0    0    0  501 -0.00000000000E+00  0.00000000000E+00  0.91125067495E+01  0.91125071063E+01  0.25500000000E-02 0.  1.
          1   -1    0    0  501    0  0.00000000000E+00 -0.00000000000E+00 -0.18133123814E+03  0.18133123821E+03  0.50400000000E-02 0. -1.
        -24    2    1    2    0    0  0.00000000000E+00  0.35527136788E-14 -0.17221873139E+03  0.19044374532E+03  0.81299007918E+02 0.  0.
         66    2    3    3    0    0  0.21726845297E+02 -0.27767919904E+02 -0.38887644510E+02  0.52529630466E+02  0.19999997321E+01 0.  0.
         13    1    3    3    0    0 -0.21726845297E+02  0.27767919904E+02 -0.13333108688E+03  0.13791411485E+03  0.10566000000E+00 0. -1.
         13    1    4    4    0    0  0.72584963400E+01 -0.80889032840E+01 -0.11803530792E+02  0.16045268108E+02  0.10566000000E+00 0.  1.
        -13    1    4    4    0    0  0.23600141871E+01 -0.34170639043E+01 -0.51162441500E+01  0.65903801808E+01  0.10566000000E+00 0.  1.
        -14    1    4    4    0    0  0.12108334770E+02 -0.16261952716E+02 -0.21967869568E+02  0.29893982177E+02  0.00000000000E+00 0.  1.
<mgrwt>
<rscale>  0 0.81299008E+02</rscale>
<asrwt>0</asrwt>
<pdfrwt beam="1">  1        1 0.27897111E-01 0.81299008E+02</pdfrwt>
<pdfrwt beam="2">  1       -2 0.14019243E-02 0.81299008E+02</pdfrwt>
<totfact> 0.15674566E+05</totfact>
</mgrwt>
</event>
<event>
 8    1  0.8247621E-014  0.7905237E+02  0.7818608E-02  0.1331762E+00
         -2   -1    0    0    0  501 -0.00000000000E+00  0.00000000000E+00  0.32557449887E+03  0.32557449888E+03  0.25500000000E-02 0.  1.
          1   -1    0    0  501    0  0.00000000000E+00 -0.00000000000E+00 -0.47986523592E+01  0.47986550059E+01  0.50400000000E-02 0. -1.
        -24    2    1    2    0    0 -0.88817841970E-15 -0.35527136788E-14  0.32077584651E+03  0.33037315389E+03  0.79052369375E+02 0.  0.
         66    2    3    3    0    0 -0.62037066790E+01 -0.18156841710E+02  0.30478708596E+03  0.30539699515E+03  0.19999997298E+01 0.  0.
         13    1    3    3    0    0  0.62037066790E+01  0.18156841710E+02  0.15988760553E+02  0.24976158742E+02  0.10566000000E+00 0. -1.
         13    1    4    4    0    0 -0.28533993120E+01 -0.90860954550E+01  0.16200366990E+03  0.16228339176E+03  0.10566000000E+00 0. -1.
        -13    1    4    4    0    0 -0.93681788010E+00 -0.38482337770E+01  0.57392964267E+02  0.57529557988E+02  0.10566000000E+00 0.  1.
         14    1    4    4    0    0 -0.24134894868E+01 -0.52225124781E+01  0.85390451798E+02  0.85584045396E+02  0.00000000000E+00 0. -1.
<mgrwt>
<rscale>  0 0.79052369E+02</rscale>
<asrwt>0</asrwt>
<pdfrwt beam="1">  1        1 0.73825447E-03 0.79052369E+02</pdfrwt>
<pdfrwt beam="2">  1       -2 0.50088381E-01 0.79052369E+02</pdfrwt>
<totfact> 0.69221746E+04</totfact>
</mgrwt>
</event>
<event>
 8    1  0.8247621E-014  0.8033191E+02  0.7818608E-02  0.1328112E+00
          1   -1    0    0  501    0  0.00000000000E+00  0.00000000000E+00  0.69834711497E+01  0.69834729684E+01  0.50400000000E-02 0. -1.
         -2   -1    0    0    0  501 -0.00000000000E+00 -0.00000000000E+00 -0.23101744396E+03  0.23101744398E+03  0.25500000000E-02 0.  1.
        -24    2    1    2    0    0 -0.35527136788E-14  0.00000000000E+00 -0.22403397281E+03  0.23800091695E+03  0.80331908308E+02 0.  0.
         66    2    3    3    0    0 -0.29753881136E+02 -0.90962593675E+01 -0.18722861682E+03  0.18980671843E+03  0.20000065058E+01 0.  0.
         13    1    3    3    0    0  0.29753881136E+02  0.90962593675E+01 -0.36805355992E+02  0.48194198518E+02  0.10566000000E+00 0. -1.
         13    1    4    4    0    0 -0.82435112265E+01 -0.18010523192E+01 -0.50729932374E+02  0.51427001366E+02  0.10566000000E+00 0. -1.
        -13    1    4    4    0    0 -0.74079568355E+01 -0.28455842282E+01 -0.50072022270E+02  0.50697078341E+02  0.10566000000E+00 0.  1.
        -14    1    4    4    0    0 -0.14102413074E+02 -0.44496228201E+01 -0.86426662180E+02  0.87682638722E+02  0.00000000000E+00 0.  1.
<mgrwt>
<rscale>  0 0.80331908E+02</rscale>
<asrwt>0</asrwt>
<pdfrwt beam="1">  1        1 0.10743805E-02 0.80331908E+02</pdfrwt>
<pdfrwt beam="2">  1       -2 0.35541139E-01 0.80331908E+02</pdfrwt>
<totfact> 0.79138951E+04</totfact>
</mgrwt>
</event>
<event>
 8    1  0.8247621E-014  0.8343241E+02  0.7818608E-02  0.1319584E+00
          1   -1    0    0  501    0  0.00000000000E+00  0.00000000000E+00  0.40419513303E+02  0.40419513617E+02  0.50400000000E-02 0. -1.
         -2   -1    0    0    0  501 -0.00000000000E+00 -0.00000000000E+00 -0.43054494511E+02  0.43054494586E+02  0.25500000000E-02 0.  1.
        -24    2    1    2    0    0  0.00000000000E+00  0.00000000000E+00 -0.26349812078E+01  0.83474008203E+02  0.83432409288E+02 0.  0.
         66    2    3    3    0    0 -0.34548869221E+02  0.96344291177E+01 -0.22584199570E+02  0.42432211627E+02  0.19999811162E+01 0.  0.
         13    1    3    3    0    0  0.34548869221E+02 -0.96344291177E+01  0.19949218362E+02  0.41041796576E+02  0.10566000000E+00 0. -1.
         13    1    4    4    0    0 -0.18101446218E+02  0.53399861779E+01 -0.11488187857E+02  0.22094511351E+02  0.10566000000E+00 0. -1.
        -13    1    4    4    0    0 -0.12427554676E+02  0.31674050008E+01 -0.77278771561E+01  0.14973570685E+02  0.10566000000E+00 0.  1.
        -14    1    4    4    0    0 -0.40198683263E+01  0.11270379390E+01 -0.33681345569E+01  0.53641295911E+01  0.00000000000E+00 0.  1.
<mgrwt>
<rscale>  0 0.83432409E+02</rscale>
<asrwt>0</asrwt>
<pdfrwt beam="1">  1        1 0.62183867E-02 0.83432409E+02</pdfrwt>
<pdfrwt beam="2">  1       -2 0.66237684E-02 0.83432409E+02</pdfrwt>
<totfact> 0.11294652E+05</totfact>
</mgrwt>
</event>
<event>
 8    1  0.8247621E-014  0.7931742E+02  0.7818608E-02  0.1331000E+00
          1   -1    0    0  501    0  0.00000000000E+00  0.00000000000E+00  0.98140609720E+02  0.98140609849E+02  0.50400000000E-02 0. -1.
         -2   -1    0    0    0  501 -0.00000000000E+00 -0.00000000000E+00 -0.16026118792E+02  0.16026118995E+02  0.25500000000E-02 0.  1.
        -24    2    1    2    0    0  0.00000000000E+00  0.00000000000E+00  0.82114490928E+02  0.11416672884E+03  0.79317415203E+02 0.  0.
         66    2    3    3    0    0  0.15731460352E+02  0.29669704105E+02  0.10786846062E+02  0.35328830136E+02  0.20000010818E+01 0.  0.
         13    1    3    3    0    0 -0.15731460352E+02 -0.29669704105E+02  0.71327644866E+02  0.78837898708E+02  0.10566000000E+00 0. -1.
         13    1    4    4    0    0  0.48889437455E+01  0.80228288026E+01  0.31967849449E+01  0.99246234670E+01  0.10566000000E+00 0. -1.
        -13    1    4    4    0    0  0.96415785960E+01  0.18442680360E+02  0.62509995818E+01  0.21729672259E+02  0.10566000000E+00 0.  1.
         14    1    4    4    0    0  0.12009380110E+01  0.32041949424E+01  0.13390615351E+01  0.36745344099E+01  0.00000000000E+00 0. -1.
<mgrwt>
<rscale>  0 0.79317415E+02</rscale>
<asrwt>0</asrwt>
<pdfrwt beam="1">  1        1 0.15098555E-01 0.79317415E+02</pdfrwt>
<pdfrwt beam="2">  1       -2 0.24655568E-02 0.79317415E+02</pdfrwt>
<totfact> 0.14996193E+05</totfact>
</mgrwt>
</event>
<event>
 8    1  0.8247621E-014  0.7399217E+02  0.7818608E-02  0.1347021E+00
         -2   -1    0    0    0  501 -0.00000000000E+00  0.00000000000E+00  0.80297781671E+01  0.80297785720E+01  0.25500000000E-02 0.  1.
          1   -1    0    0  501    0  0.00000000000E+00 -0.00000000000E+00 -0.17045430497E+03  0.17045430504E+03  0.50400000000E-02 0. -1.
        -24    2    1    2    0    0  0.35527136788E-14  0.35527136788E-14 -0.16242452680E+03  0.17848408361E+03  0.73992169837E+02 0.  0.
         66    2    3    3    0    0 -0.23781633063E+02 -0.25731892276E+02 -0.52831057798E+02  0.63425681212E+02  0.20000044725E+01 0.  0.
         13    1    3    3    0    0  0.23781633063E+02  0.25731892276E+02 -0.10959346900E+03  0.11505840240E+03  0.10566000000E+00 0. -1.
         13    1    4    4    0    0 -0.30907852254E+01 -0.31166147540E+01 -0.55920363684E+01  0.71097310509E+01  0.10566000000E+00 0. -1.
        -13    1    4    4    0    0 -0.10540852550E+02 -0.11329802734E+02 -0.24359713589E+02  0.28859674507E+02  0.10566000000E+00 0.  1.
         14    1    4    4    0    0 -0.10149995288E+02 -0.11285474788E+02 -0.22879307841E+02  0.27456275654E+02  0.00000000000E+00 0. -1.
<mgrwt>
<rscale>  0 0.73992170E+02</rscale>
<asrwt>0</asrwt>
<pdfrwt beam="1">  1        1 0.26223737E-01 0.73992170E+02</pdfrwt>
<pdfrwt beam="2">  1       -2 0.12353507E-02 0.73992170E+02</pdfrwt>
<totfact> 0.19887906E+05</totfact>
</mgrwt>
</event>
<event>
 8    1  0.8247621E-014  0.7993347E+02  0.7818608E-02  0.1329240E+00
          1   -1    0    0  501    0  0.00000000000E+00  0.00000000000E+00  0.39239579315E+02  0.39239579639E+02  0.50400000000E-02 0. -1.
         -2   -1    0    0    0  501 -0.00000000000E+00 -0.00000000000E+00 -0.40707368679E+02  0.40707368759E+02  0.25500000000E-02 0.  1.
        -24    2    1    2    0    0  0.00000000000E+00  0.00000000000E+00 -0.14677893644E+01  0.79946948398E+02  0.79933473292E+02 0.  0.
         66    2    3    3    0    0 -0.34526131921E+02  0.27041309922E+01 -0.20636676441E+02  0.40363826924E+02  0.19999998810E+01 0.  0.
         13    1    3    3    0    0  0.34526131921E+02 -0.27041309922E+01  0.19168887077E+02  0.39583121474E+02  0.10566000000E+00 0. -1.
         13    1    4    4    0    0 -0.27636454064E+01  0.20114898977E+00 -0.20263232171E+01  0.34344354214E+01  0.10566000000E+00 0. -1.
        -13    1    4    4    0    0 -0.28381662057E+01 -0.75530134348E-01 -0.13219679363E+01  0.31336329511E+01  0.10566000000E+00 0.  1.
        -14    1    4    4    0    0 -0.28924320309E+02  0.25785121368E+01 -0.17288385288E+02  0.33795758551E+02  0.00000000000E+00 0.  1.
<mgrwt>
<rscale>  0 0.79933473E+02</rscale>
<asrwt>0</asrwt>
<pdfrwt beam="1">  1        1 0.60368584E-02 0.79933473E+02</pdfrwt>
<pdfrwt beam="2">  1       -2 0.62626721E-02 0.79933473E+02</pdfrwt>
<totfact> 0.12687669E+05</totfact>
</mgrwt>
</event>
<event>
 8    1  0.8247621E-014  0.7952700E+02  0.7818608E-02  0.1330399E+00
          1   -1    0    0  501    0  0.00000000000E+00  0.00000000000E+00  0.61139088759E+01  0.61139109533E+01  0.50400000000E-02 0. -1.
         -2   -1    0    0    0  501 -0.00000000000E+00 -0.00000000000E+00 -0.25861291557E+03  0.25861291558E+03  0.25500000000E-02 0.  1.
        -24    2    1    2    0    0 -0.71054273576E-14  0.00000000000E+00 -0.25249900669E+03  0.26472682653E+03  0.79527003629E+02 0.  0.
         66    2    3    3    0    0  0.35025482254E+02 -0.10248759364E+02 -0.17867758229E+03  0.18237735574E+03  0.19999992891E+01 0.  0.
         13    1    3    3    0    0 -0.35025482254E+02  0.10248759364E+02 -0.73821424400E+02  0.82349470794E+02  0.10566000000E+00 0. -1.
         13    1    4    4    0    0  0.46036982918E+01 -0.13205034338E+01 -0.20569570515E+02  0.21120041725E+02  0.10566000000E+00 0. -1.
        -13    1    4    4    0    0  0.10521539183E+02 -0.30554863772E+01 -0.56433298202E+02  0.57487103717E+02  0.10566000000E+00 0.  1.
         14    1    4    4    0    0  0.19900244779E+02 -0.58727695530E+01 -0.10167471358E+03  0.10377021030E+03  0.00000000000E+00 0. -1.
<mgrwt>
<rscale>  0 0.79527004E+02</rscale>
<asrwt>0</asrwt>
<pdfrwt beam="1">  1        1 0.94060173E-03 0.79527004E+02</pdfrwt>
<pdfrwt beam="2">  1       -2 0.39786594E-01 0.79527004E+02</pdfrwt>
<totfact> 0.77035037E+04</totfact>
</mgrwt>
</event>
<event>
 8    1  0.8247621E-014  0.7502713E+02  0.7818608E-02  0.1343787E+00
         -2   -1    0    0    0  501 -0.00000000000E+00  0.00000000000E+00  0.94996874813E+01  0.94996878235E+01  0.25500000000E-02 0.  1.
          1   -1    0    0  501    0  0.00000000000E+00 -0.00000000000E+00 -0.14813828101E+03  0.14813828110E+03  0.50400000000E-02 0. -1.
        -24    2    1    2    0    0  0.00000000000E+00 -0.35527136788E-14 -0.13863859353E+03  0.15763796892E+03  0.75027125958E+02 0.  0.
         66    2    3    3    0    0 -0.13036305480E+02 -0.24365845635E+02 -0.16147491442E+02  0.32068382838E+02  0.20000009710E+01 0.  0.
         13    1    3    3    0    0  0.13036305480E+02  0.24365845635E+02 -0.12249110209E+03  0.12556958609E+03  0.10566000000E+00 0. -1.
         13    1    4    4    0    0 -0.32381229485E+00 -0.10477811935E+01 -0.85044153212E+00  0.13918026681E+01  0.10566000000E+00 0. -1.
        -13    1    4    4    0    0 -0.11573120941E+02 -0.20866598537E+02 -0.14137913698E+02  0.27735245277E+02  0.10566000000E+00 0.  1.
         14    1    4    4    0    0 -0.11393722442E+01 -0.24514659048E+01 -0.11591362116E+01  0.29413348925E+01  0.00000000000E+00 0. -1.
<mgrwt>
<rscale>  0 0.75027126E+02</rscale>
<asrwt>0</asrwt>
<pdfrwt beam="1">  1        1 0.22790503E-01 0.75027126E+02</pdfrwt>
<pdfrwt beam="2">  1       -2 0.14614905E-02 0.75027126E+02</pdfrwt>
<totfact> 0.18687218E+05</totfact>
</mgrwt>
</event>
<event>
 8    1  0.8247621E-014  0.7507656E+02  0.7818608E-02  0.1343634E+00
         -2   -1    0    0    0  501 -0.00000000000E+00  0.00000000000E+00  0.47978983645E+03  0.47978983646E+03  0.25500000000E-02 0.  1.
          1   -1    0    0  501    0  0.00000000000E+00 -0.00000000000E+00 -0.29369556401E+01  0.29369599645E+01  0.50400000000E-02 0. -1.
        -24    2    1    2    0    0  0.00000000000E+00  0.00000000000E+00  0.47685288081E+03  0.48272679642E+03  0.75076561232E+02 0.  0.
         66    2    3    3    0    0 -0.10212526587E+02  0.30375522234E+02  0.36395958977E+03  0.36537316684E+03  0.20000025585E+01 0.  0.
         13    1    3    3    0    0  0.10212526587E+02 -0.30375522234E+02  0.11289329104E+03  0.11735362958E+03  0.10566000000E+00 0. -1.
         13    1    4    4    0    0 -0.36021331584E+01  0.95106044082E+01  0.12403085817E+03  0.12444714501E+03  0.10566000000E+00 0. -1.
        -13    1    4    4    0    0 -0.44740656680E+01  0.14542967026E+02  0.17001481591E+03  0.17069435827E+03  0.10566000000E+00 0.  1.
        -14    1    4    4    0    0 -0.21363277611E+01  0.63219507994E+01  0.69913915695E+02  0.70231663557E+02  0.00000000000E+00 0.  1.
<mgrwt>
<rscale>  0 0.75076561E+02</rscale>
<asrwt>0</asrwt>
<pdfrwt beam="1">  1        1 0.45183968E-03 0.75076561E+02</pdfrwt>
<pdfrwt beam="2">  1       -2 0.73813819E-01 0.75076561E+02</pdfrwt>
<totfact> 0.61230835E+04</totfact>
</mgrwt>
</event>
<event>
 8    1  0.8247621E-014  0.8239078E+02  0.7818608E-02  0.1322400E+00
          1   -1    0    0  501    0  0.00000000000E+00  0.00000000000E+00  0.59137777795E+03  0.59137777798E+03  0.50400000000E-02 0. -1.
         -2   -1    0    0    0  501 -0.00000000000E+00 -0.00000000000E+00 -0.28696713599E+01  0.28696724929E+01  0.25500000000E-02 0.  1.
        -24    2    1    2    0    0 -0.35527136788E-14  0.35527136788E-14  0.58850810660E+03  0.59424745047E+03  0.82390781409E+02 0.  0.
         66    2    3    3    0    0 -0.20588708946E+02  0.29893179772E+02  0.43457292302E+03  0.43609072744E+03  0.20000010801E+01 0.  0.
         13    1    3    3    0    0  0.20588708946E+02 -0.29893179772E+02  0.15393518357E+03  0.15815672303E+03  0.10566000000E+00 0. -1.
         13    1    4    4    0    0 -0.60631618885E+01  0.90945211230E+01  0.12314902647E+03  0.12363319187E+03  0.10566000000E+00 0. -1.
        -13    1    4    4    0    0 -0.12876622924E+02  0.18367158985E+02  0.27955788041E+03  0.28045637738E+03  0.10566000000E+00 0.  1.
        -14    1    4    4    0    0 -0.16489241332E+01  0.24314996640E+01  0.31866016139E+02  0.32001158198E+02  0.00000000000E+00 0.  1.
<mgrwt>
<rscale>  0 0.82390781E+02</rscale>
<asrwt>0</asrwt>
<pdfrwt beam="1">  1        1 0.90981301E-01 0.82390781E+02</pdfrwt>
<pdfrwt beam="2">  1       -2 0.44148749E-03 0.82390781E+02</pdfrwt>
<totfact> 0.18438441E+05</totfact>
</mgrwt>
</event>
<event>
 8    1  0.8247621E-014  0.7991122E+02  0.7818608E-02  0.1329304E+00
         -2   -1    0    0    0  501 -0.00000000000E+00  0.00000000000E+00  0.59937702993E+01  0.59937708418E+01  0.25500000000E-02 0.  1.
          1   -1    0    0  501    0  0.00000000000E+00 -0.00000000000E+00 -0.26635164016E+03  0.26635164021E+03  0.50400000000E-02 0. -1.
        -24    2    1    2    0    0  0.00000000000E+00  0.00000000000E+00 -0.26035786986E+03  0.27234541105E+03  0.79911216493E+02 0.  0.
         66    2    3    3    0    0  0.36197129329E+02 -0.57796839796E+01 -0.76286366603E+02  0.84659592741E+02  0.19999987538E+01 0.  0.
         13    1    3    3    0    0 -0.36197129329E+02  0.57796839796E+01 -0.18407150326E+03  0.18768581831E+03  0.10566000000E+00 0. -1.
         13    1    4    4    0    0  0.39498113584E+01 -0.12080978203E+01 -0.90757416974E+01  0.99719988720E+01  0.10566000000E+00 0. -1.
        -13    1    4    4    0    0  0.25053606822E+02 -0.36946824049E+01 -0.52468189189E+02  0.58260243165E+02  0.10566000000E+00 0.  1.
        -14    1    4    4    0    0  0.71937111489E+01 -0.87690375437E+00 -0.14742435716E+02  0.16427350704E+02  0.00000000000E+00 0.  1.
<mgrwt>
<rscale>  0 0.79911216E+02</rscale>
<asrwt>0</asrwt>
<pdfrwt beam="1">  1        1 0.40977166E-01 0.79911216E+02</pdfrwt>
<pdfrwt beam="2">  1       -2 0.92211876E-03 0.79911216E+02</pdfrwt>
<totfact> 0.17683742E+05</totfact>
</mgrwt>
</event>
<event>
 8    1  0.8247621E-014  0.7990029E+02  0.7818608E-02  0.1329335E+00
         -2   -1    0    0    0  501 -0.00000000000E+00  0.00000000000E+00  0.16375182908E+02  0.16375183107E+02  0.25500000000E-02 0.  1.
          1   -1    0    0  501    0  0.00000000000E+00 -0.00000000000E+00 -0.97465431391E+02  0.97465431521E+02  0.50400000000E-02 0. -1.
        -24    2    1    2    0    0  0.00000000000E+00  0.00000000000E+00 -0.81090248483E+02  0.11384061463E+03  0.79900294992E+02 0.  0.
         66    2    3    3    0    0 -0.16761373718E+02 -0.17019753909E+02  0.50091111290E+01  0.24488913124E+02  0.19999999080E+01 0.  0.
         13    1    3    3    0    0  0.16761373718E+02  0.17019753909E+02 -0.86099359612E+02  0.89351701504E+02  0.10566000000E+00 0. -1.
         13    1    4    4    0    0 -0.27625292113E+01 -0.26629143742E+01  0.12782569570E+01  0.40457119882E+01  0.10566000000E+00 0. -1.
        -13    1    4    4    0    0 -0.12530314412E+02 -0.13390323990E+02  0.33079120022E+01  0.18634994008E+02  0.10566000000E+00 0.  1.
         14    1    4    4    0    0 -0.14685300949E+01 -0.96651554532E+00  0.42294216986E+00  0.18082071281E+01  0.00000000000E+00 0. -1.
<mgrwt>
<rscale>  0 0.79900295E+02</rscale>
<asrwt>0</asrwt>
<pdfrwt beam="1">  1        1 0.14994681E-01 0.79900295E+02</pdfrwt>
<pdfrwt beam="2">  1       -2 0.25192590E-02 0.79900295E+02</pdfrwt>
<totfact> 0.14685409E+05</totfact>
</mgrwt>
</event>
<event>
 8    1  0.8247621E-014  0.7673295E+02  0.7818608E-02  0.1338587E+00
         -2   -1    0    0    0  501 -0.00000000000E+00  0.00000000000E+00  0.95089491008E+01  0.95089494427E+01  0.25500000000E-02 0.  1.
          1   -1    0    0  501    0  0.00000000000E+00 -0.00000000000E+00 -0.15480011747E+03  0.15480011755E+03  0.50400000000E-02 0. -1.
        -24    2    1    2    0    0  0.00000000000E+00  0.00000000000E+00 -0.14529116837E+03  0.16430906699E+03  0.76732951790E+02 0.  0.
         66    2    3    3    0    0  0.37852713559E+02 -0.51670612121E+01 -0.65771000867E+02  0.76087784704E+02  0.19999951751E+01 0.  0.
         13    1    3    3    0    0 -0.37852713559E+02  0.51670612121E+01 -0.79520167498E+02  0.88221282287E+02  0.10566000000E+00 0. -1.
         13    1    4    4    0    0  0.27540676543E+02 -0.40036516391E+01 -0.49137074196E+02  0.56471066179E+02  0.10566000000E+00 0. -1.
        -13    1    4    4    0    0  0.92596497146E+01 -0.87483387848E+00 -0.15080204322E+02  0.17718074771E+02  0.10566000000E+00 0.  1.
         14    1    4    4    0    0  0.10523873016E+01 -0.28857569447E+00 -0.15537223492E+01  0.18986437534E+01  0.00000000000E+00 0. -1.
<mgrwt>
<rscale>  0 0.76732952E+02</rscale>
<asrwt>0</asrwt>
<pdfrwt beam="1">  1        1 0.23815401E-01 0.76732952E+02</pdfrwt>
<pdfrwt beam="2">  1       -2 0.14629154E-02 0.76732952E+02</pdfrwt>
<totfact> 0.17746129E+05</totfact>
</mgrwt>
</event>
<event>
 8    1  0.8247621E-014  0.7981586E+02  0.7818608E-02  0.1329575E+00
          1   -1    0    0  501    0  0.00000000000E+00  0.00000000000E+00  0.16609534154E+01  0.16609610621E+01  0.50400000000E-02 0. -1.
         -2   -1    0    0    0  501 -0.00000000000E+00 -0.00000000000E+00 -0.95887049865E+03  0.95887049866E+03  0.25500000000E-02 0.  1.
        -24    2    1    2    0    0  0.00000000000E+00  0.00000000000E+00 -0.95720954524E+03  0.96053145972E+03  0.79815860673E+02 0.  0.
         66    2    3    3    0    0  0.10990246059E+02  0.17573418088E+02 -0.88896087686E+03  0.88920472959E+03  0.20000007126E+01 0.  0.
         13    1    3    3    0    0 -0.10990246059E+02 -0.17573418088E+02 -0.68248668379E+02  0.71326730132E+02  0.10566000000E+00 0. -1.
         13    1    4    4    0    0  0.69089453993E+01  0.11851695245E+02 -0.55750168481E+03  0.55767045460E+03  0.10566000000E+00 0. -1.
        -13    1    4    4    0    0  0.40947971653E+01  0.57042914930E+01 -0.32877961031E+03  0.32885460256E+03  0.10566000000E+00 0.  1.
         14    1    4    4    0    0 -0.13496506026E-01  0.17431349910E-01 -0.26795817386E+01  0.26796724243E+01  0.00000000000E+00 0. -1.
<mgrwt>
<rscale>  0 0.79815861E+02</rscale>
<asrwt>0</asrwt>
<pdfrwt beam="1">  1        1 0.25553265E-03 0.79815861E+02</pdfrwt>
<pdfrwt beam="2">  1       -2 0.14751810E+00 0.79815861E+02</pdfrwt>
<totfact> 0.27528402E+04</totfact>
</mgrwt>
</event>
<event>
 8    1  0.8247621E-014  0.8477248E+02  0.7818608E-02  0.1316029E+00
          1   -1    0    0  501    0  0.00000000000E+00  0.00000000000E+00  0.57272134740E+02  0.57272134961E+02  0.50400000000E-02 0. -1.
         -2   -1    0    0    0  501 -0.00000000000E+00 -0.00000000000E+00 -0.31369416680E+02  0.31369416784E+02  0.25500000000E-02 0.  1.
        -24    2    1    2    0    0  0.35527136788E-14  0.00000000000E+00  0.25902718060E+02  0.88641551745E+02  0.84772483112E+02 0.  0.
         66    2    3    3    0    0 -0.28251229661E+02 -0.15518929924E+02 -0.15784575800E+02  0.35946098462E+02  0.19999995290E+01 0.  0.
         13    1    3    3    0    0  0.28251229661E+02  0.15518929924E+02  0.41687293859E+02  0.52695453283E+02  0.10566000000E+00 0. -1.
         13    1    4    4    0    0 -0.12705865375E+02 -0.61872233643E+01 -0.63896530269E+01  0.15509983163E+02  0.10566000000E+00 0. -1.
        -13    1    4    4    0    0 -0.12871153520E+02 -0.78301481694E+01 -0.81171081567E+01  0.17113632641E+02  0.10566000000E+00 0.  1.
        -14    1    4    4    0    0 -0.26742107660E+01 -0.15015583904E+01 -0.12778146159E+01  0.33224826582E+01  0.00000000000E+00 0.  1.
<mgrwt>
<rscale>  0 0.84772483E+02</rscale>
<asrwt>0</asrwt>
<pdfrwt beam="1">  1        1 0.88110975E-02 0.84772483E+02</pdfrwt>
<pdfrwt beam="2">  1       -2 0.48260642E-02 0.84772483E+02</pdfrwt>
<totfact> 0.11443205E+05</totfact>
</mgrwt>
</event>
<event>
 8    1  0.8247621E-014  0.8019465E+02  0.7818608E-02  0.1328500E+00
          1   -1    0    0  501    0  0.00000000000E+00  0.00000000000E+00  0.24080519941E+01  0.24080572684E+01  0.50400000000E-02 0. -1.
         -2   -1    0    0    0  501 -0.00000000000E+00 -0.00000000000E+00 -0.66767401021E+03  0.66767401021E+03  0.25500000000E-02 0.  1.
        -24    2    1    2    0    0 -0.22204460493E-15  0.00000000000E+00 -0.66526595821E+03  0.67008206748E+03  0.80194650704E+02 0.  0.
         66    2    3    3    0    0 -0.11058453567E+01  0.34959564532E+02 -0.49623458308E+03  0.49746975335E+03  0.20000017069E+01 0.  0.
         13    1    3    3    0    0  0.11058453567E+01 -0.34959564532E+02 -0.16903137513E+03  0.17261231413E+03  0.10566000000E+00 0. -1.
         13    1    4    4    0    0  0.66060233176E-01  0.11363441209E+02 -0.17149941289E+03  0.17187551293E+03  0.10566000000E+00 0. -1.
        -13    1    4    4    0    0  0.69531754205E-01  0.30254837118E+01 -0.42042815863E+02  0.42151724948E+02  0.10566000000E+00 0.  1.
         14    1    4    4    0    0 -0.12414373440E+01  0.20570639611E+02 -0.28269235433E+03  0.28344251547E+03  0.00000000000E+00 0. -1.
<mgrwt>
<rscale>  0 0.80194651E+02</rscale>
<asrwt>0</asrwt>
<pdfrwt beam="1">  1        1 0.37047048E-03 0.80194651E+02</pdfrwt>
<pdfrwt beam="2">  1       -2 0.10271893E+00 0.80194651E+02</pdfrwt>
<totfact> 0.39295469E+04</totfact>
</mgrwt>
</event>
<event>
 8    1  0.8247621E-014  0.7892252E+02  0.7818608E-02  0.1332137E+00
          1   -1    0    0  501    0  0.00000000000E+00  0.00000000000E+00  0.74717615163E+02  0.74717615333E+02  0.50400000000E-02 0. -1.
         -2   -1    0    0    0  501 -0.00000000000E+00 -0.00000000000E+00 -0.20841013990E+02  0.20841014146E+02  0.25500000000E-02 0.  1.
        -24    2    1    2    0    0  0.22204460493E-15  0.00000000000E+00  0.53876601173E+02  0.95558629479E+02  0.78922515887E+02 0.  0.
         66    2    3    3    0    0  0.10540408406E+01  0.34808854051E+02  0.45504110498E+01  0.35177742449E+02  0.20000001525E+01 0.  0.
         13    1    3    3    0    0 -0.10540408406E+01 -0.34808854051E+02  0.49326190123E+02  0.60380887030E+02  0.10566000000E+00 0. -1.
         13    1    4    4    0    0 -0.26761589891E+00  0.25361301144E+01  0.65062244479E+00  0.26340174312E+01  0.10566000000E+00 0. -1.
        -13    1    4    4    0    0  0.55714022706E+00  0.75437725963E+01  0.11132926767E+01  0.76465348254E+01  0.10566000000E+00 0.  1.
        -14    1    4    4    0    0  0.76451651249E+00  0.24728951341E+02  0.27864959283E+01  0.24897190192E+02  0.00000000000E+00 0.  1.
<mgrwt>
<rscale>  0 0.78922516E+02</rscale>
<asrwt>0</asrwt>
<pdfrwt beam="1">  1        1 0.11495018E-01 0.78922516E+02</pdfrwt>
<pdfrwt beam="2">  1       -2 0.32063098E-02 0.78922516E+02</pdfrwt>
<totfact> 0.14543298E+05</totfact>
</mgrwt>
</event>
<event>
 8    1  0.8247621E-014  0.7853709E+02  0.7818608E-02  0.1333255E+00
          1   -1    0    0  501    0  0.00000000000E+00  0.00000000000E+00  0.56604547199E+01  0.56604569637E+01  0.50400000000E-02 0. -1.
         -2   -1    0    0    0  501 -0.00000000000E+00 -0.00000000000E+00 -0.27241950611E+03  0.27241950612E+03  0.25500000000E-02 0.  1.
        -24    2    1    2    0    0  0.00000000000E+00  0.00000000000E+00 -0.26675905139E+03  0.27807996309E+03  0.78537089144E+02 0.  0.
         66    2    3    3    0    0 -0.21544831250E+02  0.50770302629E+01 -0.24820224756E+03  0.24919532838E+03  0.20000003311E+01 0.  0.
         13    1    3    3    0    0  0.21544831250E+02 -0.50770302629E+01 -0.18556803833E+02  0.28884634711E+02  0.10566000000E+00 0. -1.
         13    1    4    4    0    0 -0.62146726928E+01  0.17930308289E+01 -0.76458966865E+02  0.76732143814E+02  0.10566000000E+00 0. -1.
        -13    1    4    4    0    0 -0.69944242791E+01  0.16032433077E+01 -0.86245387989E+02  0.86543460027E+02  0.10566000000E+00 0.  1.
        -14    1    4    4    0    0 -0.83357342778E+01  0.16807561262E+01 -0.85497892705E+02  0.85919724534E+02  0.00000000000E+00 0.  1.
<mgrwt>
<rscale>  0 0.78537089E+02</rscale>
<asrwt>0</asrwt>
<pdfrwt beam="1">  1        1 0.87083958E-03 0.78537089E+02</pdfrwt>
<pdfrwt beam="2">  1       -2 0.41910683E-01 0.78537089E+02</pdfrwt>
<totfact> 0.77530447E+04</totfact>
</mgrwt>
</event>
<event>
 8    1  0.8247621E-014  0.7962801E+02  0.7818608E-02  0.1330110E+00
         -2   -1    0    0    0  501 -0.00000000000E+00  0.00000000000E+00  0.82554521141E+02  0.82554521181E+02  0.25500000000E-02 0.  1.
          1   -1    0    0  501    0  0.00000000000E+00 -0.00000000000E+00 -0.19201309729E+02  0.19201310391E+02  0.50400000000E-02 0. -1.
        -24    2    1    2    0    0  0.00000000000E+00  0.00000000000E+00  0.63353211412E+02  0.10175583157E+03  0.79628009284E+02 0.  0.
         66    2    3    3    0    0 -0.21705833609E+02  0.26686134511E+02  0.57249763759E+02  0.66819371747E+02  0.20000005755E+01 0.  0.
         13    1    3    3    0    0  0.21705833609E+02 -0.26686134511E+02  0.61034476524E+01  0.34936459825E+02  0.10566000000E+00 0. -1.
         13    1    4    4    0    0 -0.11064600437E+02  0.13814621427E+02  0.28835679324E+02  0.33834549120E+02  0.10566000000E+00 0.  1.
        -13    1    4    4    0    0 -0.67470584580E+01  0.83044477479E+01  0.16957494851E+02  0.20051295367E+02  0.10566000000E+00 0. -1.
         14    1    4    4    0    0 -0.38941747143E+01  0.45670653361E+01  0.11456589584E+02  0.12933527260E+02  0.00000000000E+00 0. -1.
<mgrwt>
<rscale>  0 0.79628009E+02</rscale>
<asrwt>0</asrwt>
<pdfrwt beam="1">  1        1 0.29540477E-02 0.79628009E+02</pdfrwt>
<pdfrwt beam="2">  1       -2 0.12700696E-01 0.79628009E+02</pdfrwt>
<totfact> 0.11232399E+05</totfact>
</mgrwt>
</event>
<event>
 8    1  0.8247621E-014  0.7998697E+02  0.7818608E-02  0.1329088E+00
          1   -1    0    0  501    0  0.00000000000E+00  0.00000000000E+00  0.11947436617E+03  0.11947436628E+03  0.50400000000E-02 0. -1.
         -2   -1    0    0    0  501 -0.00000000000E+00 -0.00000000000E+00 -0.13387630928E+02  0.13387631171E+02  0.25500000000E-02 0.  1.
        -24    2    1    2    0    0  0.35527136788E-14  0.00000000000E+00  0.10608673524E+03  0.13286199745E+03  0.79986967509E+02 0.  0.
         66    2    3    3    0    0  0.26318026380E+02 -0.23093928056E+02  0.21060641503E+02  0.40908662509E+02  0.20000055418E+01 0.  0.
         13    1    3    3    0    0 -0.26318026380E+02  0.23093928056E+02  0.85026093742E+02  0.91953334940E+02  0.10566000000E+00 0. -1.
         13    1    4    4    0    0  0.10888538939E+02 -0.94845278103E+01  0.85602724574E+01  0.16787077667E+02  0.10566000000E+00 0.  1.
        -13    1    4    4    0    0  0.14961996113E+02 -0.13246368418E+02  0.11810675300E+02  0.23212729677E+02  0.10566000000E+00 0. -1.
         14    1    4    4    0    0  0.46749132688E+00 -0.36303182781E+00  0.68969374541E+00  0.90885516512E+00  0.00000000000E+00 0. -1.
<mgrwt>
<rscale>  0 0.79986968E+02</rscale>
<asrwt>0</asrwt>
<pdfrwt beam="1">  1        1 0.18380672E-01 0.79986968E+02</pdfrwt>
<pdfrwt beam="2">  1       -2 0.20596355E-02 0.79986968E+02</pdfrwt>
<totfact> 0.15161385E+05</totfact>
</mgrwt>
</event>
<event>
 8    1  0.8247621E-014  0.7831239E+02  0.7818608E-02  0.1333910E+00
          1   -1    0    0  501    0  0.00000000000E+00  0.00000000000E+00  0.61543289364E+01  0.61543310001E+01  0.50400000000E-02 0. -1.
         -2   -1    0    0    0  501 -0.00000000000E+00 -0.00000000000E+00 -0.24912666635E+03  0.24912666636E+03  0.25500000000E-02 0.  1.
        -24    2    1    2    0    0  0.71054273576E-14  0.35527136788E-14 -0.24297233741E+03  0.25528099736E+03  0.78312392802E+02 0.  0.
         66    2    3    3    0    0  0.33958632200E+02  0.18420637107E+02 -0.14184252097E+03  0.14702315926E+03  0.20000080043E+01 0.  0.
         13    1    3    3    0    0 -0.33958632200E+02 -0.18420637107E+02 -0.10112981644E+03  0.10825783810E+03  0.10566000000E+00 0. -1.
         13    1    4    4    0    0  0.65640428786E+01  0.33818654429E+01 -0.28050905403E+02  0.29006691137E+02  0.10566000000E+00 0. -1.
        -13    1    4    4    0    0  0.10922346958E+02  0.64084704637E+01 -0.48841630670E+02  0.50456735995E+02  0.10566000000E+00 0.  1.
         14    1    4    4    0    0  0.16472242363E+02  0.86303012006E+01 -0.64949984899E+02  0.67559732131E+02  0.00000000000E+00 0. -1.
<mgrwt>
<rscale>  0 0.78312393E+02</rscale>
<asrwt>0</asrwt>
<pdfrwt beam="1">  1        1 0.94682019E-03 0.78312393E+02</pdfrwt>
<pdfrwt beam="2">  1       -2 0.38327172E-01 0.78312393E+02</pdfrwt>
<totfact> 0.81612751E+04</totfact>
</mgrwt>
</event>
<event>
 8    1  0.8247621E-014  0.8439780E+02  0.7818608E-02  0.1317015E+00
         -2   -1    0    0    0  501 -0.00000000000E+00  0.00000000000E+00  0.93690014752E+01  0.93690018222E+01  0.25500000000E-02 0.  1.
          1   -1    0    0  501    0  0.00000000000E+00 -0.00000000000E+00 -0.19006796647E+03  0.19006796653E+03  0.50400000000E-02 0. -1.
        -24    2    1    2    0    0  0.00000000000E+00  0.00000000000E+00 -0.18069896499E+03  0.19943696835E+03  0.84397798537E+02 0.  0.
         66    2    3    3    0    0 -0.32890619941E+02 -0.15279077081E+02 -0.39525719277E+02  0.53679843157E+02  0.20000000977E+01 0.  0.
         13    1    3    3    0    0  0.32890619941E+02  0.15279077081E+02 -0.14117324571E+03  0.14575712520E+03  0.10566000000E+00 0. -1.
         13    1    4    4    0    0 -0.19009663160E+01 -0.11560061455E+01 -0.25247412763E+01  0.33668242738E+01  0.10566000000E+00 0.  1.
        -13    1    4    4    0    0 -0.23464109750E+02 -0.11341089290E+02 -0.28755891433E+02  0.38808468261E+02  0.10566000000E+00 0.  1.
        -14    1    4    4    0    0 -0.75255438758E+01 -0.27819816457E+01 -0.82450865675E+01  0.11504550622E+02  0.00000000000E+00 0.  1.
<mgrwt>
<rscale>  0 0.84397799E+02</rscale>
<asrwt>0</asrwt>
<pdfrwt beam="1">  1        1 0.29241223E-01 0.84397799E+02</pdfrwt>
<pdfrwt beam="2">  1       -2 0.14413850E-02 0.84397799E+02</pdfrwt>
<totfact> 0.14315222E+05</totfact>
</mgrwt>
</event>
<event>
 8    1  0.8247621E-014  0.7731330E+02  0.7818608E-02  0.1336854E+00
          1   -1    0    0  501    0  0.00000000000E+00  0.00000000000E+00  0.44137609518E+01  0.44137638294E+01  0.50400000000E-02 0. -1.
         -2   -1    0    0    0  501 -0.00000000000E+00 -0.00000000000E+00 -0.33856298738E+03  0.33856298739E+03  0.25500000000E-02 0.  1.
        -24    2    1    2    0    0  0.00000000000E+00  0.55511151231E-16 -0.33414922643E+03  0.34297675122E+03  0.77313299982E+02 0.  0.
         66    2    3    3    0    0 -0.14585276721E+02 -0.35684216936E+00 -0.32586757474E+03  0.32620014393E+03  0.20000001869E+01 0.  0.
         13    1    3    3    0    0  0.14585276721E+02  0.35684216936E+00 -0.82816516884E+01  0.16776607288E+02  0.10566000000E+00 0. -1.
         13    1    4    4    0    0 -0.13397689811E+01  0.35235870736E+00 -0.40382658131E+02  0.40406551194E+02  0.10566000000E+00 0. -1.
        -13    1    4    4    0    0 -0.73173779677E+01 -0.14556187376E+00 -0.15356323696E+03  0.15373758199E+03  0.10566000000E+00 0.  1.
        -14    1    4    4    0    0 -0.59281297721E+01 -0.56363900296E+00 -0.13192167965E+03  0.13205601074E+03  0.00000000000E+00 0.  1.
<mgrwt>
<rscale>  0 0.77313300E+02</rscale>
<asrwt>0</asrwt>
<pdfrwt beam="1">  1        1 0.67904064E-03 0.77313300E+02</pdfrwt>
<pdfrwt beam="2">  1       -2 0.52086593E-01 0.77313300E+02</pdfrwt>
<totfact> 0.71654058E+04</totfact>
</mgrwt>
</event>
<event>
 8    1  0.8247621E-014  0.8106647E+02  0.7818608E-02  0.1326052E+00
         -2   -1    0    0    0  501 -0.00000000000E+00  0.00000000000E+00  0.22090497661E+02  0.22090497808E+02  0.25500000000E-02 0.  1.
          1   -1    0    0  501    0  0.00000000000E+00 -0.00000000000E+00 -0.74373300287E+02  0.74373300458E+02  0.50400000000E-02 0. -1.
        -24    2    1    2    0    0  0.00000000000E+00  0.71054273576E-14 -0.52282802626E+02  0.96463798266E+02  0.81066472265E+02 0.  0.
         66    2    3    3    0    0  0.20511323526E+01  0.40360069877E+02 -0.29479694376E+02  0.50061909357E+02  0.20000008943E+01 0.  0.
         13    1    3    3    0    0 -0.20511323526E+01 -0.40360069877E+02 -0.22803108250E+02  0.46401888909E+02  0.10566000000E+00 0. -1.
         13    1    4    4    0    0  0.35155832996E+00  0.65714489022E+01 -0.41075073465E+01  0.77582417190E+01  0.10566000000E+00 0. -1.
        -13    1    4    4    0    0  0.15337587973E+01  0.26266567740E+02 -0.20248426280E+02  0.33200827215E+02  0.10566000000E+00 0.  1.
        -14    1    4    4    0    0  0.16581522530E+00  0.75220532346E+01 -0.51237607491E+01  0.91028404231E+01  0.00000000000E+00 0.  1.
<mgrwt>
<rscale>  0 0.81066472E+02</rscale>
<asrwt>0</asrwt>
<pdfrwt beam="1">  1        1 0.11442046E-01 0.81066472E+02</pdfrwt>
<pdfrwt beam="2">  1       -2 0.33985381E-02 0.81066472E+02</pdfrwt>
<totfact> 0.13506770E+05</totfact>
</mgrwt>
</event>
<event>
 8    1  0.8247621E-014  0.8052351E+02  0.7818608E-02  0.1327572E+00
          1   -1    0    0  501    0  0.00000000000E+00  0.00000000000E+00  0.46345349352E+01  0.46345376756E+01  0.50400000000E-02 0. -1.
         -2   -1    0    0    0  501 -0.00000000000E+00 -0.00000000000E+00 -0.34976725155E+03  0.34976725156E+03  0.25500000000E-02 0.  1.
        -24    2    1    2    0    0  0.00000000000E+00  0.00000000000E+00 -0.34513271661E+03  0.35440178923E+03  0.80523512932E+02 0.  0.
         66    2    3    3    0    0  0.13938827358E+02  0.29072360705E+02 -0.27862326719E+03  0.28048960423E+03  0.19999993467E+01 0.  0.
         13    1    3    3    0    0 -0.13938827358E+02 -0.29072360705E+02 -0.66509449421E+02  0.73912184999E+02  0.10566000000E+00 0. -1.
         13    1    4    4    0    0  0.51250073911E+01  0.11355294171E+02 -0.11018006273E+03  0.11088221586E+03  0.10566000000E+00 0.  1.
        -13    1    4    4    0    0  0.83261541764E+01  0.16121360773E+02 -0.15172209458E+03  0.15280323381E+03  0.10566000000E+00 0. -1.
         14    1    4    4    0    0  0.48766579036E+00  0.15957057605E+01 -0.16721109882E+02  0.16804154560E+02  0.00000000000E+00 0. -1.
<mgrwt>
<rscale>  0 0.80523513E+02</rscale>
<asrwt>0</asrwt>
<pdfrwt beam="1">  1        1 0.71300586E-03 0.80523513E+02</pdfrwt>
<pdfrwt beam="2">  1       -2 0.53810326E-01 0.80523513E+02</pdfrwt>
<totfact> 0.63264756E+04</totfact>
</mgrwt>
</event>
<event>
 8    1  0.8247621E-014  0.8221211E+02  0.7818608E-02  0.1322888E+00
          1   -1    0    0  501    0  0.00000000000E+00  0.00000000000E+00  0.57483836488E+02  0.57483836709E+02  0.50400000000E-02 0. -1.
         -2   -1    0    0    0  501 -0.00000000000E+00 -0.00000000000E+00 -0.29394486287E+02  0.29394486397E+02  0.25500000000E-02 0.  1.
        -24    2    1    2    0    0 -0.44408920985E-15  0.71054273576E-14  0.28089350201E+02  0.86878323106E+02  0.82212112435E+02 0.  0.
         66    2    3    3    0    0 -0.26108456729E+01  0.34608482549E+02 -0.91750353554E+01  0.35954761031E+02  0.19999968833E+01 0.  0.
         13    1    3    3    0    0  0.26108456729E+01 -0.34608482549E+02  0.37264385557E+02  0.50923562075E+02  0.10566000000E+00 0. -1.
         13    1    4    4    0    0 -0.89756641372E+00  0.15551967903E+02 -0.37334145536E+01  0.16019328306E+02  0.10566000000E+00 0. -1.
        -13    1    4    4    0    0 -0.31297877373E+00  0.20405541349E+01 -0.20667189782E+00  0.20774248962E+01  0.10566000000E+00 0.  1.
         14    1    4    4    0    0 -0.14003004855E+01  0.17015960512E+02 -0.52349489040E+01  0.17858007829E+02  0.00000000000E+00 0. -1.
<mgrwt>
<rscale>  0 0.82212112E+02</rscale>
<asrwt>0</asrwt>
<pdfrwt beam="1">  1        1 0.88436671E-02 0.82212112E+02</pdfrwt>
<pdfrwt beam="2">  1       -2 0.45222287E-02 0.82212112E+02</pdfrwt>
<totfact> 0.12469875E+05</totfact>
</mgrwt>
</event>
<event>
 8    1  0.8247621E-014  0.7960816E+02  0.7818608E-02  0.1330167E+00
          1   -1    0    0  501    0  0.00000000000E+00  0.00000000000E+00  0.14764203130E+02  0.14764203990E+02  0.50400000000E-02 0. -1.
         -2   -1    0    0    0  501 -0.00000000000E+00 -0.00000000000E+00 -0.10731123466E+03  0.10731123469E+03  0.25500000000E-02 0.  1.
        -24    2    1    2    0    0  0.00000000000E+00  0.71054273576E-14 -0.92547031527E+02  0.12207543868E+03  0.79608163425E+02 0.  0.
         66    2    3    3    0    0  0.16564597750E+02 -0.35733125914E+02 -0.54856753455E+02  0.67561124856E+02  0.20000015267E+01 0.  0.
         13    1    3    3    0    0 -0.16564597750E+02  0.35733125914E+02 -0.37690278072E+02  0.54514313821E+02  0.10566000000E+00 0. -1.
         13    1    4    4    0    0  0.80130269896E+00 -0.26146499715E+01 -0.37750791508E+01  0.46627102762E+01  0.10566000000E+00 0. -1.
        -13    1    4    4    0    0  0.14735710022E+01 -0.34425067921E+01 -0.46641546163E+01  0.59822877591E+01  0.10566000000E+00 0.  1.
        -14    1    4    4    0    0  0.14289724049E+02 -0.29675969150E+02 -0.46417519687E+02  0.56916126821E+02  0.00000000000E+00 0.  1.
<mgrwt>
<rscale>  0 0.79608163E+02</rscale>
<asrwt>0</asrwt>
<pdfrwt beam="1">  1        1 0.22714160E-02 0.79608163E+02</pdfrwt>
<pdfrwt beam="2">  1       -2 0.16509420E-01 0.79608163E+02</pdfrwt>
<totfact> 0.10556196E+05</totfact>
</mgrwt>
</event>
<event>
 8    1  0.8247621E-014  0.7945609E+02  0.7818608E-02  0.1330602E+00
          1   -1    0    0  501    0  0.00000000000E+00  0.00000000000E+00  0.15155998541E+02  0.15155999379E+02  0.50400000000E-02 0. -1.
         -2   -1    0    0    0  501 -0.00000000000E+00 -0.00000000000E+00 -0.10413814033E+03  0.10413814036E+03  0.25500000000E-02 0.  1.
        -24    2    1    2    0    0  0.00000000000E+00  0.35527136788E-14 -0.88982141789E+02  0.11929413974E+03  0.79456089879E+02 0.  0.
         66    2    3    3    0    0 -0.24859434944E+02 -0.30434671718E+02 -0.53019172482E+02  0.66024945324E+02  0.20000015222E+01 0.  0.
         13    1    3    3    0    0  0.24859434944E+02  0.30434671718E+02 -0.35962969306E+02  0.53269194415E+02  0.10566000000E+00 0. -1.
         13    1    4    4    0    0 -0.15274977683E+02 -0.18662301097E+02 -0.33267179042E+02  0.41089205285E+02  0.10566000000E+00 0.  1.
        -13    1    4    4    0    0 -0.23350494084E+01 -0.34972738067E+01 -0.50248185830E+01  0.65531172465E+01  0.10566000000E+00 0. -1.
         14    1    4    4    0    0 -0.72494078521E+01 -0.82750968135E+01 -0.14727174857E+02  0.18382622793E+02  0.00000000000E+00 0. -1.
<mgrwt>
<rscale>  0 0.79456090E+02</rscale>
<asrwt>0</asrwt>
<pdfrwt beam="1">  1        1 0.23316922E-02 0.79456090E+02</pdfrwt>
<pdfrwt beam="2">  1       -2 0.16021252E-01 0.79456090E+02</pdfrwt>
<totfact> 0.10690215E+05</totfact>
</mgrwt>
</event>
<event>
 8    1  0.8247621E-014  0.8041653E+02  0.7818608E-02  0.1327874E+00
          1   -1    0    0  501    0  0.00000000000E+00  0.00000000000E+00  0.46288313020E+02  0.46288313294E+02  0.50400000000E-02 0. -1.
         -2   -1    0    0    0  501 -0.00000000000E+00 -0.00000000000E+00 -0.34926843867E+02  0.34926843960E+02  0.25500000000E-02 0.  1.
        -24    2    1    2    0    0  0.00000000000E+00  0.00000000000E+00  0.11361469153E+02  0.81215157254E+02  0.80416533042E+02 0.  0.
         66    2    3    3    0    0 -0.26009144758E+02  0.30628011745E+02  0.52943776008E+01  0.40578087005E+02  0.19999990660E+01 0.  0.
         13    1    3    3    0    0  0.26009144758E+02 -0.30628011745E+02  0.60670915517E+01  0.40637070249E+02  0.10566000000E+00 0. -1.
         13    1    4    4    0    0 -0.10530523599E+01  0.16178501664E+01  0.16085784444E+00  0.19399478641E+01  0.10566000000E+00 0. -1.
        -13    1    4    4    0    0 -0.14632974035E+02  0.18104477349E+02  0.31376030129E+01  0.23489396456E+02  0.10566000000E+00 0.  1.
        -14    1    4    4    0    0 -0.10323118363E+02  0.10905684230E+02  0.19959167435E+01  0.15148742684E+02  0.00000000000E+00 0.  1.
<mgrwt>
<rscale>  0 0.80416533E+02</rscale>
<asrwt>0</asrwt>
<pdfrwt beam="1">  1        1 0.71212790E-02 0.80416533E+02</pdfrwt>
<pdfrwt beam="2">  1       -2 0.53733606E-02 0.80416533E+02</pdfrwt>
<totfact> 0.12810693E+05</totfact>
</mgrwt>
</event>
<event>
 8    1  0.8247621E-014  0.7987905E+02  0.7818608E-02  0.1329395E+00
          1   -1    0    0  501    0  0.00000000000E+00  0.00000000000E+00  0.97843563180E+02  0.97843563309E+02  0.50400000000E-02 0. -1.
         -2   -1    0    0    0  501 -0.00000000000E+00 -0.00000000000E+00 -0.16303223961E+02  0.16303224160E+02  0.25500000000E-02 0.  1.
        -24    2    1    2    0    0  0.00000000000E+00  0.00000000000E+00  0.81540339219E+02  0.11414678747E+03  0.79879047126E+02 0.  0.
         66    2    3    3    0    0  0.27277375686E+02 -0.19230093505E+02  0.95104849705E+01  0.34760625026E+02  0.20000018248E+01 0.  0.
         13    1    3    3    0    0 -0.27277375686E+02  0.19230093505E+02  0.72029854248E+02  0.79386162444E+02  0.10566000000E+00 0. -1.
         13    1    4    4    0    0  0.79950873633E+01 -0.63138733300E+01  0.25664419180E+01  0.10506388843E+02  0.10566000000E+00 0. -1.
        -13    1    4    4    0    0  0.14016482220E+02 -0.10010515977E+02  0.51104337294E+01  0.17966632987E+02  0.10566000000E+00 0.  1.
        -14    1    4    4    0    0  0.52658061026E+01 -0.29057041985E+01  0.18336093230E+01  0.62876031959E+01  0.00000000000E+00 0.  1.
<mgrwt>
<rscale>  0 0.79879047E+02</rscale>
<asrwt>0</asrwt>
<pdfrwt beam="1">  1        1 0.15052856E-01 0.79879047E+02</pdfrwt>
<pdfrwt beam="2">  1       -2 0.25081884E-02 0.79879047E+02</pdfrwt>
<totfact> 0.14705494E+05</totfact>
</mgrwt>
</event>
<event>
 8    1  0.8247621E-014  0.8268964E+02  0.7818608E-02  0.1321587E+00
          1   -1    0    0  501    0  0.00000000000E+00  0.00000000000E+00  0.81630322321E+02  0.81630322476E+02  0.50400000000E-02 0. -1.
         -2   -1    0    0    0  501 -0.00000000000E+00 -0.00000000000E+00 -0.20940675656E+02  0.20940675811E+02  0.25500000000E-02 0.  1.
        -24    2    1    2    0    0  0.00000000000E+00 -0.17763568394E-14  0.60689646665E+02  0.10257099829E+03  0.82689639480E+02 0.  0.
         66    2    3    3    0    0 -0.24729304179E+02  0.15575437066E+02 -0.58712225421E+01  0.29876478558E+02  0.19999979857E+01 0.  0.
         13    1    3    3    0    0  0.24729304179E+02 -0.15575437066E+02  0.66560869207E+02  0.72694519729E+02  0.10566000000E+00 0. -1.
         13    1    4    4    0    0 -0.16534138696E+01  0.12495242309E+01 -0.59729876722E+00  0.21594022508E+01  0.10566000000E+00 0. -1.
        -13    1    4    4    0    0 -0.85658014262E+01  0.61677728117E+01 -0.17071939035E+01  0.10692990722E+02  0.10566000000E+00 0.  1.
        -14    1    4    4    0    0 -0.14510088883E+02  0.81581400231E+01 -0.35667298713E+01  0.17024085585E+02  0.00000000000E+00 0.  1.
<mgrwt>
<rscale>  0 0.82689639E+02</rscale>
<asrwt>0</asrwt>
<pdfrwt beam="1">  1        1 0.12558511E-01 0.82689639E+02</pdfrwt>
<pdfrwt beam="2">  1       -2 0.32216424E-02 0.82689639E+02</pdfrwt>
<totfact> 0.12989277E+05</totfact>
</mgrwt>
</event>
<event>
 8    1  0.8247621E-014  0.8097379E+02  0.7818608E-02  0.1326310E+00
          1   -1    0    0  501    0  0.00000000000E+00  0.00000000000E+00  0.39156978444E+03  0.39156978447E+03  0.50400000000E-02 0. -1.
         -2   -1    0    0    0  501 -0.00000000000E+00 -0.00000000000E+00 -0.41861978405E+01  0.41861986171E+01  0.25500000000E-02 0.  1.
        -24    2    1    2    0    0 -0.35527136788E-14  0.00000000000E+00  0.38738358660E+03  0.39575598309E+03  0.80973791960E+02 0.  0.
         66    2    3    3    0    0  0.23508131487E+02  0.32750674658E+02  0.17691793718E+03  0.18146403343E+03  0.19999995802E+01 0.  0.
         13    1    3    3    0    0 -0.23508131487E+02 -0.32750674658E+02  0.21046564942E+03  0.21429194965E+03  0.10566000000E+00 0. -1.
         13    1    4    4    0    0  0.10960263024E+02  0.16669896325E+02  0.87329824549E+02  0.89579697638E+02  0.10566000000E+00 0.  1.
        -13    1    4    4    0    0  0.99308636293E+01  0.12551910152E+02  0.71665296040E+02  0.73430908488E+02  0.10566000000E+00 0. -1.
         14    1    4    4    0    0  0.26170048342E+01  0.35288681816E+01  0.17922816589E+02  0.18453427308E+02  0.00000000000E+00 0. -1.
<mgrwt>
<rscale>  0 0.80973792E+02</rscale>
<asrwt>0</asrwt>
<pdfrwt beam="1">  1        1 0.60241494E-01 0.80973792E+02</pdfrwt>
<pdfrwt beam="2">  1       -2 0.64403062E-03 0.80973792E+02</pdfrwt>
<totfact> 0.18334375E+05</totfact>
</mgrwt>
</event>
<event>
 8    1  0.1054714E-013  0.7516521E+02  0.7818608E-02  0.1343360E+00
          1   -1    0    0  501    0  0.00000000000E+00  0.00000000000E+00  0.66982312101E+03  0.66982312103E+03  0.50400000000E-02 0. -1.
         -2   -1    0    0    0  501 -0.00000000000E+00 -0.00000000000E+00 -0.21086932948E+01  0.21086948366E+01  0.25500000000E-02 0.  1.
        -24    2    1    2    0    0  0.17763568394E-14  0.35527136788E-14  0.66771442771E+03  0.67193181586E+03  0.75165206002E+02 0.  0.
         66    2    3    3    0    0 -0.13336973265E+02 -0.31158923209E+02  0.47870517227E+03  0.47990769457E+03  0.19999994605E+01 0.  0.
         13    1    3    3    0    0  0.13336973265E+02  0.31158923209E+02  0.18900925545E+03  0.19202412130E+03  0.10566000000E+00 0. -1.
         13    1    4    4    0    0 -0.27006037603E+00 -0.13938123235E+01  0.21813433205E+02  0.21859841665E+02  0.10566000000E+00 0. -1.
        -13    1    4    4    0    0 -0.14469531777E+01 -0.39331973718E+01  0.61941949298E+02  0.62083652937E+02  0.10566000000E+00 0.  1.
        -14    1    4    4    0    0 -0.11619959711E+02 -0.25831913514E+02  0.39494978976E+03  0.39596419996E+03  0.00000000000E+00 0.  1.
<mgrwt>
<rscale>  0 0.75165206E+02</rscale>
<asrwt>0</asrwt>
<pdfrwt beam="1">  1        1 0.10304964E+00 0.75165206E+02</pdfrwt>
<pdfrwt beam="2">  1       -2 0.32441469E-03 0.75165206E+02</pdfrwt>
<totfact> 0.23549143E+05</totfact>
</mgrwt>
</event>
<event>
 8    1  0.8247621E-014  0.7954311E+02  0.7818608E-02  0.1330353E+00
          1   -1    0    0  501    0  0.00000000000E+00  0.00000000000E+00  0.51445744112E+02  0.51445744359E+02  0.50400000000E-02 0. -1.
         -2   -1    0    0    0  501 -0.00000000000E+00 -0.00000000000E+00 -0.30746498442E+02  0.30746498548E+02  0.25500000000E-02 0.  1.
        -24    2    1    2    0    0  0.35527136788E-14 -0.88817841970E-15  0.20699245671E+02  0.82192242907E+02  0.79543107952E+02 0.  0.
         66    2    3    3    0    0 -0.24580331410E+02  0.54357262789E+01 -0.21425845555E+02  0.33118071623E+02  0.19999994775E+01 0.  0.
         13    1    3    3    0    0  0.24580331410E+02 -0.54357262789E+01  0.42125091226E+02  0.49074171284E+02  0.10566000000E+00 0. -1.
         13    1    4    4    0    0 -0.79249873589E+01  0.13168647110E+01 -0.74144056647E+01  0.10932709303E+02  0.10566000000E+00 0. -1.
        -13    1    4    4    0    0 -0.12139647548E+02  0.25166133746E+01 -0.10459760286E+02  0.16221039879E+02  0.10566000000E+00 0.  1.
         14    1    4    4    0    0 -0.45156965023E+01  0.16022481933E+01 -0.35516796046E+01  0.59643224416E+01  0.00000000000E+00 0. -1.
<mgrwt>
<rscale>  0 0.79543108E+02</rscale>
<asrwt>0</asrwt>
<pdfrwt beam="1">  1        1 0.79147298E-02 0.79543108E+02</pdfrwt>
<pdfrwt beam="2">  1       -2 0.47302306E-02 0.79543108E+02</pdfrwt>
<totfact> 0.13427992E+05</totfact>
</mgrwt>
</event>
<event>
 8    1  0.8247621E-014  0.8061311E+02  0.7818608E-02  0.1327320E+00
         -2   -1    0    0    0  501 -0.00000000000E+00  0.00000000000E+00  0.15126116671E+02  0.15126116886E+02  0.25500000000E-02 0.  1.
          1   -1    0    0  501    0  0.00000000000E+00 -0.00000000000E+00 -0.10740485450E+03  0.10740485462E+03  0.50400000000E-02 0. -1.
        -24    2    1    2    0    0  0.00000000000E+00 -0.35527136788E-14 -0.92278737833E+02  0.12253097151E+03  0.80613110117E+02 0.  0.
         66    2    3    3    0    0  0.22133088816E+02  0.27521911061E+02 -0.75613285189E+02  0.83478728488E+02  0.20000010009E+01 0.  0.
         13    1    3    3    0    0 -0.22133088816E+02 -0.27521911061E+02 -0.16665452645E+02  0.39052243020E+02  0.10566000000E+00 0. -1.
         13    1    4    4    0    0  0.18709796483E+01  0.29225652354E+01 -0.65605182237E+01  0.74225006432E+01  0.10566000000E+00 0. -1.
        -13    1    4    4    0    0  0.14955374717E+02  0.18516205971E+02 -0.50997764930E+02  0.56278737623E+02  0.10566000000E+00 0.  1.
         14    1    4    4    0    0  0.53067344505E+01  0.60831398549E+01 -0.18055002035E+02  0.19777490223E+02  0.00000000000E+00 0. -1.
<mgrwt>
<rscale>  0 0.80613110E+02</rscale>
<asrwt>0</asrwt>
<pdfrwt beam="1">  1        1 0.16523823E-01 0.80613110E+02</pdfrwt>
<pdfrwt beam="2">  1       -2 0.23270950E-02 0.80613110E+02</pdfrwt>
<totfact> 0.14574864E+05</totfact>
</mgrwt>
</event>
<event>
 8    1  0.8247621E-014  0.8061429E+02  0.7818608E-02  0.1327317E+00
          1   -1    0    0  501    0  0.00000000000E+00  0.00000000000E+00  0.20926689256E+03  0.20926689262E+03  0.50400000000E-02 0. -1.
         -2   -1    0    0    0  501 -0.00000000000E+00 -0.00000000000E+00 -0.77636071490E+01  0.77636075678E+01  0.25500000000E-02 0.  1.
        -24    2    1    2    0    0  0.00000000000E+00  0.00000000000E+00  0.20150328541E+03  0.21703050019E+03  0.80614291417E+02 0.  0.
         66    2    3    3    0    0  0.24403239895E+02  0.26331651044E+02  0.51627259697E+02  0.62914608043E+02  0.19999993233E+01 0.  0.
         13    1    3    3    0    0 -0.24403239895E+02 -0.26331651044E+02  0.14987602571E+03  0.15411589215E+03  0.10566000000E+00 0. -1.
         13    1    4    4    0    0  0.24898743595E+01  0.29125773872E+01  0.56364734862E+01  0.68164197904E+01  0.10566000000E+00 0.  1.
        -13    1    4    4    0    0  0.14863558606E+02  0.15476413848E+02  0.32127992632E+02  0.38635007890E+02  0.10566000000E+00 0.  1.
        -14    1    4    4    0    0  0.70498069289E+01  0.79426598084E+01  0.13862793579E+02  0.17463180363E+02  0.00000000000E+00 0.  1.
<mgrwt>
<rscale>  0 0.80614291E+02</rscale>
<asrwt>0</asrwt>
<pdfrwt beam="1">  1        1 0.32194907E-01 0.80614291E+02</pdfrwt>
<pdfrwt beam="2">  1       -2 0.11944011E-02 0.80614291E+02</pdfrwt>
<totfact> 0.16483371E+05</totfact>
</mgrwt>
</event>
<event>
 8    1  0.8247621E-014  0.8053023E+02  0.7818608E-02  0.1327553E+00
          1   -1    0    0  501    0  0.00000000000E+00  0.00000000000E+00  0.17087120535E+03  0.17087120542E+03  0.50400000000E-02 0. -1.
         -2   -1    0    0    0  501 -0.00000000000E+00 -0.00000000000E+00 -0.94883128552E+01  0.94883131978E+01  0.25500000000E-02 0.  1.
        -24    2    1    2    0    0  0.00000000000E+00  0.00000000000E+00  0.16138289249E+03  0.18035951862E+03  0.80530230147E+02 0.  0.
         66    2    3    3    0    0 -0.30690770711E+02 -0.11853933948E+02  0.28849044432E+02  0.43803042382E+02  0.20000000965E+01 0.  0.
         13    1    3    3    0    0  0.30690770711E+02  0.11853933948E+02  0.13253384806E+03  0.13655647624E+03  0.10566000000E+00 0. -1.
         13    1    4    4    0    0 -0.78507165842E+01 -0.30956655771E+01  0.82291755814E+01  0.11787594794E+02  0.10566000000E+00 0. -1.
        -13    1    4    4    0    0 -0.16609870868E+02 -0.66701371624E+01  0.15659371970E+02  0.23782464855E+02  0.10566000000E+00 0.  1.
        -14    1    4    4    0    0 -0.62301832584E+01 -0.20881312088E+01  0.49604968803E+01  0.82329827328E+01  0.00000000000E+00 0.  1.
<mgrwt>
<rscale>  0 0.80530230E+02</rscale>
<asrwt>0</asrwt>
<pdfrwt beam="1">  1        1 0.26287878E-01 0.80530230E+02</pdfrwt>
<pdfrwt beam="2">  1       -2 0.14597405E-02 0.80530230E+02</pdfrwt>
<totfact> 0.15895136E+05</totfact>
</mgrwt>
</event>
<event>
 8    1  0.8247621E-014  0.7967879E+02  0.7818608E-02  0.1329965E+00
          1   -1    0    0  501    0  0.00000000000E+00  0.00000000000E+00  0.12573305968E+03  0.12573305978E+03  0.50400000000E-02 0. -1.
         -2   -1    0    0    0  501 -0.00000000000E+00 -0.00000000000E+00 -0.12623388323E+02  0.12623388581E+02  0.25500000000E-02 0.  1.
        -24    2    1    2    0    0 -0.17763568394E-14  0.17763568394E-14  0.11310967136E+03  0.13835644836E+03  0.79678786693E+02 0.  0.
         66    2    3    3    0    0 -0.12129273204E+02  0.15596587098E+02 -0.34307675276E+01  0.20152988781E+02  0.19999983440E+01 0.  0.
         13    1    3    3    0    0  0.12129273204E+02 -0.15596587098E+02  0.11654043888E+03  0.11820345958E+03  0.10566000000E+00 0. -1.
         13    1    4    4    0    0 -0.16300763252E+01  0.27074197586E+01 -0.10709598255E+01  0.33384711409E+01  0.10566000000E+00 0. -1.
        -13    1    4    4    0    0 -0.58177068148E+01  0.64650559402E+01 -0.11301754162E+01  0.87710387868E+01  0.10566000000E+00 0.  1.
        -14    1    4    4    0    0 -0.46814900645E+01  0.64241113997E+01 -0.12296322859E+01  0.80434788530E+01  0.00000000000E+00 0.  1.
<mgrwt>
<rscale>  0 0.79678787E+02</rscale>
<asrwt>0</asrwt>
<pdfrwt beam="1">  1        1 0.19343547E-01 0.79678787E+02</pdfrwt>
<pdfrwt beam="2">  1       -2 0.19420598E-02 0.79678787E+02</pdfrwt>
<totfact> 0.15457831E+05</totfact>
</mgrwt>
</event>
<event>
 8    1  0.8247621E-014  0.7957115E+02  0.7818608E-02  0.1330273E+00
          1   -1    0    0  501    0  0.00000000000E+00  0.00000000000E+00  0.54638776282E+02  0.54638776515E+02  0.50400000000E-02 0. -1.
         -2   -1    0    0    0  501 -0.00000000000E+00 -0.00000000000E+00 -0.28970119981E+02  0.28970120094E+02  0.25500000000E-02 0.  1.
        -24    2    1    2    0    0  0.35527136788E-14  0.00000000000E+00  0.25668656301E+02  0.83608896609E+02  0.79571148514E+02 0.  0.
         66    2    3    3    0    0 -0.30042414991E+02 -0.22998505454E+02  0.25685969038E+02  0.45773867662E+02  0.20000009245E+01 0.  0.
         13    1    3    3    0    0  0.30042414991E+02  0.22998505454E+02 -0.17312736889E-01  0.37835028947E+02  0.10566000000E+00 0. -1.
         13    1    4    4    0    0 -0.16907171483E+01 -0.12055712629E+01  0.15962609470E+01  0.26212858662E+01  0.10566000000E+00 0. -1.
        -13    1    4    4    0    0 -0.24620169320E+01 -0.13381931979E+01  0.17277787802E+01  0.32937322231E+01  0.10566000000E+00 0.  1.
        -14    1    4    4    0    0 -0.25889680911E+02 -0.20454740994E+02  0.22361929311E+02  0.39858849573E+02  0.00000000000E+00 0.  1.
<mgrwt>
<rscale>  0 0.79571149E+02</rscale>
<asrwt>0</asrwt>
<pdfrwt beam="1">  1        1 0.84059655E-02 0.79571149E+02</pdfrwt>
<pdfrwt beam="2">  1       -2 0.44569416E-02 0.79571149E+02</pdfrwt>
<totfact> 0.13541500E+05</totfact>
</mgrwt>
</event>
<event>
 8    1  0.8247621E-014  0.7801101E+02  0.7818608E-02  0.1334793E+00
         -2   -1    0    0    0  501 -0.00000000000E+00  0.00000000000E+00  0.69003491290E+02  0.69003491337E+02  0.25500000000E-02 0.  1.
          1   -1    0    0  501    0  0.00000000000E+00 -0.00000000000E+00 -0.22048587628E+02  0.22048588204E+02  0.50400000000E-02 0. -1.
        -24    2    1    2    0    0 -0.17763568394E-14  0.00000000000E+00  0.46954903663E+02  0.91052079541E+02  0.78011013394E+02 0.  0.
         66    2    3    3    0    0 -0.11404385709E+02 -0.29616253960E+01  0.66860585352E+02  0.67920314240E+02  0.19999936051E+01 0.  0.
         13    1    3    3    0    0  0.11404385709E+02  0.29616253960E+01 -0.19905681690E+02  0.23131765301E+02  0.10566000000E+00 0. -1.
         13    1    4    4    0    0 -0.92528997916E+00  0.15750205100E-01  0.59222932184E+01  0.59950922107E+01  0.10566000000E+00 0. -1.
        -13    1    4    4    0    0 -0.33748460967E+01 -0.11079738998E+01  0.24217148966E+02  0.24476491996E+02  0.10566000000E+00 0.  1.
         14    1    4    4    0    0 -0.71042496328E+01 -0.18694017013E+01  0.36721143168E+02  0.37448730034E+02  0.00000000000E+00 0. -1.
<mgrwt>
<rscale>  0 0.78011013E+02</rscale>
<asrwt>0</asrwt>
<pdfrwt beam="1">  1        1 0.33920906E-02 0.78011013E+02</pdfrwt>
<pdfrwt beam="2">  1       -2 0.10615921E-01 0.78011013E+02</pdfrwt>
<totfact> 0.12284700E+05</totfact>
</mgrwt>
</event>
<event>
 8    1  0.8247621E-014  0.8027871E+02  0.7818608E-02  0.1328262E+00
          1   -1    0    0  501    0  0.00000000000E+00  0.00000000000E+00  0.28229168321E+02  0.28229168771E+02  0.50400000000E-02 0. -1.
         -2   -1    0    0    0  501 -0.00000000000E+00 -0.00000000000E+00 -0.57074571938E+02  0.57074571995E+02  0.25500000000E-02 0.  1.
        -24    2    1    2    0    0  0.71054273576E-14  0.35527136788E-14 -0.28845403618E+02  0.85303740766E+02  0.80278707506E+02 0.  0.
         66    2    3    3    0    0 -0.28708700685E+02 -0.14980659538E+02 -0.39589626924E+02  0.51185429645E+02  0.19999981957E+01 0.  0.
         13    1    3    3    0    0  0.28708700685E+02  0.14980659538E+02  0.10744223306E+02  0.34118311121E+02  0.10566000000E+00 0. -1.
         13    1    4    4    0    0 -0.82363739911E+00 -0.71355478703E+00 -0.17064923893E+01  0.20275155510E+01  0.10566000000E+00 0. -1.
        -13    1    4    4    0    0 -0.87690825322E+01 -0.45690278918E+01 -0.11649965776E+02  0.15280893002E+02  0.10566000000E+00 0.  1.
         14    1    4    4    0    0 -0.19115980754E+02 -0.96980768593E+01 -0.26233168758E+02  0.33877021092E+02  0.00000000000E+00 0. -1.
<mgrwt>
<rscale>  0 0.80278708E+02</rscale>
<asrwt>0</asrwt>
<pdfrwt beam="1">  1        1 0.43429490E-02 0.80278708E+02</pdfrwt>
<pdfrwt beam="2">  1       -2 0.87807034E-02 0.80278708E+02</pdfrwt>
<totfact> 0.11844040E+05</totfact>
</mgrwt>
</event>
<event>
 8    1  0.8247621E-014  0.8032109E+02  0.7818608E-02  0.1328143E+00
          1   -1    0    0  501    0  0.00000000000E+00  0.00000000000E+00  0.16309574728E+03  0.16309574735E+03  0.50400000000E-02 0. -1.
         -2   -1    0    0    0  501 -0.00000000000E+00 -0.00000000000E+00 -0.98890950564E+01  0.98890953852E+01  0.25500000000E-02 0.  1.
        -24    2    1    2    0    0 -0.35527136788E-14  0.71054273576E-14  0.15320665222E+03  0.17298484274E+03  0.80321090214E+02 0.  0.
         66    2    3    3    0    0  0.16376781827E+02 -0.36465422530E+02  0.84397422755E+02  0.93406910831E+02  0.19999999982E+01 0.  0.
         13    1    3    3    0    0 -0.16376781827E+02  0.36465422530E+02  0.68809229465E+02  0.79577931909E+02  0.10566000000E+00 0. -1.
         13    1    4    4    0    0  0.50580318763E+01 -0.11745941423E+02  0.25636675465E+02  0.28649626861E+02  0.10566000000E+00 0.  1.
        -13    1    4    4    0    0  0.15158444982E+01 -0.40379803826E+01  0.10096148905E+02  0.10979365048E+02  0.10566000000E+00 0. -1.
        -14    1    4    4    0    0  0.98029054526E+01 -0.20681500724E+02  0.48664598385E+02  0.53777918922E+02  0.00000000000E+00 0.  1.
<mgrwt>
<rscale>  0 0.80321090E+02</rscale>
<asrwt>0</asrwt>
<pdfrwt beam="1">  1        1 0.25091654E-01 0.80321090E+02</pdfrwt>
<pdfrwt beam="2">  1       -2 0.15213992E-02 0.80321090E+02</pdfrwt>
<totfact> 0.15865788E+05</totfact>
</mgrwt>
</event>
<event>
 8    1  0.8247621E-014  0.7369709E+02  0.7818608E-02  0.1347954E+00
          1   -1    0    0  501    0  0.00000000000E+00  0.00000000000E+00  0.21981402180E+03  0.21981402186E+03  0.50400000000E-02 0. -1.
         -2   -1    0    0    0  501 -0.00000000000E+00 -0.00000000000E+00 -0.61771095717E+01  0.61771100980E+01  0.25500000000E-02 0.  1.
        -24    2    1    2    0    0  0.00000000000E+00  0.00000000000E+00  0.21363691223E+03  0.22599113196E+03  0.73697092591E+02 0.  0.
         66    2    3    3    0    0  0.32494352814E+02  0.16497649069E+02  0.90741694088E+02  0.97806494829E+02  0.19999987983E+01 0.  0.
         13    1    3    3    0    0 -0.32494352814E+02 -0.16497649069E+02  0.12289521814E+03  0.12818463713E+03  0.10566000000E+00 0. -1.
         13    1    4    4    0    0  0.47174808001E+01  0.28944467113E+01  0.13753969489E+02  0.14826169013E+02  0.10566000000E+00 0. -1.
        -13    1    4    4    0    0  0.27649775002E+02  0.13592161510E+02  0.76393036896E+02  0.82372107916E+02  0.10566000000E+00 0.  1.
        -14    1    4    4    0    0  0.12709701112E+00  0.11040848210E-01  0.59468770236E+00  0.60821790002E+00  0.00000000000E+00 0.  1.
<mgrwt>
<rscale>  0 0.73697093E+02</rscale>
<asrwt>0</asrwt>
<pdfrwt beam="1">  1        1 0.33817548E-01 0.73697093E+02</pdfrwt>
<pdfrwt beam="2">  1       -2 0.95032444E-03 0.73697093E+02</pdfrwt>
<totfact> 0.21087006E+05</totfact>
</mgrwt>
</event>
<event>
 8    1  0.8247621E-014  0.8596880E+02  0.7818608E-02  0.1312918E+00
          1   -1    0    0  501    0  0.00000000000E+00  0.00000000000E+00  0.35836228389E+02  0.35836228743E+02  0.50400000000E-02 0. -1.
         -2   -1    0    0    0  501 -0.00000000000E+00 -0.00000000000E+00 -0.51558396789E+02  0.51558396852E+02  0.25500000000E-02 0.  1.
        -24    2    1    2    0    0  0.00000000000E+00  0.00000000000E+00 -0.15722168400E+02  0.87394625595E+02  0.85968796686E+02 0.  0.
         66    2    3    3    0    0  0.25222647323E+02 -0.24879691310E+02 -0.32567986250E+02  0.48164870042E+02  0.20000000480E+01 0.  0.
         13    1    3    3    0    0 -0.25222647323E+02  0.24879691310E+02  0.16845817850E+02  0.39229755553E+02  0.10566000000E+00 0. -1.
         13    1    4    4    0    0  0.16376919540E+02 -0.17015991615E+02 -0.21161476272E+02  0.31710671805E+02  0.10566000000E+00 0. -1.
        -13    1    4    4    0    0  0.41822410076E+01 -0.33599425499E+01 -0.48322606255E+01  0.72209598097E+01  0.10566000000E+00 0.  1.
        -14    1    4    4    0    0  0.46634867753E+01 -0.45037571452E+01 -0.65742493518E+01  0.92332384278E+01  0.00000000000E+00 0.  1.
<mgrwt>
<rscale>  0 0.85968797E+02</rscale>
<asrwt>0</asrwt>
<pdfrwt beam="1">  1        1 0.55132660E-02 0.85968797E+02</pdfrwt>
<pdfrwt beam="2">  1       -2 0.79320610E-02 0.85968797E+02</pdfrwt>
<totfact> 0.10151261E+05</totfact>
</mgrwt>
</event>
<event>
 8    1  0.8247621E-014  0.8069094E+02  0.7818608E-02  0.1327102E+00
         -2   -1    0    0    0  501 -0.00000000000E+00  0.00000000000E+00  0.15092805488E+02  0.15092805703E+02  0.25500000000E-02 0.  1.
          1   -1    0    0  501    0  0.00000000000E+00 -0.00000000000E+00 -0.10784985679E+03  0.10784985690E+03  0.50400000000E-02 0. -1.
        -24    2    1    2    0    0 -0.44408920985E-15  0.00000000000E+00 -0.92757051297E+02  0.12294266261E+03  0.80690939537E+02 0.  0.
         66    2    3    3    0    0 -0.24696220594E+01 -0.20564534315E+02  0.63014909512E+01  0.21741847090E+02  0.20000054981E+01 0.  0.
         13    1    3    3    0    0  0.24696220594E+01  0.20564534315E+02 -0.99058542248E+02  0.10120081552E+03  0.10566000000E+00 0. -1.
         13    1    4    4    0    0 -0.12321728192E+00 -0.23673213922E+01  0.31688058538E+00  0.23939445301E+01  0.10566000000E+00 0.  1.
        -13    1    4    4    0    0 -0.33223963613E+00 -0.42172074269E+01  0.19452847958E+01  0.46573080883E+01  0.10566000000E+00 0.  1.
        -14    1    4    4    0    0 -0.20141651413E+01 -0.13980005496E+02  0.40393255700E+01  0.14690594472E+02  0.00000000000E+00 0.  1.
<mgrwt>
<rscale>  0 0.80690940E+02</rscale>
<asrwt>0</asrwt>
<pdfrwt beam="1">  1        1 0.16592285E-01 0.80690940E+02</pdfrwt>
<pdfrwt beam="2">  1       -2 0.23219702E-02 0.80690940E+02</pdfrwt>
<totfact> 0.14547266E+05</totfact>
</mgrwt>
</event>
<event>
 8    1  0.8247621E-014  0.8146429E+02  0.7818608E-02  0.1324947E+00
          1   -1    0    0  501    0  0.00000000000E+00  0.00000000000E+00  0.13544562290E+02  0.13544563228E+02  0.50400000000E-02 0. -1.
         -2   -1    0    0    0  501 -0.00000000000E+00 -0.00000000000E+00 -0.12249253287E+03  0.12249253289E+03  0.25500000000E-02 0.  1.
        -24    2    1    2    0    0  0.35527136788E-14 -0.17763568394E-14 -0.10894797058E+03  0.13603709612E+03  0.81464294192E+02 0.  0.
         66    2    3    3    0    0  0.26484522623E+02  0.95110468749E+01 -0.10362595582E+03  0.10739752636E+03  0.19999989491E+01 0.  0.
         13    1    3    3    0    0 -0.26484522623E+02 -0.95110468749E+01 -0.53220147516E+01  0.28639569764E+02  0.10566000000E+00 0. -1.
         13    1    4    4    0    0  0.34297351215E+01  0.14563109398E+01 -0.16085324880E+02  0.16511594868E+02  0.10566000000E+00 0. -1.
        -13    1    4    4    0    0  0.17922231579E+02  0.65293690037E+01 -0.67861206052E+02  0.70491088055E+02  0.10566000000E+00 0.  1.
         14    1    4    4    0    0  0.51325559216E+01  0.15253669314E+01 -0.19679424893E+02  0.20394843433E+02  0.00000000000E+00 0. -1.
<mgrwt>
<rscale>  0 0.81464294E+02</rscale>
<asrwt>0</asrwt>
<pdfrwt beam="1">  1        1 0.20837790E-02 0.81464294E+02</pdfrwt>
<pdfrwt beam="2">  1       -2 0.18845004E-01 0.81464294E+02</pdfrwt>
<totfact> 0.95982095E+04</totfact>
</mgrwt>
</event>
<event>
 8    1  0.8247621E-014  0.8028142E+02  0.7818608E-02  0.1328255E+00
         -2   -1    0    0    0  501 -0.00000000000E+00  0.00000000000E+00  0.21059372620E+02  0.21059372774E+02  0.25500000000E-02 0.  1.
          1   -1    0    0  501    0  0.00000000000E+00 -0.00000000000E+00 -0.76511148260E+02  0.76511148426E+02  0.50400000000E-02 0. -1.
        -24    2    1    2    0    0 -0.35527136788E-14  0.00000000000E+00 -0.55451775640E+02  0.97570521201E+02  0.80281424911E+02 0.  0.
         66    2    3    3    0    0 -0.25648235899E+02  0.22339580764E+02 -0.53592816451E+02  0.63506526034E+02  0.20000000516E+01 0.  0.
         13    1    3    3    0    0  0.25648235899E+02 -0.22339580764E+02 -0.18589591887E+01  0.34063995167E+02  0.10566000000E+00 0. -1.
         13    1    4    4    0    0 -0.22516437811E+01  0.16855589011E+01 -0.50825358418E+01  0.58098488056E+01  0.10566000000E+00 0. -1.
        -13    1    4    4    0    0 -0.66264323754E+01  0.61506686214E+01 -0.15052457227E+02  0.17559270006E+02  0.10566000000E+00 0.  1.
         14    1    4    4    0    0 -0.16770159743E+02  0.14503353241E+02 -0.33457823382E+02  0.40137407222E+02  0.00000000000E+00 0. -1.
<mgrwt>
<rscale>  0 0.80281425E+02</rscale>
<asrwt>0</asrwt>
<pdfrwt beam="1">  1        1 0.11770946E-01 0.80281425E+02</pdfrwt>
<pdfrwt beam="2">  1       -2 0.32399035E-02 0.80281425E+02</pdfrwt>
<totfact> 0.13934126E+05</totfact>
</mgrwt>
</event>
<event>
 8    1  0.8247621E-014  0.7745238E+02  0.7818608E-02  0.1336441E+00
          1   -1    0    0  501    0  0.00000000000E+00  0.00000000000E+00  0.21291531953E+03  0.21291531959E+03  0.50400000000E-02 0. -1.
         -2   -1    0    0    0  501 -0.00000000000E+00 -0.00000000000E+00 -0.70437282945E+01  0.70437287561E+01  0.25500000000E-02 0.  1.
        -24    2    1    2    0    0 -0.35527136788E-14  0.00000000000E+00  0.20587159123E+03  0.21995904835E+03  0.77452378087E+02 0.  0.
         66    2    3    3    0    0 -0.31761253154E+02 -0.17847781702E+02  0.65933434271E+02  0.75356076550E+02  0.20000011470E+01 0.  0.
         13    1    3    3    0    0  0.31761253154E+02  0.17847781702E+02  0.13993815696E+03  0.14460297180E+03  0.10566000000E+00 0. -1.
         13    1    4    4    0    0 -0.69702509171E+01 -0.44375960258E+01  0.14623478673E+02  0.16796843420E+02  0.10566000000E+00 0. -1.
        -13    1    4    4    0    0 -0.10252004018E+02 -0.63381915649E+01  0.21728668895E+02  0.24847987336E+02  0.10566000000E+00 0.  1.
         14    1    4    4    0    0 -0.14538998219E+02 -0.70719941117E+01  0.29581286703E+02  0.33711245793E+02  0.00000000000E+00 0. -1.
<mgrwt>
<rscale>  0 0.77452378E+02</rscale>
<asrwt>0</asrwt>
<pdfrwt beam="1">  1        1 0.32756203E-01 0.77452378E+02</pdfrwt>
<pdfrwt beam="2">  1       -2 0.10836506E-02 0.77452378E+02</pdfrwt>
<totfact> 0.18387814E+05</totfact>
</mgrwt>
</event>
<event>
 8    1  0.8247621E-014  0.8058816E+02  0.7818608E-02  0.1327391E+00
          1   -1    0    0  501    0  0.00000000000E+00  0.00000000000E+00  0.36429346286E+03  0.36429346289E+03  0.50400000000E-02 0. -1.
         -2   -1    0    0    0  501 -0.00000000000E+00 -0.00000000000E+00 -0.44568815814E+01  0.44568823109E+01  0.25500000000E-02 0.  1.
        -24    2    1    2    0    0  0.71054273576E-14  0.00000000000E+00  0.35983658127E+03  0.36875034520E+03  0.80588162052E+02 0.  0.
         66    2    3    3    0    0  0.34143102222E+02  0.18248234833E+02  0.12931060211E+03  0.13499622708E+03  0.20000011465E+01 0.  0.
         13    1    3    3    0    0 -0.34143102222E+02 -0.18248234833E+02  0.23052597917E+03  0.23375411812E+03  0.10566000000E+00 0. -1.
         13    1    4    4    0    0  0.23708469775E+02  0.12709238150E+02  0.87915733698E+02  0.91939130239E+02  0.10566000000E+00 0. -1.
        -13    1    4    4    0    0  0.79131559645E+01  0.44270090496E+01  0.30532471665E+02  0.31850579845E+02  0.10566000000E+00 0.  1.
         14    1    4    4    0    0  0.25214764822E+01  0.11119876331E+01  0.10862396746E+02  0.11206516998E+02  0.00000000000E+00 0. -1.
<mgrwt>
<rscale>  0 0.80588162E+02</rscale>
<asrwt>0</asrwt>
<pdfrwt beam="1">  1        1 0.56045146E-01 0.80588162E+02</pdfrwt>
<pdfrwt beam="2">  1       -2 0.68567417E-03 0.80588162E+02</pdfrwt>
<totfact> 0.18337997E+05</totfact>
</mgrwt>
</event>
<event>
 8    1  0.8247621E-014  0.7924392E+02  0.7818608E-02  0.1331211E+00
          1   -1    0    0  501    0  0.00000000000E+00  0.00000000000E+00  0.40226577024E+01  0.40226608597E+01  0.50400000000E-02 0. -1.
         -2   -1    0    0    0  501 -0.00000000000E+00 -0.00000000000E+00 -0.39026415369E+03  0.39026415370E+03  0.25500000000E-02 0.  1.
        -24    2    1    2    0    0 -0.17763568394E-14  0.00000000000E+00 -0.38624149599E+03  0.39428681456E+03  0.79243920345E+02 0.  0.
         66    2    3    3    0    0 -0.10813915639E+02  0.31258935798E+02 -0.30155101766E+03  0.30336624416E+03  0.20000008639E+01 0.  0.
         13    1    3    3    0    0  0.10813915639E+02 -0.31258935798E+02 -0.84690478329E+02  0.90920570403E+02  0.10566000000E+00 0. -1.
         13    1    4    4    0    0 -0.20888190748E+01  0.77589129849E+01 -0.76053921922E+02  0.76477278323E+02  0.10566000000E+00 0. -1.
        -13    1    4    4    0    0 -0.10368087946E+01  0.19241564978E+01 -0.19528269567E+02  0.19650491776E+02  0.10566000000E+00 0.  1.
        -14    1    4    4    0    0 -0.76882877700E+01  0.21575866315E+02 -0.20596882617E+03  0.20723847406E+03  0.00000000000E+00 0.  1.
<mgrwt>
<rscale>  0 0.79243920E+02</rscale>
<asrwt>0</asrwt>
<pdfrwt beam="1">  1        1 0.61887097E-03 0.79243920E+02</pdfrwt>
<pdfrwt beam="2">  1       -2 0.60040609E-01 0.79243920E+02</pdfrwt>
<totfact> 0.61549800E+04</totfact>
</mgrwt>
</event>
<event>
 8    1  0.8247621E-014  0.7756282E+02  0.7818608E-02  0.1336114E+00
          1   -1    0    0  501    0  0.00000000000E+00  0.00000000000E+00  0.34933058358E+03  0.34933058362E+03  0.50400000000E-02 0. -1.
         -2   -1    0    0    0  501 -0.00000000000E+00 -0.00000000000E+00 -0.43053701915E+01  0.43053709466E+01  0.25500000000E-02 0.  1.
        -24    2    1    2    0    0  0.17763568394E-14  0.00000000000E+00  0.34502521339E+03  0.35363595457E+03  0.77562816388E+02 0.  0.
         66    2    3    3    0    0  0.14337468418E+02  0.33451001183E+02  0.23336399095E+03  0.23619332073E+03  0.20000013791E+01 0.  0.
         13    1    3    3    0    0 -0.14337468418E+02 -0.33451001183E+02  0.11166122245E+03  0.11744263384E+03  0.10566000000E+00 0. -1.
         13    1    4    4    0    0  0.63458360135E+00  0.21676260504E+01  0.13812060921E+02  0.13995909758E+02  0.10566000000E+00 0. -1.
        -13    1    4    4    0    0  0.39425575245E+01  0.75598420064E+01  0.56546384552E+02  0.57185660274E+02  0.10566000000E+00 0.  1.
        -14    1    4    4    0    0  0.97603272924E+01  0.23723533126E+02  0.16300554547E+03  0.16501175070E+03  0.00000000000E+00 0.  1.
<mgrwt>
<rscale>  0 0.77562816E+02</rscale>
<asrwt>0</asrwt>
<pdfrwt beam="1">  1        1 0.53743187E-01 0.77562816E+02</pdfrwt>
<pdfrwt beam="2">  1       -2 0.66236446E-03 0.77562816E+02</pdfrwt>
<totfact> 0.20127954E+05</totfact>
</mgrwt>
</event>
<event>
 8    1  0.8247621E-014  0.8066107E+02  0.7818608E-02  0.1327186E+00
          1   -1    0    0  501    0  0.00000000000E+00  0.00000000000E+00  0.65964459509E+02  0.65964459701E+02  0.50400000000E-02 0. -1.
         -2   -1    0    0    0  501 -0.00000000000E+00 -0.00000000000E+00 -0.24658006084E+02  0.24658006215E+02  0.25500000000E-02 0.  1.
        -24    2    1    2    0    0  0.11102230246E-15  0.71054273576E-14  0.41306453425E+02  0.90622465917E+02  0.80661070128E+02 0.  0.
         66    2    3    3    0    0 -0.62496415613E+00 -0.38218475345E+02  0.62998531067E+01  0.38790857146E+02  0.20000027723E+01 0.  0.
         13    1    3    3    0    0  0.62496415613E+00  0.38218475345E+02  0.35006600318E+02  0.51831608771E+02  0.10566000000E+00 0. -1.
         13    1    4    4    0    0 -0.39802006015E+00 -0.25862298043E+02  0.36498278802E+01  0.26121816316E+02  0.10566000000E+00 0.  1.
        -13    1    4    4    0    0  0.29054252773E+00 -0.71898186612E+01  0.15129814571E+01  0.73537870697E+01  0.10566000000E+00 0. -1.
        -14    1    4    4    0    0 -0.51748662371E+00 -0.51663586403E+01  0.11370437694E+01  0.53152537606E+01  0.00000000000E+00 0.  1.
<mgrwt>
<rscale>  0 0.80661070E+02</rscale>
<asrwt>0</asrwt>
<pdfrwt beam="1">  1        1 0.10148378E-01 0.80661070E+02</pdfrwt>
<pdfrwt beam="2">  1       -2 0.37935394E-02 0.80661070E+02</pdfrwt>
<totfact> 0.13434165E+05</totfact>
</mgrwt>
</event>
<event>
 8    1  0.8247621E-014  0.7990179E+02  0.7818608E-02  0.1329330E+00
         -2   -1    0    0    0  501 -0.00000000000E+00  0.00000000000E+00  0.12349163778E+02  0.12349164041E+02  0.25500000000E-02 0.  1.
          1   -1    0    0  501    0  0.00000000000E+00 -0.00000000000E+00 -0.12924549524E+03  0.12924549534E+03  0.50400000000E-02 0. -1.
        -24    2    1    2    0    0  0.00000000000E+00  0.00000000000E+00 -0.11689633146E+03  0.14159465938E+03  0.79901785057E+02 0.  0.
         66    2    3    3    0    0 -0.26736470309E+02 -0.33516162756E+01 -0.62751964597E+01  0.27738966287E+02  0.19999959422E+01 0.  0.
         13    1    3    3    0    0  0.26736470309E+02  0.33516162756E+01 -0.11062113500E+03  0.11385569309E+03  0.10566000000E+00 0. -1.
         13    1    4    4    0    0 -0.88398053301E+01 -0.10667427378E+01 -0.14693153831E+01  0.90249736882E+01  0.10566000000E+00 0. -1.
        -13    1    4    4    0    0 -0.28076183862E+01 -0.29669570533E+00 -0.29767068117E+00  0.28408662788E+01  0.10566000000E+00 0.  1.
        -14    1    4    4    0    0 -0.15089046593E+02 -0.19881778325E+01 -0.45082103955E+01  0.15873126320E+02  0.00000000000E+00 0.  1.
<mgrwt>
<rscale>  0 0.79901785E+02</rscale>
<asrwt>0</asrwt>
<pdfrwt beam="1">  1        1 0.19883921E-01 0.79901785E+02</pdfrwt>
<pdfrwt beam="2">  1       -2 0.18998715E-02 0.79901785E+02</pdfrwt>
<totfact> 0.15417789E+05</totfact>
</mgrwt>
</event>
<event>
 8    1  0.8247621E-014  0.8074230E+02  0.7818608E-02  0.1326958E+00
         -2   -1    0    0    0  501 -0.00000000000E+00  0.00000000000E+00  0.97165248995E+01  0.97165252341E+01  0.25500000000E-02 0.  1.
          1   -1    0    0  501    0  0.00000000000E+00 -0.00000000000E+00 -0.16773793940E+03  0.16773793947E+03  0.50400000000E-02 0. -1.
        -24    2    1    2    0    0  0.00000000000E+00  0.00000000000E+00 -0.15802141450E+03  0.17745446471E+03  0.80742303686E+02 0.  0.
         66    2    3    3    0    0  0.34273407897E+02 -0.16030001746E+02 -0.48274521126E+02  0.61368207064E+02  0.20000008532E+01 0.  0.
         13    1    3    3    0    0 -0.34273407897E+02  0.16030001746E+02 -0.10974689337E+03  0.11608625764E+03  0.10566000000E+00 0. -1.
         13    1    4    4    0    0  0.17439666482E+02 -0.86981600831E+01 -0.23793804524E+02  0.30756401831E+02  0.10566000000E+00 0.  1.
        -13    1    4    4    0    0  0.16485556574E+02 -0.72119102074E+01 -0.24150645879E+02  0.30117272200E+02  0.10566000000E+00 0. -1.
         14    1    4    4    0    0  0.34818484167E+00 -0.11993145598E+00 -0.33007072346E+00  0.49453303285E+00  0.00000000000E+00 0. -1.
<mgrwt>
<rscale>  0 0.80742304E+02</rscale>
<asrwt>0</asrwt>
<pdfrwt beam="1">  1        1 0.25805835E-01 0.80742304E+02</pdfrwt>
<pdfrwt beam="2">  1       -2 0.14948501E-02 0.80742304E+02</pdfrwt>
<totfact> 0.15728856E+05</totfact>
</mgrwt>
</event>
<event>
 8    1  0.8247621E-014  0.7884369E+02  0.7818608E-02  0.1332365E+00
         -2   -1    0    0    0  501 -0.00000000000E+00  0.00000000000E+00  0.44791050504E+01  0.44791057763E+01  0.25500000000E-02 0.  1.
          1   -1    0    0  501    0  0.00000000000E+00 -0.00000000000E+00 -0.34696251233E+03  0.34696251237E+03  0.50400000000E-02 0. -1.
        -24    2    1    2    0    0  0.00000000000E+00  0.17763568394E-14 -0.34248340728E+03  0.35144161814E+03  0.78843685233E+02 0.  0.
         66    2    3    3    0    0  0.35414048321E+02  0.12466175079E+02 -0.11813846874E+03  0.12397684515E+03  0.19999994934E+01 0.  0.
         13    1    3    3    0    0 -0.35414048321E+02 -0.12466175079E+02 -0.22434493854E+03  0.22746477299E+03  0.10566000000E+00 0. -1.
         13    1    4    4    0    0  0.10774578453E+02  0.36648021699E+01 -0.34046722853E+02  0.35898646448E+02  0.10566000000E+00 0. -1.
        -13    1    4    4    0    0  0.14464894343E+02  0.55119041759E+01 -0.47818977066E+02  0.50262112845E+02  0.10566000000E+00 0.  1.
         14    1    4    4    0    0  0.10174575525E+02  0.32894687329E+01 -0.36272768822E+02  0.37816085859E+02  0.00000000000E+00 0. -1.
<mgrwt>
<rscale>  0 0.78843685E+02</rscale>
<asrwt>0</asrwt>
<pdfrwt beam="1">  1        1 0.53378827E-01 0.78843685E+02</pdfrwt>
<pdfrwt beam="2">  1       -2 0.68909342E-03 0.78843685E+02</pdfrwt>
<totfact> 0.19257636E+05</totfact>
</mgrwt>
</event>
<event>
 8    1  0.8247621E-014  0.7879410E+02  0.7818608E-02  0.1332509E+00
         -2   -1    0    0    0  501 -0.00000000000E+00  0.00000000000E+00  0.18983358824E+03  0.18983358826E+03  0.25500000000E-02 0.  1.
          1   -1    0    0  501    0  0.00000000000E+00 -0.00000000000E+00 -0.81762532970E+01  0.81762548504E+01  0.50400000000E-02 0. -1.
        -24    2    1    2    0    0 -0.17763568394E-14  0.00000000000E+00  0.18165733494E+03  0.19800984311E+03  0.78794102754E+02 0.  0.
         66    2    3    3    0    0  0.14915391996E+02  0.15144060578E+02  0.17416991093E+03  0.17547355744E+03  0.19999996099E+01 0.  0.
         13    1    3    3    0    0 -0.14915391996E+02 -0.15144060578E+02  0.74874240099E+01  0.22536285664E+02  0.10566000000E+00 0. -1.
         13    1    4    4    0    0  0.82872954650E+01  0.73612619529E+01  0.92404634034E+02  0.93067153167E+02  0.10566000000E+00 0. -1.
        -13    1    4    4    0    0  0.61260640359E+01  0.68625061068E+01  0.74508008164E+02  0.75073810981E+02  0.10566000000E+00 0.  1.
         14    1    4    4    0    0  0.50203249505E+00  0.92029251789E+00  0.72572687338E+01  0.73325932943E+01  0.00000000000E+00 0. -1.
<mgrwt>
<rscale>  0 0.78794103E+02</rscale>
<asrwt>0</asrwt>
<pdfrwt beam="1">  1        1 0.12578852E-02 0.78794103E+02</pdfrwt>
<pdfrwt beam="2">  1       -2 0.29205169E-01 0.78794103E+02</pdfrwt>
<totfact> 0.90329124E+04</totfact>
</mgrwt>
</event>
<event>
 8    1  0.8247621E-014  0.7908360E+02  0.7818608E-02  0.1331672E+00
          1   -1    0    0  501    0  0.00000000000E+00  0.00000000000E+00  0.16320719074E+03  0.16320719082E+03  0.50400000000E-02 0. -1.
         -2   -1    0    0    0  501 -0.00000000000E+00 -0.00000000000E+00 -0.95801773298E+01  0.95801776692E+01  0.25500000000E-02 0.  1.
        -24    2    1    2    0    0  0.35527136788E-14 -0.35527136788E-14  0.15362701341E+03  0.17278736849E+03  0.79083597916E+02 0.  0.
         66    2    3    3    0    0  0.18396393274E+02 -0.19882365936E+02  0.13999985915E+02  0.30557084328E+02  0.20000090785E+01 0.  0.
         13    1    3    3    0    0 -0.18396393274E+02  0.19882365936E+02  0.13962702749E+03  0.14223028416E+03  0.10566000000E+00 0. -1.
         13    1    4    4    0    0  0.49017745273E+01 -0.49189434212E+01  0.37986353800E+01  0.79160717963E+01  0.10566000000E+00 0. -1.
        -13    1    4    4    0    0  0.96610038265E+01 -0.11685533731E+02  0.74093757941E+01  0.16875920929E+02  0.10566000000E+00 0.  1.
        -14    1    4    4    0    0  0.38336149200E+01 -0.32778887846E+01  0.27919747412E+01  0.57650916033E+01  0.00000000000E+00 0.  1.
<mgrwt>
<rscale>  0 0.79083598E+02</rscale>
<asrwt>0</asrwt>
<pdfrwt beam="1">  1        1 0.25108797E-01 0.79083598E+02</pdfrwt>
<pdfrwt beam="2">  1       -2 0.14738736E-02 0.79083598E+02</pdfrwt>
<totfact> 0.16538351E+05</totfact>
</mgrwt>
</event>
<event>
 8    1  0.8247621E-014  0.8204309E+02  0.7818608E-02  0.1323351E+00
          1   -1    0    0  501    0  0.00000000000E+00  0.00000000000E+00  0.14730158542E+03  0.14730158550E+03  0.50400000000E-02 0. -1.
         -2   -1    0    0    0  501 -0.00000000000E+00 -0.00000000000E+00 -0.11423957993E+02  0.11423958278E+02  0.25500000000E-02 0.  1.
        -24    2    1    2    0    0  0.71054273576E-14 -0.17763568394E-14  0.13587762742E+03  0.15872554378E+03  0.82043089985E+02 0.  0.
         66    2    3    3    0    0 -0.35281858561E+02  0.10076333204E+02  0.10335851965E+03  0.10969651596E+03  0.19999989606E+01 0.  0.
         13    1    3    3    0    0  0.35281858561E+02 -0.10076333204E+02  0.32519107771E+02  0.49029027816E+02  0.10566000000E+00 0. -1.
         13    1    4    4    0    0 -0.68824821357E+01  0.24266092530E+01  0.19673906790E+02  0.20984059789E+02  0.10566000000E+00 0. -1.
        -13    1    4    4    0    0 -0.16171426850E+02  0.40241071473E+01  0.45690520284E+02  0.48634795081E+02  0.10566000000E+00 0.  1.
        -14    1    4    4    0    0 -0.12227949575E+02  0.36256168033E+01  0.37994092576E+02  0.40077661093E+02  0.00000000000E+00 0.  1.
<mgrwt>
<rscale>  0 0.82043090E+02</rscale>
<asrwt>0</asrwt>
<pdfrwt beam="1">  1        1 0.22661782E-01 0.82043090E+02</pdfrwt>
<pdfrwt beam="2">  1       -2 0.17575321E-02 0.82043090E+02</pdfrwt>
<totfact> 0.14708419E+05</totfact>
</mgrwt>
</event>
<event>
 8    1  0.8247621E-014  0.7983152E+02  0.7818608E-02  0.1329530E+00
         -2   -1    0    0    0  501 -0.00000000000E+00  0.00000000000E+00  0.84789424146E+03  0.84789424146E+03  0.25500000000E-02 0.  1.
          1   -1    0    0  501    0  0.00000000000E+00 -0.00000000000E+00 -0.18790848087E+01  0.18790915678E+01  0.50400000000E-02 0. -1.
        -24    2    1    2    0    0  0.00000000000E+00  0.00000000000E+00  0.84601515665E+03  0.84977333303E+03  0.79831524149E+02 0.  0.
         66    2    3    3    0    0  0.31104442992E+02 -0.61773245617E+01  0.68086628495E+03  0.68160732369E+03  0.20000004313E+01 0.  0.
         13    1    3    3    0    0 -0.31104442992E+02  0.61773245617E+01  0.16514887170E+03  0.16816600934E+03  0.10566000000E+00 0. -1.
         13    1    4    4    0    0  0.86424393231E+01 -0.99467102719E+00  0.17977943746E+03  0.17998982867E+03  0.10566000000E+00 0. -1.
        -13    1    4    4    0    0  0.34859482627E+01 -0.10901368230E+01  0.78057238732E+02  0.78142715054E+02  0.10566000000E+00 0.  1.
         14    1    4    4    0    0  0.18976055406E+02 -0.40925167115E+01  0.42302960876E+03  0.42347477996E+03  0.00000000000E+00 0. -1.
<mgrwt>
<rscale>  0 0.79831524E+02</rscale>
<asrwt>0</asrwt>
<pdfrwt beam="1">  1        1 0.28909116E-03 0.79831524E+02</pdfrwt>
<pdfrwt beam="2">  1       -2 0.13044497E+00 0.79831524E+02</pdfrwt>
<totfact> 0.31462066E+04</totfact>
</mgrwt>
</event>
<event>
 8    1  0.8247621E-014  0.7959535E+02  0.7818608E-02  0.1330204E+00
         -2   -1    0    0    0  501 -0.00000000000E+00  0.00000000000E+00  0.18513834571E+02  0.18513834746E+02  0.25500000000E-02 0.  1.
          1   -1    0    0  501    0  0.00000000000E+00 -0.00000000000E+00 -0.85549802611E+02  0.85549802759E+02  0.50400000000E-02 0. -1.
        -24    2    1    2    0    0 -0.35527136788E-14 -0.35527136788E-14 -0.67035968040E+02  0.10406363751E+03  0.79595349361E+02 0.  0.
         66    2    3    3    0    0 -0.26787315465E+02 -0.20860963215E+02 -0.64561617244E+01  0.34618233386E+02  0.20000006179E+01 0.  0.
         13    1    3    3    0    0  0.26787315465E+02  0.20860963215E+02 -0.60579806316E+02  0.69445404120E+02  0.10566000000E+00 0. -1.
         13    1    4    4    0    0 -0.65068871603E+01 -0.47464318259E+01 -0.16116820218E+01  0.82144311167E+01  0.10566000000E+00 0.  1.
        -13    1    4    4    0    0 -0.12195679587E+02 -0.86538880542E+01 -0.28062012294E+01  0.15215462807E+02  0.10566000000E+00 0.  1.
        -14    1    4    4    0    0 -0.80847487178E+01 -0.74606433345E+01 -0.20382784732E+01  0.11188339463E+02  0.00000000000E+00 0.  1.
<mgrwt>
<rscale>  0 0.79595349E+02</rscale>
<asrwt>0</asrwt>
<pdfrwt beam="1">  1        1 0.13161508E-01 0.79595349E+02</pdfrwt>
<pdfrwt beam="2">  1       -2 0.28482823E-02 0.79595349E+02</pdfrwt>
<totfact> 0.14522890E+05</totfact>
</mgrwt>
</event>
<event>
 8    1  0.8247621E-014  0.8068509E+02  0.7818608E-02  0.1327118E+00
         -2   -1    0    0    0  501 -0.00000000000E+00  0.00000000000E+00  0.37555820176E+02  0.37555820262E+02  0.25500000000E-02 0.  1.
          1   -1    0    0  501    0  0.00000000000E+00 -0.00000000000E+00 -0.43336047139E+02  0.43336047432E+02  0.50400000000E-02 0. -1.
        -24    2    1    2    0    0  0.17763568394E-14  0.00000000000E+00 -0.57802269633E+01  0.80891867694E+02  0.80685086821E+02 0.  0.
         66    2    3    3    0    0 -0.12670214397E+02 -0.91851715781E+01  0.34359957380E+02  0.37808840028E+02  0.20000008319E+01 0.  0.
         13    1    3    3    0    0  0.12670214397E+02  0.91851715781E+01 -0.40140184343E+02  0.43083027667E+02  0.10566000000E+00 0. -1.
         13    1    4    4    0    0 -0.40087436529E+01 -0.21629262916E+01  0.91775078898E+01  0.10246272050E+02  0.10566000000E+00 0.  1.
        -13    1    4    4    0    0 -0.72485487696E+01 -0.53326993039E+01  0.19996547542E+02  0.21928342818E+02  0.10566000000E+00 0. -1.
         14    1    4    4    0    0 -0.14129219744E+01 -0.16895459826E+01  0.51859019481E+01  0.56342251595E+01  0.00000000000E+00 0. -1.
<mgrwt>
<rscale>  0 0.80685087E+02</rscale>
<asrwt>0</asrwt>
<pdfrwt beam="1">  1        1 0.66670843E-02 0.80685087E+02</pdfrwt>
<pdfrwt beam="2">  1       -2 0.57778185E-02 0.80685087E+02</pdfrwt>
<totfact> 0.12558303E+05</totfact>
</mgrwt>
</event>
<event>
 8    1  0.8247621E-014  0.8211921E+02  0.7818608E-02  0.1323143E+00
         -2   -1    0    0    0  501 -0.00000000000E+00  0.00000000000E+00  0.17399240983E+02  0.17399241170E+02  0.25500000000E-02 0.  1.
          1   -1    0    0  501    0  0.00000000000E+00 -0.00000000000E+00 -0.96894520547E+02  0.96894520678E+02  0.50400000000E-02 0. -1.
        -24    2    1    2    0    0 -0.35527136788E-14  0.00000000000E+00 -0.79495279563E+02  0.11429376185E+03  0.82119209230E+02 0.  0.
         66    2    3    3    0    0  0.23432942035E+02  0.13070460751E+02  0.34408345565E+01  0.27125247429E+02  0.19999972387E+01 0.  0.
         13    1    3    3    0    0 -0.23432942035E+02 -0.13070460751E+02 -0.82936114120E+02  0.87168514419E+02  0.10566000000E+00 0. -1.
         13    1    4    4    0    0  0.19355724833E+01  0.10913829478E+01  0.34377775470E+00  0.22509786221E+01  0.10566000000E+00 0. -1.
        -13    1    4    4    0    0  0.39828009383E+01  0.22259145390E+01 -0.14821678157E+00  0.45662381781E+01  0.10566000000E+00 0.  1.
        -14    1    4    4    0    0  0.17514568613E+02  0.97531632647E+01  0.32452735833E+01  0.20308030629E+02  0.00000000000E+00 0.  1.
<mgrwt>
<rscale>  0 0.82119209E+02</rscale>
<asrwt>0</asrwt>
<pdfrwt beam="1">  1        1 0.14906849E-01 0.82119209E+02</pdfrwt>
<pdfrwt beam="2">  1       -2 0.26768064E-02 0.82119209E+02</pdfrwt>
<totfact> 0.13621414E+05</totfact>
</mgrwt>
</event>
<event>
 8    1  0.8247621E-014  0.7821318E+02  0.7818608E-02  0.1334200E+00
          1   -1    0    0  501    0  0.00000000000E+00  0.00000000000E+00  0.40061928190E+02  0.40061928507E+02  0.50400000000E-02 0. -1.
         -2   -1    0    0    0  501 -0.00000000000E+00 -0.00000000000E+00 -0.38174036530E+02  0.38174036615E+02  0.25500000000E-02 0.  1.
        -24    2    1    2    0    0 -0.35527136788E-14  0.00000000000E+00  0.18878916599E+01  0.78235965122E+02  0.78213183695E+02 0.  0.
         66    2    3    3    0    0 -0.24034608109E+02 -0.16826309543E+02 -0.24880269005E+02  0.38520317460E+02  0.19999979317E+01 0.  0.
         13    1    3    3    0    0  0.24034608109E+02  0.16826309543E+02  0.26768160665E+02  0.39715647662E+02  0.10566000000E+00 0. -1.
         13    1    4    4    0    0 -0.58872409644E+00 -0.12564266678E+00 -0.45985356828E+00  0.76486043256E+00  0.10566000000E+00 0. -1.
        -13    1    4    4    0    0 -0.93602944345E+01 -0.65286234134E+01 -0.92697687225E+01  0.14702986492E+02  0.10566000000E+00 0.  1.
         14    1    4    4    0    0 -0.14085589578E+02 -0.10172043463E+02 -0.15150646714E+02  0.23052470536E+02  0.00000000000E+00 0. -1.
<mgrwt>
<rscale>  0 0.78213184E+02</rscale>
<asrwt>0</asrwt>
<pdfrwt beam="1">  1        1 0.61633736E-02 0.78213184E+02</pdfrwt>
<pdfrwt beam="2">  1       -2 0.58729287E-02 0.78213184E+02</pdfrwt>
<totfact> 0.13533342E+05</totfact>
</mgrwt>
</event>
<event>
 8    1  0.8247621E-014  0.7973730E+02  0.7818608E-02  0.1329799E+00
          1   -1    0    0  501    0  0.00000000000E+00  0.00000000000E+00  0.76990386296E+02  0.76990386461E+02  0.50400000000E-02 0. -1.
         -2   -1    0    0    0  501 -0.00000000000E+00 -0.00000000000E+00 -0.20645555516E+02  0.20645555674E+02  0.25500000000E-02 0.  1.
        -24    2    1    2    0    0  0.17763568394E-14 -0.17763568394E-14  0.56344830780E+02  0.97635942134E+02  0.79737301440E+02 0.  0.
         66    2    3    3    0    0  0.15452881847E+02 -0.15705953342E+02 -0.12458551965E+02  0.25390629699E+02  0.20000079205E+01 0.  0.
         13    1    3    3    0    0 -0.15452881847E+02  0.15705953342E+02  0.68803382745E+02  0.72245312436E+02  0.10566000000E+00 0. -1.
         13    1    4    4    0    0  0.57178588953E+00 -0.38429024859E+00 -0.56241414377E+00  0.89559578122E+00  0.10566000000E+00 0. -1.
        -13    1    4    4    0    0  0.69721631621E+01 -0.61351236524E+01 -0.49723831950E+01  0.10535015902E+02  0.10566000000E+00 0.  1.
         14    1    4    4    0    0  0.79089327952E+01 -0.91865394411E+01 -0.69237546263E+01  0.13960018015E+02  0.00000000000E+00 0. -1.
<mgrwt>
<rscale>  0 0.79737301E+02</rscale>
<asrwt>0</asrwt>
<pdfrwt beam="1">  1        1 0.11844675E-01 0.79737301E+02</pdfrwt>
<pdfrwt beam="2">  1       -2 0.31762393E-02 0.79737301E+02</pdfrwt>
<totfact> 0.14209268E+05</totfact>
</mgrwt>
</event>
<event>
 8    1  0.8247621E-014  0.7896619E+02  0.7818608E-02  0.1332011E+00
          1   -1    0    0  501    0  0.00000000000E+00  0.00000000000E+00  0.25506753665E+03  0.25506753670E+03  0.50400000000E-02 0. -1.
         -2   -1    0    0    0  501 -0.00000000000E+00 -0.00000000000E+00 -0.61117723226E+01  0.61117728546E+01  0.25500000000E-02 0.  1.
        -24    2    1    2    0    0  0.00000000000E+00  0.00000000000E+00  0.24895576433E+03  0.26117930956E+03  0.78966189901E+02 0.  0.
         66    2    3    3    0    0  0.38618618134E+02  0.29604267429E+01  0.99641811150E+02  0.10692358172E+03  0.20000012264E+01 0.  0.
         13    1    3    3    0    0 -0.38618618134E+02 -0.29604267429E+01  0.14931395318E+03  0.15425572784E+03  0.10566000000E+00 0. -1.
         13    1    4    4    0    0  0.29945156602E+02  0.16883215697E+01  0.77434899484E+02  0.83040578368E+02  0.10566000000E+00 0. -1.
        -13    1    4    4    0    0  0.70161898588E+01  0.79415120586E+00  0.17610503442E+02  0.18973628851E+02  0.10566000000E+00 0.  1.
         14    1    4    4    0    0  0.16572716733E+01  0.47795396741E+00  0.45964082251E+01  0.49093744985E+01  0.00000000000E+00 0. -1.
<mgrwt>
<rscale>  0 0.78966190E+02</rscale>
<asrwt>0</asrwt>
<pdfrwt beam="1">  1        1 0.39241148E-01 0.78966190E+02</pdfrwt>
<pdfrwt beam="2">  1       -2 0.94027298E-03 0.78966190E+02</pdfrwt>
<totfact> 0.18094481E+05</totfact>
</mgrwt>
</event>
<event>
 8    1  0.8247621E-014  0.8149252E+02  0.7818608E-02  0.1324868E+00
         -2   -1    0    0    0  501 -0.00000000000E+00  0.00000000000E+00  0.28385203738E+02  0.28385203852E+02  0.25500000000E-02 0.  1.
          1   -1    0    0  501    0  0.00000000000E+00 -0.00000000000E+00 -0.58490254933E+02  0.58490255150E+02  0.50400000000E-02 0. -1.
        -24    2    1    2    0    0  0.71054273576E-14  0.88817841970E-15 -0.30105051195E+02  0.86875459003E+02  0.81492522782E+02 0.  0.
         66    2    3    3    0    0  0.34997186610E+02  0.63570667200E+01  0.60731440807E+01  0.36139984772E+02  0.20000130983E+01 0.  0.
         13    1    3    3    0    0 -0.34997186610E+02 -0.63570667200E+01 -0.36178195276E+02  0.50735474230E+02  0.10566000000E+00 0. -1.
         13    1    4    4    0    0  0.98622813438E+01  0.19440979055E+01  0.19031726736E+01  0.10231194467E+02  0.10566000000E+00 0. -1.
        -13    1    4    4    0    0  0.12911169990E+02  0.30747626988E+01  0.23084956056E+01  0.13471926075E+02  0.10566000000E+00 0.  1.
         14    1    4    4    0    0  0.12223735276E+02  0.13382061157E+01  0.18614758015E+01  0.12436864230E+02  0.00000000000E+00 0. -1.
<mgrwt>
<rscale>  0 0.81492523E+02</rscale>
<asrwt>0</asrwt>
<pdfrwt beam="1">  1        1 0.89985008E-02 0.81492523E+02</pdfrwt>
<pdfrwt beam="2">  1       -2 0.43669544E-02 0.81492523E+02</pdfrwt>
<totfact> 0.12812899E+05</totfact>
</mgrwt>
</event>
<event>
 8    1  0.8247621E-014  0.7042987E+02  0.7818608E-02  0.1358637E+00
          1   -1    0    0  501    0  0.00000000000E+00  0.00000000000E+00  0.14649912272E+03  0.14649912281E+03  0.50400000000E-02 0. -1.
         -2   -1    0    0    0  501 -0.00000000000E+00 -0.00000000000E+00 -0.84648407280E+01  0.84648411121E+01  0.25500000000E-02 0.  1.
        -24    2    1    2    0    0  0.00000000000E+00  0.35527136788E-14  0.13803428199E+03  0.15496396392E+03  0.70429873693E+02 0.  0.
         66    2    3    3    0    0  0.83545712215E+01 -0.20353874862E+02  0.86552785270E+01  0.23727472104E+02  0.20000009746E+01 0.  0.
         13    1    3    3    0    0 -0.83545712215E+01  0.20353874862E+02  0.12937900347E+03  0.13123649182E+03  0.10566000000E+00 0. -1.
         13    1    4    4    0    0  0.53231641709E+01 -0.13570615299E+02  0.55725285377E+01  0.15606470284E+02  0.10566000000E+00 0. -1.
        -13    1    4    4    0    0  0.21037975296E+01 -0.41492852882E+01  0.13945352250E+01  0.48578210113E+01  0.10566000000E+00 0.  1.
         14    1    4    4    0    0  0.92760952095E+00 -0.26339742746E+01  0.16882147644E+01  0.32631808092E+01  0.00000000000E+00 0. -1.
<mgrwt>
<rscale>  0 0.70429874E+02</rscale>
<asrwt>0</asrwt>
<pdfrwt beam="1">  1        1 0.22538326E-01 0.70429874E+02</pdfrwt>
<pdfrwt beam="2">  1       -2 0.13022832E-02 0.70429874E+02</pdfrwt>
<totfact> 0.22036169E+05</totfact>
</mgrwt>
</event>
<event>
 8    1  0.8247621E-014  0.7994897E+02  0.7818608E-02  0.1329196E+00
         -2   -1    0    0    0  501 -0.00000000000E+00  0.00000000000E+00  0.15297053649E+02  0.15297053862E+02  0.25500000000E-02 0.  1.
          1   -1    0    0  501    0  0.00000000000E+00 -0.00000000000E+00 -0.10446191461E+03  0.10446191473E+03  0.50400000000E-02 0. -1.
        -24    2    1    2    0    0  0.00000000000E+00  0.00000000000E+00 -0.89164860957E+02  0.11975896859E+03  0.79948972027E+02 0.  0.
         66    2    3    3    0    0 -0.91511077286E+01 -0.18157498241E+02  0.69006160302E+01  0.21565157441E+02  0.19999997140E+01 0.  0.
         13    1    3    3    0    0  0.91511077286E+01  0.18157498241E+02 -0.96065476987E+02  0.98193811148E+02  0.10566000000E+00 0. -1.
         13    1    4    4    0    0 -0.41364112049E+01 -0.91794277781E+01  0.38478350465E+01  0.10779090433E+02  0.10566000000E+00 0. -1.
        -13    1    4    4    0    0 -0.46455506086E+01 -0.77575666246E+01  0.29273008236E+01  0.95048006049E+01  0.10566000000E+00 0.  1.
         14    1    4    4    0    0 -0.36914591510E+00 -0.12205038380E+01  0.12548016000E+00  0.12812664032E+01  0.00000000000E+00 0. -1.
<mgrwt>
<rscale>  0 0.79948972E+02</rscale>
<asrwt>0</asrwt>
<pdfrwt beam="1">  1        1 0.16071063E-01 0.79948972E+02</pdfrwt>
<pdfrwt beam="2">  1       -2 0.23533930E-02 0.79948972E+02</pdfrwt>
<totfact> 0.14833475E+05</totfact>
</mgrwt>
</event>
<event>
 8    1  0.8247621E-014  0.7971326E+02  0.7818608E-02  0.1329867E+00
          1   -1    0    0  501    0  0.00000000000E+00  0.00000000000E+00  0.11348639569E+02  0.11348640688E+02  0.50400000000E-02 0. -1.
         -2   -1    0    0    0  501 -0.00000000000E+00 -0.00000000000E+00 -0.13997720568E+03  0.13997720570E+03  0.25500000000E-02 0.  1.
        -24    2    1    2    0    0  0.00000000000E+00  0.17763568394E-14 -0.12862856611E+03  0.15132584639E+03  0.79713259663E+02 0.  0.
         66    2    3    3    0    0 -0.33765112534E+02 -0.81024337917E+01 -0.10140044446E+03  0.10719973133E+03  0.20000005439E+01 0.  0.
         13    1    3    3    0    0  0.33765112534E+02  0.81024337917E+01 -0.27228121646E+02  0.44126115059E+02  0.10566000000E+00 0. -1.
         13    1    4    4    0    0 -0.15532341237E+02 -0.41107986159E+01 -0.44651707939E+02  0.47454593829E+02  0.10566000000E+00 0. -1.
        -13    1    4    4    0    0 -0.17266161866E+02 -0.39552753746E+01 -0.54007671197E+02  0.56838404807E+02  0.10566000000E+00 0.  1.
         14    1    4    4    0    0 -0.96660943149E+00 -0.36359801216E-01 -0.27410653255E+01  0.29067326927E+01  0.00000000000E+00 0. -1.
<mgrwt>
<rscale>  0 0.79713260E+02</rscale>
<asrwt>0</asrwt>
<pdfrwt beam="1">  1        1 0.17459447E-02 0.79713260E+02</pdfrwt>
<pdfrwt beam="2">  1       -2 0.21534954E-01 0.79713260E+02</pdfrwt>
<totfact> 0.97526012E+04</totfact>
</mgrwt>
</event>
<event>
 8    1  0.8247621E-014  0.8203530E+02  0.7818608E-02  0.1323373E+00
         -2   -1    0    0    0  501 -0.00000000000E+00  0.00000000000E+00  0.17699498396E+02  0.17699498580E+02  0.25500000000E-02 0.  1.
          1   -1    0    0  501    0  0.00000000000E+00 -0.00000000000E+00 -0.95056239076E+02  0.95056239209E+02  0.50400000000E-02 0. -1.
        -24    2    1    2    0    0  0.00000000000E+00 -0.35527136788E-14 -0.77356740679E+02  0.11275573779E+03  0.82035303839E+02 0.  0.
         66    2    3    3    0    0 -0.34362232559E+02  0.17771519300E+02 -0.57338168534E+02  0.69197221752E+02  0.20000006774E+01 0.  0.
         13    1    3    3    0    0  0.34362232559E+02 -0.17771519300E+02 -0.20018572145E+02  0.43558516038E+02  0.10566000000E+00 0. -1.
         13    1    4    4    0    0 -0.61648837225E+01  0.38776610144E+01 -0.11004588255E+02  0.13196748575E+02  0.10566000000E+00 0. -1.
        -13    1    4    4    0    0 -0.23775305634E+02  0.11599359648E+02 -0.39634082371E+02  0.47651673125E+02  0.10566000000E+00 0.  1.
         14    1    4    4    0    0 -0.44220432018E+01  0.22944986374E+01 -0.66994979085E+01  0.83488000516E+01  0.00000000000E+00 0. -1.
<mgrwt>
<rscale>  0 0.82035304E+02</rscale>
<asrwt>0</asrwt>
<pdfrwt beam="1">  1        1 0.14624037E-01 0.82035304E+02</pdfrwt>
<pdfrwt beam="2">  1       -2 0.27229998E-02 0.82035304E+02</pdfrwt>
<totfact> 0.13615125E+05</totfact>
</mgrwt>
</event>
<event>
 8    1  0.8247621E-014  0.7970239E+02  0.7818608E-02  0.1329898E+00
         -2   -1    0    0    0  501 -0.00000000000E+00  0.00000000000E+00  0.17113325156E+02  0.17113325346E+02  0.25500000000E-02 0.  1.
          1   -1    0    0  501    0  0.00000000000E+00 -0.00000000000E+00 -0.92800060325E+02  0.92800060462E+02  0.50400000000E-02 0. -1.
        -24    2    1    2    0    0  0.00000000000E+00 -0.35527136788E-14 -0.75686735169E+02  0.10991338581E+03  0.79702387036E+02 0.  0.
         66    2    3    3    0    0 -0.27718572046E+02  0.27704610295E+02 -0.47642622327E+02  0.61722638802E+02  0.20000026682E+01 0.  0.
         13    1    3    3    0    0  0.27718572046E+02 -0.27704610295E+02 -0.28044112842E+02  0.48190747006E+02  0.10566000000E+00 0. -1.
         13    1    4    4    0    0 -0.11233125509E+02  0.10648018119E+02 -0.19532465237E+02  0.24921712638E+02  0.10566000000E+00 0. -1.
        -13    1    4    4    0    0 -0.10960194102E+02  0.11886959729E+02 -0.19766737629E+02  0.25537438142E+02  0.10566000000E+00 0.  1.
         14    1    4    4    0    0 -0.55252524345E+01  0.51696324477E+01 -0.83434194610E+01  0.11263488022E+02  0.00000000000E+00 0. -1.
<mgrwt>
<rscale>  0 0.79702387E+02</rscale>
<asrwt>0</asrwt>
<pdfrwt beam="1">  1        1 0.14276932E-01 0.79702387E+02</pdfrwt>
<pdfrwt beam="2">  1       -2 0.26328193E-02 0.79702387E+02</pdfrwt>
<totfact> 0.14664259E+05</totfact>
</mgrwt>
</event>
<event>
 8    1  0.8247621E-014  0.8075608E+02  0.7818608E-02  0.1326919E+00
          1   -1    0    0  501    0  0.00000000000E+00  0.00000000000E+00  0.41231493633E+02  0.41231493941E+02  0.50400000000E-02 0. -1.
         -2   -1    0    0    0  501 -0.00000000000E+00 -0.00000000000E+00 -0.39542253299E+02  0.39542253382E+02  0.25500000000E-02 0.  1.
        -24    2    1    2    0    0  0.00000000000E+00 -0.35527136788E-14  0.16892403334E+01  0.80773747322E+02  0.80756081651E+02 0.  0.
         66    2    3    3    0    0 -0.52206248376E+01  0.27540295330E+02 -0.28189792649E+02  0.39804361599E+02  0.20000005333E+01 0.  0.
         13    1    3    3    0    0  0.52206248376E+01 -0.27540295330E+02  0.29879032983E+02  0.40969385724E+02  0.10566000000E+00 0. -1.
         13    1    4    4    0    0 -0.12209075664E+01  0.79093941033E+01 -0.78531652598E+01  0.11213050388E+02  0.10566000000E+00 0. -1.
        -13    1    4    4    0    0 -0.41303805612E+01  0.18827925855E+02 -0.19352951064E+02  0.27314807605E+02  0.10566000000E+00 0.  1.
        -14    1    4    4    0    0  0.13066328992E+00  0.80297537125E+00 -0.98367632533E+00  0.12765036056E+01  0.00000000000E+00 0.  1.
<mgrwt>
<rscale>  0 0.80756082E+02</rscale>
<asrwt>0</asrwt>
<pdfrwt beam="1">  1        1 0.63433067E-02 0.80756082E+02</pdfrwt>
<pdfrwt beam="2">  1       -2 0.60834237E-02 0.80756082E+02</pdfrwt>
<totfact> 0.12426634E+05</totfact>
</mgrwt>
</event>
<event>
 8    1  0.8247621E-014  0.8006940E+02  0.7818608E-02  0.1328855E+00
         -2   -1    0    0    0  501 -0.00000000000E+00  0.00000000000E+00  0.10341035838E+03  0.10341035841E+03  0.25500000000E-02 0.  1.
          1   -1    0    0  501    0  0.00000000000E+00 -0.00000000000E+00 -0.15499194001E+02  0.15499194821E+02  0.50400000000E-02 0. -1.
        -24    2    1    2    0    0  0.00000000000E+00  0.00000000000E+00  0.87911164382E+02  0.11890955324E+03  0.80069401320E+02 0.  0.
         66    2    3    3    0    0 -0.51390924720E+00 -0.22674629601E+02  0.92931377733E+02  0.95679903294E+02  0.19999991990E+01 0.  0.
         13    1    3    3    0    0  0.51390924720E+00  0.22674629601E+02 -0.50202133511E+01  0.23229649941E+02  0.10566000000E+00 0. -1.
         13    1    4    4    0    0 -0.93644188034E-01 -0.66402047258E+01  0.24269042565E+02  0.25161452246E+02  0.10566000000E+00 0. -1.
        -13    1    4    4    0    0  0.16316901525E+00 -0.10578538071E+02  0.46081985706E+02  0.47280996843E+02  0.10566000000E+00 0.  1.
        -14    1    4    4    0    0 -0.58343407442E+00 -0.54558868041E+01  0.22580349462E+02  0.23237454205E+02  0.00000000000E+00 0.  1.
<mgrwt>
<rscale>  0 0.80069401E+02</rscale>
<asrwt>0</asrwt>
<pdfrwt beam="1">  1        1 0.23844915E-02 0.80069401E+02</pdfrwt>
<pdfrwt beam="2">  1       -2 0.15909286E-01 0.80069401E+02</pdfrwt>
<totfact> 0.10500476E+05</totfact>
</mgrwt>
</event>
<event>
 8    1  0.8247621E-014  0.8109584E+02  0.7818608E-02  0.1325970E+00
          1   -1    0    0  501    0  0.00000000000E+00  0.00000000000E+00  0.10057925184E+03  0.10057925197E+03  0.50400000000E-02 0. -1.
         -2   -1    0    0    0  501 -0.00000000000E+00 -0.00000000000E+00 -0.16346650561E+02  0.16346650760E+02  0.25500000000E-02 0.  1.
        -24    2    1    2    0    0 -0.88817841970E-15  0.00000000000E+00  0.84232601278E+02  0.11692590273E+03  0.81095842126E+02 0.  0.
         66    2    3    3    0    0 -0.50662376020E+01  0.34440285225E+02  0.12232120914E+02  0.36951654705E+02  0.19999983928E+01 0.  0.
         13    1    3    3    0    0  0.50662376020E+01 -0.34440285225E+02  0.72000480364E+02  0.79974248021E+02  0.10566000000E+00 0. -1.
         13    1    4    4    0    0 -0.24843605805E+00  0.31064807868E+01  0.14628581657E+01  0.34442795186E+01  0.10566000000E+00 0. -1.
        -13    1    4    4    0    0 -0.95353239212E+00  0.99977517169E+01  0.36147993466E+01  0.10674371259E+02  0.10566000000E+00 0.  1.
        -14    1    4    4    0    0 -0.38642691519E+01  0.21336052721E+02  0.71544634021E+01  0.22833003928E+02  0.00000000000E+00 0.  1.
<mgrwt>
<rscale>  0 0.81095842E+02</rscale>
<asrwt>0</asrwt>
<pdfrwt beam="1">  1        1 0.15473731E-01 0.81095842E+02</pdfrwt>
<pdfrwt beam="2">  1       -2 0.25148694E-02 0.81095842E+02</pdfrwt>
<totfact> 0.14181865E+05</totfact>
</mgrwt>
</event>
<event>
 8    1  0.8247621E-014  0.7214765E+02  0.7818608E-02  0.1352938E+00
         -2   -1    0    0    0  501 -0.00000000000E+00  0.00000000000E+00  0.76730224175E+02  0.76730224217E+02  0.25500000000E-02 0.  1.
          1   -1    0    0  501    0  0.00000000000E+00 -0.00000000000E+00 -0.16959691762E+02  0.16959692511E+02  0.50400000000E-02 0. -1.
        -24    2    1    2    0    0 -0.44408920985E-15  0.17763568394E-14  0.59770532413E+02  0.93689916728E+02  0.72147653819E+02 0.  0.
         66    2    3    3    0    0  0.28977446710E+01 -0.14567253569E+02  0.72558642467E+02  0.74090204396E+02  0.19999975190E+01 0.  0.
         13    1    3    3    0    0 -0.28977446710E+01  0.14567253569E+02 -0.12788110054E+02  0.19599712332E+02  0.10566000000E+00 0. -1.
         13    1    4    4    0    0 -0.39606825587E-01 -0.35345779700E+00  0.14349641413E+01  0.14821562797E+01  0.10566000000E+00 0.  1.
        -13    1    4    4    0    0  0.24363717772E+01 -0.12816788861E+02  0.65822288277E+02  0.67102837364E+02  0.10566000000E+00 0.  1.
        -14    1    4    4    0    0  0.50097971939E+00 -0.13970069103E+01  0.53013900483E+01  0.55052107526E+01  0.00000000000E+00 0.  1.
<mgrwt>
<rscale>  0 0.72147654E+02</rscale>
<asrwt>0</asrwt>
<pdfrwt beam="1">  1        1 0.26091835E-02 0.72147654E+02</pdfrwt>
<pdfrwt beam="2">  1       -2 0.11804650E-01 0.72147654E+02</pdfrwt>
<totfact> 0.14658064E+05</totfact>
</mgrwt>
</event>
<event>
 8    1  0.8247621E-014  0.8057212E+02  0.7818608E-02  0.1327436E+00
         -2   -1    0    0    0  501 -0.00000000000E+00  0.00000000000E+00  0.24257906900E+03  0.24257906901E+03  0.25500000000E-02 0.  1.
          1   -1    0    0  501    0  0.00000000000E+00 -0.00000000000E+00 -0.66904632437E+01  0.66904651420E+01  0.50400000000E-02 0. -1.
        -24    2    1    2    0    0 -0.35527136788E-14  0.00000000000E+00  0.23588860575E+03  0.24926953415E+03  0.80572118827E+02 0.  0.
         66    2    3    3    0    0 -0.20239909007E+02  0.33148877414E+02  0.15082499653E+03  0.15575840771E+03  0.20000009171E+01 0.  0.
         13    1    3    3    0    0  0.20239909007E+02 -0.33148877414E+02  0.85063609228E+02  0.93511126446E+02  0.10566000000E+00 0. -1.
         13    1    4    4    0    0 -0.15925130600E+01  0.30081682800E+01  0.12000810895E+02  0.12474606223E+02  0.10566000000E+00 0. -1.
        -13    1    4    4    0    0 -0.11045611015E+02  0.19117291308E+02  0.86570567535E+02  0.89341763341E+02  0.10566000000E+00 0.  1.
         14    1    4    4    0    0 -0.76017849317E+01  0.11023417826E+02  0.52253618096E+02  0.53942038141E+02  0.00000000000E+00 0. -1.
<mgrwt>
<rscale>  0 0.80572119E+02</rscale>
<asrwt>0</asrwt>
<pdfrwt beam="1">  1        1 0.10293022E-02 0.80572119E+02</pdfrwt>
<pdfrwt beam="2">  1       -2 0.37319856E-01 0.80572119E+02</pdfrwt>
<totfact> 0.76792423E+04</totfact>
</mgrwt>
</event>
<event>
 8    1  0.8247621E-014  0.7994893E+02  0.7818608E-02  0.1329196E+00
         -2   -1    0    0    0  501 -0.00000000000E+00  0.00000000000E+00  0.25238388764E+02  0.25238388892E+02  0.25500000000E-02 0.  1.
          1   -1    0    0  501    0  0.00000000000E+00 -0.00000000000E+00 -0.63314570297E+02  0.63314570497E+02  0.50400000000E-02 0. -1.
        -24    2    1    2    0    0  0.00000000000E+00  0.00000000000E+00 -0.38076181533E+02  0.88552959390E+02  0.79948927551E+02 0.  0.
         66    2    3    3    0    0  0.22524960841E+02  0.44845116889E+01  0.17155250421E+02  0.28736515617E+02  0.20000017086E+01 0.  0.
         13    1    3    3    0    0 -0.22524960841E+02 -0.44845116889E+01 -0.55231431954E+02  0.59816443773E+02  0.10566000000E+00 0. -1.
         13    1    4    4    0    0  0.15843429655E+02  0.30973574321E+01  0.12987871388E+02  0.20719648972E+02  0.10566000000E+00 0. -1.
        -13    1    4    4    0    0  0.30784249440E+01  0.53073386225E+00  0.22093229627E+01  0.38276168248E+01  0.10566000000E+00 0.  1.
         14    1    4    4    0    0  0.36031062416E+01  0.85642039448E+00  0.19580560698E+01  0.41892498198E+01  0.00000000000E+00 0. -1.
<mgrwt>
<rscale>  0 0.79948928E+02</rscale>
<asrwt>0</asrwt>
<pdfrwt beam="1">  1        1 0.97407031E-02 0.79948928E+02</pdfrwt>
<pdfrwt beam="2">  1       -2 0.38828291E-02 0.79948928E+02</pdfrwt>
<totfact> 0.13677021E+05</totfact>
</mgrwt>
</event>
<event>
 8    1  0.8247621E-014  0.7882470E+02  0.7818608E-02  0.1332420E+00
          1   -1    0    0  501    0  0.00000000000E+00  0.00000000000E+00  0.12475088299E+03  0.12475088309E+03  0.50400000000E-02 0. -1.
         -2   -1    0    0    0  501 -0.00000000000E+00 -0.00000000000E+00 -0.12451481174E+02  0.12451481435E+02  0.25500000000E-02 0.  1.
        -24    2    1    2    0    0  0.00000000000E+00  0.00000000000E+00  0.11229940181E+03  0.13720236452E+03  0.78824699070E+02 0.  0.
         66    2    3    3    0    0 -0.20747149643E+01  0.25604661166E+02  0.42170617190E+01  0.26109131068E+02  0.19999999976E+01 0.  0.
         13    1    3    3    0    0  0.20747149643E+01 -0.25604661166E+02  0.10808234009E+03  0.11109323345E+03  0.10566000000E+00 0. -1.
         13    1    4    4    0    0 -0.10600240777E+01  0.56613499278E+01  0.12712921776E+01  0.58993119842E+01  0.10566000000E+00 0. -1.
        -13    1    4    4    0    0  0.57310087396E-01  0.64509182757E+01  0.12018509343E+01  0.65630207032E+01  0.10566000000E+00 0.  1.
         14    1    4    4    0    0 -0.10720009740E+01  0.13492392962E+02  0.17439186070E+01  0.13646798381E+02  0.00000000000E+00 0. -1.
<mgrwt>
<rscale>  0 0.78824699E+02</rscale>
<asrwt>0</asrwt>
<pdfrwt beam="1">  1        1 0.19192443E-01 0.78824699E+02</pdfrwt>
<pdfrwt beam="2">  1       -2 0.19156126E-02 0.78824699E+02</pdfrwt>
<totfact> 0.15888988E+05</totfact>
</mgrwt>
</event>
<event>
 8    1  0.8247621E-014  0.7957657E+02  0.7818608E-02  0.1330257E+00
         -2   -1    0    0    0  501 -0.00000000000E+00  0.00000000000E+00  0.94502708270E+01  0.94502711711E+01  0.25500000000E-02 0.  1.
          1   -1    0    0  501    0  0.00000000000E+00 -0.00000000000E+00 -0.16751979726E+03  0.16751979734E+03  0.50400000000E-02 0. -1.
        -24    2    1    2    0    0  0.00000000000E+00 -0.35527136788E-14 -0.15806952643E+03  0.17697006851E+03  0.79576566655E+02 0.  0.
         66    2    3    3    0    0 -0.34806492192E+02 -0.11764590719E+02 -0.11289984991E+03  0.11874457293E+03  0.19999995333E+01 0.  0.
         13    1    3    3    0    0  0.34806492192E+02  0.11764590719E+02 -0.45169676523E+02  0.58225495573E+02  0.10566000000E+00 0. -1.
         13    1    4    4    0    0 -0.47192163213E+00 -0.22642572742E+00 -0.21783660252E+01  0.22428600519E+01  0.10566000000E+00 0. -1.
        -13    1    4    4    0    0 -0.98497905901E+01 -0.31652882679E+01 -0.30006178659E+02  0.31739869978E+02  0.10566000000E+00 0.  1.
         14    1    4    4    0    0 -0.24484779969E+02 -0.83728767241E+01 -0.80715305226E+02  0.84761842904E+02  0.00000000000E+00 0. -1.
<mgrwt>
<rscale>  0 0.79576567E+02</rscale>
<asrwt>0</asrwt>
<pdfrwt beam="1">  1        1 0.25772274E-01 0.79576567E+02</pdfrwt>
<pdfrwt beam="2">  1       -2 0.14538880E-02 0.79576567E+02</pdfrwt>
<totfact> 0.16346605E+05</totfact>
</mgrwt>
</event>
<event>
 8    1  0.8247621E-014  0.7936452E+02  0.7818608E-02  0.1330865E+00
         -2   -1    0    0    0  501 -0.00000000000E+00  0.00000000000E+00  0.17331494481E+03  0.17331494483E+03  0.25500000000E-02 0.  1.
          1   -1    0    0  501    0  0.00000000000E+00 -0.00000000000E+00 -0.90856647748E+01  0.90856661727E+01  0.50400000000E-02 0. -1.
        -24    2    1    2    0    0  0.00000000000E+00 -0.44408920985E-15  0.16422928004E+03  0.18240061100E+03  0.79364516459E+02 0.  0.
         66    2    3    3    0    0  0.10365994022E+02 -0.21196494806E+01  0.17000513441E+03  0.17034580268E+03  0.20000042205E+01 0.  0.
         13    1    3    3    0    0 -0.10365994022E+02  0.21196494806E+01 -0.57758543756E+01  0.12054808327E+02  0.10566000000E+00 0. -1.
         13    1    4    4    0    0  0.99673511572E+00 -0.52462651593E-01  0.23578549191E+02  0.23599902101E+02  0.10566000000E+00 0. -1.
        -13    1    4    4    0    0  0.23522048158E+01 -0.34728660779E+00  0.44482808221E+02  0.44546434950E+02  0.10566000000E+00 0.  1.
        -14    1    4    4    0    0  0.70170540907E+01 -0.17199002212E+01  0.10194377700E+03  0.10219946562E+03  0.00000000000E+00 0.  1.
<mgrwt>
<rscale>  0 0.79364516E+02</rscale>
<asrwt>0</asrwt>
<pdfrwt beam="1">  1        1 0.13977947E-02 0.79364516E+02</pdfrwt>
<pdfrwt beam="2">  1       -2 0.26663837E-01 0.79364516E+02</pdfrwt>
<totfact> 0.91766196E+04</totfact>
</mgrwt>
</event>
<event>
 8    1  0.8247621E-014  0.7938186E+02  0.7818608E-02  0.1330815E+00
         -2   -1    0    0    0  501 -0.00000000000E+00  0.00000000000E+00  0.89514584242E+02  0.89514584278E+02  0.25500000000E-02 0.  1.
          1   -1    0    0  501    0  0.00000000000E+00 -0.00000000000E+00 -0.17599031383E+02  0.17599032104E+02  0.50400000000E-02 0. -1.
        -24    2    1    2    0    0 -0.17763568394E-14  0.00000000000E+00  0.71915552859E+02  0.10711361638E+03  0.79381862358E+02 0.  0.
         66    2    3    3    0    0  0.15109089375E+02  0.33544914279E+02  0.55986350573E+02  0.67022513813E+02  0.20000128988E+01 0.  0.
         13    1    3    3    0    0 -0.15109089375E+02 -0.33544914279E+02  0.15929202286E+02  0.40091102570E+02  0.10566000000E+00 0. -1.
         13    1    4    4    0    0  0.23870069237E+01  0.53438571988E+01  0.10052061063E+02  0.11632270091E+02  0.10566000000E+00 0. -1.
        -13    1    4    4    0    0  0.23719757633E+01  0.55676165856E+01  0.83591052862E+01  0.10320388979E+02  0.10566000000E+00 0.  1.
         14    1    4    4    0    0  0.10350106688E+02  0.22633440495E+02  0.37575184224E+02  0.45069854743E+02  0.00000000000E+00 0. -1.
<mgrwt>
<rscale>  0 0.79381862E+02</rscale>
<asrwt>0</asrwt>
<pdfrwt beam="1">  1        1 0.27075434E-02 0.79381862E+02</pdfrwt>
<pdfrwt beam="2">  1       -2 0.13771474E-01 0.79381862E+02</pdfrwt>
<totfact> 0.11116562E+05</totfact>
</mgrwt>
</event>
<event>
 8    1  0.8247621E-014  0.8006730E+02  0.7818608E-02  0.1328861E+00
          1   -1    0    0  501    0  0.00000000000E+00  0.00000000000E+00  0.92624996787E+01  0.92625010499E+01  0.50400000000E-02 0. -1.
         -2   -1    0    0    0  501 -0.00000000000E+00 -0.00000000000E+00 -0.17303029733E+03  0.17303029735E+03  0.25500000000E-02 0.  1.
        -24    2    1    2    0    0 -0.17763568394E-14  0.00000000000E+00 -0.16376779765E+03  0.18229279840E+03  0.80067301694E+02 0.  0.
         66    2    3    3    0    0 -0.12194551578E+02  0.70271484288E+01 -0.16720190759E+03  0.16780514233E+03  0.19999967719E+01 0.  0.
         13    1    3    3    0    0  0.12194551578E+02 -0.70271484288E+01  0.34341099405E+01  0.14487656068E+02  0.10566000000E+00 0. -1.
         13    1    4    4    0    0 -0.17424669853E+01  0.16125304279E+01 -0.28335708175E+02  0.28435188893E+02  0.10566000000E+00 0.  1.
        -13    1    4    4    0    0 -0.89471232575E+01  0.41257962539E+01 -0.11414946466E+03  0.11457392659E+03  0.10566000000E+00 0. -1.
         14    1    4    4    0    0 -0.15049613350E+01  0.12888217470E+01 -0.24716734759E+02  0.24796026844E+02  0.00000000000E+00 0. -1.
<mgrwt>
<rscale>  0 0.80067302E+02</rscale>
<asrwt>0</asrwt>
<pdfrwt beam="1">  1        1 0.14250002E-02 0.80067302E+02</pdfrwt>
<pdfrwt beam="2">  1       -2 0.26620043E-01 0.80067302E+02</pdfrwt>
<totfact> 0.89758930E+04</totfact>
</mgrwt>
</event>
<event>
 8    1  0.8247621E-014  0.8110521E+02  0.7818608E-02  0.1325944E+00
          1   -1    0    0  501    0  0.00000000000E+00  0.00000000000E+00  0.26728177609E+03  0.26728177614E+03  0.50400000000E-02 0. -1.
         -2   -1    0    0    0  501 -0.00000000000E+00 -0.00000000000E+00 -0.61527337594E+01  0.61527342878E+01  0.25500000000E-02 0.  1.
        -24    2    1    2    0    0  0.00000000000E+00  0.00000000000E+00  0.26112904233E+03  0.27343451043E+03  0.81105207867E+02 0.  0.
         66    2    3    3    0    0 -0.29966921573E+01  0.37948641876E+02  0.83755282004E+02  0.92021882418E+02  0.19999990238E+01 0.  0.
         13    1    3    3    0    0  0.29966921573E+01 -0.37948641876E+02  0.17737376033E+03  0.18141262801E+03  0.10566000000E+00 0. -1.
         13    1    4    4    0    0 -0.15938614351E+01  0.23311426074E+02  0.50652910613E+02  0.55782537567E+02  0.10566000000E+00 0.  1.
        -13    1    4    4    0    0  0.42659152609E-01  0.40345500346E+01  0.84326597162E+01  0.93488142408E+01  0.10566000000E+00 0. -1.
        -14    1    4    4    0    0 -0.14454898748E+01  0.10602665767E+02  0.24669711675E+02  0.26890530610E+02  0.00000000000E+00 0.  1.
<mgrwt>
<rscale>  0 0.81105208E+02</rscale>
<asrwt>0</asrwt>
<pdfrwt beam="1">  1        1 0.41120287E-01 0.81105208E+02</pdfrwt>
<pdfrwt beam="2">  1       -2 0.94657416E-03 0.81105208E+02</pdfrwt>
<totfact> 0.17015599E+05</totfact>
</mgrwt>
</event>
<event>
 8    1  0.8247621E-014  0.7894857E+02  0.7818608E-02  0.1332062E+00
          1   -1    0    0  501    0  0.00000000000E+00  0.00000000000E+00  0.36815610997E+01  0.36815645495E+01  0.50400000000E-02 0. -1.
         -2   -1    0    0    0  501 -0.00000000000E+00 -0.00000000000E+00 -0.42324940214E+03  0.42324940215E+03  0.25500000000E-02 0.  1.
        -24    2    1    2    0    0  0.00000000000E+00  0.00000000000E+00 -0.41956784104E+03  0.42693096670E+03  0.78948572437E+02 0.  0.
         66    2    3    3    0    0  0.19054319075E+02 -0.12743435133E+02 -0.38353447384E+03  0.38422409453E+03  0.19999951031E+01 0.  0.
         13    1    3    3    0    0 -0.19054319075E+02  0.12743435133E+02 -0.36033367204E+02  0.42706872169E+02  0.10566000000E+00 0. -1.
         13    1    4    4    0    0  0.44943901580E+00 -0.32733190194E+00 -0.71652485898E+01  0.71875651644E+01  0.10566000000E+00 0. -1.
        -13    1    4    4    0    0  0.13006340244E+02 -0.95207706753E+01 -0.26979638023E+03  0.27027746468E+03  0.10566000000E+00 0.  1.
        -14    1    4    4    0    0  0.55985398149E+01 -0.28953325560E+01 -0.10657284501E+03  0.10675906469E+03  0.00000000000E+00 0.  1.
<mgrwt>
<rscale>  0 0.78948572E+02</rscale>
<asrwt>0</asrwt>
<pdfrwt beam="1">  1        1 0.56639462E-03 0.78948572E+02</pdfrwt>
<pdfrwt beam="2">  1       -2 0.65115254E-01 0.78948572E+02</pdfrwt>
<totfact> 0.58857884E+04</totfact>
</mgrwt>
</event>
<event>
 8    1  0.8247621E-014  0.7895830E+02  0.7818608E-02  0.1332034E+00
          1   -1    0    0  501    0  0.00000000000E+00  0.00000000000E+00  0.22066784535E+02  0.22066785111E+02  0.50400000000E-02 0. -1.
         -2   -1    0    0    0  501 -0.00000000000E+00 -0.00000000000E+00 -0.70631198401E+02  0.70631198447E+02  0.25500000000E-02 0.  1.
        -24    2    1    2    0    0  0.00000000000E+00  0.00000000000E+00 -0.48564413866E+02  0.92697983558E+02  0.78958304577E+02 0.  0.
         66    2    3    3    0    0  0.32910937508E+02  0.17501060834E+02 -0.39477565201E+02  0.54331345438E+02  0.20000012255E+01 0.  0.
         13    1    3    3    0    0 -0.32910937508E+02 -0.17501060834E+02 -0.90868486643E+01  0.38366638120E+02  0.10566000000E+00 0. -1.
         13    1    4    4    0    0  0.14337460712E+02  0.80739040406E+01 -0.16249086686E+02  0.23125628387E+02  0.10566000000E+00 0. -1.
        -13    1    4    4    0    0  0.17687552309E+02  0.88327979186E+01 -0.22098949168E+02  0.29652024283E+02  0.10566000000E+00 0.  1.
        -14    1    4    4    0    0  0.88592448645E+00  0.59435887535E+00 -0.11295293470E+01  0.15536927670E+01  0.00000000000E+00 0.  1.
<mgrwt>
<rscale>  0 0.78958305E+02</rscale>
<asrwt>0</asrwt>
<pdfrwt beam="1">  1        1 0.33948900E-02 0.78958305E+02</pdfrwt>
<pdfrwt beam="2">  1       -2 0.10866338E-01 0.78958305E+02</pdfrwt>
<totfact> 0.11858715E+05</totfact>
</mgrwt>
</event>
<event>
 8    1  0.8247621E-014  0.8116505E+02  0.7818608E-02  0.1325777E+00
         -2   -1    0    0    0  501 -0.00000000000E+00  0.00000000000E+00  0.94447450475E+01  0.94447453917E+01  0.25500000000E-02 0.  1.
          1   -1    0    0  501    0  0.00000000000E+00 -0.00000000000E+00 -0.17437646042E+03  0.17437646050E+03  0.50400000000E-02 0. -1.
        -24    2    1    2    0    0 -0.17763568394E-14  0.35527136788E-14 -0.16493171538E+03  0.18382120589E+03  0.81165047879E+02 0.  0.
         66    2    3    3    0    0 -0.14969279378E+02  0.24343725370E+02 -0.17337245732E+02  0.33485465216E+02  0.20000002846E+01 0.  0.
         13    1    3    3    0    0  0.14969279378E+02 -0.24343725370E+02 -0.14759446964E+03  0.15033574067E+03  0.10566000000E+00 0. -1.
         13    1    4    4    0    0 -0.15118043002E+00  0.76723325189E+00 -0.35625133267E+00  0.86578371021E+00  0.10566000000E+00 0. -1.
        -13    1    4    4    0    0 -0.12116233239E+01  0.19131203220E+01 -0.12704652601E+01  0.25987124617E+01  0.10566000000E+00 0.  1.
        -14    1    4    4    0    0 -0.13606475624E+02  0.21663371796E+02 -0.15710529139E+02  0.30020969044E+02  0.00000000000E+00 0.  1.
<mgrwt>
<rscale>  0 0.81165048E+02</rscale>
<asrwt>0</asrwt>
<pdfrwt beam="1">  1        1 0.26827146E-01 0.81165048E+02</pdfrwt>
<pdfrwt beam="2">  1       -2 0.14530379E-02 0.81165048E+02</pdfrwt>
<totfact> 0.15625935E+05</totfact>
</mgrwt>
</event>
<event>
 8    1  0.8247621E-014  0.7880861E+02  0.7818608E-02  0.1332467E+00
         -2   -1    0    0    0  501 -0.00000000000E+00  0.00000000000E+00  0.67081688850E+01  0.67081693697E+01  0.25500000000E-02 0.  1.
          1   -1    0    0  501    0  0.00000000000E+00 -0.00000000000E+00 -0.23146396242E+03  0.23146396248E+03  0.50400000000E-02 0. -1.
        -24    2    1    2    0    0  0.00000000000E+00  0.00000000000E+00 -0.22475579354E+03  0.23817213185E+03  0.78808614123E+02 0.  0.
         66    2    3    3    0    0  0.33941028896E+02  0.13475824802E+01 -0.52242702462E+02  0.62346686653E+02  0.19999887589E+01 0.  0.
         13    1    3    3    0    0 -0.33941028896E+02 -0.13475824802E+01 -0.17251309108E+03  0.17582544519E+03  0.10566000000E+00 0. -1.
         13    1    4    4    0    0  0.11118028061E+02  0.58887336410E+00 -0.15633203160E+02  0.19192850880E+02  0.10566000000E+00 0. -1.
        -13    1    4    4    0    0  0.12563462964E+02  0.44910502894E+00 -0.20822957692E+02  0.24323836622E+02  0.10566000000E+00 0.  1.
         14    1    4    4    0    0  0.10259537871E+02  0.30960408712E+00 -0.15786541610E+02  0.18829999151E+02  0.00000000000E+00 0. -1.
<mgrwt>
<rscale>  0 0.78808614E+02</rscale>
<asrwt>0</asrwt>
<pdfrwt beam="1">  1        1 0.35609834E-01 0.78808614E+02</pdfrwt>
<pdfrwt beam="2">  1       -2 0.10320262E-02 0.78808614E+02</pdfrwt>
<totfact> 0.17850234E+05</totfact>
</mgrwt>
</event>
<event>
 8    1  0.8247621E-014  0.7912669E+02  0.7818608E-02  0.1331548E+00
          1   -1    0    0  501    0  0.00000000000E+00  0.00000000000E+00  0.94497335588E+01  0.94497349029E+01  0.50400000000E-02 0. -1.
         -2   -1    0    0    0  501 -0.00000000000E+00 -0.00000000000E+00 -0.16564045110E+03  0.16564045112E+03  0.25500000000E-02 0.  1.
        -24    2    1    2    0    0  0.00000000000E+00  0.17763568394E-14 -0.15619071754E+03  0.17509018602E+03  0.79126689526E+02 0.  0.
         66    2    3    3    0    0  0.42340288889E+01  0.14984315074E+02 -0.15856376273E+03  0.15933902078E+03  0.19999982492E+01 0.  0.
         13    1    3    3    0    0 -0.42340288889E+01 -0.14984315074E+02  0.23730451924E+01  0.15751165239E+02  0.10566000000E+00 0. -1.
         13    1    4    4    0    0  0.66827612007E+00  0.15044212416E+01 -0.18535722321E+02  0.18608977464E+02  0.10566000000E+00 0. -1.
        -13    1    4    4    0    0  0.20317727929E+01  0.10198551476E+02 -0.10682813778E+03  0.10733312974E+03  0.10566000000E+00 0.  1.
        -14    1    4    4    0    0  0.15339799759E+01  0.32813423569E+01 -0.33199902628E+02  0.33396913581E+02  0.00000000000E+00 0.  1.
<mgrwt>
<rscale>  0 0.79126690E+02</rscale>
<asrwt>0</asrwt>
<pdfrwt beam="1">  1        1 0.14538054E-02 0.79126690E+02</pdfrwt>
<pdfrwt beam="2">  1       -2 0.25483144E-01 0.79126690E+02</pdfrwt>
<totfact> 0.93991389E+04</totfact>
</mgrwt>
</event>
<event>
 8    1  0.8247621E-014  0.8238311E+02  0.7818608E-02  0.1322421E+00
         -2   -1    0    0    0  501 -0.00000000000E+00  0.00000000000E+00  0.44378946420E+02  0.44378946493E+02  0.25500000000E-02 0.  1.
          1   -1    0    0  501    0  0.00000000000E+00 -0.00000000000E+00 -0.38233093134E+02  0.38233093466E+02  0.50400000000E-02 0. -1.
        -24    2    1    2    0    0  0.00000000000E+00  0.00000000000E+00  0.61458532859E+01  0.82612039959E+02  0.82383114978E+02 0.  0.
         66    2    3    3    0    0 -0.20441856378E+01 -0.33215928352E+02  0.27375578509E+02  0.43138137336E+02  0.20000007118E+01 0.  0.
         13    1    3    3    0    0  0.20441856378E+01  0.33215928352E+02 -0.21229725223E+02  0.39473902623E+02  0.10566000000E+00 0. -1.
         13    1    4    4    0    0 -0.12757540882E+01 -0.10285284426E+02  0.85337734514E+01  0.13425761713E+02  0.10566000000E+00 0. -1.
        -13    1    4    4    0    0 -0.60519398163E+00 -0.11714219663E+02  0.89214931580E+01  0.14737483037E+02  0.10566000000E+00 0.  1.
        -14    1    4    4    0    0 -0.16323756803E+00 -0.11216424264E+02  0.99203118995E+01  0.14974892586E+02  0.00000000000E+00 0.  1.
<mgrwt>
<rscale>  0 0.82383115E+02</rscale>
<asrwt>0</asrwt>
<pdfrwt beam="1">  1        1 0.58820144E-02 0.82383115E+02</pdfrwt>
<pdfrwt beam="2">  1       -2 0.68275302E-02 0.82383115E+02</pdfrwt>
<totfact> 0.11598098E+05</totfact>
</mgrwt>
</event>
<event>
 8    1  0.8247621E-014  0.8024220E+02  0.7818608E-02  0.1328366E+00
         -2   -1    0    0    0  501 -0.00000000000E+00  0.00000000000E+00  0.79044746262E+01  0.79044750375E+01  0.25500000000E-02 0.  1.
          1   -1    0    0  501    0  0.00000000000E+00 -0.00000000000E+00 -0.20364445545E+03  0.20364445551E+03  0.50400000000E-02 0. -1.
        -24    2    1    2    0    0  0.00000000000E+00 -0.35527136788E-14 -0.19573998082E+03  0.21154893055E+03  0.80242195408E+02 0.  0.
         66    2    3    3    0    0  0.22692918299E+02 -0.18089073201E+02 -0.24987436750E+02  0.38347817442E+02  0.19999992573E+01 0.  0.
         13    1    3    3    0    0 -0.22692918299E+02  0.18089073201E+02 -0.17075254407E+03  0.17320111311E+03  0.10566000000E+00 0. -1.
         13    1    4    4    0    0  0.13417172580E+01 -0.11958689728E+01 -0.19843145774E+01  0.26793611511E+01  0.10566000000E+00 0.  1.
        -13    1    4    4    0    0  0.79320004674E+01 -0.61365199689E+01 -0.76430878656E+01  0.12609578300E+02  0.10566000000E+00 0. -1.
        -14    1    4    4    0    0  0.13419200574E+02 -0.10756684259E+02 -0.15360034307E+02  0.23058877991E+02  0.00000000000E+00 0.  1.
<mgrwt>
<rscale>  0 0.80242195E+02</rscale>
<asrwt>0</asrwt>
<pdfrwt beam="1">  1        1 0.31329912E-01 0.80242195E+02</pdfrwt>
<pdfrwt beam="2">  1       -2 0.12160732E-02 0.80242195E+02</pdfrwt>
<totfact> 0.16598775E+05</totfact>
</mgrwt>
</event>
<event>
 8    1  0.8247621E-014  0.8179844E+02  0.7818608E-02  0.1324024E+00
          1   -1    0    0  501    0  0.00000000000E+00  0.00000000000E+00  0.20217224171E+03  0.20217224177E+03  0.50400000000E-02 0. -1.
         -2   -1    0    0    0  501 -0.00000000000E+00 -0.00000000000E+00 -0.82738662457E+01  0.82738666386E+01  0.25500000000E-02 0.  1.
        -24    2    1    2    0    0  0.00000000000E+00 -0.17763568394E-14  0.19389837546E+03  0.21044610841E+03  0.81798438480E+02 0.  0.
         66    2    3    3    0    0 -0.35134114714E+02  0.10535135168E+02  0.14341239896E+03  0.14804226176E+03  0.20000001019E+01 0.  0.
         13    1    3    3    0    0  0.35134114714E+02 -0.10535135168E+02  0.50485976500E+02  0.62403846651E+02  0.10566000000E+00 0. -1.
         13    1    4    4    0    0 -0.10806996622E+01  0.32688775417E+00  0.55881567231E+01  0.57020546263E+01  0.10566000000E+00 0. -1.
        -13    1    4    4    0    0 -0.84794515812E+01  0.28204935026E+01  0.32977692510E+02  0.34167172111E+02  0.10566000000E+00 0.  1.
        -14    1    4    4    0    0 -0.25573963471E+02  0.73877539115E+01  0.10484654973E+03  0.10817303502E+03  0.00000000000E+00 0.  1.
<mgrwt>
<rscale>  0 0.81798438E+02</rscale>
<asrwt>0</asrwt>
<pdfrwt beam="1">  1        1 0.31103420E-01 0.81798438E+02</pdfrwt>
<pdfrwt beam="2">  1       -2 0.12729026E-02 0.81798438E+02</pdfrwt>
<totfact> 0.15750279E+05</totfact>
</mgrwt>
</event>
<event>
 8    1  0.8247621E-014  0.8035612E+02  0.7818608E-02  0.1328044E+00
         -2   -1    0    0    0  501 -0.00000000000E+00  0.00000000000E+00  0.21377645790E+02  0.21377645942E+02  0.25500000000E-02 0.  1.
          1   -1    0    0  501    0  0.00000000000E+00 -0.00000000000E+00 -0.75512358739E+02  0.75512358907E+02  0.50400000000E-02 0. -1.
        -24    2    1    2    0    0  0.00000000000E+00  0.22204460493E-15 -0.54134712949E+02  0.96890004849E+02  0.80356119205E+02 0.  0.
         66    2    3    3    0    0 -0.20313720661E+02 -0.13630257989E+01  0.14645702252E+02  0.25159524817E+02  0.20000020417E+01 0.  0.
         13    1    3    3    0    0  0.20313720661E+02  0.13630257989E+01 -0.68780415201E+02  0.71730480032E+02  0.10566000000E+00 0. -1.
         13    1    4    4    0    0 -0.77599105341E+01 -0.12224328425E+01  0.51960497345E+01  0.94191639985E+01  0.10566000000E+00 0. -1.
        -13    1    4    4    0    0 -0.88668557944E+01 -0.47027189986E+00  0.64351728342E+01  0.10966535496E+02  0.10566000000E+00 0.  1.
        -14    1    4    4    0    0 -0.36869543325E+01  0.32967894343E+00  0.30144796833E+01  0.47738253232E+01  0.00000000000E+00 0.  1.
<mgrwt>
<rscale>  0 0.80356119E+02</rscale>
<asrwt>0</asrwt>
<pdfrwt beam="1">  1        1 0.11617286E-01 0.80356119E+02</pdfrwt>
<pdfrwt beam="2">  1       -2 0.32888686E-02 0.80356119E+02</pdfrwt>
<totfact> 0.13869539E+05</totfact>
</mgrwt>
</event>
<event>
 8    1  0.8247621E-014  0.7933111E+02  0.7818608E-02  0.1330960E+00
         -2   -1    0    0    0  501 -0.00000000000E+00  0.00000000000E+00  0.23583090157E+03  0.23583090158E+03  0.25500000000E-02 0.  1.
          1   -1    0    0  501    0  0.00000000000E+00 -0.00000000000E+00 -0.66715428890E+01  0.66715447927E+01  0.50400000000E-02 0. -1.
        -24    2    1    2    0    0  0.00000000000E+00  0.00000000000E+00  0.22915935868E+03  0.24250244638E+03  0.79331108826E+02 0.  0.
         66    2    3    3    0    0 -0.94128972495E+00 -0.37154626510E+02  0.15678780693E+03  0.16114517894E+03  0.19999993089E+01 0.  0.
         13    1    3    3    0    0  0.94128972495E+00  0.37154626510E+02  0.72371551755E+02  0.81357267438E+02  0.10566000000E+00 0. -1.
         13    1    4    4    0    0 -0.40664667358E+00 -0.20014327764E+02  0.83917364583E+02  0.86272092359E+02  0.10566000000E+00 0. -1.
        -13    1    4    4    0    0 -0.33134906913E+00 -0.13144842621E+02  0.53316552984E+02  0.54914139034E+02  0.10566000000E+00 0.  1.
         14    1    4    4    0    0 -0.20329398225E+00 -0.39954561248E+01  0.19553889359E+02  0.19958947546E+02  0.00000000000E+00 0. -1.
<mgrwt>
<rscale>  0 0.79331109E+02</rscale>
<asrwt>0</asrwt>
<pdfrwt beam="1">  1        1 0.10263913E-02 0.79331109E+02</pdfrwt>
<pdfrwt beam="2">  1       -2 0.36281679E-01 0.79331109E+02</pdfrwt>
<totfact> 0.80980727E+04</totfact>
</mgrwt>
</event>
<event>
 8    1  0.8247621E-014  0.7919755E+02  0.7818608E-02  0.1331344E+00
          1   -1    0    0  501    0  0.00000000000E+00  0.00000000000E+00  0.13436459527E+03  0.13436459537E+03  0.50400000000E-02 0. -1.
         -2   -1    0    0    0  501 -0.00000000000E+00 -0.00000000000E+00 -0.11670209359E+02  0.11670209637E+02  0.25500000000E-02 0.  1.
        -24    2    1    2    0    0  0.35527136788E-14  0.71054273576E-14  0.12269438591E+03  0.14603480501E+03  0.79197550075E+02 0.  0.
         66    2    3    3    0    0 -0.16153430548E+02 -0.33956322358E+02  0.38645755081E+02  0.53957942246E+02  0.19999997713E+01 0.  0.
         13    1    3    3    0    0  0.16153430548E+02  0.33956322358E+02  0.84048630834E+02  0.92076862759E+02  0.10566000000E+00 0. -1.
         13    1    4    4    0    0 -0.78550945177E+01 -0.16275427494E+02  0.18745220197E+02  0.26038173789E+02  0.10566000000E+00 0.  1.
        -13    1    4    4    0    0 -0.81283647671E+01 -0.17551984903E+02  0.19812035264E+02  0.27688813502E+02  0.10566000000E+00 0. -1.
         14    1    4    4    0    0 -0.16997126356E+00 -0.12890996074E+00  0.88499620322E-01  0.23095495494E+00  0.00000000000E+00 0. -1.
<mgrwt>
<rscale>  0 0.79197550E+02</rscale>
<asrwt>0</asrwt>
<pdfrwt beam="1">  1        1 0.20671477E-01 0.79197550E+02</pdfrwt>
<pdfrwt beam="2">  1       -2 0.17954168E-02 0.79197550E+02</pdfrwt>
<totfact> 0.15898012E+05</totfact>
</mgrwt>
</event>
<event>
 8    1  0.8247621E-014  0.7961292E+02  0.7818608E-02  0.1330154E+00
         -2   -1    0    0    0  501 -0.00000000000E+00  0.00000000000E+00  0.11222580396E+03  0.11222580399E+03  0.25500000000E-02 0.  1.
          1   -1    0    0  501    0  0.00000000000E+00 -0.00000000000E+00 -0.14119338101E+02  0.14119339001E+02  0.50400000000E-02 0. -1.
        -24    2    1    2    0    0  0.00000000000E+00  0.00000000000E+00  0.98106465855E+02  0.12634514299E+03  0.79612916751E+02 0.  0.
         66    2    3    3    0    0  0.12010079056E+02 -0.33440573401E+02  0.77474660263E+02  0.85257474345E+02  0.20000001583E+01 0.  0.
         13    1    3    3    0    0 -0.12010079056E+02  0.33440573401E+02  0.20631805592E+02  0.41087668641E+02  0.10566000000E+00 0. -1.
         13    1    4    4    0    0  0.47506388674E+01 -0.12326822665E+02  0.30098216196E+02  0.32869939289E+02  0.10566000000E+00 0. -1.
        -13    1    4    4    0    0  0.51626925714E+01 -0.14972374112E+02  0.32310241734E+02  0.35983166426E+02  0.10566000000E+00 0.  1.
         14    1    4    4    0    0  0.20967476170E+01 -0.61413766239E+01  0.15066202333E+02  0.16404368630E+02  0.00000000000E+00 0. -1.
<mgrwt>
<rscale>  0 0.79612917E+02</rscale>
<asrwt>0</asrwt>
<pdfrwt beam="1">  1        1 0.21722060E-02 0.79612917E+02</pdfrwt>
<pdfrwt beam="2">  1       -2 0.17265508E-01 0.79612917E+02</pdfrwt>
<totfact> 0.10430719E+05</totfact>
</mgrwt>
</event>
<event>
 8    1  0.8247621E-014  0.7456291E+02  0.7818608E-02  0.1345230E+00
          1   -1    0    0  501    0  0.00000000000E+00  0.00000000000E+00  0.16340255779E+03  0.16340255787E+03  0.50400000000E-02 0. -1.
         -2   -1    0    0    0  501 -0.00000000000E+00 -0.00000000000E+00 -0.85060291566E+01  0.85060295388E+01  0.25500000000E-02 0.  1.
        -24    2    1    2    0    0  0.35527136788E-14  0.71054273576E-14  0.15489652864E+03  0.17190858741E+03  0.74562911971E+02 0.  0.
         66    2    3    3    0    0 -0.25749444716E+02 -0.26081837341E+02  0.92902070795E+02  0.99890394504E+02  0.20000034890E+01 0.  0.
         13    1    3    3    0    0  0.25749444716E+02  0.26081837341E+02  0.61994457841E+02  0.72018192905E+02  0.10566000000E+00 0. -1.
         13    1    4    4    0    0 -0.23713937023E+01 -0.23750004716E+01  0.99163177057E+01  0.10469415275E+02  0.10566000000E+00 0.  1.
        -13    1    4    4    0    0 -0.16064217195E+02 -0.16382738061E+02  0.56000940394E+02  0.60519167786E+02  0.10566000000E+00 0.  1.
         14    1    4    4    0    0 -0.73138338182E+01 -0.73240988091E+01  0.26984812696E+02  0.28901811443E+02  0.00000000000E+00 0. -1.
<mgrwt>
<rscale>  0 0.74562912E+02</rscale>
<asrwt>0</asrwt>
<pdfrwt beam="1">  1        1 0.25138854E-01 0.74562912E+02</pdfrwt>
<pdfrwt beam="2">  1       -2 0.13086199E-02 0.74562912E+02</pdfrwt>
<totfact> 0.19337996E+05</totfact>
</mgrwt>
</event>
<event>
 8    1  0.8247621E-014  0.7990688E+02  0.7818608E-02  0.1329316E+00
         -2   -1    0    0    0  501 -0.00000000000E+00  0.00000000000E+00  0.22917158841E+02  0.22917158983E+02  0.25500000000E-02 0.  1.
          1   -1    0    0  501    0  0.00000000000E+00 -0.00000000000E+00 -0.69654247341E+02  0.69654247524E+02  0.50400000000E-02 0. -1.
        -24    2    1    2    0    0  0.00000000000E+00  0.71054273576E-14 -0.46737088500E+02  0.92571406506E+02  0.79906882438E+02 0.  0.
         66    2    3    3    0    0  0.11746428983E+02 -0.37850969584E+02 -0.17755449849E+02  0.43473330829E+02  0.20000004202E+01 0.  0.
         13    1    3    3    0    0 -0.11746428983E+02  0.37850969584E+02 -0.28981638651E+02  0.49098075678E+02  0.10566000000E+00 0. -1.
         13    1    4    4    0    0  0.30533998771E+01 -0.98690623573E+01 -0.51407115441E+01  0.11539485337E+02  0.10566000000E+00 0. -1.
        -13    1    4    4    0    0  0.23453961189E+01 -0.76236729530E+01 -0.27488201818E+01  0.84373247346E+01  0.10566000000E+00 0.  1.
        -14    1    4    4    0    0  0.63476329870E+01 -0.20358234274E+02 -0.98659181234E+01  0.23496520757E+02  0.00000000000E+00 0.  1.
<mgrwt>
<rscale>  0 0.79906882E+02</rscale>
<asrwt>0</asrwt>
<pdfrwt beam="1">  1        1 0.10716038E-01 0.79906882E+02</pdfrwt>
<pdfrwt beam="2">  1       -2 0.35257168E-02 0.79906882E+02</pdfrwt>
<totfact> 0.13904043E+05</totfact>
</mgrwt>
</event>
<event>
 8    1  0.8247621E-014  0.8029772E+02  0.7818608E-02  0.1328209E+00
          1   -1    0    0  501    0  0.00000000000E+00  0.00000000000E+00  0.13529540898E+03  0.13529540907E+03  0.50400000000E-02 0. -1.
         -2   -1    0    0    0  501 -0.00000000000E+00 -0.00000000000E+00 -0.11914159514E+02  0.11914159787E+02  0.25500000000E-02 0.  1.
        -24    2    1    2    0    0  0.44408920985E-15  0.35527136788E-14  0.12338124946E+03  0.14720956886E+03  0.80297723781E+02 0.  0.
         66    2    3    3    0    0 -0.35074578267E+01  0.31609507123E+02  0.16879926164E+02  0.36060991587E+02  0.20000014897E+01 0.  0.
         13    1    3    3    0    0  0.35074578267E+01 -0.31609507123E+02  0.10650132330E+03  0.11114857727E+03  0.10566000000E+00 0. -1.
         13    1    4    4    0    0 -0.32243864166E+00  0.50800888350E+01  0.25731686119E+01  0.57047024453E+01  0.10566000000E+00 0. -1.
        -13    1    4    4    0    0 -0.20429223099E+01  0.21235394969E+02  0.11919131603E+02  0.24437520195E+02  0.10566000000E+00 0.  1.
         14    1    4    4    0    0 -0.11420968752E+01  0.52940233186E+01  0.23876259488E+01  0.59187689464E+01  0.00000000000E+00 0. -1.
<mgrwt>
<rscale>  0 0.80297724E+02</rscale>
<asrwt>0</asrwt>
<pdfrwt beam="1">  1        1 0.20814679E-01 0.80297724E+02</pdfrwt>
<pdfrwt beam="2">  1       -2 0.18329476E-02 0.80297724E+02</pdfrwt>
<totfact> 0.15340410E+05</totfact>
</mgrwt>
</event>
<event>
 8    1  0.8247621E-014  0.8369706E+02  0.7818608E-02  0.1318875E+00
          1   -1    0    0  501    0  0.00000000000E+00  0.00000000000E+00  0.86053405292E+02  0.86053405440E+02  0.50400000000E-02 0. -1.
         -2   -1    0    0    0  501 -0.00000000000E+00 -0.00000000000E+00 -0.20351309559E+02  0.20351309719E+02  0.25500000000E-02 0.  1.
        -24    2    1    2    0    0  0.00000000000E+00  0.00000000000E+00  0.65702095733E+02  0.10640471516E+03  0.83697061026E+02 0.  0.
         66    2    3    3    0    0 -0.19251323003E+02  0.34972230863E+02  0.48729239659E+02  0.63025464632E+02  0.20000063598E+01 0.  0.
         13    1    3    3    0    0  0.19251323003E+02 -0.34972230863E+02  0.16972856074E+02  0.43379250527E+02  0.10566000000E+00 0. -1.
         13    1    4    4    0    0 -0.47634635894E+01  0.95669147926E+01  0.14039163832E+02  0.17644424875E+02  0.10566000000E+00 0. -1.
        -13    1    4    4    0    0 -0.34696625749E+01  0.55082452345E+01  0.74425138205E+01  0.98884528593E+01  0.10566000000E+00 0.  1.
        -14    1    4    4    0    0 -0.11018196839E+02  0.19897070836E+02  0.27247562006E+02  0.35492586898E+02  0.00000000000E+00 0.  1.
<mgrwt>
<rscale>  0 0.83697061E+02</rscale>
<asrwt>0</asrwt>
<pdfrwt beam="1">  1        1 0.13238985E-01 0.83697061E+02</pdfrwt>
<pdfrwt beam="2">  1       -2 0.31309707E-02 0.83697061E+02</pdfrwt>
<totfact> 0.12677085E+05</totfact>
</mgrwt>
</event>
<event>
 8    1  0.8247621E-014  0.7906444E+02  0.7818608E-02  0.1331728E+00
         -2   -1    0    0    0  501 -0.00000000000E+00  0.00000000000E+00  0.88263605449E+01  0.88263609133E+01  0.25500000000E-02 0.  1.
          1   -1    0    0  501    0  0.00000000000E+00 -0.00000000000E+00 -0.17706009167E+03  0.17706009174E+03  0.50400000000E-02 0. -1.
        -24    2    1    2    0    0  0.35527136788E-14  0.35527136788E-14 -0.16823373113E+03  0.18588645266E+03  0.79064435699E+02 0.  0.
         66    2    3    3    0    0  0.24931567455E+02  0.30637638351E+02 -0.82437488226E+02  0.91434060419E+02  0.20000000338E+01 0.  0.
         13    1    3    3    0    0 -0.24931567455E+02 -0.30637638351E+02 -0.85796242900E+02  0.94452392237E+02  0.10566000000E+00 0. -1.
         13    1    4    4    0    0  0.71249791393E+00  0.66737149216E+00 -0.16936373561E+01  0.19577051657E+01  0.10566000000E+00 0. -1.
        -13    1    4    4    0    0  0.72879239435E+00  0.72327293719E+00 -0.18538290767E+01  0.21218172346E+01  0.10566000000E+00 0. -1.
        -14    1    4    4    0    0  0.23490277147E+02  0.29246993922E+02 -0.78890021793E+02  0.87354538019E+02  0.00000000000E+00 0.  1.
<mgrwt>
<rscale>  0 0.79064436E+02</rscale>
<asrwt>0</asrwt>
<pdfrwt beam="1">  1        1 0.27240012E-01 0.79064436E+02</pdfrwt>
<pdfrwt beam="2">  1       -2 0.13579018E-02 0.79064436E+02</pdfrwt>
<totfact> 0.16804668E+05</totfact>
</mgrwt>
</event>
<event>
 8    1  0.8247621E-014  0.7745965E+02  0.7818608E-02  0.1336419E+00
         -2   -1    0    0    0  501 -0.00000000000E+00  0.00000000000E+00  0.50063285358E+02  0.50063285423E+02  0.25500000000E-02 0.  1.
          1   -1    0    0  501    0  0.00000000000E+00 -0.00000000000E+00 -0.29962064757E+02  0.29962065181E+02  0.50400000000E-02 0. -1.
        -24    2    1    2    0    0  0.00000000000E+00 -0.88817841970E-15  0.20101220601E+02  0.80025350603E+02  0.77459651881E+02 0.  0.
         66    2    3    3    0    0 -0.36090407338E+02  0.67717027938E+01  0.22694419782E+02  0.43213541267E+02  0.19999997536E+01 0.  0.
         13    1    3    3    0    0  0.36090407338E+02 -0.67717027938E+01 -0.25931991810E+01  0.36811809336E+02  0.10566000000E+00 0. -1.
         13    1    4    4    0    0 -0.11399292126E+02  0.22093653916E+01  0.79324016185E+01  0.14062692341E+02  0.10566000000E+00 0. -1.
        -13    1    4    4    0    0 -0.12488100944E+02  0.22900141616E+01  0.67867868032E+01  0.14396821496E+02  0.10566000000E+00 0.  1.
        -14    1    4    4    0    0 -0.12203014269E+02  0.22723232405E+01  0.79752313602E+01  0.14754027430E+02  0.00000000000E+00 0.  1.
<mgrwt>
<rscale>  0 0.77459652E+02</rscale>
<asrwt>0</asrwt>
<pdfrwt beam="1">  1        1 0.46095486E-02 0.77459652E+02</pdfrwt>
<pdfrwt beam="2">  1       -2 0.77020438E-02 0.77459652E+02</pdfrwt>
<totfact> 0.13263094E+05</totfact>
</mgrwt>
</event>
<event>
 8    1  0.8247621E-014  0.8059426E+02  0.7818608E-02  0.1327373E+00
          1   -1    0    0  501    0  0.00000000000E+00  0.00000000000E+00  0.40050352840E+01  0.40050384552E+01  0.50400000000E-02 0. -1.
         -2   -1    0    0    0  501 -0.00000000000E+00 -0.00000000000E+00 -0.40545416463E+03  0.40545416463E+03  0.25500000000E-02 0.  1.
        -24    2    1    2    0    0  0.00000000000E+00  0.00000000000E+00 -0.40144912934E+03  0.40945920309E+03  0.80594264964E+02 0.  0.
         66    2    3    3    0    0  0.17986858323E+02 -0.27757364444E+02 -0.31757287512E+03  0.31929692972E+03  0.19999904388E+01 0.  0.
         13    1    3    3    0    0 -0.17986858323E+02  0.27757364444E+02 -0.83876254219E+02  0.90162273369E+02  0.10566000000E+00 0. -1.
         13    1    4    4    0    0  0.33009418749E+01 -0.60300287908E+01 -0.71269645401E+02  0.71600495697E+02  0.10566000000E+00 0. -1.
        -13    1    4    4    0    0  0.78164286038E+01 -0.11359374007E+02 -0.13253441765E+03  0.13324982161E+03  0.10566000000E+00 0.  1.
        -14    1    4    4    0    0  0.68694878440E+01 -0.10367961647E+02 -0.11376881207E+03  0.11444661241E+03  0.00000000000E+00 0.  1.
<mgrwt>
<rscale>  0 0.80594265E+02</rscale>
<asrwt>0</asrwt>
<pdfrwt beam="1">  1        1 0.61615984E-03 0.80594265E+02</pdfrwt>
<pdfrwt beam="2">  1       -2 0.62377532E-01 0.80594265E+02</pdfrwt>
<totfact> 0.57453410E+04</totfact>
</mgrwt>
</event>
<event>
 8    1  0.8247621E-014  0.8001701E+02  0.7818608E-02  0.1329003E+00
         -2   -1    0    0    0  501 -0.00000000000E+00  0.00000000000E+00  0.31726774388E+02  0.31726774491E+02  0.25500000000E-02 0.  1.
          1   -1    0    0  501    0  0.00000000000E+00 -0.00000000000E+00 -0.50452038247E+02  0.50452038498E+02  0.50400000000E-02 0. -1.
        -24    2    1    2    0    0  0.00000000000E+00  0.35527136788E-14 -0.18725263858E+02  0.82178812989E+02  0.80017009427E+02 0.  0.
         66    2    3    3    0    0  0.18263200795E+02  0.27704590081E+02  0.13540839987E+02  0.35894890984E+02  0.20000090931E+01 0.  0.
         13    1    3    3    0    0 -0.18263200795E+02 -0.27704590081E+02 -0.32266103845E+02  0.46283922005E+02  0.10566000000E+00 0. -1.
         13    1    4    4    0    0  0.46781501979E+01  0.67639493986E+01  0.30341208382E+01  0.87665930689E+01  0.10566000000E+00 0. -1.
        -13    1    4    4    0    0  0.91039396202E+01  0.12634688410E+02  0.65792223050E+01  0.16906046196E+02  0.10566000000E+00 0.  1.
         14    1    4    4    0    0  0.44811109766E+01  0.83059522727E+01  0.39274968434E+01  0.10222251718E+02  0.00000000000E+00 0. -1.
<mgrwt>
<rscale>  0 0.80017009E+02</rscale>
<asrwt>0</asrwt>
<pdfrwt beam="1">  1        1 0.77618521E-02 0.80017009E+02</pdfrwt>
<pdfrwt beam="2">  1       -2 0.48810422E-02 0.80017009E+02</pdfrwt>
<totfact> 0.13167956E+05</totfact>
</mgrwt>
</event>
<event>
 8    1  0.8247621E-014  0.8052058E+02  0.7818608E-02  0.1327581E+00
          1   -1    0    0  501    0  0.00000000000E+00  0.00000000000E+00  0.50428296123E+01  0.50428321309E+01  0.50400000000E-02 0. -1.
         -2   -1    0    0    0  501 -0.00000000000E+00 -0.00000000000E+00 -0.32142478343E+03  0.32142478344E+03  0.25500000000E-02 0.  1.
        -24    2    1    2    0    0  0.00000000000E+00  0.00000000000E+00 -0.31638195382E+03  0.32646761557E+03  0.80520576967E+02 0.  0.
         66    2    3    3    0    0 -0.76954709041E+01  0.39378218507E+02 -0.17046620059E+03  0.17513591840E+03  0.20000010560E+01 0.  0.
         13    1    3    3    0    0  0.76954709041E+01 -0.39378218507E+02 -0.14591575322E+03  0.15133169717E+03  0.10566000000E+00 0. -1.
         13    1    4    4    0    0 -0.45769610926E+01  0.20772726053E+02 -0.91263104267E+02  0.93709231588E+02  0.10566000000E+00 0. -1.
        -13    1    4    4    0    0 -0.26177177211E+01  0.15588684801E+02 -0.68062385528E+02  0.69873879438E+02  0.10566000000E+00 0.  1.
         14    1    4    4    0    0 -0.50079209033E+00  0.30168076535E+01 -0.11140710798E+02  0.11552807374E+02  0.00000000000E+00 0. -1.
<mgrwt>
<rscale>  0 0.80520577E+02</rscale>
<asrwt>0</asrwt>
<pdfrwt beam="1">  1        1 0.77582039E-03 0.80520577E+02</pdfrwt>
<pdfrwt beam="2">  1       -2 0.49449951E-01 0.80520577E+02</pdfrwt>
<totfact> 0.66495295E+04</totfact>
</mgrwt>
</event>
<event>
 8    1  0.8247621E-014  0.8157163E+02  0.7818608E-02  0.1324650E+00
          1   -1    0    0  501    0  0.00000000000E+00  0.00000000000E+00  0.22727246113E+02  0.22727246671E+02  0.50400000000E-02 0. -1.
         -2   -1    0    0    0  501 -0.00000000000E+00 -0.00000000000E+00 -0.73193322085E+02  0.73193322129E+02  0.25500000000E-02 0.  1.
        -24    2    1    2    0    0  0.17763568394E-14  0.17763568394E-14 -0.50466075972E+02  0.95920568801E+02  0.81571629229E+02 0.  0.
         66    2    3    3    0    0  0.12814242553E+02  0.10476490403E+02 -0.69049929746E+02  0.71034177972E+02  0.19999947094E+01 0.  0.
         13    1    3    3    0    0 -0.12814242553E+02 -0.10476490403E+02  0.18583853774E+02  0.24886390829E+02  0.10566000000E+00 0. -1.
         13    1    4    4    0    0  0.13830889888E+01  0.10736634672E+01 -0.81003031647E+01  0.82880494561E+01  0.10566000000E+00 0. -1.
        -13    1    4    4    0    0  0.85145305406E+01  0.62777102934E+01 -0.40917362790E+02  0.42262851520E+02  0.10566000000E+00 0.  1.
         14    1    4    4    0    0  0.29166230239E+01  0.31251166422E+01 -0.20032263791E+02  0.20483276996E+02  0.00000000000E+00 0. -1.
<mgrwt>
<rscale>  0 0.81571629E+02</rscale>
<asrwt>0</asrwt>
<pdfrwt beam="1">  1        1 0.34964995E-02 0.81571629E+02</pdfrwt>
<pdfrwt beam="2">  1       -2 0.11260511E-01 0.81571629E+02</pdfrwt>
<totfact> 0.10837620E+05</totfact>
</mgrwt>
</event>
<event>
 8    1  0.8247621E-014  0.8212785E+02  0.7818608E-02  0.1323119E+00
         -2   -1    0    0    0  501 -0.00000000000E+00  0.00000000000E+00  0.31211674519E+02  0.31211674623E+02  0.25500000000E-02 0.  1.
          1   -1    0    0  501    0  0.00000000000E+00 -0.00000000000E+00 -0.54026121828E+02  0.54026122064E+02  0.50400000000E-02 0. -1.
        -24    2    1    2    0    0  0.00000000000E+00  0.00000000000E+00 -0.22814447310E+02  0.85237796686E+02  0.82127845326E+02 0.  0.
         66    2    3    3    0    0  0.25120088732E+02 -0.30681940695E+02 -0.43804385640E+00  0.39706324733E+02  0.19999996603E+01 0.  0.
         13    1    3    3    0    0 -0.25120088732E+02  0.30681940695E+02 -0.22376403453E+02  0.45531471954E+02  0.10566000000E+00 0. -1.
         13    1    4    4    0    0  0.22022873265E+01 -0.23827079505E+01 -0.13857625263E+00  0.32492666956E+01  0.10566000000E+00 0. -1.
        -13    1    4    4    0    0  0.17856861453E+01 -0.29701229225E+01  0.78149319682E-01  0.34680796612E+01  0.10566000000E+00 0.  1.
         14    1    4    4    0    0  0.21132115261E+02 -0.25329109822E+02 -0.37761692345E+00  0.32988978376E+02  0.00000000000E+00 0. -1.
<mgrwt>
<rscale>  0 0.82127845E+02</rscale>
<asrwt>0</asrwt>
<pdfrwt beam="1">  1        1 0.83117111E-02 0.82127845E+02</pdfrwt>
<pdfrwt beam="2">  1       -2 0.48017961E-02 0.82127845E+02</pdfrwt>
<totfact> 0.12381749E+05</totfact>
</mgrwt>
</event>
<event>
 8    1  0.8247621E-014  0.8078425E+02  0.7818608E-02  0.1326840E+00
          1   -1    0    0  501    0  0.00000000000E+00  0.00000000000E+00  0.37314617950E+02  0.37314618291E+02  0.50400000000E-02 0. -1.
         -2   -1    0    0    0  501 -0.00000000000E+00 -0.00000000000E+00 -0.43723448485E+02  0.43723448559E+02  0.25500000000E-02 0.  1.
        -24    2    1    2    0    0 -0.17763568394E-14  0.71054273576E-14 -0.64088305348E+01  0.81038066850E+02  0.80784250754E+02 0.  0.
         66    2    3    3    0    0  0.11784685178E+02 -0.38091952320E+02  0.31096913711E+01  0.40044298304E+02  0.20000024759E+01 0.  0.
         13    1    3    3    0    0 -0.11784685178E+02  0.38091952320E+02 -0.95185219059E+01  0.40993768546E+02  0.10566000000E+00 0. -1.
         13    1    4    4    0    0  0.91946020660E+00 -0.20887709856E+01 -0.62905589608E-01  0.22854961060E+01  0.10566000000E+00 0.  1.
        -13    1    4    4    0    0  0.23681012078E+01 -0.89755898526E+01  0.40562175944E+00  0.92921907847E+01  0.10566000000E+00 0.  1.
         14    1    4    4    0    0  0.84971237640E+01 -0.27027591482E+02  0.27669752013E+01  0.28466611413E+02  0.00000000000E+00 0. -1.
<mgrwt>
<rscale>  0 0.80784251E+02</rscale>
<asrwt>0</asrwt>
<pdfrwt beam="1">  1        1 0.57407105E-02 0.80784251E+02</pdfrwt>
<pdfrwt beam="2">  1       -2 0.67266844E-02 0.80784251E+02</pdfrwt>
<totfact> 0.12211586E+05</totfact>
</mgrwt>
</event>
<event>
 8    1  0.8247621E-014  0.8005237E+02  0.7818608E-02  0.1328903E+00
          1   -1    0    0  501    0  0.00000000000E+00  0.00000000000E+00  0.42620778085E+02  0.42620778383E+02  0.50400000000E-02 0. -1.
         -2   -1    0    0    0  501 -0.00000000000E+00 -0.00000000000E+00 -0.37589542854E+02  0.37589542940E+02  0.25500000000E-02 0.  1.
        -24    2    1    2    0    0  0.00000000000E+00  0.00000000000E+00  0.50312352310E+01  0.80210321323E+02  0.80052372349E+02 0.  0.
         66    2    3    3    0    0  0.35935604167E+02  0.11180471644E+02 -0.11063896223E+02  0.39278243271E+02  0.20000004430E+01 0.  0.
         13    1    3    3    0    0 -0.35935604167E+02 -0.11180471644E+02  0.16095131454E+02  0.40932078052E+02  0.10566000000E+00 0. -1.
         13    1    4    4    0    0  0.16047425809E+02  0.47688008680E+01 -0.40605993837E+01  0.17226751528E+02  0.10566000000E+00 0.  1.
        -13    1    4    4    0    0  0.45143297530E+01  0.15913099313E+01 -0.18966775732E+01  0.51497563310E+01  0.10566000000E+00 0. -1.
        -14    1    4    4    0    0  0.15373848605E+02  0.48203608449E+01 -0.51066192664E+01  0.16901735412E+02  0.00000000000E+00 0.  1.
<mgrwt>
<rscale>  0 0.80052372E+02</rscale>
<asrwt>0</asrwt>
<pdfrwt beam="1">  1        1 0.65570428E-02 0.80052372E+02</pdfrwt>
<pdfrwt beam="2">  1       -2 0.57830066E-02 0.80052372E+02</pdfrwt>
<totfact> 0.12804633E+05</totfact>
</mgrwt>
</event>
<event>
 8    1  0.8247621E-014  0.7909444E+02  0.7818608E-02  0.1331641E+00
         -2   -1    0    0    0  501 -0.00000000000E+00  0.00000000000E+00  0.88605463419E+01  0.88605467089E+01  0.25500000000E-02 0.  1.
          1   -1    0    0  501    0  0.00000000000E+00 -0.00000000000E+00 -0.17651083155E+03  0.17651083162E+03  0.50400000000E-02 0. -1.
        -24    2    1    2    0    0  0.71054273576E-14 -0.35527136788E-14 -0.16765028521E+03  0.18537137833E+03  0.79094435796E+02 0.  0.
         66    2    3    3    0    0  0.35722640636E+02 -0.15301692974E+02 -0.67022290434E+02  0.77499911491E+02  0.20000010570E+01 0.  0.
         13    1    3    3    0    0 -0.35722640636E+02  0.15301692974E+02 -0.10062799477E+03  0.10787146684E+03  0.10566000000E+00 0. -1.
         13    1    4    4    0    0  0.62303454625E+01 -0.25426714321E+01 -0.10478691624E+02  0.12453775523E+02  0.10566000000E+00 0. -1.
        -13    1    4    4    0    0  0.15203334512E+01 -0.90806909210E+00 -0.30683116872E+01  0.35442494162E+01  0.10566000000E+00 0.  1.
        -14    1    4    4    0    0  0.27971961722E+02 -0.11850952450E+02 -0.53475287123E+02  0.61501886552E+02  0.00000000000E+00 0.  1.
<mgrwt>
<rscale>  0 0.79094436E+02</rscale>
<asrwt>0</asrwt>
<pdfrwt beam="1">  1        1 0.27155510E-01 0.79094436E+02</pdfrwt>
<pdfrwt beam="2">  1       -2 0.13631611E-02 0.79094436E+02</pdfrwt>
<totfact> 0.16777822E+05</totfact>
</mgrwt>
</event>
<event>
 8    1  0.8247621E-014  0.7922041E+02  0.7818608E-02  0.1331278E+00
         -2   -1    0    0    0  501 -0.00000000000E+00  0.00000000000E+00  0.14447216399E+03  0.14447216401E+03  0.25500000000E-02 0.  1.
          1   -1    0    0  501    0  0.00000000000E+00 -0.00000000000E+00 -0.10860003145E+02  0.10860004314E+02  0.50400000000E-02 0. -1.
        -24    2    1    2    0    0  0.00000000000E+00  0.00000000000E+00  0.13361216084E+03  0.15533216832E+03  0.79220407669E+02 0.  0.
         66    2    3    3    0    0  0.86155869235E+01 -0.13086665939E+02  0.13812623928E+03  0.13902642603E+03  0.19999988511E+01 0.  0.
         13    1    3    3    0    0 -0.86155869235E+01  0.13086665939E+02 -0.45140784356E+01  0.16305742289E+02  0.10566000000E+00 0. -1.
         13    1    4    4    0    0  0.30975352962E+01 -0.43857929321E+01  0.41516638533E+02  0.41862541056E+02  0.10566000000E+00 0. -1.
        -13    1    4    4    0    0  0.37853129106E+01 -0.66770174130E+01  0.74462141042E+02  0.74856748313E+02  0.10566000000E+00 0.  1.
        -14    1    4    4    0    0  0.17327387167E+01 -0.20238555942E+01  0.22147459703E+02  0.22307136666E+02  0.00000000000E+00 0.  1.
<mgrwt>
<rscale>  0 0.79220408E+02</rscale>
<asrwt>0</asrwt>
<pdfrwt beam="1">  1        1 0.16707699E-02 0.79220408E+02</pdfrwt>
<pdfrwt beam="2">  1       -2 0.22226485E-01 0.79220408E+02</pdfrwt>
<totfact> 0.98108107E+04</totfact>
</mgrwt>
</event>
<event>
 8    1  0.8247621E-014  0.7719373E+02  0.7818608E-02  0.1337209E+00
         -2   -1    0    0    0  501 -0.00000000000E+00  0.00000000000E+00  0.17116542420E+02  0.17116542610E+02  0.25500000000E-02 0.  1.
          1   -1    0    0  501    0  0.00000000000E+00 -0.00000000000E+00 -0.87033819316E+02  0.87033819462E+02  0.50400000000E-02 0. -1.
        -24    2    1    2    0    0  0.00000000000E+00  0.00000000000E+00 -0.69917276897E+02  0.10415036207E+03  0.77193732330E+02 0.  0.
         66    2    3    3    0    0  0.20826852082E+02  0.30871666652E+02 -0.21429682101E+02  0.43012194103E+02  0.19999992568E+01 0.  0.
         13    1    3    3    0    0 -0.20826852082E+02 -0.30871666652E+02 -0.48487594795E+02  0.61138167969E+02  0.10566000000E+00 0. -1.
         13    1    4    4    0    0  0.13147079125E+02  0.19508280547E+02 -0.13297923945E+02  0.27023409198E+02  0.10566000000E+00 0. -1.
        -13    1    4    4    0    0  0.65923313310E+01  0.91629575406E+01 -0.70287937680E+01  0.13297884386E+02  0.10566000000E+00 0.  1.
         14    1    4    4    0    0  0.10874416259E+01  0.22004285654E+01 -0.11029643879E+01  0.26909005188E+01  0.00000000000E+00 0. -1.
<mgrwt>
<rscale>  0 0.77193732E+02</rscale>
<asrwt>0</asrwt>
<pdfrwt beam="1">  1        1 0.13389818E-01 0.77193732E+02</pdfrwt>
<pdfrwt beam="2">  1       -2 0.26333143E-02 0.77193732E+02</pdfrwt>
<totfact> 0.15823218E+05</totfact>
</mgrwt>
</event>
<event>
 8    1  0.8247621E-014  0.8055257E+02  0.7818608E-02  0.1327491E+00
         -2   -1    0    0    0  501 -0.00000000000E+00  0.00000000000E+00  0.50030455404E+02  0.50030455469E+02  0.25500000000E-02 0.  1.
          1   -1    0    0  501    0  0.00000000000E+00 -0.00000000000E+00 -0.32423834782E+02  0.32423835174E+02  0.50400000000E-02 0. -1.
        -24    2    1    2    0    0  0.00000000000E+00  0.71054273576E-14  0.17606620621E+02  0.82454290643E+02  0.80552572620E+02 0.  0.
         66    2    3    3    0    0  0.54238219687E+01 -0.39192851002E+02  0.12397724707E+01  0.39636276947E+02  0.19999999956E+01 0.  0.
         13    1    3    3    0    0 -0.54238219687E+01  0.39192851002E+02  0.16366848151E+02  0.42818013696E+02  0.10566000000E+00 0. -1.
         13    1    4    4    0    0  0.42916568250E+00 -0.23391368879E+01  0.12947655890E+00  0.23840454648E+01  0.10566000000E+00 0.  1.
        -13    1    4    4    0    0  0.35105491913E+01 -0.28287891259E+02  0.15545908172E+01  0.28547445843E+02  0.10566000000E+00 0.  1.
         14    1    4    4    0    0  0.14841070949E+01 -0.85658228555E+01 -0.44429490548E+00  0.87047856392E+01  0.00000000000E+00 0. -1.
<mgrwt>
<rscale>  0 0.80552573E+02</rscale>
<asrwt>0</asrwt>
<pdfrwt beam="1">  1        1 0.49882823E-02 0.80552573E+02</pdfrwt>
<pdfrwt beam="2">  1       -2 0.76969931E-02 0.80552573E+02</pdfrwt>
<totfact> 0.12021025E+05</totfact>
</mgrwt>
</event>
<event>
 8    1  0.8247621E-014  0.8048183E+02  0.7818608E-02  0.1327690E+00
         -2   -1    0    0    0  501 -0.00000000000E+00  0.00000000000E+00  0.10463076356E+04  0.10463076356E+04  0.25500000000E-02 0.  1.
          1   -1    0    0  501    0  0.00000000000E+00 -0.00000000000E+00 -0.15476585380E+01  0.15476667444E+01  0.50400000000E-02 0. -1.
        -24    2    1    2    0    0  0.00000000000E+00 -0.35527136788E-14  0.10447599771E+04  0.10478553024E+04  0.80481830168E+02 0.  0.
         66    2    3    3    0    0  0.14699740658E+02 -0.25084775083E+02  0.88445418426E+03  0.88493419663E+03  0.20000012113E+01 0.  0.
         13    1    3    3    0    0 -0.14699740658E+02  0.25084775083E+02  0.16030579283E+03  0.16292110574E+03  0.10566000000E+00 0. -1.
         13    1    4    4    0    0  0.32241402778E+01 -0.48399995482E+01  0.18037487549E+03  0.18046863314E+03  0.10566000000E+00 0.  1.
        -13    1    4    4    0    0  0.96205706791E+01 -0.17910766474E+02  0.62141206650E+03  0.62174457657E+03  0.10566000000E+00 0. -1.
         14    1    4    4    0    0  0.18550297015E+01 -0.23340090611E+01  0.82667242269E+02  0.82720986925E+02  0.00000000000E+00 0. -1.
<mgrwt>
<rscale>  0 0.80481830E+02</rscale>
<asrwt>0</asrwt>
<pdfrwt beam="1">  1        1 0.23810186E-03 0.80481830E+02</pdfrwt>
<pdfrwt beam="2">  1       -2 0.16097047E+00 0.80481830E+02</pdfrwt>
<totfact> 0.24333684E+04</totfact>
</mgrwt>
</event>
<event>
 8    1  0.8247621E-014  0.8089666E+02  0.7818608E-02  0.1326526E+00
         -2   -1    0    0    0  501 -0.00000000000E+00  0.00000000000E+00  0.95144820037E+01  0.95144823455E+01  0.25500000000E-02 0.  1.
          1   -1    0    0  501    0  0.00000000000E+00 -0.00000000000E+00 -0.17195547010E+03  0.17195547018E+03  0.50400000000E-02 0. -1.
        -24    2    1    2    0    0  0.00000000000E+00  0.00000000000E+00 -0.16244098810E+03  0.18146995252E+03  0.80896656629E+02 0.  0.
         66    2    3    3    0    0  0.38001465209E+02 -0.86271560522E+01 -0.57159368129E+02  0.69207893718E+02  0.20000020845E+01 0.  0.
         13    1    3    3    0    0 -0.38001465209E+02  0.86271560522E+01 -0.10528161997E+03  0.11226205881E+03  0.10566000000E+00 0. -1.
         13    1    4    4    0    0  0.31039897496E+02 -0.69935600039E+01 -0.47447842748E+02  0.57128749886E+02  0.10566000000E+00 0.  1.
        -13    1    4    4    0    0  0.48017647501E+01 -0.88347526775E+00 -0.62711361696E+01  0.79483197065E+01  0.10566000000E+00 0. -1.
         14    1    4    4    0    0  0.21598029621E+01 -0.75012078059E+00 -0.34403892124E+01  0.41308241252E+01  0.00000000000E+00 0. -1.
<mgrwt>
<rscale>  0 0.80896657E+02</rscale>
<asrwt>0</asrwt>
<pdfrwt beam="1">  1        1 0.26454685E-01 0.80896657E+02</pdfrwt>
<pdfrwt beam="2">  1       -2 0.14637666E-02 0.80896657E+02</pdfrwt>
<totfact> 0.15722722E+05</totfact>
</mgrwt>
</event>
<event>
 8    1  0.8247621E-014  0.7991037E+02  0.7818608E-02  0.1329306E+00
         -2   -1    0    0    0  501 -0.00000000000E+00  0.00000000000E+00  0.12039884749E+02  0.12039885019E+02  0.25500000000E-02 0.  1.
          1   -1    0    0  501    0  0.00000000000E+00 -0.00000000000E+00 -0.13259404076E+03  0.13259404085E+03  0.50400000000E-02 0. -1.
        -24    2    1    2    0    0 -0.11102230246E-15  0.00000000000E+00 -0.12055415601E+03  0.14463392587E+03  0.79910374683E+02 0.  0.
         66    2    3    3    0    0 -0.68064895126E+00 -0.27439093730E+02 -0.78247275504E+01  0.28611073156E+02  0.19999995513E+01 0.  0.
         13    1    3    3    0    0  0.68064895126E+00  0.27439093730E+02 -0.11272942846E+03  0.11602285271E+03  0.10566000000E+00 0. -1.
         13    1    4    4    0    0  0.16658726366E+00 -0.14013641316E+02 -0.46751889864E+01  0.14774249570E+02  0.10566000000E+00 0. -1.
        -13    1    4    4    0    0 -0.47015669166E-02 -0.56891607537E+01 -0.14298095087E+01  0.58670342979E+01  0.10566000000E+00 0.  1.
         14    1    4    4    0    0 -0.84253464800E+00 -0.77362916599E+01 -0.17197290553E+01  0.79697892886E+01  0.00000000000E+00 0. -1.
<mgrwt>
<rscale>  0 0.79910375E+02</rscale>
<asrwt>0</asrwt>
<pdfrwt beam="1">  1        1 0.20399082E-01 0.79910375E+02</pdfrwt>
<pdfrwt beam="2">  1       -2 0.18522901E-02 0.79910375E+02</pdfrwt>
<totfact> 0.15484127E+05</totfact>
</mgrwt>
</event>
<event>
 8    1  0.8247621E-014  0.8003961E+02  0.7818608E-02  0.1328939E+00
         -2   -1    0    0    0  501 -0.00000000000E+00  0.00000000000E+00  0.26738579103E+03  0.26738579104E+03  0.25500000000E-02 0.  1.
          1   -1    0    0  501    0  0.00000000000E+00 -0.00000000000E+00 -0.59897895485E+01  0.59897916689E+01  0.50400000000E-02 0. -1.
        -24    2    1    2    0    0  0.00000000000E+00  0.00000000000E+00  0.26139600148E+03  0.27337558271E+03  0.80039612893E+02 0.  0.
         66    2    3    3    0    0 -0.29207531113E+02  0.22738919351E+02  0.18251513952E+03  0.18624154874E+03  0.19999997634E+01 0.  0.
         13    1    3    3    0    0  0.29207531113E+02 -0.22738919351E+02  0.78880861966E+02  0.87134033968E+02  0.10566000000E+00 0. -1.
         13    1    4    4    0    0 -0.16944350680E+02  0.13613670812E+02  0.11041703658E+03  0.11253611058E+03  0.10566000000E+00 0. -1.
        -13    1    4    4    0    0 -0.14395476048E+01  0.10667939979E+01  0.73283646047E+01  0.75449611368E+01  0.10566000000E+00 0.  1.
        -14    1    4    4    0    0 -0.10823632828E+02  0.80584545414E+01  0.64769738328E+02  0.66160477026E+02  0.00000000000E+00 0.  1.
<mgrwt>
<rscale>  0 0.80039613E+02</rscale>
<asrwt>0</asrwt>
<pdfrwt beam="1">  1        1 0.92150639E-03 0.80039613E+02</pdfrwt>
<pdfrwt beam="2">  1       -2 0.41136269E-01 0.80039613E+02</pdfrwt>
<totfact> 0.74526690E+04</totfact>
</mgrwt>
</event>
<event>
 8    1  0.8247621E-014  0.7817742E+02  0.7818608E-02  0.1334305E+00
          1   -1    0    0  501    0  0.00000000000E+00  0.00000000000E+00  0.34747920518E+02  0.34747920884E+02  0.50400000000E-02 0. -1.
         -2   -1    0    0    0  501 -0.00000000000E+00 -0.00000000000E+00 -0.43971760300E+02  0.43971760374E+02  0.25500000000E-02 0.  1.
        -24    2    1    2    0    0  0.00000000000E+00  0.00000000000E+00 -0.92238397822E+01  0.78719681258E+02  0.78177419995E+02 0.  0.
         66    2    3    3    0    0 -0.35758476106E+02  0.65976320635E+01 -0.18987158157E+02  0.41069569546E+02  0.20000013850E+01 0.  0.
         13    1    3    3    0    0  0.35758476106E+02 -0.65976320635E+01  0.97633183750E+01  0.37650111712E+02  0.10566000000E+00 0. -1.
         13    1    4    4    0    0 -0.47603791020E+01  0.68179555290E+00 -0.29331958609E+01  0.56339024100E+01  0.10566000000E+00 0. -1.
        -13    1    4    4    0    0 -0.12575963127E+02  0.28421885596E+01 -0.71797247767E+01  0.14757794424E+02  0.10566000000E+00 0.  1.
        -14    1    4    4    0    0 -0.18422133877E+02  0.30736479509E+01 -0.88742375195E+01  0.20677872711E+02  0.00000000000E+00 0.  1.
<mgrwt>
<rscale>  0 0.78177420E+02</rscale>
<asrwt>0</asrwt>
<pdfrwt beam="1">  1        1 0.53458340E-02 0.78177420E+02</pdfrwt>
<pdfrwt beam="2">  1       -2 0.67648862E-02 0.78177420E+02</pdfrwt>
<totfact> 0.13243634E+05</totfact>
</mgrwt>
</event>
<event>
 8    1  0.8247621E-014  0.8016998E+02  0.7818608E-02  0.1328570E+00
         -2   -1    0    0    0  501 -0.00000000000E+00  0.00000000000E+00  0.41007912768E+03  0.41007912769E+03  0.25500000000E-02 0.  1.
          1   -1    0    0  501    0  0.00000000000E+00 -0.00000000000E+00 -0.39182822626E+01  0.39182855040E+01  0.50400000000E-02 0. -1.
        -24    2    1    2    0    0  0.00000000000E+00 -0.55511151231E-16  0.40616084542E+03  0.41399741319E+03  0.80169980538E+02 0.  0.
         66    2    3    3    0    0 -0.10690016471E+02 -0.38055469825E+00  0.40256478738E+03  0.40271184402E+03  0.20000015739E+01 0.  0.
         13    1    3    3    0    0  0.10690016471E+02  0.38055469825E+00  0.35960580414E+01  0.11285569170E+02  0.10566000000E+00 0. -1.
         13    1    4    4    0    0 -0.34217665002E+01 -0.10212860547E+01  0.13491820692E+03  0.13496549646E+03  0.10566000000E+00 0. -1.
        -13    1    4    4    0    0 -0.39574396221E+01  0.30653618209E+00  0.13854043773E+03  0.13859732806E+03  0.10566000000E+00 0.  1.
         14    1    4    4    0    0 -0.33108103483E+01  0.33419517434E+00  0.12910614273E+03  0.12914901951E+03  0.00000000000E+00 0. -1.
<mgrwt>
<rscale>  0 0.80169981E+02</rscale>
<asrwt>0</asrwt>
<pdfrwt beam="1">  1        1 0.60281311E-03 0.80169981E+02</pdfrwt>
<pdfrwt beam="2">  1       -2 0.63089075E-01 0.80169981E+02</pdfrwt>
<totfact> 0.57800861E+04</totfact>
</mgrwt>
</event>
<event>
 8    1  0.8247621E-014  0.8936678E+02  0.7818608E-02  0.1304392E+00
          1   -1    0    0  501    0  0.00000000000E+00  0.00000000000E+00  0.26452774596E+03  0.26452774601E+03  0.50400000000E-02 0. -1.
         -2   -1    0    0    0  501 -0.00000000000E+00 -0.00000000000E+00 -0.75478096889E+01  0.75478101196E+01  0.25500000000E-02 0.  1.
        -24    2    1    2    0    0  0.00000000000E+00  0.00000000000E+00  0.25697993628E+03  0.27207555613E+03  0.89366775685E+02 0.  0.
         66    2    3    3    0    0  0.20591911403E+02 -0.31680292093E+02  0.56063983991E+02  0.67637548979E+02  0.20000021504E+01 0.  0.
         13    1    3    3    0    0 -0.20591911403E+02  0.31680292093E+02  0.20091595228E+03  0.20443800715E+03  0.10566000000E+00 0. -1.
         13    1    4    4    0    0  0.75533712144E+01 -0.10379524422E+02  0.19594417227E+02  0.23425206390E+02  0.10566000000E+00 0. -1.
        -13    1    4    4    0    0  0.51685890263E+01 -0.76373625227E+01  0.13826499618E+02  0.16620074445E+02  0.10566000000E+00 0.  1.
         14    1    4    4    0    0  0.78699511624E+01 -0.13663405148E+02  0.22643067146E+02  0.27592268144E+02  0.00000000000E+00 0. -1.
<mgrwt>
<rscale>  0 0.89366776E+02</rscale>
<asrwt>0</asrwt>
<pdfrwt beam="1">  1        1 0.40696573E-01 0.89366776E+02</pdfrwt>
<pdfrwt beam="2">  1       -2 0.11612016E-02 0.89366776E+02</pdfrwt>
<totfact> 0.13120122E+05</totfact>
</mgrwt>
</event>
<event>
 8    1  0.8247621E-014  0.7918439E+02  0.7818608E-02  0.1331382E+00
         -2   -1    0    0    0  501 -0.00000000000E+00  0.00000000000E+00  0.98044118783E+02  0.98044118816E+02  0.25500000000E-02 0.  1.
          1   -1    0    0  501    0  0.00000000000E+00 -0.00000000000E+00 -0.15988128787E+02  0.15988129582E+02  0.50400000000E-02 0. -1.
        -24    2    1    2    0    0 -0.35527136788E-14  0.00000000000E+00  0.82055989995E+02  0.11403224840E+03  0.79184393541E+02 0.  0.
         66    2    3    3    0    0 -0.27206378810E+02 -0.17608717859E+02  0.73743803618E+02  0.80575446413E+02  0.20000000442E+01 0.  0.
         13    1    3    3    0    0  0.27206378810E+02  0.17608717859E+02  0.83121863779E+01  0.33456801984E+02  0.10566000000E+00 0. -1.
         13    1    4    4    0    0 -0.28555165644E+01 -0.24055141225E+01  0.85342286711E+01  0.93158304026E+01  0.10566000000E+00 0. -1.
        -13    1    4    4    0    0 -0.44188885098E+01 -0.33247218333E+01  0.12531892122E+02  0.13698169043E+02  0.10566000000E+00 0.  1.
         14    1    4    4    0    0 -0.19931973735E+02 -0.11878481903E+02  0.52677682824E+02  0.57561446968E+02  0.00000000000E+00 0. -1.
<mgrwt>
<rscale>  0 0.79184394E+02</rscale>
<asrwt>0</asrwt>
<pdfrwt beam="1">  1        1 0.24597122E-02 0.79184394E+02</pdfrwt>
<pdfrwt beam="2">  1       -2 0.15083710E-01 0.79184394E+02</pdfrwt>
<totfact> 0.10947890E+05</totfact>
</mgrwt>
</event>
<event>
 8    1  0.8247621E-014  0.8055002E+02  0.7818608E-02  0.1327498E+00
         -2   -1    0    0    0  501 -0.00000000000E+00  0.00000000000E+00  0.40083256892E+02  0.40083256973E+02  0.25500000000E-02 0.  1.
          1   -1    0    0  501    0  0.00000000000E+00 -0.00000000000E+00 -0.40467681399E+02  0.40467681713E+02  0.50400000000E-02 0. -1.
        -24    2    1    2    0    0  0.00000000000E+00  0.00000000000E+00 -0.38442450637E+00  0.80550938686E+02  0.80550021359E+02 0.  0.
         66    2    3    3    0    0  0.88765920985E+01 -0.22840307334E+02  0.31739177547E+02  0.40147838566E+02  0.20000059303E+01 0.  0.
         13    1    3    3    0    0 -0.88765920985E+01  0.22840307334E+02 -0.32123602054E+02  0.40403100120E+02  0.10566000000E+00 0. -1.
         13    1    4    4    0    0  0.36378924766E+01 -0.73726032640E+01  0.11231646460E+02  0.13919431986E+02  0.10566000000E+00 0. -1.
        -13    1    4    4    0    0  0.21497726053E+01 -0.75828359627E+01  0.10011546768E+02  0.12742180199E+02  0.10566000000E+00 0.  1.
         14    1    4    4    0    0  0.30889270165E+01 -0.78848681072E+01  0.10495984319E+02  0.13486226381E+02  0.00000000000E+00 0. -1.
<mgrwt>
<rscale>  0 0.80550021E+02</rscale>
<asrwt>0</asrwt>
<pdfrwt beam="1">  1        1 0.62257972E-02 0.80550021E+02</pdfrwt>
<pdfrwt beam="2">  1       -2 0.61666549E-02 0.80550021E+02</pdfrwt>
<totfact> 0.12478322E+05</totfact>
</mgrwt>
</event>
<event>
 8    1  0.8247621E-014  0.7932169E+02  0.7818608E-02  0.1330987E+00
         -2   -1    0    0    0  501 -0.00000000000E+00  0.00000000000E+00  0.18956500555E+02  0.18956500726E+02  0.25500000000E-02 0.  1.
          1   -1    0    0  501    0  0.00000000000E+00 -0.00000000000E+00 -0.82978529479E+02  0.82978529632E+02  0.50400000000E-02 0. -1.
        -24    2    1    2    0    0 -0.35527136788E-14  0.00000000000E+00 -0.64022028924E+02  0.10193503036E+03  0.79321688248E+02 0.  0.
         66    2    3    3    0    0  0.18753116137E+02  0.19295211852E+02  0.53686768543E+01  0.27510130105E+02  0.20000004919E+01 0.  0.
         13    1    3    3    0    0 -0.18753116137E+02 -0.19295211852E+02 -0.69390705779E+02  0.74424900253E+02  0.10566000000E+00 0. -1.
         13    1    4    4    0    0  0.12136228497E+01  0.14161959136E+01 -0.54983961721E-01  0.18688709315E+01  0.10566000000E+00 0.  1.
        -13    1    4    4    0    0  0.10988803432E+02  0.10654503000E+02  0.34922400253E+01  0.15699654120E+02  0.10566000000E+00 0.  1.
         14    1    4    4    0    0  0.65506898550E+01  0.72245129381E+01  0.19314207907E+01  0.99416050535E+01  0.00000000000E+00 0. -1.
<mgrwt>
<rscale>  0 0.79321688E+02</rscale>
<asrwt>0</asrwt>
<pdfrwt beam="1">  1        1 0.12765927E-01 0.79321688E+02</pdfrwt>
<pdfrwt beam="2">  1       -2 0.29163848E-02 0.79321688E+02</pdfrwt>
<totfact> 0.14587144E+05</totfact>
</mgrwt>
</event>
<event>
 8    1  0.8247621E-014  0.8080751E+02  0.7818608E-02  0.1326775E+00
         -2   -1    0    0    0  501 -0.00000000000E+00  0.00000000000E+00  0.16361284903E+03  0.16361284905E+03  0.25500000000E-02 0.  1.
          1   -1    0    0  501    0  0.00000000000E+00 -0.00000000000E+00 -0.99775996028E+01  0.99776008758E+01  0.50400000000E-02 0. -1.
        -24    2    1    2    0    0  0.00000000000E+00  0.17763568394E-14  0.15363524943E+03  0.17359044993E+03  0.80807514743E+02 0.  0.
         66    2    3    3    0    0  0.34183291739E+02  0.88264895307E+01  0.11896341457E+03  0.12410760797E+03  0.19999996325E+01 0.  0.
         13    1    3    3    0    0 -0.34183291739E+02 -0.88264895307E+01  0.34671834857E+02  0.49482841955E+02  0.10566000000E+00 0. -1.
         13    1    4    4    0    0  0.13092729397E+01  0.45891822212E+00  0.39504588056E+01  0.41883278735E+01  0.10566000000E+00 0. -1.
        -13    1    4    4    0    0  0.23795356146E+02  0.61321000292E+01  0.85443240986E+02  0.88906581416E+02  0.10566000000E+00 0.  1.
        -14    1    4    4    0    0  0.90786626533E+01  0.22354712793E+01  0.29569714779E+02  0.31012698682E+02  0.00000000000E+00 0.  1.
<mgrwt>
<rscale>  0 0.80807515E+02</rscale>
<asrwt>0</asrwt>
<pdfrwt beam="1">  1        1 0.15350154E-02 0.80807515E+02</pdfrwt>
<pdfrwt beam="2">  1       -2 0.25171209E-01 0.80807515E+02</pdfrwt>
<totfact> 0.89423580E+04</totfact>
</mgrwt>
</event>
<event>
 8    1  0.8247621E-014  0.7889659E+02  0.7818608E-02  0.1332212E+00
         -2   -1    0    0    0  501 -0.00000000000E+00  0.00000000000E+00  0.12123491498E+03  0.12123491500E+03  0.25500000000E-02 0.  1.
          1   -1    0    0  501    0  0.00000000000E+00 -0.00000000000E+00 -0.12835970129E+02  0.12835971118E+02  0.50400000000E-02 0. -1.
        -24    2    1    2    0    0  0.00000000000E+00  0.17763568394E-14  0.10839894485E+03  0.13407088612E+03  0.78896585866E+02 0.  0.
         66    2    3    3    0    0 -0.66868108564E+01  0.93410291491E+01  0.11831911476E+03  0.11889230911E+03  0.19999959747E+01 0.  0.
         13    1    3    3    0    0  0.66868108564E+01 -0.93410291491E+01 -0.99201699096E+01  0.15178577010E+02  0.10566000000E+00 0. -1.
         13    1    4    4    0    0 -0.12872458670E+01  0.19582406106E+01  0.23351346573E+02  0.23468878520E+02  0.10566000000E+00 0. -1.
        -13    1    4    4    0    0 -0.26629918863E+01  0.50841304763E+01  0.58517656913E+02  0.58798530961E+02  0.10566000000E+00 0.  1.
         14    1    4    4    0    0 -0.27365731030E+01  0.22986580622E+01  0.36450111270E+02  0.36624899629E+02  0.00000000000E+00 0. -1.
<mgrwt>
<rscale>  0 0.78896586E+02</rscale>
<asrwt>0</asrwt>
<pdfrwt beam="1">  1        1 0.19747646E-02 0.78896586E+02</pdfrwt>
<pdfrwt beam="2">  1       -2 0.18651527E-01 0.78896586E+02</pdfrwt>
<totfact> 0.10451405E+05</totfact>
</mgrwt>
</event>
<event>
 8    1  0.8247621E-014  0.7930535E+02  0.7818608E-02  0.1331034E+00
          1   -1    0    0  501    0  0.00000000000E+00  0.00000000000E+00  0.16954693983E+02  0.16954694732E+02  0.50400000000E-02 0. -1.
         -2   -1    0    0    0  501 -0.00000000000E+00 -0.00000000000E+00 -0.92737419558E+02  0.92737419593E+02  0.25500000000E-02 0.  1.
        -24    2    1    2    0    0  0.00000000000E+00  0.00000000000E+00 -0.75782725576E+02  0.10969211433E+03  0.79305349438E+02 0.  0.
         66    2    3    3    0    0 -0.37355663625E+02  0.44792971651E+01 -0.55125613034E+02  0.66770823914E+02  0.20000014620E+01 0.  0.
         13    1    3    3    0    0  0.37355663625E+02 -0.44792971651E+01 -0.20657112541E+02  0.42921290411E+02  0.10566000000E+00 0. -1.
         13    1    4    4    0    0 -0.21934425160E+02  0.24252339172E+01 -0.31467446846E+02  0.38434517581E+02  0.10566000000E+00 0. -1.
        -13    1    4    4    0    0 -0.14332284032E+02  0.21795706497E+01 -0.22120550560E+02  0.26447964287E+02  0.10566000000E+00 0.  1.
         14    1    4    4    0    0 -0.10889544327E+01 -0.12550740180E+00 -0.15376156274E+01  0.18883420458E+01  0.00000000000E+00 0. -1.
<mgrwt>
<rscale>  0 0.79305349E+02</rscale>
<asrwt>0</asrwt>
<pdfrwt beam="1">  1        1 0.26084146E-02 0.79305349E+02</pdfrwt>
<pdfrwt beam="2">  1       -2 0.14267295E-01 0.79305349E+02</pdfrwt>
<totfact> 0.11052190E+05</totfact>
</mgrwt>
</event>
<event>
 8    1  0.8247621E-014  0.7534225E+02  0.7818608E-02  0.1342814E+00
         -2   -1    0    0    0  501 -0.00000000000E+00  0.00000000000E+00  0.19427323699E+02  0.19427323867E+02  0.25500000000E-02 0.  1.
          1   -1    0    0  501    0  0.00000000000E+00 -0.00000000000E+00 -0.73047310641E+02  0.73047310815E+02  0.50400000000E-02 0. -1.
        -24    2    1    2    0    0 -0.22204460493E-15  0.35527136788E-14 -0.53619986942E+02  0.92474634681E+02  0.75342252819E+02 0.  0.
         66    2    3    3    0    0 -0.14614498858E+01  0.17262351118E+02  0.14192290560E+02  0.22484344313E+02  0.20000064905E+01 0.  0.
         13    1    3    3    0    0  0.14614498858E+01 -0.17262351118E+02 -0.67812277501E+02  0.69990290368E+02  0.10566000000E+00 0. -1.
         13    1    4    4    0    0 -0.18832531614E+00  0.67307503190E+01  0.59668153963E+01  0.89973616295E+01  0.10566000000E+00 0. -1.
        -13    1    4    4    0    0 -0.56465550250E+00  0.83534442904E+01  0.60713483957E+01  0.10342693205E+02  0.10566000000E+00 0.  1.
        -14    1    4    4    0    0 -0.70846906714E+00  0.21781565084E+01  0.21541267677E+01  0.31442894787E+01  0.00000000000E+00 0.  1.
<mgrwt>
<rscale>  0 0.75342253E+02</rscale>
<asrwt>0</asrwt>
<pdfrwt beam="1">  1        1 0.11238048E-01 0.75342253E+02</pdfrwt>
<pdfrwt beam="2">  1       -2 0.29888191E-02 0.75342253E+02</pdfrwt>
<totfact> 0.16440964E+05</totfact>
</mgrwt>
</event>
<event>
 8    1  0.8247621E-014  0.8080665E+02  0.7818608E-02  0.1326778E+00
         -2   -1    0    0    0  501 -0.00000000000E+00  0.00000000000E+00  0.63012353090E+02  0.63012353142E+02  0.25500000000E-02 0.  1.
          1   -1    0    0  501    0  0.00000000000E+00 -0.00000000000E+00 -0.25906486737E+02  0.25906487228E+02  0.50400000000E-02 0. -1.
        -24    2    1    2    0    0  0.00000000000E+00  0.00000000000E+00  0.37105866353E+02  0.88918840369E+02  0.80806651056E+02 0.  0.
         66    2    3    3    0    0  0.18120577017E+01  0.10716025957E+02  0.61356668002E+02  0.62343865109E+02  0.20000107220E+01 0.  0.
         13    1    3    3    0    0 -0.18120577017E+01 -0.10716025957E+02 -0.24250801650E+02  0.26574975261E+02  0.10566000000E+00 0. -1.
         13    1    4    4    0    0  0.22258437778E+00  0.22761732587E+01  0.96336282080E+01  0.99019424859E+01  0.10566000000E+00 0. -1.
        -13    1    4    4    0    0  0.14856919605E+01  0.53519292927E+01  0.34335133468E+02  0.34781647202E+02  0.10566000000E+00 0.  1.
        -14    1    4    4    0    0  0.10378136340E+00  0.30879234052E+01  0.17387906326E+02  0.17660275421E+02  0.00000000000E+00 0.  1.
<mgrwt>
<rscale>  0 0.80806651E+02</rscale>
<asrwt>0</asrwt>
<pdfrwt beam="1">  1        1 0.39856134E-02 0.80806651E+02</pdfrwt>
<pdfrwt beam="2">  1       -2 0.96942081E-02 0.80806651E+02</pdfrwt>
<totfact> 0.11435724E+05</totfact>
</mgrwt>
</event>
<event>
 8    1  0.8247621E-014  0.8164846E+02  0.7818608E-02  0.1324437E+00
         -2   -1    0    0    0  501 -0.00000000000E+00  0.00000000000E+00  0.25956653129E+02  0.25956653255E+02  0.25500000000E-02 0.  1.
          1   -1    0    0  501    0  0.00000000000E+00 -0.00000000000E+00 -0.64207734830E+02  0.64207735028E+02  0.50400000000E-02 0. -1.
        -24    2    1    2    0    0  0.00000000000E+00 -0.17763568394E-14 -0.38251081701E+02  0.90164388282E+02  0.81648463936E+02 0.  0.
         66    2    3    3    0    0  0.27386950099E+02  0.14861798149E+02  0.99481621321E+01  0.32770169497E+02  0.19999997712E+01 0.  0.
         13    1    3    3    0    0 -0.27386950099E+02 -0.14861798149E+02 -0.48199243833E+02  0.57394218786E+02  0.10566000000E+00 0. -1.
         13    1    4    4    0    0  0.12484245687E+02  0.65436433640E+01  0.53128878843E+01  0.15063651634E+02  0.10566000000E+00 0. -1.
        -13    1    4    4    0    0  0.57171982042E+01  0.29832381140E+01  0.21358624583E+01  0.67940516209E+01  0.10566000000E+00 0.  1.
         14    1    4    4    0    0  0.91855062080E+01  0.53349166713E+01  0.24994117896E+01  0.10912466242E+02  0.00000000000E+00 0. -1.
<mgrwt>
<rscale>  0 0.81648464E+02</rscale>
<asrwt>0</asrwt>
<pdfrwt beam="1">  1        1 0.98781131E-02 0.81648464E+02</pdfrwt>
<pdfrwt beam="2">  1       -2 0.39933313E-02 0.81648464E+02</pdfrwt>
<totfact> 0.12936090E+05</totfact>
</mgrwt>
</event>
<event>
 8    1  0.8247621E-014  0.7895662E+02  0.7818608E-02  0.1332039E+00
          1   -1    0    0  501    0  0.00000000000E+00  0.00000000000E+00  0.69875212676E+01  0.69875230852E+01  0.50400000000E-02 0. -1.
         -2   -1    0    0    0  501 -0.00000000000E+00 -0.00000000000E+00 -0.22304571472E+03  0.22304571473E+03  0.25500000000E-02 0.  1.
        -24    2    1    2    0    0  0.00000000000E+00  0.00000000000E+00 -0.21605819345E+03  0.23003323782E+03  0.78956618113E+02 0.  0.
         66    2    3    3    0    0  0.17024930356E+01  0.38182378372E+02 -0.79591480103E+02  0.88315322519E+02  0.19999964972E+01 0.  0.
         13    1    3    3    0    0 -0.17024930356E+01 -0.38182378372E+02 -0.13646671335E+03  0.14171791530E+03  0.10566000000E+00 0. -1.
         13    1    4    4    0    0 -0.50681105651E-01  0.88533072874E+01 -0.17197610047E+02  0.19343023907E+02  0.10566000000E+00 0. -1.
        -13    1    4    4    0    0  0.15321933242E+01  0.28369278853E+02 -0.60185695327E+02  0.66554434000E+02  0.10566000000E+00 0.  1.
        -14    1    4    4    0    0  0.22098081704E+00  0.95979223142E+00 -0.22081747289E+01  0.24178646121E+01  0.00000000000E+00 0.  1.
<mgrwt>
<rscale>  0 0.78956618E+02</rscale>
<asrwt>0</asrwt>
<pdfrwt beam="1">  1        1 0.10750036E-02 0.78956618E+02</pdfrwt>
<pdfrwt beam="2">  1       -2 0.34314720E-01 0.78956618E+02</pdfrwt>
<totfact> 0.84047413E+04</totfact>
</mgrwt>
</event>
<event>
 8    1  0.8247621E-014  0.7945462E+02  0.7818608E-02  0.1330606E+00
         -2   -1    0    0    0  501 -0.00000000000E+00  0.00000000000E+00  0.10519315630E+03  0.10519315633E+03  0.25500000000E-02 0.  1.
          1   -1    0    0  501    0  0.00000000000E+00 -0.00000000000E+00 -0.15003437921E+02  0.15003438768E+02  0.50400000000E-02 0. -1.
        -24    2    1    2    0    0  0.00000000000E+00 -0.17763568394E-14  0.90189718378E+02  0.12019659510E+03  0.79454617059E+02 0.  0.
         66    2    3    3    0    0  0.86125800010E+01  0.11800861954E+02  0.10096932109E+03  0.10204038746E+03  0.19999985271E+01 0.  0.
         13    1    3    3    0    0 -0.86125800010E+01 -0.11800861954E+02 -0.10779602713E+02  0.18156207638E+02  0.10566000000E+00 0. -1.
         13    1    4    4    0    0  0.47534505940E+00  0.79493470940E+00  0.81623425799E+01  0.82154047098E+01  0.10566000000E+00 0.  1.
        -13    1    4    4    0    0  0.16041921828E+00  0.33948463301E+00  0.47998033311E+01  0.48156266668E+01  0.10566000000E+00 0.  1.
        -14    1    4    4    0    0  0.79768157233E+01  0.10666442611E+02  0.88007175180E+02  0.89009356082E+02  0.00000000000E+00 0.  1.
<mgrwt>
<rscale>  0 0.79454617E+02</rscale>
<asrwt>0</asrwt>
<pdfrwt beam="1">  1        1 0.23082213E-02 0.79454617E+02</pdfrwt>
<pdfrwt beam="2">  1       -2 0.16183562E-01 0.79454617E+02</pdfrwt>
<totfact> 0.10663232E+05</totfact>
</mgrwt>
</event>
<event>
 8    1  0.8247621E-014  0.8110346E+02  0.7818608E-02  0.1325949E+00
         -2   -1    0    0    0  501 -0.00000000000E+00  0.00000000000E+00  0.32310243864E+02  0.32310243965E+02  0.25500000000E-02 0.  1.
          1   -1    0    0  501    0  0.00000000000E+00 -0.00000000000E+00 -0.50895401032E+02  0.50895401282E+02  0.50400000000E-02 0. -1.
        -24    2    1    2    0    0  0.17763568394E-14 -0.35527136788E-14 -0.18585157168E+02  0.83205645247E+02  0.81103460678E+02 0.  0.
         66    2    3    3    0    0 -0.15666764491E+02 -0.18070537139E+02  0.24267493051E+02  0.34130675895E+02  0.19999989984E+01 0.  0.
         13    1    3    3    0    0  0.15666764491E+02  0.18070537139E+02 -0.42852650219E+02  0.49074969352E+02  0.10566000000E+00 0. -1.
         13    1    4    4    0    0 -0.84338623913E+00 -0.88746231651E+00  0.10525424389E+01  0.16179923773E+01  0.10566000000E+00 0. -1.
        -13    1    4    4    0    0 -0.14770221221E+02 -0.17084869956E+02  0.23231155662E+02  0.32399845273E+02  0.10566000000E+00 0.  1.
         14    1    4    4    0    0 -0.53157030688E-01 -0.98204866622E-01 -0.16205050142E-01  0.11283824436E+00  0.00000000000E+00 0. -1.
<mgrwt>
<rscale>  0 0.81103461E+02</rscale>
<asrwt>0</asrwt>
<pdfrwt beam="1">  1        1 0.78300617E-02 0.81103461E+02</pdfrwt>
<pdfrwt beam="2">  1       -2 0.49708068E-02 0.81103461E+02</pdfrwt>
<totfact> 0.12700448E+05</totfact>
</mgrwt>
</event>
<event>
 8    1  0.8247621E-014  0.7958826E+02  0.7818608E-02  0.1330224E+00
          1   -1    0    0  501    0  0.00000000000E+00  0.00000000000E+00  0.22100748188E+03  0.22100748194E+03  0.50400000000E-02 0. -1.
         -2   -1    0    0    0  501 -0.00000000000E+00 -0.00000000000E+00 -0.71652441594E+01  0.71652446131E+01  0.25500000000E-02 0.  1.
        -24    2    1    2    0    0  0.00000000000E+00  0.00000000000E+00  0.21384223772E+03  0.22817272655E+03  0.79588256094E+02 0.  0.
         66    2    3    3    0    0 -0.14629495069E+02  0.32403499416E+02  0.55899519949E+02  0.66277939230E+02  0.19999994362E+01 0.  0.
         13    1    3    3    0    0  0.14629495069E+02 -0.32403499416E+02  0.15794271777E+03  0.16189478732E+03  0.10566000000E+00 0. -1.
         13    1    4    4    0    0 -0.54260890313E+01  0.10311317680E+02  0.17538921415E+02  0.21056843137E+02  0.10566000000E+00 0. -1.
        -13    1    4    4    0    0 -0.20442492921E+01  0.53798207887E+01  0.87101413643E+01  0.10440265969E+02  0.10566000000E+00 0.  1.
         14    1    4    4    0    0 -0.71591567455E+01  0.16712360947E+02  0.29650457170E+02  0.34780830124E+02  0.00000000000E+00 0. -1.
<mgrwt>
<rscale>  0 0.79588256E+02</rscale>
<asrwt>0</asrwt>
<pdfrwt beam="1">  1        1 0.34001150E-01 0.79588256E+02</pdfrwt>
<pdfrwt beam="2">  1       -2 0.11023453E-02 0.79588256E+02</pdfrwt>
<totfact> 0.17235406E+05</totfact>
</mgrwt>
</event>
<event>
 8    1  0.8247621E-014  0.7675264E+02  0.7818608E-02  0.1338528E+00
         -2   -1    0    0    0  501 -0.00000000000E+00  0.00000000000E+00  0.12768620200E+03  0.12768620202E+03  0.25500000000E-02 0.  1.
          1   -1    0    0  501    0  0.00000000000E+00 -0.00000000000E+00 -0.11534071097E+02  0.11534072198E+02  0.50400000000E-02 0. -1.
        -24    2    1    2    0    0  0.00000000000E+00  0.00000000000E+00  0.11615213090E+03  0.13922027422E+03  0.76752636706E+02 0.  0.
         66    2    3    3    0    0  0.38010115604E+02  0.48791178508E+01  0.60782612044E+02  0.71882547339E+02  0.20000014555E+01 0.  0.
         13    1    3    3    0    0 -0.38010115604E+02 -0.48791178508E+01  0.55369518854E+02  0.67337726880E+02  0.10566000000E+00 0. -1.
         13    1    4    4    0    0  0.14952268446E+01  0.27136074778E+00  0.27506120798E+01  0.31442599799E+01  0.10566000000E+00 0.  1.
        -13    1    4    4    0    0  0.24846766465E+02  0.31011319724E+01  0.40877451352E+02  0.47937000494E+02  0.10566000000E+00 0.  1.
        -14    1    4    4    0    0  0.11668122294E+02  0.15066251306E+01  0.17154548612E+02  0.20801286865E+02  0.00000000000E+00 0.  1.
<mgrwt>
<rscale>  0 0.76752637E+02</rscale>
<asrwt>0</asrwt>
<pdfrwt beam="1">  1        1 0.17744727E-02 0.76752637E+02</pdfrwt>
<pdfrwt beam="2">  1       -2 0.19644030E-01 0.76752637E+02</pdfrwt>
<totfact> 0.11050674E+05</totfact>
</mgrwt>
</event>
<event>
 8    1  0.8247621E-014  0.8076434E+02  0.7818608E-02  0.1326896E+00
          1   -1    0    0  501    0  0.00000000000E+00  0.00000000000E+00  0.31560071499E+03  0.31560071503E+03  0.50400000000E-02 0. -1.
         -2   -1    0    0    0  501 -0.00000000000E+00 -0.00000000000E+00 -0.51670337422E+01  0.51670343714E+01  0.25500000000E-02 0.  1.
        -24    2    1    2    0    0  0.00000000000E+00  0.71054273576E-14  0.31043368124E+03  0.32076774940E+03  0.80764339922E+02 0.  0.
         66    2    3    3    0    0 -0.10143496195E+02  0.39020850904E+02  0.14820999091E+03  0.15360897999E+03  0.20000019325E+01 0.  0.
         13    1    3    3    0    0  0.10143496195E+02 -0.39020850904E+02  0.16222369034E+03  0.16715876941E+03  0.10566000000E+00 0. -1.
         13    1    4    4    0    0 -0.24349484472E+01  0.11718893619E+02  0.41564961444E+02  0.43254116862E+02  0.10566000000E+00 0. -1.
        -13    1    4    4    0    0 -0.29416618557E+01  0.96757709185E+01  0.37870268923E+02  0.39197478869E+02  0.10566000000E+00 0.  1.
         14    1    4    4    0    0 -0.47668858919E+01  0.17626186366E+02  0.68774760539E+02  0.71157384256E+02  0.00000000000E+00 0. -1.
<mgrwt>
<rscale>  0 0.80764340E+02</rscale>
<asrwt>0</asrwt>
<pdfrwt beam="1">  1        1 0.48553954E-01 0.80764340E+02</pdfrwt>
<pdfrwt beam="2">  1       -2 0.79492835E-03 0.80764340E+02</pdfrwt>
<totfact> 0.17764292E+05</totfact>
</mgrwt>
</event>
<event>
 8    1  0.8247621E-014  0.8017477E+02  0.7818608E-02  0.1328556E+00
          1   -1    0    0  501    0  0.00000000000E+00  0.00000000000E+00  0.27534938664E+02  0.27534939125E+02  0.50400000000E-02 0. -1.
         -2   -1    0    0    0  501 -0.00000000000E+00 -0.00000000000E+00 -0.58362153022E+02  0.58362153078E+02  0.25500000000E-02 0.  1.
        -24    2    1    2    0    0  0.22204460493E-15  0.71054273576E-14 -0.30827214358E+02  0.85897092203E+02  0.80174767251E+02 0.  0.
         66    2    3    3    0    0 -0.11291268784E+01 -0.39926144369E+02 -0.18746403224E+02  0.44167856727E+02  0.20000006021E+01 0.  0.
         13    1    3    3    0    0  0.11291268784E+01  0.39926144369E+02 -0.12080811134E+02  0.41729235475E+02  0.10566000000E+00 0. -1.
         13    1    4    4    0    0 -0.16600873937E+00 -0.14681828536E+02 -0.63201851466E+01  0.15985604537E+02  0.10566000000E+00 0. -1.
        -13    1    4    4    0    0 -0.83807042590E+00 -0.14430957894E+02 -0.77276267540E+01  0.16391530955E+02  0.10566000000E+00 0.  1.
        -14    1    4    4    0    0 -0.12504771310E+00 -0.10813357938E+02 -0.46985913234E+01  0.11790721235E+02  0.00000000000E+00 0.  1.
<mgrwt>
<rscale>  0 0.80174767E+02</rscale>
<asrwt>0</asrwt>
<pdfrwt beam="1">  1        1 0.42361445E-02 0.80174767E+02</pdfrwt>
<pdfrwt beam="2">  1       -2 0.89787927E-02 0.80174767E+02</pdfrwt>
<totfact> 0.11834399E+05</totfact>
</mgrwt>
</event>
<event>
 8    1  0.8247621E-014  0.7818741E+02  0.7818608E-02  0.1334275E+00
          1   -1    0    0  501    0  0.00000000000E+00  0.00000000000E+00  0.65330159658E+02  0.65330159852E+02  0.50400000000E-02 0. -1.
         -2   -1    0    0    0  501 -0.00000000000E+00 -0.00000000000E+00 -0.23393752606E+02  0.23393752745E+02  0.25500000000E-02 0.  1.
        -24    2    1    2    0    0 -0.35527136788E-14  0.00000000000E+00  0.41936407051E+02  0.88723912597E+02  0.78187405828E+02 0.  0.
         66    2    3    3    0    0  0.16927486234E+02  0.32533892678E+02  0.57018206148E+01  0.37168598795E+02  0.20000037573E+01 0.  0.
         13    1    3    3    0    0 -0.16927486234E+02 -0.32533892678E+02  0.36234586437E+02  0.51555313802E+02  0.10566000000E+00 0. -1.
         13    1    4    4    0    0  0.84255772490E+00  0.14558201239E+01  0.16040909304E+00  0.16929887376E+01  0.10566000000E+00 0. -1.
        -13    1    4    4    0    0  0.10126257804E+02  0.17752784643E+02  0.29307771548E+01  0.20647108235E+02  0.10566000000E+00 0.  1.
         14    1    4    4    0    0  0.59586707053E+01  0.13325287912E+02  0.26106343670E+01  0.14828501822E+02  0.00000000000E+00 0. -1.
<mgrwt>
<rscale>  0 0.78187406E+02</rscale>
<asrwt>0</asrwt>
<pdfrwt beam="1">  1        1 0.10050794E-01 0.78187406E+02</pdfrwt>
<pdfrwt beam="2">  1       -2 0.35990390E-02 0.78187406E+02</pdfrwt>
<totfact> 0.14610012E+05</totfact>
</mgrwt>
</event>
<event>
 8    1  0.8247621E-014  0.7907674E+02  0.7818608E-02  0.1331692E+00
         -2   -1    0    0    0  501 -0.00000000000E+00  0.00000000000E+00  0.35295677905E+02  0.35295677997E+02  0.25500000000E-02 0.  1.
          1   -1    0    0  501    0  0.00000000000E+00 -0.00000000000E+00 -0.44291054518E+02  0.44291054804E+02  0.50400000000E-02 0. -1.
        -24    2    1    2    0    0  0.35527136788E-14  0.00000000000E+00 -0.89953766127E+01  0.79586732802E+02  0.79076742710E+02 0.  0.
         66    2    3    3    0    0  0.20087549972E+02 -0.59741005379E+01  0.29212915423E+02  0.36008248599E+02  0.19999996430E+01 0.  0.
         13    1    3    3    0    0 -0.20087549972E+02  0.59741005379E+01 -0.38208292035E+02  0.43578484203E+02  0.10566000000E+00 0. -1.
         13    1    4    4    0    0  0.15811498139E+01 -0.26739149403E+00  0.28029109323E+01  0.32309451675E+01  0.10566000000E+00 0. -1.
        -13    1    4    4    0    0  0.64008493811E+01 -0.13468886617E+01  0.92326158676E+01  0.11315358662E+02  0.10566000000E+00 0.  1.
         14    1    4    4    0    0  0.12105550777E+02 -0.43598203822E+01  0.17177388623E+02  0.21461944769E+02  0.00000000000E+00 0. -1.
<mgrwt>
<rscale>  0 0.79076743E+02</rscale>
<asrwt>0</asrwt>
<pdfrwt beam="1">  1        1 0.68140084E-02 0.79076743E+02</pdfrwt>
<pdfrwt beam="2">  1       -2 0.54301044E-02 0.79076743E+02</pdfrwt>
<totfact> 0.13333179E+05</totfact>
</mgrwt>
</event>
<event>
 8    1  0.8247621E-014  0.8301297E+02  0.7818608E-02  0.1320712E+00
         -2   -1    0    0    0  501 -0.00000000000E+00  0.00000000000E+00  0.94917123770E+01  0.94917127195E+01  0.25500000000E-02 0.  1.
          1   -1    0    0  501    0  0.00000000000E+00 -0.00000000000E+00 -0.18150447175E+03  0.18150447182E+03  0.50400000000E-02 0. -1.
        -24    2    1    2    0    0 -0.71054273576E-14 -0.17763568394E-14 -0.17201275938E+03  0.19099618454E+03  0.83012969599E+02 0.  0.
         66    2    3    3    0    0  0.40015855043E+02  0.10480797657E+02 -0.93209934237E+02  0.10199611607E+03  0.20000195957E+01 0.  0.
         13    1    3    3    0    0 -0.40015855043E+02 -0.10480797657E+02 -0.78802825141E+02  0.89000068475E+02  0.10566000000E+00 0. -1.
         13    1    4    4    0    0  0.21759882414E+02  0.64611590101E+01 -0.52433535309E+02  0.57136029329E+02  0.10566000000E+00 0. -1.
        -13    1    4    4    0    0  0.10689040499E+02  0.25893998927E+01 -0.23757529905E+02  0.26179991784E+02  0.10566000000E+00 0.  1.
         14    1    4    4    0    0  0.75669321296E+01  0.14302387544E+01 -0.17018869022E+02  0.18680094956E+02  0.00000000000E+00 0. -1.
<mgrwt>
<rscale>  0 0.83012970E+02</rscale>
<asrwt>0</asrwt>
<pdfrwt beam="1">  1        1 0.27923762E-01 0.83012970E+02</pdfrwt>
<pdfrwt beam="2">  1       -2 0.14602636E-02 0.83012970E+02</pdfrwt>
<totfact> 0.14828459E+05</totfact>
</mgrwt>
</event>
<event>
 8    1  0.8247621E-014  0.7956228E+02  0.7818608E-02  0.1330298E+00
         -2   -1    0    0    0  501 -0.00000000000E+00  0.00000000000E+00  0.54584892378E+01  0.54584898334E+01  0.25500000000E-02 0.  1.
          1   -1    0    0  501    0  0.00000000000E+00 -0.00000000000E+00 -0.28992256157E+03  0.28992256161E+03  0.50400000000E-02 0. -1.
        -24    2    1    2    0    0  0.00000000000E+00  0.00000000000E+00 -0.28446407233E+03  0.29538105145E+03  0.79562284446E+02 0.  0.
         66    2    3    3    0    0  0.35152692611E+02 -0.97732371407E+01 -0.83702167128E+02  0.91330612322E+02  0.20000007910E+01 0.  0.
         13    1    3    3    0    0 -0.35152692611E+02  0.97732371407E+01 -0.20076190520E+03  0.20405043912E+03  0.10566000000E+00 0. -1.
         13    1    4    4    0    0  0.26327985252E+01 -0.55063719921E+00 -0.71439310458E+01  0.76342481112E+01  0.10566000000E+00 0. -1.
        -13    1    4    4    0    0  0.31206927932E+02 -0.86105611661E+01 -0.73300219344E+02  0.80130814512E+02  0.10566000000E+00 0.  1.
        -14    1    4    4    0    0  0.13129661537E+01 -0.61203877539E+00 -0.32580167384E+01  0.35655496983E+01  0.00000000000E+00 0.  1.
<mgrwt>
<rscale>  0 0.79562284E+02</rscale>
<asrwt>0</asrwt>
<pdfrwt beam="1">  1        1 0.44603459E-01 0.79562284E+02</pdfrwt>
<pdfrwt beam="2">  1       -2 0.83976785E-03 0.79562284E+02</pdfrwt>
<totfact> 0.18185289E+05</totfact>
</mgrwt>
</event>
<event>
 8    1  0.8247621E-014  0.7627186E+02  0.7818608E-02  0.1339977E+00
         -2   -1    0    0    0  501 -0.00000000000E+00  0.00000000000E+00  0.59874288371E+03  0.59874288371E+03  0.25500000000E-02 0.  1.
          1   -1    0    0  501    0  0.00000000000E+00 -0.00000000000E+00 -0.24290019431E+01  0.24290071719E+01  0.50400000000E-02 0. -1.
        -24    2    1    2    0    0  0.71054273576E-14  0.00000000000E+00  0.59631388176E+03  0.60117189088E+03  0.76271861161E+02 0.  0.
         66    2    3    3    0    0  0.35187450649E+02 -0.98430604976E+01  0.38372771358E+03  0.38546854694E+03  0.19999961959E+01 0.  0.
         13    1    3    3    0    0 -0.35187450649E+02  0.98430604976E+01  0.21258616818E+03  0.21570334395E+03  0.10566000000E+00 0. -1.
         13    1    4    4    0    0  0.14129438452E+02 -0.41883758809E+01  0.16240742256E+03  0.16307472395E+03  0.10566000000E+00 0.  1.
        -13    1    4    4    0    0  0.17090018159E+02 -0.43103976639E+01  0.17607522582E+03  0.17695520496E+03  0.10566000000E+00 0. -1.
         14    1    4    4    0    0  0.39679940377E+01 -0.13442869529E+01  0.45245065199E+02  0.45438618035E+02  0.00000000000E+00 0. -1.
<mgrwt>
<rscale>  0 0.76271861E+02</rscale>
<asrwt>0</asrwt>
<pdfrwt beam="1">  1        1 0.37369242E-03 0.76271861E+02</pdfrwt>
<pdfrwt beam="2">  1       -2 0.92114435E-01 0.76271861E+02</pdfrwt>
<totfact> 0.49243497E+04</totfact>
</mgrwt>
</event>
<event>
 8    1  0.8247621E-014  0.7970010E+02  0.7818608E-02  0.1329905E+00
         -2   -1    0    0    0  501 -0.00000000000E+00  0.00000000000E+00  0.39750483212E+01  0.39750491391E+01  0.25500000000E-02 0.  1.
          1   -1    0    0  501    0  0.00000000000E+00 -0.00000000000E+00 -0.39949857618E+03  0.39949857621E+03  0.50400000000E-02 0. -1.
        -24    2    1    2    0    0  0.35527136788E-14  0.35527136788E-14 -0.39552352786E+03  0.40347362535E+03  0.79700095759E+02 0.  0.
         66    2    3    3    0    0  0.28259328236E+02  0.28060601353E+02 -0.19694729351E+03  0.20094333380E+03  0.19999999786E+01 0.  0.
         13    1    3    3    0    0 -0.28259328236E+02 -0.28060601353E+02 -0.19857623435E+03  0.20253029155E+03  0.10566000000E+00 0. -1.
         13    1    4    4    0    0  0.11062888805E+02  0.10978869295E+02 -0.77242103460E+02  0.78798964401E+02  0.10566000000E+00 0.  1.
        -13    1    4    4    0    0  0.50952924948E+01  0.47612484180E+01 -0.31188879985E+02  0.31959175378E+02  0.10566000000E+00 0. -1.
         14    1    4    4    0    0  0.12101146936E+02  0.12320483641E+02 -0.88516310062E+02  0.90185194025E+02  0.00000000000E+00 0. -1.
<mgrwt>
<rscale>  0 0.79700096E+02</rscale>
<asrwt>0</asrwt>
<pdfrwt beam="1">  1        1 0.61461288E-01 0.79700096E+02</pdfrwt>
<pdfrwt beam="2">  1       -2 0.61154628E-03 0.79700096E+02</pdfrwt>
<totfact> 0.19177803E+05</totfact>
</mgrwt>
</event>
<event>
 8    1  0.8247621E-014  0.7950394E+02  0.7818608E-02  0.1330465E+00
          1   -1    0    0  501    0  0.00000000000E+00  0.00000000000E+00  0.33028859533E+02  0.33028859918E+02  0.50400000000E-02 0. -1.
         -2   -1    0    0    0  501 -0.00000000000E+00 -0.00000000000E+00 -0.47843583500E+02  0.47843583568E+02  0.25500000000E-02 0.  1.
        -24    2    1    2    0    0  0.00000000000E+00  0.00000000000E+00 -0.14814723967E+02  0.80872443486E+02  0.79503937444E+02 0.  0.
         66    2    3    3    0    0 -0.27835281151E+02 -0.23678388005E+02 -0.23260500907E+02  0.43364960933E+02  0.19999997384E+01 0.  0.
         13    1    3    3    0    0  0.27835281151E+02  0.23678388005E+02  0.84457769404E+01  0.37507482553E+02  0.10566000000E+00 0. -1.
         13    1    4    4    0    0 -0.21660542384E+01 -0.14038381472E+01 -0.15432389831E+01  0.30092030676E+01  0.10566000000E+00 0. -1.
        -13    1    4    4    0    0 -0.72372133064E+01 -0.66923880919E+01 -0.69341956955E+01  0.12052366937E+02  0.10566000000E+00 0.  1.
         14    1    4    4    0    0 -0.18432013606E+02 -0.15582161766E+02 -0.14783066229E+02  0.28303390928E+02  0.00000000000E+00 0. -1.
<mgrwt>
<rscale>  0 0.79503937E+02</rscale>
<asrwt>0</asrwt>
<pdfrwt beam="1">  1        1 0.50813631E-02 0.79503937E+02</pdfrwt>
<pdfrwt beam="2">  1       -2 0.73605513E-02 0.79503937E+02</pdfrwt>
<totfact> 0.12519102E+05</totfact>
</mgrwt>
</event>
<event>
 8    1  0.8247621E-014  0.8025000E+02  0.7818608E-02  0.1328343E+00
          1   -1    0    0  501    0  0.00000000000E+00  0.00000000000E+00  0.26299881345E+03  0.26299881350E+03  0.50400000000E-02 0. -1.
         -2   -1    0    0    0  501 -0.00000000000E+00 -0.00000000000E+00 -0.61217598846E+01  0.61217604157E+01  0.25500000000E-02 0.  1.
        -24    2    1    2    0    0 -0.35527136788E-14  0.00000000000E+00  0.25687705357E+03  0.26912057392E+03  0.80250000968E+02 0.  0.
         66    2    3    3    0    0  0.29165008877E+02 -0.19049203741E+02  0.19512936372E+03  0.19822446492E+03  0.19999997820E+01 0.  0.
         13    1    3    3    0    0 -0.29165008877E+02  0.19049203741E+02  0.61747689849E+02  0.70896109002E+02  0.10566000000E+00 0. -1.
         13    1    4    4    0    0  0.66968640872E+01 -0.48474986218E+01  0.43593091352E+02  0.44370204069E+02  0.10566000000E+00 0. -1.
        -13    1    4    4    0    0  0.14601269117E+02 -0.98625774658E+01  0.10116716091E+03  0.10269018018E+03  0.10566000000E+00 0.  1.
         14    1    4    4    0    0  0.78668756728E+01 -0.43391276538E+01  0.50369111454E+02  0.51164080666E+02  0.00000000000E+00 0. -1.
<mgrwt>
<rscale>  0 0.80250001E+02</rscale>
<asrwt>0</asrwt>
<pdfrwt beam="1">  1        1 0.40461362E-01 0.80250001E+02</pdfrwt>
<pdfrwt beam="2">  1       -2 0.94180912E-03 0.80250001E+02</pdfrwt>
<totfact> 0.17443987E+05</totfact>
</mgrwt>
</event>
<event>
 8    1  0.8247621E-014  0.7931689E+02  0.7818608E-02  0.1331001E+00
         -2   -1    0    0    0  501 -0.00000000000E+00  0.00000000000E+00  0.38771752707E+01  0.38771761092E+01  0.25500000000E-02 0.  1.
          1   -1    0    0  501    0  0.00000000000E+00 -0.00000000000E+00 -0.40565409903E+03  0.40565409906E+03  0.50400000000E-02 0. -1.
        -24    2    1    2    0    0 -0.71054273576E-14  0.00000000000E+00 -0.40177692376E+03  0.40953127517E+03  0.79316888979E+02 0.  0.
         66    2    3    3    0    0  0.33642510721E+02  0.16783413382E+02 -0.26576976288E+03  0.26842330067E+03  0.19999976002E+01 0.  0.
         13    1    3    3    0    0 -0.33642510721E+02 -0.16783413382E+02 -0.13600716088E+03  0.14110797450E+03  0.10566000000E+00 0. -1.
         13    1    4    4    0    0  0.18197690038E+01  0.10168388238E+01 -0.14928553345E+02  0.15073764939E+02  0.10566000000E+00 0.  1.
        -13    1    4    4    0    0  0.50988328554E+00  0.41567070905E-01 -0.38186568006E+01  0.38542201005E+01  0.10566000000E+00 0.  1.
        -14    1    4    4    0    0  0.31312858432E+02  0.15725007487E+02 -0.24702255273E+03  0.24949531563E+03  0.00000000000E+00 0.  1.
<mgrwt>
<rscale>  0 0.79316889E+02</rscale>
<asrwt>0</asrwt>
<pdfrwt beam="1">  1        1 0.62408290E-01 0.79316889E+02</pdfrwt>
<pdfrwt beam="2">  1       -2 0.59648889E-03 0.79316889E+02</pdfrwt>
<totfact> 0.19470195E+05</totfact>
</mgrwt>
</event>
<event>
 8    1  0.8247621E-014  0.7797867E+02  0.7818608E-02  0.1334888E+00
         -2   -1    0    0    0  501 -0.00000000000E+00  0.00000000000E+00  0.84960142861E+02  0.84960142899E+02  0.25500000000E-02 0.  1.
          1   -1    0    0  501    0  0.00000000000E+00 -0.00000000000E+00 -0.17892720975E+02  0.17892721685E+02  0.50400000000E-02 0. -1.
        -24    2    1    2    0    0  0.00000000000E+00  0.00000000000E+00  0.67067421886E+02  0.10285286458E+03  0.77978668075E+02 0.  0.
         66    2    3    3    0    0  0.25073879163E+02 -0.29811706928E+02  0.34679522550E+02  0.52192974398E+02  0.20000014905E+01 0.  0.
         13    1    3    3    0    0 -0.25073879163E+02  0.29811706928E+02  0.32387899336E+02  0.50659890186E+02  0.10566000000E+00 0. -1.
         13    1    4    4    0    0  0.20350454415E+02 -0.24062490049E+02  0.28504437597E+02  0.42493041183E+02  0.10566000000E+00 0. -1.
        -13    1    4    4    0    0  0.37074543242E+01 -0.44429350416E+01  0.51916295796E+01  0.77749000687E+01  0.10566000000E+00 0.  1.
         14    1    4    4    0    0  0.10159704236E+01 -0.13062818379E+01  0.98345537285E+00  0.19250331457E+01  0.00000000000E+00 0. -1.
<mgrwt>
<rscale>  0 0.77978668E+02</rscale>
<asrwt>0</asrwt>
<pdfrwt beam="1">  1        1 0.27527263E-02 0.77978668E+02</pdfrwt>
<pdfrwt beam="2">  1       -2 0.13070792E-01 0.77978668E+02</pdfrwt>
<totfact> 0.11772938E+05</totfact>
</mgrwt>
</event>
<event>
 8    1  0.8247621E-014  0.8048376E+02  0.7818608E-02  0.1327684E+00
         -2   -1    0    0    0  501 -0.00000000000E+00  0.00000000000E+00  0.87865178609E+01  0.87865182309E+01  0.25500000000E-02 0.  1.
          1   -1    0    0  501    0  0.00000000000E+00 -0.00000000000E+00 -0.18430611869E+03  0.18430611876E+03  0.50400000000E-02 0. -1.
        -24    2    1    2    0    0  0.00000000000E+00  0.00000000000E+00 -0.17551960083E+03  0.19309263699E+03  0.80483763485E+02 0.  0.
         66    2    3    3    0    0  0.29624334779E+02 -0.23940211849E+02 -0.56840719964E+02  0.68451460480E+02  0.20000103363E+01 0.  0.
         13    1    3    3    0    0 -0.29624334779E+02  0.23940211849E+02 -0.11867888087E+03  0.12464117651E+03  0.10566000000E+00 0. -1.
         13    1    4    4    0    0  0.33576012763E+00 -0.16435349163E+00 -0.49791670797E+00  0.63153148551E+00  0.10566000000E+00 0.  1.
        -13    1    4    4    0    0  0.16110883401E+02 -0.12457256142E+02 -0.31283501963E+02  0.37328440278E+02  0.10566000000E+00 0.  1.
        -14    1    4    4    0    0  0.13177691251E+02 -0.11318602215E+02 -0.25059301293E+02  0.30491488716E+02  0.00000000000E+00 0.  1.
<mgrwt>
<rscale>  0 0.80483763E+02</rscale>
<asrwt>0</asrwt>
<pdfrwt beam="1">  1        1 0.28354785E-01 0.80483763E+02</pdfrwt>
<pdfrwt beam="2">  1       -2 0.13517721E-02 0.80483763E+02</pdfrwt>
<totfact> 0.16151568E+05</totfact>
</mgrwt>
</event>
<event>
 8    1  0.8247621E-014  0.8071517E+02  0.7818608E-02  0.1327034E+00
         -2   -1    0    0    0  501 -0.00000000000E+00  0.00000000000E+00  0.52650867290E+03  0.52650867291E+03  0.25500000000E-02 0.  1.
          1   -1    0    0  501    0  0.00000000000E+00 -0.00000000000E+00 -0.30934601181E+01  0.30934642238E+01  0.50400000000E-02 0. -1.
        -24    2    1    2    0    0  0.00000000000E+00  0.00000000000E+00  0.52341521278E+03  0.52960213713E+03  0.80715170081E+02 0.  0.
         66    2    3    3    0    0  0.26377074376E+02 -0.17321492502E+02  0.42668047428E+03  0.42785045433E+03  0.19999963417E+01 0.  0.
         13    1    3    3    0    0 -0.26377074376E+02  0.17321492502E+02  0.96734738504E+02  0.10175168280E+03  0.10566000000E+00 0. -1.
         13    1    4    4    0    0  0.20486741465E+02 -0.13375204776E+02  0.32750369934E+03  0.32841633170E+03  0.10566000000E+00 0. -1.
        -13    1    4    4    0    0  0.56841502381E+01 -0.38819840682E+01  0.97621257127E+02  0.97863682596E+02  0.10566000000E+00 0.  1.
         14    1    4    4    0    0  0.20618267250E+00 -0.64303657737E-01  0.15555178091E+01  0.15704400369E+01  0.00000000000E+00 0. -1.
<mgrwt>
<rscale>  0 0.80715170E+02</rscale>
<asrwt>0</asrwt>
<pdfrwt beam="1">  1        1 0.47591712E-03 0.80715170E+02</pdfrwt>
<pdfrwt beam="2">  1       -2 0.81001357E-01 0.80715170E+02</pdfrwt>
<totfact> 0.47298619E+04</totfact>
</mgrwt>
</event>
<event>
 8    1  0.8247621E-014  0.8095506E+02  0.7818608E-02  0.1326363E+00
          1   -1    0    0  501    0  0.00000000000E+00  0.00000000000E+00  0.16216562735E+02  0.16216563518E+02  0.50400000000E-02 0. -1.
         -2   -1    0    0    0  501 -0.00000000000E+00 -0.00000000000E+00 -0.10103439357E+03  0.10103439360E+03  0.25500000000E-02 0.  1.
        -24    2    1    2    0    0  0.88817841970E-15 -0.71054273576E-14 -0.84817830835E+02  0.11725095712E+03  0.80955064809E+02 0.  0.
         66    2    3    3    0    0 -0.65655127000E+01  0.39770590505E+02 -0.47371830112E+02  0.62232596909E+02  0.20000009479E+01 0.  0.
         13    1    3    3    0    0  0.65655127000E+01 -0.39770590505E+02 -0.37446000723E+02  0.55018360212E+02  0.10566000000E+00 0. -1.
         13    1    4    4    0    0 -0.24594969679E+01  0.12080932464E+02 -0.14535766198E+02  0.19060370341E+02  0.10566000000E+00 0. -1.
        -13    1    4    4    0    0 -0.27529860712E+01  0.15382869600E+02 -0.19140120283E+02  0.24709653537E+02  0.10566000000E+00 0.  1.
         14    1    4    4    0    0 -0.13530296608E+01  0.12306788441E+02 -0.13695943631E+02  0.18462573031E+02  0.00000000000E+00 0. -1.
<mgrwt>
<rscale>  0 0.80955065E+02</rscale>
<asrwt>0</asrwt>
<pdfrwt beam="1">  1        1 0.24948559E-02 0.80955065E+02</pdfrwt>
<pdfrwt beam="2">  1       -2 0.15543753E-01 0.80955065E+02</pdfrwt>
<totfact> 0.10268773E+05</totfact>
</mgrwt>
</event>
<event>
 8    1  0.8247621E-014  0.8442626E+02  0.7818608E-02  0.1316940E+00
          1   -1    0    0  501    0  0.00000000000E+00  0.00000000000E+00  0.64141013294E+02  0.64141013492E+02  0.50400000000E-02 0. -1.
         -2   -1    0    0    0  501 -0.00000000000E+00 -0.00000000000E+00 -0.27781728774E+02  0.27781728891E+02  0.25500000000E-02 0.  1.
        -24    2    1    2    0    0 -0.35527136788E-14 -0.71054273576E-14  0.36359284520E+02  0.91922742384E+02  0.84426257743E+02 0.  0.
         66    2    3    3    0    0 -0.21030530293E+02 -0.36571713836E+02  0.18638431866E+02  0.46164538309E+02  0.19999993981E+01 0.  0.
         13    1    3    3    0    0  0.21030530293E+02  0.36571713836E+02  0.17720852654E+02  0.45758204074E+02  0.10566000000E+00 0. -1.
         13    1    4    4    0    0 -0.10699921746E+02 -0.18805758753E+02  0.91292480168E+01  0.23484020547E+02  0.10566000000E+00 0. -1.
        -13    1    4    4    0    0 -0.92424178862E+01 -0.15461581720E+02  0.79255300722E+01  0.19680141987E+02  0.10566000000E+00 0.  1.
         14    1    4    4    0    0 -0.10881906601E+01 -0.23043733623E+01  0.15836537767E+01  0.30003757748E+01  0.00000000000E+00 0. -1.
<mgrwt>
<rscale>  0 0.84426258E+02</rscale>
<asrwt>0</asrwt>
<pdfrwt beam="1">  1        1 0.98678482E-02 0.84426258E+02</pdfrwt>
<pdfrwt beam="2">  1       -2 0.42741121E-02 0.84426258E+02</pdfrwt>
<totfact> 0.11791449E+05</totfact>
</mgrwt>
</event>
<event>
 8    1  0.8247621E-014  0.8001037E+02  0.7818608E-02  0.1329022E+00
          1   -1    0    0  501    0  0.00000000000E+00  0.00000000000E+00  0.26388504338E+03  0.26388504342E+03  0.50400000000E-02 0. -1.
         -2   -1    0    0    0  501 -0.00000000000E+00 -0.00000000000E+00 -0.60648175234E+01  0.60648180595E+01  0.25500000000E-02 0.  1.
        -24    2    1    2    0    0 -0.35527136788E-14  0.00000000000E+00  0.25782022585E+03  0.26994986148E+03  0.80010367181E+02 0.  0.
         66    2    3    3    0    0  0.23391273460E+02 -0.32001079541E+02  0.11139770090E+03  0.11825679064E+03  0.19999999310E+01 0.  0.
         13    1    3    3    0    0 -0.23391273460E+02  0.32001079541E+02  0.14642252495E+03  0.15169307085E+03  0.10566000000E+00 0. -1.
         13    1    4    4    0    0  0.13166761287E+02 -0.18198464387E+02  0.63666468219E+02  0.67512799145E+02  0.10566000000E+00 0. -1.
        -13    1    4    4    0    0  0.57385588286E+01 -0.67054479695E+01  0.24850521648E+02  0.26371455783E+02  0.10566000000E+00 0.  1.
         14    1    4    4    0    0  0.44859533444E+01 -0.70971671836E+01  0.22880711034E+02  0.24372535709E+02  0.00000000000E+00 0. -1.
<mgrwt>
<rscale>  0 0.80010367E+02</rscale>
<asrwt>0</asrwt>
<pdfrwt beam="1">  1        1 0.40597701E-01 0.80010367E+02</pdfrwt>
<pdfrwt beam="2">  1       -2 0.93304885E-03 0.80010367E+02</pdfrwt>
<totfact> 0.17593931E+05</totfact>
</mgrwt>
</event>
<event>
 8    1  0.8247621E-014  0.7872151E+02  0.7818608E-02  0.1332719E+00
         -2   -1    0    0    0  501 -0.00000000000E+00  0.00000000000E+00  0.16065000503E+03  0.16065000505E+03  0.25500000000E-02 0.  1.
          1   -1    0    0  501    0  0.00000000000E+00 -0.00000000000E+00 -0.96437538955E+01  0.96437552125E+01  0.50400000000E-02 0. -1.
        -24    2    1    2    0    0  0.00000000000E+00  0.00000000000E+00  0.15100625114E+03  0.17029376026E+03  0.78721514866E+02 0.  0.
         66    2    3    3    0    0  0.34585396656E+02  0.18569699395E+02  0.70130268714E+02  0.80394265860E+02  0.19999989467E+01 0.  0.
         13    1    3    3    0    0 -0.34585396656E+02 -0.18569699395E+02  0.80875982421E+02  0.89899494404E+02  0.10566000000E+00 0. -1.
         13    1    4    4    0    0  0.10841813508E+01  0.67750630366E+00  0.26211773436E+01  0.29182526785E+01  0.10566000000E+00 0. -1.
        -13    1    4    4    0    0  0.37984286484E+01  0.15086051730E+01  0.76075929285E+01  0.86365840450E+01  0.10566000000E+00 0.  1.
        -14    1    4    4    0    0  0.29702786656E+02  0.16383587918E+02  0.59901498442E+02  0.68839429137E+02  0.00000000000E+00 0.  1.
<mgrwt>
<rscale>  0 0.78721515E+02</rscale>
<asrwt>0</asrwt>
<pdfrwt beam="1">  1        1 0.14836545E-02 0.78721515E+02</pdfrwt>
<pdfrwt beam="2">  1       -2 0.24715386E-01 0.78721515E+02</pdfrwt>
<totfact> 0.96262579E+04</totfact>
</mgrwt>
</event>
<event>
 8    1  0.8247621E-014  0.8101296E+02  0.7818608E-02  0.1326201E+00
          1   -1    0    0  501    0  0.00000000000E+00  0.00000000000E+00  0.86729146315E+02  0.86729146461E+02  0.50400000000E-02 0. -1.
         -2   -1    0    0    0  501 -0.00000000000E+00 -0.00000000000E+00 -0.18918378920E+02  0.18918379092E+02  0.25500000000E-02 0.  1.
        -24    2    1    2    0    0 -0.35527136788E-14  0.00000000000E+00  0.67810767395E+02  0.10564752555E+03  0.81012958721E+02 0.  0.
         66    2    3    3    0    0  0.21713504520E+02 -0.14033537917E+02 -0.66968053939E+01  0.26781778667E+02  0.20000002665E+01 0.  0.
         13    1    3    3    0    0 -0.21713504520E+02  0.14033537917E+02  0.74507572789E+02  0.78865746886E+02  0.10566000000E+00 0. -1.
         13    1    4    4    0    0  0.35175371074E+01 -0.15977084869E+01 -0.66103318986E+00  0.39209525150E+01  0.10566000000E+00 0. -1.
        -13    1    4    4    0    0  0.12356026255E+02 -0.84159910428E+01 -0.44089243802E+01  0.15586855625E+02  0.10566000000E+00 0.  1.
        -14    1    4    4    0    0  0.58399411576E+01 -0.40198383869E+01 -0.16268478238E+01  0.72739705267E+01  0.00000000000E+00 0.  1.
<mgrwt>
<rscale>  0 0.81012959E+02</rscale>
<asrwt>0</asrwt>
<pdfrwt beam="1">  1        1 0.13342946E-01 0.81012959E+02</pdfrwt>
<pdfrwt beam="2">  1       -2 0.29105199E-02 0.81012959E+02</pdfrwt>
<totfact> 0.13873650E+05</totfact>
</mgrwt>
</event>
<event>
 8    1  0.8247621E-014  0.7957581E+02  0.7818608E-02  0.1330260E+00
          1   -1    0    0  501    0  0.00000000000E+00  0.00000000000E+00  0.10093887927E+03  0.10093887939E+03  0.50400000000E-02 0. -1.
         -2   -1    0    0    0  501 -0.00000000000E+00 -0.00000000000E+00 -0.15683525816E+02  0.15683526023E+02  0.25500000000E-02 0.  1.
        -24    2    1    2    0    0  0.00000000000E+00  0.71054273576E-14  0.85255353449E+02  0.11662240541E+03  0.79575813869E+02 0.  0.
         66    2    3    3    0    0 -0.56623622924E+00  0.33198369590E+02  0.74716958058E+02  0.81786772675E+02  0.19999990492E+01 0.  0.
         13    1    3    3    0    0  0.56623622924E+00 -0.33198369590E+02  0.10538395391E+02  0.34835632739E+02  0.10566000000E+00 0. -1.
         13    1    4    4    0    0  0.31152857444E+00  0.43974719863E+01  0.10929258351E+02  0.11785357952E+02  0.10566000000E+00 0. -1.
        -13    1    4    4    0    0 -0.56377504421E+00  0.76751301390E+01  0.17775217527E+02  0.19369950622E+02  0.10566000000E+00 0.  1.
         14    1    4    4    0    0 -0.31398975947E+00  0.21125767465E+02  0.46012482181E+02  0.50631464101E+02  0.00000000000E+00 0. -1.
<mgrwt>
<rscale>  0 0.79575814E+02</rscale>
<asrwt>0</asrwt>
<pdfrwt beam="1">  1        1 0.15529058E-01 0.79575814E+02</pdfrwt>
<pdfrwt beam="2">  1       -2 0.24128502E-02 0.79575814E+02</pdfrwt>
<totfact> 0.14935187E+05</totfact>
</mgrwt>
</event>
<event>
 8    1  0.8247621E-014  0.7876231E+02  0.7818608E-02  0.1332601E+00
          1   -1    0    0  501    0  0.00000000000E+00  0.00000000000E+00  0.61931308013E+01  0.61931328521E+01  0.50400000000E-02 0. -1.
         -2   -1    0    0    0  501 -0.00000000000E+00 -0.00000000000E+00 -0.25041858485E+03  0.25041858486E+03  0.25500000000E-02 0.  1.
        -24    2    1    2    0    0  0.00000000000E+00  0.00000000000E+00 -0.24422545405E+03  0.25661171771E+03  0.78762308647E+02 0.  0.
         66    2    3    3    0    0  0.12171540258E+01  0.33420308340E+02 -0.18978871654E+03  0.19272300175E+03  0.20000006887E+01 0.  0.
         13    1    3    3    0    0 -0.12171540258E+01 -0.33420308340E+02 -0.54436737508E+02  0.63888715968E+02  0.10566000000E+00 0. -1.
         13    1    4    4    0    0  0.64723824029E+00  0.67720330453E+01 -0.37454906096E+02  0.38067840805E+02  0.10566000000E+00 0. -1.
        -13    1    4    4    0    0  0.96542890513E+00  0.18174298125E+02 -0.10600993785E+03  0.10756093739E+03  0.10566000000E+00 0.  1.
         14    1    4    4    0    0 -0.39551311963E+00  0.84739771697E+01 -0.46323872589E+02  0.47094223546E+02  0.00000000000E+00 0. -1.
<mgrwt>
<rscale>  0 0.78762309E+02</rscale>
<asrwt>0</asrwt>
<pdfrwt beam="1">  1        1 0.95278971E-03 0.78762309E+02</pdfrwt>
<pdfrwt beam="2">  1       -2 0.38525928E-01 0.78762309E+02</pdfrwt>
<totfact> 0.80217931E+04</totfact>
</mgrwt>
</event>
<event>
 8    1  0.8247621E-014  0.8033361E+02  0.7818608E-02  0.1328107E+00
          1   -1    0    0  501    0  0.00000000000E+00  0.00000000000E+00  0.13685841153E+03  0.13685841162E+03  0.50400000000E-02 0. -1.
         -2   -1    0    0    0  501 -0.00000000000E+00 -0.00000000000E+00 -0.11788624139E+02  0.11788624415E+02  0.25500000000E-02 0.  1.
        -24    2    1    2    0    0  0.00000000000E+00  0.17763568394E-14  0.12506978739E+03  0.14864703604E+03  0.80333614412E+02 0.  0.
         66    2    3    3    0    0 -0.18452130487E+02 -0.12107136858E+02  0.52941027020E+00  0.22166284222E+02  0.19999996367E+01 0.  0.
         13    1    3    3    0    0  0.18452130487E+02  0.12107136858E+02  0.12454037712E+03  0.12648075181E+03  0.10566000000E+00 0. -1.
         13    1    4    4    0    0 -0.25129955886E+01 -0.17722015557E+01 -0.39935573536E+00  0.31026592178E+01  0.10566000000E+00 0. -1.
        -13    1    4    4    0    0 -0.10113880106E+02 -0.67772929695E+01  0.11883611352E+01  0.12232973351E+02  0.10566000000E+00 0.  1.
        -14    1    4    4    0    0 -0.58252547929E+01 -0.35576423324E+01 -0.25959512962E+00  0.68306516526E+01  0.00000000000E+00 0.  1.
<mgrwt>
<rscale>  0 0.80333614E+02</rscale>
<asrwt>0</asrwt>
<pdfrwt beam="1">  1        1 0.21055140E-01 0.80333614E+02</pdfrwt>
<pdfrwt beam="2">  1       -2 0.18136346E-02 0.80333614E+02</pdfrwt>
<totfact> 0.15353943E+05</totfact>
</mgrwt>
</event>
<event>
 8    1  0.8247621E-014  0.7743513E+02  0.7818608E-02  0.1336492E+00
          1   -1    0    0  501    0  0.00000000000E+00  0.00000000000E+00  0.10923756995E+03  0.10923757007E+03  0.50400000000E-02 0. -1.
         -2   -1    0    0    0  501 -0.00000000000E+00 -0.00000000000E+00 -0.13722840043E+02  0.13722840280E+02  0.25500000000E-02 0.  1.
        -24    2    1    2    0    0  0.00000000000E+00  0.00000000000E+00  0.95514729910E+02  0.12296041035E+03  0.77435126936E+02 0.  0.
         66    2    3    3    0    0  0.17213355206E+02 -0.91525061186E+01 -0.52809004066E+01  0.20296696114E+02  0.19999995919E+01 0.  0.
         13    1    3    3    0    0 -0.17213355206E+02  0.91525061186E+01  0.10079563032E+03  0.10266371424E+03  0.10566000000E+00 0. -1.
         13    1    4    4    0    0  0.45349924335E+01 -0.29647894659E+01 -0.10878512950E+01  0.55272703412E+01  0.10566000000E+00 0. -1.
        -13    1    4    4    0    0  0.76825185469E+01 -0.39907395723E+01 -0.19875487563E+01  0.88830517083E+01  0.10566000000E+00 0.  1.
        -14    1    4    4    0    0  0.49958442252E+01 -0.21969770803E+01 -0.22055003553E+01  0.58863740648E+01  0.00000000000E+00 0.  1.
<mgrwt>
<rscale>  0 0.77435127E+02</rscale>
<asrwt>0</asrwt>
<pdfrwt beam="1">  1        1 0.16805780E-01 0.77435127E+02</pdfrwt>
<pdfrwt beam="2">  1       -2 0.21112062E-02 0.77435127E+02</pdfrwt>
<totfact> 0.16288159E+05</totfact>
</mgrwt>
</event>
<event>
 8    1  0.8247621E-014  0.7872389E+02  0.7818608E-02  0.1332712E+00
          1   -1    0    0  501    0  0.00000000000E+00  0.00000000000E+00  0.12722563556E+03  0.12722563566E+03  0.50400000000E-02 0. -1.
         -2   -1    0    0    0  501 -0.00000000000E+00 -0.00000000000E+00 -0.12178069664E+02  0.12178069931E+02  0.25500000000E-02 0.  1.
        -24    2    1    2    0    0 -0.35527136788E-14  0.17763568394E-14  0.11504756590E+03  0.13940370559E+03  0.78723889093E+02 0.  0.
         66    2    3    3    0    0  0.22079048860E+02  0.15169955432E+02  0.65525705748E+01  0.27650463489E+02  0.20000009136E+01 0.  0.
         13    1    3    3    0    0 -0.22079048860E+02 -0.15169955432E+02  0.10849499532E+03  0.11175324210E+03  0.10566000000E+00 0. -1.
         13    1    4    4    0    0  0.50514136473E+00  0.47462433829E+00  0.14166273857E+00  0.71531002227E+00  0.10566000000E+00 0.  1.
        -13    1    4    4    0    0  0.29494962727E+01  0.15413033838E+01  0.39014662861E+00  0.33523906114E+01  0.10566000000E+00 0.  1.
        -14    1    4    4    0    0  0.18624411223E+02  0.13154027710E+02  0.60207612076E+01  0.23582762856E+02  0.00000000000E+00 0.  1.
<mgrwt>
<rscale>  0 0.78723889E+02</rscale>
<asrwt>0</asrwt>
<pdfrwt beam="1">  1        1 0.19573175E-01 0.78723889E+02</pdfrwt>
<pdfrwt beam="2">  1       -2 0.18735492E-02 0.78723889E+02</pdfrwt>
<totfact> 0.15998936E+05</totfact>
</mgrwt>
</event>
<event>
 8    1  0.8247621E-014  0.8096269E+02  0.7818608E-02  0.1326341E+00
         -2   -1    0    0    0  501 -0.00000000000E+00  0.00000000000E+00  0.81235876800E+02  0.81235876840E+02  0.25500000000E-02 0.  1.
          1   -1    0    0  501    0  0.00000000000E+00 -0.00000000000E+00 -0.20172605613E+02  0.20172606242E+02  0.50400000000E-02 0. -1.
        -24    2    1    2    0    0  0.71054273576E-14  0.00000000000E+00  0.61063271188E+02  0.10140848308E+03  0.80962691118E+02 0.  0.
         66    2    3    3    0    0 -0.37404592060E+02 -0.17486110976E+01  0.11366683399E+02  0.39183703856E+02  0.20000021001E+01 0.  0.
         13    1    3    3    0    0  0.37404592060E+02  0.17486110976E+01  0.49696587789E+02  0.62224779227E+02  0.10566000000E+00 0. -1.
         13    1    4    4    0    0 -0.23720030748E+02 -0.14278343089E+01  0.78106147384E+01  0.25013904856E+02  0.10566000000E+00 0. -1.
        -13    1    4    4    0    0 -0.13380998007E+02 -0.44287578379E+00  0.34549398730E+01  0.13827328744E+02  0.10566000000E+00 0.  1.
         14    1    4    4    0    0 -0.30356330509E+00  0.12209899510E+00  0.10112878746E+00  0.34247025631E+00  0.00000000000E+00 0. -1.
<mgrwt>
<rscale>  0 0.80962691E+02</rscale>
<asrwt>0</asrwt>
<pdfrwt beam="1">  1        1 0.31034779E-02 0.80962691E+02</pdfrwt>
<pdfrwt beam="2">  1       -2 0.12497827E-01 0.80962691E+02</pdfrwt>
<totfact> 0.10804306E+05</totfact>
</mgrwt>
</event>
<event>
 8    1  0.8247621E-014  0.8040367E+02  0.7818608E-02  0.1327910E+00
          1   -1    0    0  501    0  0.00000000000E+00  0.00000000000E+00  0.21617008713E+02  0.21617009300E+02  0.50400000000E-02 0. -1.
         -2   -1    0    0    0  501 -0.00000000000E+00 -0.00000000000E+00 -0.74764625286E+02  0.74764625330E+02  0.25500000000E-02 0.  1.
        -24    2    1    2    0    0  0.71054273576E-14  0.00000000000E+00 -0.53147616573E+02  0.96381634630E+02  0.80403671225E+02 0.  0.
         66    2    3    3    0    0  0.35244186798E+02 -0.16675395319E+02 -0.38209839372E+02  0.54627953788E+02  0.19999995436E+01 0.  0.
         13    1    3    3    0    0 -0.35244186798E+02  0.16675395319E+02 -0.14937777202E+02  0.41753680842E+02  0.10566000000E+00 0. -1.
         13    1    4    4    0    0  0.99032224202E+01 -0.46735414294E+01 -0.10177624711E+02  0.14950284699E+02  0.10566000000E+00 0. -1.
        -13    1    4    4    0    0  0.44367167591E+01 -0.16082239164E+01 -0.52017488077E+01  0.70242575735E+01  0.10566000000E+00 0.  1.
        -14    1    4    4    0    0  0.20904247619E+02 -0.10393629973E+02 -0.22830465853E+02  0.32653411515E+02  0.00000000000E+00 0.  1.
<mgrwt>
<rscale>  0 0.80403671E+02</rscale>
<asrwt>0</asrwt>
<pdfrwt beam="1">  1        1 0.33256937E-02 0.80403671E+02</pdfrwt>
<pdfrwt beam="2">  1       -2 0.11502250E-01 0.80403671E+02</pdfrwt>
<totfact> 0.11193225E+05</totfact>
</mgrwt>
</event>
<event>
 8    1  0.8247621E-014  0.8116567E+02  0.7818608E-02  0.1325776E+00
          1   -1    0    0  501    0  0.00000000000E+00  0.00000000000E+00  0.86639815172E+01  0.86639829832E+01  0.50400000000E-02 0. -1.
         -2   -1    0    0    0  501 -0.00000000000E+00 -0.00000000000E+00 -0.19009345245E+03  0.19009345247E+03  0.25500000000E-02 0.  1.
        -24    2    1    2    0    0  0.00000000000E+00  0.35527136788E-14 -0.18142947093E+03  0.19875743545E+03  0.81165665302E+02 0.  0.
         66    2    3    3    0    0  0.21139579687E+02  0.14749989586E+02 -0.16744905389E+03  0.16943326032E+03  0.20000084808E+01 0.  0.
         13    1    3    3    0    0 -0.21139579687E+02 -0.14749989586E+02 -0.13980417048E+02  0.29324175129E+02  0.10566000000E+00 0. -1.
         13    1    4    4    0    0  0.44874470779E+01  0.37378024300E+01 -0.34787448779E+02  0.35274439824E+02  0.10566000000E+00 0. -1.
        -13    1    4    4    0    0  0.12404744922E+02  0.83560597561E+01 -0.10195255914E+03  0.10304385916E+03  0.10566000000E+00 0.  1.
        -14    1    4    4    0    0  0.42473876877E+01  0.26561274000E+01 -0.30709045968E+02  0.31114961340E+02  0.00000000000E+00 0.  1.
<mgrwt>
<rscale>  0 0.81165665E+02</rscale>
<asrwt>0</asrwt>
<pdfrwt beam="1">  1        1 0.13329205E-02 0.81165665E+02</pdfrwt>
<pdfrwt beam="2">  1       -2 0.29245143E-01 0.81165665E+02</pdfrwt>
<totfact> 0.83634886E+04</totfact>
</mgrwt>
</event>
<event>
 8    1  0.8247621E-014  0.8031662E+02  0.7818608E-02  0.1328155E+00
          1   -1    0    0  501    0  0.00000000000E+00  0.00000000000E+00  0.27414951697E+02  0.27414952161E+02  0.50400000000E-02 0. -1.
         -2   -1    0    0    0  501 -0.00000000000E+00 -0.00000000000E+00 -0.58825196896E+02  0.58825196951E+02  0.25500000000E-02 0.  1.
        -24    2    1    2    0    0 -0.35527136788E-14  0.00000000000E+00 -0.31410245198E+02  0.86240149112E+02  0.80316622286E+02 0.  0.
         66    2    3    3    0    0 -0.25342438407E+02 -0.28392321762E+02 -0.29395036972E+02  0.48129319317E+02  0.20000149629E+01 0.  0.
         13    1    3    3    0    0  0.25342438407E+02  0.28392321762E+02 -0.20152082262E+01  0.38110829795E+02  0.10566000000E+00 0. -1.
         13    1    4    4    0    0 -0.20604945310E+01 -0.16208193432E+01 -0.19928495827E+01  0.32947392234E+01  0.10566000000E+00 0. -1.
        -13    1    4    4    0    0 -0.52980651851E+01 -0.57877921347E+01 -0.63047707406E+01  0.10066247097E+02  0.10566000000E+00 0.  1.
         14    1    4    4    0    0 -0.17983878690E+02 -0.20983710284E+02 -0.21097416649E+02  0.34768332996E+02  0.00000000000E+00 0. -1.
<mgrwt>
<rscale>  0 0.80316622E+02</rscale>
<asrwt>0</asrwt>
<pdfrwt beam="1">  1        1 0.42176849E-02 0.80316622E+02</pdfrwt>
<pdfrwt beam="2">  1       -2 0.90500303E-02 0.80316622E+02</pdfrwt>
<totfact> 0.11764449E+05</totfact>
</mgrwt>
</event>
<event>
 8    1  0.8247621E-014  0.7134213E+02  0.7818608E-02  0.1355588E+00
          1   -1    0    0  501    0  0.00000000000E+00  0.00000000000E+00  0.22957650133E+03  0.22957650138E+03  0.50400000000E-02 0. -1.
         -2   -1    0    0    0  501 -0.00000000000E+00 -0.00000000000E+00 -0.55424875499E+01  0.55424881366E+01  0.25500000000E-02 0.  1.
        -24    2    1    2    0    0  0.00000000000E+00 -0.35527136788E-14  0.22403401378E+03  0.23511898952E+03  0.71342132736E+02 0.  0.
         66    2    3    3    0    0  0.20121974894E+02 -0.23880712903E+02  0.55477263833E+02  0.63693870478E+02  0.20000029100E+01 0.  0.
         13    1    3    3    0    0 -0.20121974894E+02  0.23880712903E+02  0.16855674994E+03  0.17142511904E+03  0.10566000000E+00 0. -1.
         13    1    4    4    0    0  0.10108305977E+02 -0.12110977536E+02  0.28594183453E+02  0.32657190908E+02  0.10566000000E+00 0.  1.
        -13    1    4    4    0    0  0.72688018466E+01 -0.76944150113E+01  0.18911483284E+02  0.21672444871E+02  0.10566000000E+00 0. -1.
         14    1    4    4    0    0  0.27448670712E+01 -0.40753203560E+01  0.79715970956E+01  0.93642346990E+01  0.00000000000E+00 0. -1.
<mgrwt>
<rscale>  0 0.71342133E+02</rscale>
<asrwt>0</asrwt>
<pdfrwt beam="1">  1        1 0.35319465E-01 0.71342133E+02</pdfrwt>
<pdfrwt beam="2">  1       -2 0.85269037E-03 0.71342133E+02</pdfrwt>
<totfact> 0.23148422E+05</totfact>
</mgrwt>
</event>
<event>
 8    1  0.8247621E-014  0.7898093E+02  0.7818608E-02  0.1331969E+00
          1   -1    0    0  501    0  0.00000000000E+00  0.00000000000E+00  0.74497994700E+01  0.74498011749E+01  0.50400000000E-02 0. -1.
         -2   -1    0    0    0  501 -0.00000000000E+00 -0.00000000000E+00 -0.20933406676E+03  0.20933406678E+03  0.25500000000E-02 0.  1.
        -24    2    1    2    0    0  0.00000000000E+00  0.35527136788E-14 -0.20188426729E+03  0.21678386795E+03  0.78980934562E+02 0.  0.
         66    2    3    3    0    0 -0.31475275123E+02 -0.23782009647E+02 -0.97981044746E+02  0.10564356137E+03  0.20000008064E+01 0.  0.
         13    1    3    3    0    0  0.31475275123E+02  0.23782009647E+02 -0.10390322255E+03  0.11114030658E+03  0.10566000000E+00 0. -1.
         13    1    4    4    0    0 -0.18915827508E+01 -0.15170826112E+01 -0.50456239410E+01  0.55990275890E+01  0.10566000000E+00 0. -1.
        -13    1    4    4    0    0 -0.10770176177E+02 -0.77607883541E+01 -0.32292545132E+02  0.34914841628E+02  0.10566000000E+00 0.  1.
         14    1    4    4    0    0 -0.18813516196E+02 -0.14504138682E+02 -0.60642875673E+02  0.65129692156E+02  0.00000000000E+00 0. -1.
<mgrwt>
<rscale>  0 0.78980935E+02</rscale>
<asrwt>0</asrwt>
<pdfrwt beam="1">  1        1 0.11461233E-02 0.78980935E+02</pdfrwt>
<pdfrwt beam="2">  1       -2 0.32205237E-01 0.78980935E+02</pdfrwt>
<totfact> 0.86297376E+04</totfact>
</mgrwt>
</event>
<event>
 8    1  0.8247621E-014  0.8485299E+02  0.7818608E-02  0.1315817E+00
          1   -1    0    0  501    0  0.00000000000E+00  0.00000000000E+00  0.62439908746E+02  0.62439908949E+02  0.50400000000E-02 0. -1.
         -2   -1    0    0    0  501 -0.00000000000E+00 -0.00000000000E+00 -0.28827837834E+02  0.28827837947E+02  0.25500000000E-02 0.  1.
        -24    2    1    2    0    0  0.00000000000E+00  0.00000000000E+00  0.33612070912E+02  0.91267746897E+02  0.84852992361E+02 0.  0.
         66    2    3    3    0    0  0.23748186967E+02  0.15724388213E+02 -0.16972311595E+02  0.33215841790E+02  0.20000040145E+01 0.  0.
         13    1    3    3    0    0 -0.23748186967E+02 -0.15724388213E+02  0.50584382507E+02  0.58051905107E+02  0.10566000000E+00 0. -1.
         13    1    4    4    0    0  0.80334376117E+01  0.45864913811E+01 -0.50530623772E+01  0.10541187147E+02  0.10566000000E+00 0.  1.
        -13    1    4    4    0    0  0.13883847399E+01  0.70391880712E+00 -0.81674252617E+00  0.17610639576E+01  0.10566000000E+00 0.  1.
        -14    1    4    4    0    0  0.14326364615E+02  0.10433978025E+02 -0.11102506692E+02  0.20913590685E+02  0.00000000000E+00 0.  1.
<mgrwt>
<rscale>  0 0.84852992E+02</rscale>
<asrwt>0</asrwt>
<pdfrwt beam="1">  1        1 0.96061399E-02 0.84852992E+02</pdfrwt>
<pdfrwt beam="2">  1       -2 0.44350520E-02 0.84852992E+02</pdfrwt>
<totfact> 0.11576389E+05</totfact>
</mgrwt>
</event>
<event>
 8    1  0.8247621E-014  0.8012210E+02  0.7818608E-02  0.1328705E+00
          1   -1    0    0  501    0  0.00000000000E+00  0.00000000000E+00  0.30060474589E+03  0.30060474593E+03  0.50400000000E-02 0. -1.
         -2   -1    0    0    0  501 -0.00000000000E+00 -0.00000000000E+00 -0.53388629072E+01  0.53388635162E+01  0.25500000000E-02 0.  1.
        -24    2    1    2    0    0  0.35527136788E-14  0.35527136788E-14  0.29526588298E+03  0.30594360945E+03  0.80122097506E+02 0.  0.
         66    2    3    3    0    0  0.27731600066E+02  0.26399360112E+02  0.10304455879E+03  0.10994611840E+03  0.19999999268E+01 0.  0.
         13    1    3    3    0    0 -0.27731600066E+02 -0.26399360112E+02  0.19222132420E+03  0.19599749105E+03  0.10566000000E+00 0. -1.
         13    1    4    4    0    0  0.18418054969E+01  0.16163986209E+01  0.71966299072E+01  0.76031334361E+01  0.10566000000E+00 0.  1.
        -13    1    4    4    0    0  0.20261839589E+02  0.19394430505E+02  0.72992734499E+02  0.78196141412E+02  0.10566000000E+00 0.  1.
        -14    1    4    4    0    0  0.56279549806E+01  0.53885309862E+01  0.22855194381E+02  0.24146843555E+02  0.00000000000E+00 0.  1.
<mgrwt>
<rscale>  0 0.80122098E+02</rscale>
<asrwt>0</asrwt>
<pdfrwt beam="1">  1        1 0.46246883E-01 0.80122098E+02</pdfrwt>
<pdfrwt beam="2">  1       -2 0.82136359E-03 0.80122098E+02</pdfrwt>
<totfact> 0.17976102E+05</totfact>
</mgrwt>
</event>
<event>
 8    1  0.8247621E-014  0.8027145E+02  0.7818608E-02  0.1328283E+00
          1   -1    0    0  501    0  0.00000000000E+00  0.00000000000E+00  0.51642905444E+01  0.51642930038E+01  0.50400000000E-02 0. -1.
         -2   -1    0    0    0  501 -0.00000000000E+00 -0.00000000000E+00 -0.31192589012E+03  0.31192589013E+03  0.25500000000E-02 0.  1.
        -24    2    1    2    0    0 -0.71054273576E-14 -0.35527136788E-14 -0.30676159958E+03  0.31709018314E+03  0.80271447389E+02 0.  0.
         66    2    3    3    0    0 -0.33990901192E+02 -0.19252253785E+02 -0.18942945205E+03  0.19342582025E+03  0.19999993157E+01 0.  0.
         13    1    3    3    0    0  0.33990901192E+02  0.19252253785E+02 -0.11733214753E+03  0.12366436288E+03  0.10566000000E+00 0. -1.
         13    1    4    4    0    0 -0.27993809236E+01 -0.20990248290E+01 -0.16111560231E+02  0.16487449042E+02  0.10566000000E+00 0. -1.
        -13    1    4    4    0    0 -0.18144736759E+02 -0.10289373781E+02 -0.10347856342E+03  0.10556006317E+03  0.10566000000E+00 0.  1.
        -14    1    4    4    0    0 -0.13046783510E+02 -0.68638551743E+01 -0.69839328395E+02  0.71378308039E+02  0.00000000000E+00 0.  1.
<mgrwt>
<rscale>  0 0.80271447E+02</rscale>
<asrwt>0</asrwt>
<pdfrwt beam="1">  1        1 0.79450667E-03 0.80271447E+02</pdfrwt>
<pdfrwt beam="2">  1       -2 0.47988584E-01 0.80271447E+02</pdfrwt>
<totfact> 0.68175896E+04</totfact>
</mgrwt>
</event>
<event>
 8    1  0.8247621E-014  0.8266666E+02  0.7818608E-02  0.1321650E+00
          1   -1    0    0  501    0  0.00000000000E+00  0.00000000000E+00  0.10922446030E+03  0.10922446042E+03  0.50400000000E-02 0. -1.
         -2   -1    0    0    0  501 -0.00000000000E+00 -0.00000000000E+00 -0.15641590265E+02  0.15641590473E+02  0.25500000000E-02 0.  1.
        -24    2    1    2    0    0 -0.71054273576E-14  0.35527136788E-14  0.93582870036E+02  0.12486605089E+03  0.82666662571E+02 0.  0.
         66    2    3    3    0    0  0.35361464513E+02 -0.21143438775E+02  0.42297120849E+02  0.59080661863E+02  0.19999995847E+01 0.  0.
         13    1    3    3    0    0 -0.35361464513E+02  0.21143438775E+02  0.51285749187E+02  0.65785389027E+02  0.10566000000E+00 0. -1.
         13    1    4    4    0    0  0.17533768944E+02 -0.10610017561E+02  0.20082185168E+02  0.28693393860E+02  0.10566000000E+00 0. -1.
        -13    1    4    4    0    0  0.12437774661E+02 -0.68237539937E+01  0.14946615349E+02  0.20607627993E+02  0.10566000000E+00 0.  1.
         14    1    4    4    0    0  0.53899209073E+01 -0.37096672199E+01  0.72683203330E+01  0.97796400104E+01  0.00000000000E+00 0. -1.
<mgrwt>
<rscale>  0 0.82666663E+02</rscale>
<asrwt>0</asrwt>
<pdfrwt beam="1">  1        1 0.16803763E-01 0.82666663E+02</pdfrwt>
<pdfrwt beam="2">  1       -2 0.24063986E-02 0.82666663E+02</pdfrwt>
<totfact> 0.13656382E+05</totfact>
</mgrwt>
</event>
<event>
 8    1  0.8247621E-014  0.8021240E+02  0.7818608E-02  0.1328450E+00
          1   -1    0    0  501    0  0.00000000000E+00  0.00000000000E+00  0.92878534596E+01  0.92878548271E+01  0.50400000000E-02 0. -1.
         -2   -1    0    0    0  501 -0.00000000000E+00 -0.00000000000E+00 -0.17318395835E+03  0.17318395837E+03  0.25500000000E-02 0.  1.
        -24    2    1    2    0    0  0.00000000000E+00 -0.17763568394E-14 -0.16389610489E+03  0.18247181320E+03  0.80212401864E+02 0.  0.
         66    2    3    3    0    0  0.20736201845E+02  0.14374911467E+02 -0.15284430968E+03  0.15492582459E+03  0.19999946811E+01 0.  0.
         13    1    3    3    0    0 -0.20736201845E+02 -0.14374911467E+02 -0.11051795214E+02  0.27545988603E+02  0.10566000000E+00 0. -1.
         13    1    4    4    0    0  0.26312050218E+01  0.18084170725E+01 -0.17004972439E+02  0.17302423641E+02  0.10566000000E+00 0. -1.
        -13    1    4    4    0    0  0.37514028332E+01  0.25629645987E+01 -0.31844107506E+02  0.32166755473E+02  0.10566000000E+00 0.  1.
        -14    1    4    4    0    0  0.14353593990E+02  0.10003529795E+02 -0.10399522973E+03  0.10545664548E+03  0.00000000000E+00 0.  1.
<mgrwt>
<rscale>  0 0.80212402E+02</rscale>
<asrwt>0</asrwt>
<pdfrwt beam="1">  1        1 0.14289008E-02 0.80212402E+02</pdfrwt>
<pdfrwt beam="2">  1       -2 0.26643683E-01 0.80212402E+02</pdfrwt>
<totfact> 0.89312172E+04</totfact>
</mgrwt>
</event>
<event>
 8    1  0.8247621E-014  0.7966816E+02  0.7818608E-02  0.1329996E+00
         -2   -1    0    0    0  501 -0.00000000000E+00  0.00000000000E+00  0.73552189492E+02  0.73552189536E+02  0.25500000000E-02 0.  1.
          1   -1    0    0  501    0  0.00000000000E+00 -0.00000000000E+00 -0.21573172780E+02  0.21573173368E+02  0.50400000000E-02 0. -1.
        -24    2    1    2    0    0  0.00000000000E+00  0.17763568394E-14  0.51979016712E+02  0.95125362905E+02  0.79668164842E+02 0.  0.
         66    2    3    3    0    0  0.16950024068E+02 -0.12079337171E+02  0.66524044337E+02  0.69732791254E+02  0.19999997022E+01 0.  0.
         13    1    3    3    0    0 -0.16950024068E+02  0.12079337171E+02 -0.14545027625E+02  0.25392571650E+02  0.10566000000E+00 0. -1.
         13    1    4    4    0    0  0.40533268870E+01 -0.31496391913E+01  0.14782087426E+02  0.15648353224E+02  0.10566000000E+00 0.  1.
        -13    1    4    4    0    0  0.61284149610E+01 -0.34306482371E+01  0.23105005527E+02  0.24149104781E+02  0.10566000000E+00 0. -1.
         14    1    4    4    0    0  0.67682822197E+01 -0.54990497423E+01  0.28636951383E+02  0.29935333250E+02  0.00000000000E+00 0. -1.
<mgrwt>
<rscale>  0 0.79668165E+02</rscale>
<asrwt>0</asrwt>
<pdfrwt beam="1">  1        1 0.33189497E-02 0.79668165E+02</pdfrwt>
<pdfrwt beam="2">  1       -2 0.11315721E-01 0.79668165E+02</pdfrwt>
<totfact> 0.11496844E+05</totfact>
</mgrwt>
</event>
<event>
 8    1  0.8247621E-014  0.7943698E+02  0.7818608E-02  0.1330657E+00
         -2   -1    0    0    0  501 -0.00000000000E+00  0.00000000000E+00  0.11096662574E+03  0.11096662577E+03  0.25500000000E-02 0.  1.
          1   -1    0    0  501    0  0.00000000000E+00 -0.00000000000E+00 -0.14216510746E+02  0.14216511640E+02  0.50400000000E-02 0. -1.
        -24    2    1    2    0    0  0.00000000000E+00  0.00000000000E+00  0.96750114996E+02  0.12518313741E+03  0.79436975902E+02 0.  0.
         66    2    3    3    0    0 -0.23060917981E+02 -0.54328153582E+01  0.98592697595E+02  0.10141913742E+03  0.19999988613E+01 0.  0.
         13    1    3    3    0    0  0.23060917981E+02  0.54328153582E+01 -0.18425825987E+01  0.23763999990E+02  0.10566000000E+00 0. -1.
         13    1    4    4    0    0 -0.11993151869E+02 -0.30477807031E+01  0.48905311945E+02  0.50446658555E+02  0.10566000000E+00 0. -1.
        -13    1    4    4    0    0 -0.77912094000E+01 -0.21769318213E+01  0.35265813041E+02  0.36181911359E+02  0.10566000000E+00 0.  1.
         14    1    4    4    0    0 -0.32765567121E+01 -0.20810283381E+00  0.14421572609E+02  0.14790567508E+02  0.00000000000E+00 0. -1.
<mgrwt>
<rscale>  0 0.79436976E+02</rscale>
<asrwt>0</asrwt>
<pdfrwt beam="1">  1        1 0.21871556E-02 0.79436976E+02</pdfrwt>
<pdfrwt beam="2">  1       -2 0.17071789E-01 0.79436976E+02</pdfrwt>
<totfact> 0.10521638E+05</totfact>
</mgrwt>
</event>
<event>
 8    1  0.8247621E-014  0.8039573E+02  0.7818608E-02  0.1327932E+00
          1   -1    0    0  501    0  0.00000000000E+00  0.00000000000E+00  0.49846135043E+02  0.49846135298E+02  0.50400000000E-02 0. -1.
         -2   -1    0    0    0  501 -0.00000000000E+00 -0.00000000000E+00 -0.32417125854E+02  0.32417125954E+02  0.25500000000E-02 0.  1.
        -24    2    1    2    0    0  0.00000000000E+00  0.00000000000E+00  0.17429009190E+02  0.82263261252E+02  0.80395732415E+02 0.  0.
         66    2    3    3    0    0 -0.34269901584E+02 -0.10577460453E+02 -0.97990016768E+01  0.37233442642E+02  0.19999982286E+01 0.  0.
         13    1    3    3    0    0  0.34269901584E+02  0.10577460453E+02  0.27228010867E+02  0.45029818610E+02  0.10566000000E+00 0. -1.
         13    1    4    4    0    0 -0.11974418138E+02 -0.35940515393E+01 -0.41013254382E+01  0.13158112729E+02  0.10566000000E+00 0.  1.
        -13    1    4    4    0    0 -0.15820639776E+02 -0.53762706527E+01 -0.43976474847E+01  0.17278524141E+02  0.10566000000E+00 0. -1.
        -14    1    4    4    0    0 -0.64748436703E+01 -0.16071382610E+01 -0.13000287539E+01  0.67968057723E+01  0.00000000000E+00 0.  1.
<mgrwt>
<rscale>  0 0.80395732E+02</rscale>
<asrwt>0</asrwt>
<pdfrwt beam="1">  1        1 0.76686362E-02 0.80395732E+02</pdfrwt>
<pdfrwt beam="2">  1       -2 0.49872502E-02 0.80395732E+02</pdfrwt>
<totfact> 0.12971361E+05</totfact>
</mgrwt>
</event>
<event>
 8    1  0.8247621E-014  0.7702925E+02  0.7818608E-02  0.1337700E+00
          1   -1    0    0  501    0  0.00000000000E+00  0.00000000000E+00  0.92079127115E+01  0.92079140909E+01  0.50400000000E-02 0. -1.
         -2   -1    0    0    0  501 -0.00000000000E+00 -0.00000000000E+00 -0.16109799527E+03  0.16109799529E+03  0.25500000000E-02 0.  1.
        -24    2    1    2    0    0  0.00000000000E+00  0.00000000000E+00 -0.15189008256E+03  0.17030590938E+03  0.77029251525E+02 0.  0.
         66    2    3    3    0    0 -0.10014640668E+02  0.13539681190E+01 -0.15810585620E+03  0.15844111847E+03  0.19999996035E+01 0.  0.
         13    1    3    3    0    0  0.10014640668E+02 -0.13539681190E+01  0.62157736443E+01  0.11864790913E+02  0.10566000000E+00 0. -1.
         13    1    4    4    0    0 -0.43556568127E+01  0.83173463464E+00 -0.56586716875E+02  0.56760296155E+02  0.10566000000E+00 0. -1.
        -13    1    4    4    0    0 -0.34277652629E+01  0.40013555574E+00 -0.55275766942E+02  0.55383492651E+02  0.10566000000E+00 0.  1.
         14    1    4    4    0    0 -0.22312185924E+01  0.12209792866E+00 -0.46243372388E+02  0.46297329665E+02  0.00000000000E+00 0. -1.
<mgrwt>
<rscale>  0 0.77029252E+02</rscale>
<asrwt>0</asrwt>
<pdfrwt beam="1">  1        1 0.14166022E-02 0.77029252E+02</pdfrwt>
<pdfrwt beam="2">  1       -2 0.24784305E-01 0.77029252E+02</pdfrwt>
<totfact> 0.10169720E+05</totfact>
</mgrwt>
</event>
<event>
 8    1  0.8247621E-014  0.7828036E+02  0.7818608E-02  0.1334004E+00
         -2   -1    0    0    0  501 -0.00000000000E+00  0.00000000000E+00  0.14645601450E+02  0.14645601672E+02  0.25500000000E-02 0.  1.
          1   -1    0    0  501    0  0.00000000000E+00 -0.00000000000E+00 -0.10460161375E+03  0.10460161387E+03  0.50400000000E-02 0. -1.
        -24    2    1    2    0    0  0.00000000000E+00  0.00000000000E+00 -0.89956012300E+02  0.11924721554E+03  0.78280356832E+02 0.  0.
         66    2    3    3    0    0 -0.32961106093E+02 -0.13632309380E+02 -0.69460217638E+02  0.78108874098E+02  0.20000011656E+01 0.  0.
         13    1    3    3    0    0  0.32961106093E+02  0.13632309380E+02 -0.20495794662E+02  0.41138341444E+02  0.10566000000E+00 0. -1.
         13    1    4    4    0    0 -0.20443750573E+01 -0.11559197961E+01 -0.46686276170E+01  0.52271280654E+01  0.10566000000E+00 0.  1.
        -13    1    4    4    0    0 -0.17030606637E+02 -0.67311107799E+01 -0.33968247360E+02  0.38590185378E+02  0.10566000000E+00 0. -1.
         14    1    4    4    0    0 -0.13886124398E+02 -0.57452788042E+01 -0.30823342661E+02  0.34291560654E+02  0.00000000000E+00 0. -1.
<mgrwt>
<rscale>  0 0.78280357E+02</rscale>
<asrwt>0</asrwt>
<pdfrwt beam="1">  1        1 0.16092556E-01 0.78280357E+02</pdfrwt>
<pdfrwt beam="2">  1       -2 0.22531695E-02 0.78280357E+02</pdfrwt>
<totfact> 0.15704606E+05</totfact>
</mgrwt>
</event>
<event>
 8    1  0.8247621E-014  0.8099933E+02  0.7818608E-02  0.1326239E+00
         -2   -1    0    0    0  501 -0.00000000000E+00  0.00000000000E+00  0.89587841727E+01  0.89587845356E+01  0.25500000000E-02 0.  1.
          1   -1    0    0  501    0  0.00000000000E+00 -0.00000000000E+00 -0.18308541556E+03  0.18308541563E+03  0.50400000000E-02 0. -1.
        -24    2    1    2    0    0  0.00000000000E+00 -0.44408920985E-15 -0.17412663139E+03  0.19204420017E+03  0.80999327521E+02 0.  0.
         66    2    3    3    0    0  0.36181233463E+02 -0.20336959069E+01 -0.12985891376E+03  0.13483528860E+03  0.19999991582E+01 0.  0.
         13    1    3    3    0    0 -0.36181233463E+02  0.20336959069E+01 -0.44267717634E+02  0.57208911565E+02  0.10566000000E+00 0. -1.
         13    1    4    4    0    0  0.11552319460E+02 -0.12730249092E+01 -0.42730909399E+02  0.44283388075E+02  0.10566000000E+00 0. -1.
        -13    1    4    4    0    0  0.20055146328E+02 -0.19584039126E+00 -0.70813498375E+02  0.73598980725E+02  0.10566000000E+00 0.  1.
        -14    1    4    4    0    0  0.45737676747E+01 -0.56483060647E+00 -0.16314505984E+02  0.16952919803E+02  0.00000000000E+00 0.  1.
<mgrwt>
<rscale>  0 0.80999328E+02</rscale>
<asrwt>0</asrwt>
<pdfrwt beam="1">  1        1 0.28166984E-01 0.80999328E+02</pdfrwt>
<pdfrwt beam="2">  1       -2 0.13782746E-02 0.80999328E+02</pdfrwt>
<totfact> 0.15858986E+05</totfact>
</mgrwt>
</event>
<event>
 8    1  0.8247621E-014  0.7913809E+02  0.7818608E-02  0.1331515E+00
         -2   -1    0    0    0  501 -0.00000000000E+00  0.00000000000E+00  0.13178231785E+02  0.13178232032E+02  0.25500000000E-02 0.  1.
          1   -1    0    0  501    0  0.00000000000E+00 -0.00000000000E+00 -0.11881027979E+03  0.11881027990E+03  0.50400000000E-02 0. -1.
        -24    2    1    2    0    0  0.00000000000E+00  0.17763568394E-14 -0.10563204801E+03  0.13198851193E+03  0.79138092696E+02 0.  0.
         66    2    3    3    0    0  0.29738782175E+02  0.12255231173E+02 -0.14485380656E+02  0.35332875833E+02  0.20000013800E+01 0.  0.
         13    1    3    3    0    0 -0.29738782175E+02 -0.12255231173E+02 -0.91146667350E+02  0.96655636098E+02  0.10566000000E+00 0. -1.
         13    1    4    4    0    0  0.19401908517E+02  0.76206758056E+01 -0.96136064717E+01  0.22955203055E+02  0.10566000000E+00 0. -1.
        -13    1    4    4    0    0  0.81896095887E+01  0.40174436527E+01 -0.42130260161E+01  0.10048398428E+02  0.10566000000E+00 0.  1.
         14    1    4    4    0    0  0.21472640688E+01  0.61711171436E+00 -0.65874816801E+00  0.23292743501E+01  0.00000000000E+00 0. -1.
<mgrwt>
<rscale>  0 0.79138093E+02</rscale>
<asrwt>0</asrwt>
<pdfrwt beam="1">  1        1 0.18278504E-01 0.79138093E+02</pdfrwt>
<pdfrwt beam="2">  1       -2 0.20274204E-02 0.79138093E+02</pdfrwt>
<totfact> 0.15587098E+05</totfact>
</mgrwt>
</event>
<event>
 8    1  0.8247621E-014  0.7810043E+02  0.7818608E-02  0.1334530E+00
          1   -1    0    0  501    0  0.00000000000E+00  0.00000000000E+00  0.31347694208E+02  0.31347694613E+02  0.50400000000E-02 0. -1.
         -2   -1    0    0    0  501 -0.00000000000E+00 -0.00000000000E+00 -0.48645345926E+02  0.48645345993E+02  0.25500000000E-02 0.  1.
        -24    2    1    2    0    0  0.35527136788E-14  0.35527136788E-14 -0.17297651718E+02  0.79993040606E+02  0.78100433996E+02 0.  0.
         66    2    3    3    0    0  0.23338724135E+02  0.31021964140E+02 -0.45759997057E+01  0.39140746946E+02  0.19999986993E+01 0.  0.
         13    1    3    3    0    0 -0.23338724135E+02 -0.31021964140E+02 -0.12721652012E+02  0.40852293660E+02  0.10566000000E+00 0. -1.
         13    1    4    4    0    0  0.84552798423E+00  0.10518699379E+01  0.71546391022E-01  0.13555924387E+01  0.10566000000E+00 0. -1.
        -13    1    4    4    0    0  0.20322818753E+02  0.27713273646E+02 -0.43224978798E+01  0.34637229251E+02  0.10566000000E+00 0.  1.
        -14    1    4    4    0    0  0.21703773981E+01  0.22568205562E+01 -0.32504821691E+00  0.31479252558E+01  0.00000000000E+00 0.  1.
<mgrwt>
<rscale>  0 0.78100434E+02</rscale>
<asrwt>0</asrwt>
<pdfrwt beam="1">  1        1 0.48227222E-02 0.78100434E+02</pdfrwt>
<pdfrwt beam="2">  1       -2 0.74838994E-02 0.78100434E+02</pdfrwt>
<totfact> 0.13054865E+05</totfact>
</mgrwt>
</event>
<event>
 8    1  0.8247621E-014  0.8005123E+02  0.7818608E-02  0.1328906E+00
         -2   -1    0    0    0  501 -0.00000000000E+00  0.00000000000E+00  0.42564436194E+03  0.42564436195E+03  0.25500000000E-02 0.  1.
          1   -1    0    0  501    0  0.00000000000E+00 -0.00000000000E+00 -0.37638207101E+01  0.37638240845E+01  0.50400000000E-02 0. -1.
        -24    2    1    2    0    0  0.00000000000E+00  0.00000000000E+00  0.42188054123E+03  0.42940818603E+03  0.80051228366E+02 0.  0.
         66    2    3    3    0    0  0.11435291003E+02 -0.28014354685E+00  0.41668091638E+03  0.41684269267E+03  0.19999998311E+01 0.  0.
         13    1    3    3    0    0 -0.11435291003E+02  0.28014354685E+00  0.51996248505E+01  0.12565493359E+02  0.10566000000E+00 0. -1.
         13    1    4    4    0    0  0.53699471815E+01  0.19993974666E+00  0.16472699095E+03  0.16481465050E+03  0.10566000000E+00 0. -1.
        -13    1    4    4    0    0  0.35605519449E+01 -0.44271504380E+00  0.13898190810E+03  0.13902825421E+03  0.10566000000E+00 0.  1.
         14    1    4    4    0    0  0.25047918770E+01 -0.37368249711E-01  0.11297201733E+03  0.11299978796E+03  0.00000000000E+00 0. -1.
<mgrwt>
<rscale>  0 0.80051228E+02</rscale>
<asrwt>0</asrwt>
<pdfrwt beam="1">  1        1 0.57905003E-03 0.80051228E+02</pdfrwt>
<pdfrwt beam="2">  1       -2 0.65483700E-01 0.80051228E+02</pdfrwt>
<totfact> 0.56566250E+04</totfact>
</mgrwt>
</event>
<event>
 8    1  0.8247621E-014  0.8019847E+02  0.7818608E-02  0.1328489E+00
          1   -1    0    0  501    0  0.00000000000E+00  0.00000000000E+00  0.31342755826E+02  0.31342756231E+02  0.50400000000E-02 0. -1.
         -2   -1    0    0    0  501 -0.00000000000E+00 -0.00000000000E+00 -0.51302076006E+02  0.51302076069E+02  0.25500000000E-02 0.  1.
        -24    2    1    2    0    0  0.00000000000E+00 -0.17763568394E-14 -0.19959320179E+02  0.82644832301E+02  0.80198465347E+02 0.  0.
         66    2    3    3    0    0  0.16991777349E+02  0.15714378775E+02 -0.43698943361E+02  0.49489997501E+02  0.20000010136E+01 0.  0.
         13    1    3    3    0    0 -0.16991777349E+02 -0.15714378775E+02  0.23739623182E+02  0.33154834799E+02  0.10566000000E+00 0. -1.
         13    1    4    4    0    0  0.71695434651E+01  0.57406721395E+01 -0.18478215529E+02  0.20635243718E+02  0.10566000000E+00 0. -1.
        -13    1    4    4    0    0  0.49743523079E+01  0.47280671952E+01 -0.11766398306E+02  0.13621970982E+02  0.10566000000E+00 0.  1.
        -14    1    4    4    0    0  0.48478815755E+01  0.52456394401E+01 -0.13454329525E+02  0.15232782802E+02  0.00000000000E+00 0.  1.
<mgrwt>
<rscale>  0 0.80198465E+02</rscale>
<asrwt>0</asrwt>
<pdfrwt beam="1">  1        1 0.48219625E-02 0.80198465E+02</pdfrwt>
<pdfrwt beam="2">  1       -2 0.78926271E-02 0.80198465E+02</pdfrwt>
<totfact> 0.12101960E+05</totfact>
</mgrwt>
</event>
<event>
 8    1  0.8247621E-014  0.7028623E+02  0.7818608E-02  0.1359122E+00
          1   -1    0    0  501    0  0.00000000000E+00  0.00000000000E+00  0.69440881771E+02  0.69440881954E+02  0.50400000000E-02 0. -1.
         -2   -1    0    0    0  501 -0.00000000000E+00 -0.00000000000E+00 -0.17785468970E+02  0.17785469152E+02  0.25500000000E-02 0.  1.
        -24    2    1    2    0    0 -0.35527136788E-14 -0.17763568394E-14  0.51655412801E+02  0.87226351106E+02  0.70286233756E+02 0.  0.
         66    2    3    3    0    0  0.16858136789E+02  0.97836282616E+01 -0.10399261462E+02  0.22182443475E+02  0.20000003993E+01 0.  0.
         13    1    3    3    0    0 -0.16858136789E+02 -0.97836282616E+01  0.62054674263E+02  0.65043907631E+02  0.10566000000E+00 0. -1.
         13    1    4    4    0    0  0.94470672571E+00  0.10279495943E+01 -0.49431217333E+00  0.14848096599E+01  0.10566000000E+00 0. -1.
        -13    1    4    4    0    0  0.66735736684E+01  0.36308090813E+01 -0.44778513169E+01  0.88193920734E+01  0.10566000000E+00 0.  1.
        -14    1    4    4    0    0  0.92398563951E+01  0.51248695861E+01 -0.54270979717E+01  0.11878241742E+02  0.00000000000E+00 0.  1.
<mgrwt>
<rscale>  0 0.70286234E+02</rscale>
<asrwt>0</asrwt>
<pdfrwt beam="1">  1        1 0.10683213E-01 0.70286234E+02</pdfrwt>
<pdfrwt beam="2">  1       -2 0.27362260E-02 0.70286234E+02</pdfrwt>
<totfact> 0.19673826E+05</totfact>
</mgrwt>
</event>
<event>
 8    1  0.8247621E-014  0.8065563E+02  0.7818608E-02  0.1327201E+00
          1   -1    0    0  501    0  0.00000000000E+00  0.00000000000E+00  0.22474355522E+02  0.22474356087E+02  0.50400000000E-02 0. -1.
         -2   -1    0    0    0  501 -0.00000000000E+00 -0.00000000000E+00 -0.72363920162E+02  0.72363920207E+02  0.25500000000E-02 0.  1.
        -24    2    1    2    0    0  0.00000000000E+00  0.71054273576E-14 -0.49889564640E+02  0.94838276294E+02  0.80655625907E+02 0.  0.
         66    2    3    3    0    0  0.23203926928E+02 -0.28935719664E+02 -0.43500740297E+02  0.57201507864E+02  0.19999995306E+01 0.  0.
         13    1    3    3    0    0 -0.23203926928E+02  0.28935719664E+02 -0.63888243422E+01  0.37636768430E+02  0.10566000000E+00 0. -1.
         13    1    4    4    0    0  0.92330838992E+01 -0.10720792470E+02 -0.17440152484E+02  0.22457856358E+02  0.10566000000E+00 0. -1.
        -13    1    4    4    0    0  0.10887943017E+02 -0.14094412598E+02 -0.20824522580E+02  0.27402037777E+02  0.10566000000E+00 0.  1.
         14    1    4    4    0    0  0.30829000120E+01 -0.41205145962E+01 -0.52360652333E+01  0.73416137292E+01  0.00000000000E+00 0. -1.
<mgrwt>
<rscale>  0 0.80655626E+02</rscale>
<asrwt>0</asrwt>
<pdfrwt beam="1">  1        1 0.34575932E-02 0.80655626E+02</pdfrwt>
<pdfrwt beam="2">  1       -2 0.11132911E-01 0.80655626E+02</pdfrwt>
<totfact> 0.11179630E+05</totfact>
</mgrwt>
</event>
<event>
 8    1  0.8247621E-014  0.8141652E+02  0.7818608E-02  0.1325079E+00
         -2   -1    0    0    0  501 -0.00000000000E+00  0.00000000000E+00  0.40441919513E+02  0.40441919593E+02  0.25500000000E-02 0.  1.
          1   -1    0    0  501    0  0.00000000000E+00 -0.00000000000E+00 -0.40976358183E+02  0.40976358493E+02  0.50400000000E-02 0. -1.
        -24    2    1    2    0    0  0.00000000000E+00 -0.35527136788E-14 -0.53443867057E+00  0.81418278086E+02  0.81416524010E+02 0.  0.
         66    2    3    3    0    0 -0.15071122863E+02  0.27429931422E+02  0.25725827497E+02  0.40563013732E+02  0.20000001123E+01 0.  0.
         13    1    3    3    0    0  0.15071122863E+02 -0.27429931422E+02 -0.26260266168E+02  0.40855264354E+02  0.10566000000E+00 0. -1.
         13    1    4    4    0    0 -0.18848456264E+00  0.37754284518E+00  0.20093122712E+00  0.47916847134E+00  0.10566000000E+00 0. -1.
        -13    1    4    4    0    0 -0.14216031455E+02  0.25146406361E+02  0.23893230622E+02  0.37487797172E+02  0.10566000000E+00 0.  1.
        -14    1    4    4    0    0 -0.66660684551E+00  0.19059822156E+01  0.16316656481E+01  0.25960480889E+01  0.00000000000E+00 0.  1.
<mgrwt>
<rscale>  0 0.81416524E+02</rscale>
<asrwt>0</asrwt>
<pdfrwt beam="1">  1        1 0.63040552E-02 0.81416524E+02</pdfrwt>
<pdfrwt beam="2">  1       -2 0.62218337E-02 0.81416524E+02</pdfrwt>
<totfact> 0.12132116E+05</totfact>
</mgrwt>
</event>
<event>
 8    1  0.8247621E-014  0.8311293E+02  0.7818608E-02  0.1320443E+00
         -2   -1    0    0    0  501 -0.00000000000E+00  0.00000000000E+00  0.49708617054E+01  0.49708623595E+01  0.25500000000E-02 0.  1.
          1   -1    0    0  501    0  0.00000000000E+00 -0.00000000000E+00 -0.34741253084E+03  0.34741253087E+03  0.50400000000E-02 0. -1.
        -24    2    1    2    0    0  0.00000000000E+00  0.00000000000E+00 -0.34244166913E+03  0.35238339323E+03  0.83112929613E+02 0.  0.
         66    2    3    3    0    0 -0.20956753060E+01 -0.39530253364E+02 -0.11804259818E+03  0.12451942725E+03  0.19999978396E+01 0.  0.
         13    1    3    3    0    0  0.20956753060E+01  0.39530253364E+02 -0.22439907095E+03  0.22786396598E+03  0.10566000000E+00 0. -1.
         13    1    4    4    0    0 -0.52247219193E+00 -0.16076734983E+02 -0.50042550668E+02  0.52564269483E+02  0.10566000000E+00 0. -1.
        -13    1    4    4    0    0 -0.93422734945E+00 -0.12966776300E+02 -0.39090897787E+02  0.41196110523E+02  0.10566000000E+00 0.  1.
        -14    1    4    4    0    0 -0.63897576463E+00 -0.10486742081E+02 -0.28909149725E+02  0.30759047244E+02  0.00000000000E+00 0.  1.
<mgrwt>
<rscale>  0 0.83112930E+02</rscale>
<asrwt>0</asrwt>
<pdfrwt beam="1">  1        1 0.53448063E-01 0.83112930E+02</pdfrwt>
<pdfrwt beam="2">  1       -2 0.76474828E-03 0.83112930E+02</pdfrwt>
<totfact> 0.16763932E+05</totfact>
</mgrwt>
</event>
<event>
 8    1  0.8247621E-014  0.8089329E+02  0.7818608E-02  0.1326535E+00
         -2   -1    0    0    0  501 -0.00000000000E+00  0.00000000000E+00  0.85711984321E+03  0.85711984321E+03  0.25500000000E-02 0.  1.
          1   -1    0    0  501    0  0.00000000000E+00 -0.00000000000E+00 -0.19086341057E+01  0.19086407601E+01  0.50400000000E-02 0. -1.
        -24    2    1    2    0    0  0.00000000000E+00  0.35527136788E-14  0.85521120910E+03  0.85902848397E+03  0.80893288354E+02 0.  0.
         66    2    3    3    0    0  0.27992876044E+02  0.20654627694E+02  0.64645616114E+03  0.64739461152E+03  0.19999992957E+01 0.  0.
         13    1    3    3    0    0 -0.27992876044E+02 -0.20654627694E+02  0.20875504796E+03  0.21163387245E+03  0.10566000000E+00 0. -1.
         13    1    4    4    0    0  0.70608118788E+01  0.47922465892E+01  0.17314269716E+03  0.17335289278E+03  0.10566000000E+00 0. -1.
        -13    1    4    4    0    0  0.14946655098E+02  0.11491976475E+02  0.34153614302E+03  0.34205615939E+03  0.10566000000E+00 0.  1.
         14    1    4    4    0    0  0.59854090675E+01  0.43704046303E+01  0.13177732096E+03  0.13198555935E+03  0.00000000000E+00 0. -1.
<mgrwt>
<rscale>  0 0.80893288E+02</rscale>
<asrwt>0</asrwt>
<pdfrwt beam="1">  1        1 0.29363687E-03 0.80893288E+02</pdfrwt>
<pdfrwt beam="2">  1       -2 0.13186444E+00 0.80893288E+02</pdfrwt>
<totfact> 0.30063607E+04</totfact>
</mgrwt>
</event>
<event>
 8    1  0.8247621E-014  0.8015962E+02  0.7818608E-02  0.1328599E+00
         -2   -1    0    0    0  501 -0.00000000000E+00  0.00000000000E+00  0.28893626864E+02  0.28893626976E+02  0.25500000000E-02 0.  1.
          1   -1    0    0  501    0  0.00000000000E+00 -0.00000000000E+00 -0.55596735937E+02  0.55596736166E+02  0.50400000000E-02 0. -1.
        -24    2    1    2    0    0  0.00000000000E+00  0.00000000000E+00 -0.26703109074E+02  0.84490363142E+02  0.80159624685E+02 0.  0.
         66    2    3    3    0    0  0.35869916883E+02  0.72872092280E+01 -0.30506233419E+02  0.47690508872E+02  0.20000008829E+01 0.  0.
         13    1    3    3    0    0 -0.35869916883E+02 -0.72872092280E+01  0.38031243451E+01  0.36799854270E+02  0.10566000000E+00 0. -1.
         13    1    4    4    0    0  0.22892680492E+01  0.23334201130E+00 -0.20367119166E+01  0.30748262003E+01  0.10566000000E+00 0. -1.
        -13    1    4    4    0    0  0.19092536754E+02  0.34820091931E+01 -0.16886178393E+02  0.25725542414E+02  0.10566000000E+00 0.  1.
         14    1    4    4    0    0  0.14488112079E+02  0.35718580235E+01 -0.11583343110E+02  0.18890140258E+02  0.00000000000E+00 0. -1.
<mgrwt>
<rscale>  0 0.80159625E+02</rscale>
<asrwt>0</asrwt>
<pdfrwt beam="1">  1        1 0.85533440E-02 0.80159625E+02</pdfrwt>
<pdfrwt beam="2">  1       -2 0.44451734E-02 0.80159625E+02</pdfrwt>
<totfact> 0.13304300E+05</totfact>
</mgrwt>
</event>
<event>
 8    1  0.8247621E-014  0.7909772E+02  0.7818608E-02  0.1331632E+00
          1   -1    0    0  501    0  0.00000000000E+00  0.00000000000E+00  0.20261673950E+02  0.20261674577E+02  0.50400000000E-02 0. -1.
         -2   -1    0    0    0  501 -0.00000000000E+00 -0.00000000000E+00 -0.77195603722E+02  0.77195603764E+02  0.25500000000E-02 0.  1.
        -24    2    1    2    0    0  0.55511151231E-16  0.71054273576E-14 -0.56933929771E+02  0.97457278341E+02  0.79097716417E+02 0.  0.
         66    2    3    3    0    0  0.37878173865E+00 -0.35093557339E+02 -0.60889163025E+01  0.35675988285E+02  0.19999990217E+01 0.  0.
         13    1    3    3    0    0 -0.37878173865E+00  0.35093557339E+02 -0.50845013469E+02  0.61781290056E+02  0.10566000000E+00 0. -1.
         13    1    4    4    0    0 -0.46979008344E+00 -0.44822956638E+01 -0.11043760981E+01  0.46413885575E+01  0.10566000000E+00 0. -1.
        -13    1    4    4    0    0  0.13700118792E+00 -0.97371802007E+01 -0.12815915545E+01  0.98226823493E+01  0.10566000000E+00 0.  1.
         14    1    4    4    0    0  0.71157063417E+00 -0.20874081474E+02 -0.37029486499E+01  0.21211917378E+02  0.00000000000E+00 0. -1.
<mgrwt>
<rscale>  0 0.79097716E+02</rscale>
<asrwt>0</asrwt>
<pdfrwt beam="1">  1        1 0.31171807E-02 0.79097716E+02</pdfrwt>
<pdfrwt beam="2">  1       -2 0.11876247E-01 0.79097716E+02</pdfrwt>
<totfact> 0.11591567E+05</totfact>
</mgrwt>
</event>
<event>
 8    1  0.8247621E-014  0.7398600E+02  0.7818608E-02  0.1347040E+00
          1   -1    0    0  501    0  0.00000000000E+00  0.00000000000E+00  0.28374090962E+01  0.28374135724E+01  0.50400000000E-02 0. -1.
         -2   -1    0    0    0  501 -0.00000000000E+00 -0.00000000000E+00 -0.48229943775E+03  0.48229943776E+03  0.25500000000E-02 0.  1.
        -24    2    1    2    0    0  0.88817841970E-15 -0.35527136788E-14 -0.47946202866E+03  0.48513685133E+03  0.73985995950E+02 0.  0.
         66    2    3    3    0    0  0.61088352325E+01 -0.26773756413E+02 -0.40216358163E+03  0.40310507104E+03  0.20000030154E+01 0.  0.
         13    1    3    3    0    0 -0.61088352325E+01  0.26773756413E+02 -0.77298447029E+02  0.82031780289E+02  0.10566000000E+00 0. -1.
         13    1    4    4    0    0  0.76005854982E+00 -0.26259726522E+01 -0.35105678074E+02  0.35212117494E+02  0.10566000000E+00 0. -1.
        -13    1    4    4    0    0  0.48767827971E+01 -0.19933431437E+02 -0.30823713731E+03  0.30891951813E+03  0.10566000000E+00 0.  1.
         14    1    4    4    0    0  0.47199388559E+00 -0.42143523242E+01 -0.58820766239E+02  0.58973435415E+02  0.00000000000E+00 0. -1.
<mgrwt>
<rscale>  0 0.73985996E+02</rscale>
<asrwt>0</asrwt>
<pdfrwt beam="1">  1        1 0.43652521E-03 0.73985996E+02</pdfrwt>
<pdfrwt beam="2">  1       -2 0.74199848E-01 0.73985996E+02</pdfrwt>
<totfact> 0.63325212E+04</totfact>
</mgrwt>
</event>
<event>
 8    1  0.8247621E-014  0.7863612E+02  0.7818608E-02  0.1332967E+00
          1   -1    0    0  501    0  0.00000000000E+00  0.00000000000E+00  0.12077290393E+03  0.12077290404E+03  0.50400000000E-02 0. -1.
         -2   -1    0    0    0  501 -0.00000000000E+00 -0.00000000000E+00 -0.12800137949E+02  0.12800138203E+02  0.25500000000E-02 0.  1.
        -24    2    1    2    0    0  0.00000000000E+00 -0.88817841970E-15  0.10797276598E+03  0.13357304224E+03  0.78636120321E+02 0.  0.
         66    2    3    3    0    0  0.34973086648E+02  0.63506425182E+01  0.82467799530E+02  0.89824191651E+02  0.19999990581E+01 0.  0.
         13    1    3    3    0    0 -0.34973086648E+02 -0.63506425182E+01  0.25504966454E+02  0.43748850590E+02  0.10566000000E+00 0. -1.
         13    1    4    4    0    0  0.32822144824E+01  0.82052657147E+00  0.83694420600E+01  0.90280075429E+01  0.10566000000E+00 0. -1.
        -13    1    4    4    0    0  0.38913553231E+01  0.37185251217E+00  0.80050785562E+01  0.89091732090E+01  0.10566000000E+00 0.  1.
        -14    1    4    4    0    0  0.27799516843E+02  0.51582634346E+01  0.66093278914E+02  0.71887010899E+02  0.00000000000E+00 0.  1.
<mgrwt>
<rscale>  0 0.78636120E+02</rscale>
<asrwt>0</asrwt>
<pdfrwt beam="1">  1        1 0.18580447E-01 0.78636120E+02</pdfrwt>
<pdfrwt beam="2">  1       -2 0.19692520E-02 0.78636120E+02</pdfrwt>
<totfact> 0.15900771E+05</totfact>
</mgrwt>
</event>
<event>
 8    1  0.8247621E-014  0.8023367E+02  0.7818608E-02  0.1328390E+00
         -2   -1    0    0    0  501 -0.00000000000E+00  0.00000000000E+00  0.95332828034E+01  0.95332831445E+01  0.25500000000E-02 0.  1.
          1   -1    0    0  501    0  0.00000000000E+00 -0.00000000000E+00 -0.16881491314E+03  0.16881491321E+03  0.50400000000E-02 0. -1.
        -24    2    1    2    0    0  0.00000000000E+00 -0.35527136788E-14 -0.15928163033E+03  0.17834819636E+03  0.80233667385E+02 0.  0.
         66    2    3    3    0    0 -0.33295791959E+02  0.21026949937E+02 -0.96415317899E+02  0.10416648170E+03  0.19999997321E+01 0.  0.
         13    1    3    3    0    0  0.33295791959E+02 -0.21026949937E+02 -0.62866312435E+02  0.74181714654E+02  0.10566000000E+00 0. -1.
         13    1    4    4    0    0 -0.56026067357E+01  0.42390076197E+01 -0.16876830578E+02  0.18281054735E+02  0.10566000000E+00 0. -1.
        -13    1    4    4    0    0 -0.10485695003E+02  0.68535628534E+01 -0.29945889402E+02  0.32460569613E+02  0.10566000000E+00 0.  1.
         14    1    4    4    0    0 -0.17207490220E+02  0.99343794644E+01 -0.49592597919E+02  0.53424857355E+02  0.00000000000E+00 0. -1.
<mgrwt>
<rscale>  0 0.80233667E+02</rscale>
<asrwt>0</asrwt>
<pdfrwt beam="1">  1        1 0.25971523E-01 0.80233667E+02</pdfrwt>
<pdfrwt beam="2">  1       -2 0.14666590E-02 0.80233667E+02</pdfrwt>
<totfact> 0.16015529E+05</totfact>
</mgrwt>
</event>
<event>
 8    1  0.8247621E-014  0.7953092E+02  0.7818608E-02  0.1330388E+00
         -2   -1    0    0    0  501 -0.00000000000E+00  0.00000000000E+00  0.14649347876E+03  0.14649347878E+03  0.25500000000E-02 0.  1.
          1   -1    0    0  501    0  0.00000000000E+00 -0.00000000000E+00 -0.10794280643E+02  0.10794281820E+02  0.50400000000E-02 0. -1.
        -24    2    1    2    0    0  0.00000000000E+00  0.00000000000E+00  0.13569919811E+03  0.15728776060E+03  0.79530920184E+02 0.  0.
         66    2    3    3    0    0  0.14894380171E+02 -0.30566657927E+02  0.10857347984E+03  0.11379087687E+03  0.19999997011E+01 0.  0.
         13    1    3    3    0    0 -0.14894380171E+02  0.30566657927E+02  0.27125718277E+02  0.43496883723E+02  0.10566000000E+00 0. -1.
         13    1    4    4    0    0  0.40675527995E+00 -0.70463531123E+00  0.23617398512E+01  0.25001879809E+01  0.10566000000E+00 0.  1.
        -13    1    4    4    0    0  0.42601216996E+01 -0.10668547813E+02  0.36923258868E+02  0.38669170651E+02  0.10566000000E+00 0.  1.
        -14    1    4    4    0    0  0.10227503191E+02 -0.19193474803E+02  0.69288481116E+02  0.72621518243E+02  0.00000000000E+00 0.  1.
<mgrwt>
<rscale>  0 0.79530920E+02</rscale>
<asrwt>0</asrwt>
<pdfrwt beam="1">  1        1 0.16606587E-02 0.79530920E+02</pdfrwt>
<pdfrwt beam="2">  1       -2 0.22537457E-01 0.79530920E+02</pdfrwt>
<totfact> 0.96693384E+04</totfact>
</mgrwt>
</event>
<event>
 8    1  0.8247621E-014  0.8060223E+02  0.7818608E-02  0.1327351E+00
         -2   -1    0    0    0  501 -0.00000000000E+00  0.00000000000E+00  0.10643104444E+02  0.10643104749E+02  0.25500000000E-02 0.  1.
          1   -1    0    0  501    0  0.00000000000E+00 -0.00000000000E+00 -0.15260396947E+03  0.15260396956E+03  0.50400000000E-02 0. -1.
        -24    2    1    2    0    0  0.88817841970E-15  0.00000000000E+00 -0.14196086503E+03  0.16324707431E+03  0.80602233651E+02 0.  0.
         66    2    3    3    0    0 -0.61236688982E+01 -0.31061133586E+02 -0.20598219472E+02  0.37823008668E+02  0.19999997162E+01 0.  0.
         13    1    3    3    0    0  0.61236688982E+01  0.31061133586E+02 -0.12136264556E+03  0.12542406564E+03  0.10566000000E+00 0. -1.
         13    1    4    4    0    0 -0.38674770345E+01 -0.15770066205E+02 -0.10755890506E+02  0.19476979009E+02  0.10566000000E+00 0. -1.
        -13    1    4    4    0    0 -0.12384962228E+01 -0.11107578735E+02 -0.70935809442E+01  0.13237908932E+02  0.10566000000E+00 0.  1.
        -14    1    4    4    0    0 -0.10176956409E+01 -0.41834886463E+01 -0.27487480222E+01  0.51081207270E+01  0.00000000000E+00 0.  1.
<mgrwt>
<rscale>  0 0.80602234E+02</rscale>
<asrwt>0</asrwt>
<pdfrwt beam="1">  1        1 0.23477532E-01 0.80602234E+02</pdfrwt>
<pdfrwt beam="2">  1       -2 0.16374008E-02 0.80602234E+02</pdfrwt>
<totfact> 0.15524495E+05</totfact>
</mgrwt>
</event>
<event>
 8    1  0.8247621E-014  0.7981633E+02  0.7818608E-02  0.1329573E+00
          1   -1    0    0  501    0  0.00000000000E+00  0.00000000000E+00  0.22636284662E+03  0.22636284667E+03  0.50400000000E-02 0. -1.
         -2   -1    0    0    0  501 -0.00000000000E+00 -0.00000000000E+00 -0.70358790562E+01  0.70358795183E+01  0.25500000000E-02 0.  1.
        -24    2    1    2    0    0  0.00000000000E+00  0.00000000000E+00  0.21932696756E+03  0.23339872619E+03  0.79816330963E+02 0.  0.
         66    2    3    3    0    0  0.32613931141E+02 -0.19125301514E+02  0.14686036709E+03  0.15166216760E+03  0.19999992059E+01 0.  0.
         13    1    3    3    0    0 -0.32613931141E+02  0.19125301514E+02  0.72466600468E+02  0.81736558589E+02  0.10566000000E+00 0. -1.
         13    1    4    4    0    0  0.64852626998E+01 -0.45675728250E+01  0.29805164500E+02  0.30842833020E+02  0.10566000000E+00 0. -1.
        -13    1    4    4    0    0  0.17755218196E+02 -0.10073487660E+02  0.78384599198E+02  0.80999256060E+02  0.10566000000E+00 0.  1.
        -14    1    4    4    0    0  0.83734502453E+01 -0.44842410293E+01  0.38670603396E+02  0.39820078524E+02  0.00000000000E+00 0.  1.
<mgrwt>
<rscale>  0 0.79816331E+02</rscale>
<asrwt>0</asrwt>
<pdfrwt beam="1">  1        1 0.34825049E-01 0.79816331E+02</pdfrwt>
<pdfrwt beam="2">  1       -2 0.10824431E-02 0.79816331E+02</pdfrwt>
<totfact> 0.17185352E+05</totfact>
</mgrwt>
</event>
<event>
 8    1  0.8247621E-014  0.7716436E+02  0.7818608E-02  0.1337297E+00
          1   -1    0    0  501    0  0.00000000000E+00  0.00000000000E+00  0.11883464820E+02  0.11883465889E+02  0.50400000000E-02 0. -1.
         -2   -1    0    0    0  501 -0.00000000000E+00 -0.00000000000E+00 -0.12526518053E+03  0.12526518056E+03  0.25500000000E-02 0.  1.
        -24    2    1    2    0    0  0.17763568394E-14  0.00000000000E+00 -0.11338171571E+03  0.13714864645E+03  0.77164355531E+02 0.  0.
         66    2    3    3    0    0 -0.13890025768E+02  0.22452678138E+02 -0.10666985995E+03  0.10990684505E+03  0.19999989024E+01 0.  0.
         13    1    3    3    0    0  0.13890025768E+02 -0.22452678138E+02 -0.67118557579E+01  0.27241801394E+02  0.10566000000E+00 0. -1.
         13    1    4    4    0    0 -0.11171809570E+01  0.12780284597E+01 -0.77757460691E+01  0.79595754284E+01  0.10566000000E+00 0. -1.
        -13    1    4    4    0    0 -0.11290444475E+02  0.18181046183E+02 -0.86903308722E+02  0.89499836914E+02  0.10566000000E+00 0.  1.
         14    1    4    4    0    0 -0.14824003360E+01  0.29936034959E+01 -0.11990805161E+02  0.12447432709E+02  0.00000000000E+00 0. -1.
<mgrwt>
<rscale>  0 0.77164356E+02</rscale>
<asrwt>0</asrwt>
<pdfrwt beam="1">  1        1 0.18282255E-02 0.77164356E+02</pdfrwt>
<pdfrwt beam="2">  1       -2 0.19271565E-01 0.77164356E+02</pdfrwt>
<totfact> 0.10960897E+05</totfact>
</mgrwt>
</event>
<event>
 8    1  0.8247621E-014  0.7974502E+02  0.7818608E-02  0.1329777E+00
          1   -1    0    0  501    0  0.00000000000E+00  0.00000000000E+00  0.88141557993E+02  0.88141558137E+02  0.50400000000E-02 0. -1.
         -2   -1    0    0    0  501 -0.00000000000E+00 -0.00000000000E+00 -0.18037086084E+02  0.18037086265E+02  0.25500000000E-02 0.  1.
        -24    2    1    2    0    0  0.35527136788E-14 -0.17763568394E-14  0.70104471908E+02  0.10617864440E+03  0.79745015802E+02 0.  0.
         66    2    3    3    0    0  0.29118551124E+02  0.13575200123E+02  0.36887435618E+01  0.32400353463E+02  0.19999993724E+01 0.  0.
         13    1    3    3    0    0 -0.29118551124E+02 -0.13575200123E+02  0.66415728347E+02  0.73778290938E+02  0.10566000000E+00 0. -1.
         13    1    4    4    0    0  0.77930051290E+01  0.34216701245E+01  0.17132967329E+01  0.86824711409E+01  0.10566000000E+00 0.  1.
        -13    1    4    4    0    0  0.16593618563E+02  0.75532468338E+01  0.17075363688E+01  0.18311923963E+02  0.10566000000E+00 0. -1.
         14    1    4    4    0    0  0.47319274319E+01  0.26002831651E+01  0.26791046006E+00  0.54059583585E+01  0.00000000000E+00 0. -1.
<mgrwt>
<rscale>  0 0.79745016E+02</rscale>
<asrwt>0</asrwt>
<pdfrwt beam="1">  1        1 0.13560240E-01 0.79745016E+02</pdfrwt>
<pdfrwt beam="2">  1       -2 0.27749364E-02 0.79745016E+02</pdfrwt>
<totfact> 0.14519538E+05</totfact>
</mgrwt>
</event>
<event>
 8    1  0.8247621E-014  0.7856097E+02  0.7818608E-02  0.1333185E+00
          1   -1    0    0  501    0  0.00000000000E+00  0.00000000000E+00  0.14644139243E+03  0.14644139251E+03  0.50400000000E-02 0. -1.
         -2   -1    0    0    0  501 -0.00000000000E+00 -0.00000000000E+00 -0.10536342424E+02  0.10536342732E+02  0.25500000000E-02 0.  1.
        -24    2    1    2    0    0 -0.71054273576E-14 -0.17763568394E-14  0.13590505000E+03  0.15697773524E+03  0.78560974704E+02 0.  0.
         66    2    3    3    0    0  0.32365174206E+02  0.10911566903E+02  0.29333901885E+02  0.45067112118E+02  0.20000002825E+01 0.  0.
         13    1    3    3    0    0 -0.32365174206E+02 -0.10911566903E+02  0.10657114812E+03  0.11191062313E+03  0.10566000000E+00 0. -1.
         13    1    4    4    0    0  0.76520118486E+01  0.21220657663E+01  0.63949884544E+01  0.10196248811E+02  0.10566000000E+00 0. -1.
        -13    1    4    4    0    0  0.16656670627E+02  0.54038546335E+01  0.15817882333E+02  0.23597942427E+02  0.10566000000E+00 0.  1.
         14    1    4    4    0    0  0.80564917310E+01  0.33856465035E+01  0.71210310982E+01  0.11272920880E+02  0.00000000000E+00 0. -1.
<mgrwt>
<rscale>  0 0.78560975E+02</rscale>
<asrwt>0</asrwt>
<pdfrwt beam="1">  1        1 0.22529445E-01 0.78560975E+02</pdfrwt>
<pdfrwt beam="2">  1       -2 0.16209758E-02 0.78560975E+02</pdfrwt>
<totfact> 0.16499617E+05</totfact>
</mgrwt>
</event>
<event>
 8    1  0.8247621E-014  0.8035692E+02  0.7818608E-02  0.1328042E+00
          1   -1    0    0  501    0  0.00000000000E+00  0.00000000000E+00  0.23452061073E+01  0.23452115229E+01  0.50400000000E-02 0. -1.
         -2   -1    0    0    0  501 -0.00000000000E+00 -0.00000000000E+00 -0.68834328627E+03  0.68834328627E+03  0.25500000000E-02 0.  1.
        -24    2    1    2    0    0  0.00000000000E+00 -0.88817841970E-15 -0.68599808016E+03  0.69068849780E+03  0.80356922558E+02 0.  0.
         66    2    3    3    0    0  0.15785285111E+02  0.48755163463E+01 -0.65777364002E+03  0.65798412392E+03  0.19999831045E+01 0.  0.
         13    1    3    3    0    0 -0.15785285111E+02 -0.48755163463E+01 -0.28224440139E+02  0.32704373880E+02  0.10566000000E+00 0. -1.
         13    1    4    4    0    0  0.84800809491E+00  0.15739619513E+00 -0.29502891990E+02  0.29515685510E+02  0.10566000000E+00 0.  1.
        -13    1    4    4    0    0  0.14601483870E+02  0.48713972531E+01 -0.61363977124E+03  0.61383280610E+03  0.10566000000E+00 0.  1.
        -14    1    4    4    0    0  0.33579314594E+00 -0.15327710202E+00 -0.14630976794E+02  0.14635632301E+02  0.00000000000E+00 0.  1.
<mgrwt>
<rscale>  0 0.80356923E+02</rscale>
<asrwt>0</asrwt>
<pdfrwt beam="1">  1        1 0.36080191E-03 0.80356923E+02</pdfrwt>
<pdfrwt beam="2">  1       -2 0.10589881E+00 0.80356923E+02</pdfrwt>
<totfact> 0.38003175E+04</totfact>
</mgrwt>
</event>
<event>
 8    1  0.8247621E-014  0.7980732E+02  0.7818608E-02  0.1329599E+00
          1   -1    0    0  501    0  0.00000000000E+00  0.00000000000E+00  0.78001041436E+02  0.78001041599E+02  0.50400000000E-02 0. -1.
         -2   -1    0    0    0  501 -0.00000000000E+00 -0.00000000000E+00 -0.20413857698E+02  0.20413857858E+02  0.25500000000E-02 0.  1.
        -24    2    1    2    0    0  0.35527136788E-14  0.17763568394E-14  0.57587183738E+02  0.98414899457E+02  0.79807322372E+02 0.  0.
         66    2    3    3    0    0 -0.12369082552E+02 -0.13590136651E+02 -0.14832547696E+02  0.23700010162E+02  0.19999982864E+01 0.  0.
         13    1    3    3    0    0  0.12369082552E+02  0.13590136651E+02  0.72419731434E+02  0.74714889295E+02  0.10566000000E+00 0. -1.
         13    1    4    4    0    0 -0.18119279481E+01 -0.26022273274E+01 -0.20186733994E+01  0.37604356505E+01  0.10566000000E+00 0. -1.
        -13    1    4    4    0    0 -0.53252633347E+01 -0.61061129610E+01 -0.63116845825E+01  0.10270908985E+02  0.10566000000E+00 0.  1.
         14    1    4    4    0    0 -0.52318912695E+01 -0.48817963623E+01 -0.65021897141E+01  0.96686655262E+01  0.00000000000E+00 0. -1.
<mgrwt>
<rscale>  0 0.79807322E+02</rscale>
<asrwt>0</asrwt>
<pdfrwt beam="1">  1        1 0.12000160E-01 0.79807322E+02</pdfrwt>
<pdfrwt beam="2">  1       -2 0.31405935E-02 0.79807322E+02</pdfrwt>
<totfact> 0.14204927E+05</totfact>
</mgrwt>
</event>
<event>
 8    1  0.8247621E-014  0.7951265E+02  0.7818608E-02  0.1330440E+00
          1   -1    0    0  501    0  0.00000000000E+00  0.00000000000E+00  0.68125722414E+02  0.68125722601E+02  0.50400000000E-02 0. -1.
         -2   -1    0    0    0  501 -0.00000000000E+00 -0.00000000000E+00 -0.23200712526E+02  0.23200712666E+02  0.25500000000E-02 0.  1.
        -24    2    1    2    0    0 -0.35527136788E-14  0.35527136788E-14  0.44925009888E+02  0.91326435266E+02  0.79512648459E+02 0.  0.
         66    2    3    3    0    0 -0.29776320514E+02  0.15797992183E+02 -0.16804639330E+01  0.33808723433E+02  0.20000001986E+01 0.  0.
         13    1    3    3    0    0  0.29776320514E+02 -0.15797992183E+02  0.46605473821E+02  0.57517711833E+02  0.10566000000E+00 0. -1.
         13    1    4    4    0    0 -0.42442780384E+01  0.18678549499E+01  0.15480574596E+00  0.46408950684E+01  0.10566000000E+00 0. -1.
        -13    1    4    4    0    0 -0.22382402142E+02  0.12575074365E+02 -0.18394738083E+01  0.25739060761E+02  0.10566000000E+00 0.  1.
        -14    1    4    4    0    0 -0.31496403337E+01  0.13550628689E+01  0.42041293769E-02  0.34287676044E+01  0.00000000000E+00 0.  1.
<mgrwt>
<rscale>  0 0.79512648E+02</rscale>
<asrwt>0</asrwt>
<pdfrwt beam="1">  1        1 0.10480880E-01 0.79512648E+02</pdfrwt>
<pdfrwt beam="2">  1       -2 0.35693404E-02 0.79512648E+02</pdfrwt>
<totfact> 0.14044442E+05</totfact>
</mgrwt>
</event>
<event>
 8    1  0.8247621E-014  0.8022403E+02  0.7818608E-02  0.1328417E+00
          1   -1    0    0  501    0  0.00000000000E+00  0.00000000000E+00  0.37188379345E+02  0.37188379686E+02  0.50400000000E-02 0. -1.
         -2   -1    0    0    0  501 -0.00000000000E+00 -0.00000000000E+00 -0.43265494246E+02  0.43265494321E+02  0.25500000000E-02 0.  1.
        -24    2    1    2    0    0  0.35527136788E-14  0.00000000000E+00 -0.60771149011E+01  0.80453874008E+02  0.80224027058E+02 0.  0.
         66    2    3    3    0    0 -0.25647246072E+02  0.16981283658E+02 -0.28820577783E+02  0.42199181569E+02  0.19999988965E+01 0.  0.
         13    1    3    3    0    0  0.25647246072E+02 -0.16981283658E+02  0.22743462882E+02  0.38254692439E+02  0.10566000000E+00 0. -1.
         13    1    4    4    0    0 -0.60985480411E+00  0.21946836373E+00 -0.83472818807E+00  0.10620849440E+01  0.10566000000E+00 0. -1.
        -13    1    4    4    0    0 -0.10319643815E+02  0.72065892107E+01 -0.11038010210E+02  0.16741529499E+02  0.10566000000E+00 0.  1.
        -14    1    4    4    0    0 -0.14717747452E+02  0.95552260836E+01 -0.16947839384E+02  0.24395567125E+02  0.00000000000E+00 0.  1.
<mgrwt>
<rscale>  0 0.80224027E+02</rscale>
<asrwt>0</asrwt>
<pdfrwt beam="1">  1        1 0.57212892E-02 0.80224027E+02</pdfrwt>
<pdfrwt beam="2">  1       -2 0.66562299E-02 0.80224027E+02</pdfrwt>
<totfact> 0.12447791E+05</totfact>
</mgrwt>
</event>
<event>
 8    1  0.8247621E-014  0.7962211E+02  0.7818608E-02  0.1330127E+00
          1   -1    0    0  501    0  0.00000000000E+00  0.00000000000E+00  0.36413308839E+03  0.36413308842E+03  0.50400000000E-02 0. -1.
         -2   -1    0    0    0  501 -0.00000000000E+00 -0.00000000000E+00 -0.43525846892E+01  0.43525854362E+01  0.25500000000E-02 0.  1.
        -24    2    1    2    0    0  0.00000000000E+00  0.00000000000E+00  0.35978050370E+03  0.36848567386E+03  0.79622113747E+02 0.  0.
         66    2    3    3    0    0 -0.23905752387E+02  0.31330415162E+02  0.20528200686E+03  0.20904014523E+03  0.20000161181E+01 0.  0.
         13    1    3    3    0    0  0.23905752387E+02 -0.31330415162E+02  0.15449849684E+03  0.15944552863E+03  0.10566000000E+00 0. -1.
         13    1    4    4    0    0 -0.76454162802E+01  0.10966248570E+02  0.66487396915E+02  0.67818110490E+02  0.10566000000E+00 0. -1.
        -13    1    4    4    0    0 -0.39137883430E+01  0.53070398696E+01  0.33976965112E+02  0.34611092638E+02  0.10566000000E+00 0.  1.
         14    1    4    4    0    0 -0.12346547763E+02  0.15057126722E+02  0.10481764483E+03  0.10661094210E+03  0.00000000000E+00 0. -1.
<mgrwt>
<rscale>  0 0.79622114E+02</rscale>
<asrwt>0</asrwt>
<pdfrwt beam="1">  1        1 0.56020469E-01 0.79622114E+02</pdfrwt>
<pdfrwt beam="2">  1       -2 0.66962855E-03 0.79622114E+02</pdfrwt>
<totfact> 0.18927445E+05</totfact>
</mgrwt>
</event>
<event>
 8    1  0.8247621E-014  0.7948995E+02  0.7818608E-02  0.1330505E+00
          1   -1    0    0  501    0  0.00000000000E+00  0.00000000000E+00  0.69464270560E+01  0.69464288844E+01  0.50400000000E-02 0. -1.
         -2   -1    0    0    0  501 -0.00000000000E+00 -0.00000000000E+00 -0.22740650869E+03  0.22740650870E+03  0.25500000000E-02 0.  1.
        -24    2    1    2    0    0  0.35527136788E-14 -0.35527136788E-14 -0.22046008163E+03  0.23435293759E+03  0.79489947555E+02 0.  0.
         66    2    3    3    0    0  0.23786505867E+02 -0.29872701078E+02 -0.14252583013E+03  0.14756621710E+03  0.20000112347E+01 0.  0.
         13    1    3    3    0    0 -0.23786505867E+02  0.29872701078E+02 -0.77934251508E+02  0.86786720489E+02  0.10566000000E+00 0. -1.
         13    1    4    4    0    0  0.36861265827E+01 -0.45791798983E+01 -0.20868655849E+02  0.21681060368E+02  0.10566000000E+00 0. -1.
        -13    1    4    4    0    0  0.55687623104E+01 -0.81329687413E+01 -0.35865245653E+02  0.37195205390E+02  0.10566000000E+00 0.  1.
         14    1    4    4    0    0  0.14531616974E+02 -0.17160552439E+02 -0.85791928625E+02  0.88689951342E+02  0.00000000000E+00 0. -1.
<mgrwt>
<rscale>  0 0.79489948E+02</rscale>
<asrwt>0</asrwt>
<pdfrwt beam="1">  1        1 0.10686814E-02 0.79489948E+02</pdfrwt>
<pdfrwt beam="2">  1       -2 0.34985611E-01 0.79489948E+02</pdfrwt>
<totfact> 0.81896549E+04</totfact>
</mgrwt>
</event>
<event>
 8    1  0.8247621E-014  0.7955090E+02  0.7818608E-02  0.1330331E+00
          1   -1    0    0  501    0  0.00000000000E+00  0.00000000000E+00  0.87798853170E+01  0.87798867636E+01  0.50400000000E-02 0. -1.
         -2   -1    0    0    0  501 -0.00000000000E+00 -0.00000000000E+00 -0.18019442997E+03  0.18019442998E+03  0.25500000000E-02 0.  1.
        -24    2    1    2    0    0  0.00000000000E+00 -0.71054273576E-14 -0.17141454465E+03  0.18897431675E+03  0.79550903659E+02 0.  0.
         66    2    3    3    0    0 -0.12717873341E+02  0.36695967676E+02 -0.10588223338E+03  0.11279798624E+03  0.20000017692E+01 0.  0.
         13    1    3    3    0    0  0.12717873341E+02 -0.36695967676E+02 -0.65532311264E+02  0.76176330508E+02  0.10566000000E+00 0. -1.
         13    1    4    4    0    0 -0.64732407720E+01  0.20566939812E+02 -0.58768790872E+02  0.62599391402E+02  0.10566000000E+00 0.  1.
        -13    1    4    4    0    0 -0.80434074867E+00  0.16509772133E+01 -0.58151178347E+01  0.60991351244E+01  0.10566000000E+00 0. -1.
         14    1    4    4    0    0 -0.54402918202E+01  0.14478050651E+02 -0.41298324678E+02  0.44099459713E+02  0.00000000000E+00 0. -1.
<mgrwt>
<rscale>  0 0.79550904E+02</rscale>
<asrwt>0</asrwt>
<pdfrwt beam="1">  1        1 0.13507518E-02 0.79550904E+02</pdfrwt>
<pdfrwt beam="2">  1       -2 0.27722217E-01 0.79550904E+02</pdfrwt>
<totfact> 0.89908594E+04</totfact>
</mgrwt>
</event>
<event>
 8    1  0.8247621E-014  0.7541426E+02  0.7818608E-02  0.1342593E+00
          1   -1    0    0  501    0  0.00000000000E+00  0.00000000000E+00  0.11821701771E+03  0.11821701782E+03  0.50400000000E-02 0. -1.
         -2   -1    0    0    0  501 -0.00000000000E+00 -0.00000000000E+00 -0.12027268151E+02  0.12027268422E+02  0.25500000000E-02 0.  1.
        -24    2    1    2    0    0  0.00000000000E+00  0.00000000000E+00  0.10618974956E+03  0.13024428624E+03  0.75414263814E+02 0.  0.
         66    2    3    3    0    0 -0.22903823541E+02 -0.12444109305E+02  0.61391222848E+01  0.26853860323E+02  0.20000006649E+01 0.  0.
         13    1    3    3    0    0  0.22903823541E+02  0.12444109305E+02  0.10005062727E+03  0.10339042592E+03  0.10566000000E+00 0. -1.
         13    1    4    4    0    0 -0.10251578478E+02 -0.55403752960E+01  0.29632615034E+01  0.12024254758E+02  0.10566000000E+00 0. -1.
        -13    1    4    4    0    0 -0.40717068242E+01 -0.22021437939E+01  0.17113484537E+01  0.49364067212E+01  0.10566000000E+00 0.  1.
        -14    1    4    4    0    0 -0.85805382383E+01 -0.47015902148E+01  0.14645123276E+01  0.98931988438E+01  0.00000000000E+00 0.  1.
<mgrwt>
<rscale>  0 0.75414264E+02</rscale>
<asrwt>0</asrwt>
<pdfrwt beam="1">  1        1 0.18187233E-01 0.75414264E+02</pdfrwt>
<pdfrwt beam="2">  1       -2 0.18503490E-02 0.75414264E+02</pdfrwt>
<totfact> 0.17718355E+05</totfact>
</mgrwt>
</event>
<event>
 8    1  0.8247621E-014  0.7713174E+02  0.7818608E-02  0.1337394E+00
         -2   -1    0    0    0  501 -0.00000000000E+00  0.00000000000E+00  0.11632487013E+02  0.11632487293E+02  0.25500000000E-02 0.  1.
          1   -1    0    0  501    0  0.00000000000E+00 -0.00000000000E+00 -0.12785971093E+03  0.12785971103E+03  0.50400000000E-02 0. -1.
        -24    2    1    2    0    0  0.00000000000E+00  0.00000000000E+00 -0.11622722391E+03  0.13949219832E+03  0.77131743227E+02 0.  0.
         66    2    3    3    0    0 -0.35439350725E+02 -0.23318253954E+01 -0.31089367979E+02  0.47243346474E+02  0.19999988091E+01 0.  0.
         13    1    3    3    0    0  0.35439350725E+02  0.23318253954E+01 -0.85137855934E+02  0.92248851844E+02  0.10566000000E+00 0. -1.
         13    1    4    4    0    0 -0.37291819616E+01  0.27018459500E+00 -0.34374473301E+01  0.50800596454E+01  0.10566000000E+00 0. -1.
        -13    1    4    4    0    0 -0.17894600696E+02 -0.12913756787E+01 -0.15055952075E+02  0.23421725857E+02  0.10566000000E+00 0.  1.
         14    1    4    4    0    0 -0.13815568068E+02 -0.13106343117E+01 -0.12595968574E+02  0.18741560971E+02  0.00000000000E+00 0. -1.
<mgrwt>
<rscale>  0 0.77131743E+02</rscale>
<asrwt>0</asrwt>
<pdfrwt beam="1">  1        1 0.19670724E-01 0.77131743E+02</pdfrwt>
<pdfrwt beam="2">  1       -2 0.17896135E-02 0.77131743E+02</pdfrwt>
<totfact> 0.16912326E+05</totfact>
</mgrwt>
</event>
<event>
 8    1  0.8247621E-014  0.8683313E+02  0.7818608E-02  0.1310707E+00
         -2   -1    0    0    0  501 -0.00000000000E+00  0.00000000000E+00  0.16462543769E+03  0.16462543771E+03  0.25500000000E-02 0.  1.
          1   -1    0    0  501    0  0.00000000000E+00 -0.00000000000E+00 -0.11450223207E+02  0.11450224317E+02  0.50400000000E-02 0. -1.
        -24    2    1    2    0    0 -0.88817841970E-15 -0.71054273576E-14  0.15317521448E+03  0.17607566203E+03  0.86833129774E+02 0.  0.
         66    2    3    3    0    0 -0.40216412348E+01 -0.31225486389E+02  0.13718239737E+03  0.14076297363E+03  0.19999998792E+01 0.  0.
         13    1    3    3    0    0  0.40216412348E+01  0.31225486389E+02  0.15992817116E+02  0.35312688397E+02  0.10566000000E+00 0. -1.
         13    1    4    4    0    0 -0.90054809833E-01 -0.92182856956E+00  0.30578804153E+01  0.31968225554E+01  0.10566000000E+00 0. -1.
        -13    1    4    4    0    0 -0.13908073434E+01 -0.98599433242E+01  0.41425541743E+02  0.42605627564E+02  0.10566000000E+00 0.  1.
        -14    1    4    4    0    0 -0.25407790816E+01 -0.20443714495E+02  0.92698975210E+02  0.94960523512E+02  0.00000000000E+00 0.  1.
<mgrwt>
<rscale>  0 0.86833130E+02</rscale>
<asrwt>0</asrwt>
<pdfrwt beam="1">  1        1 0.17615730E-02 0.86833130E+02</pdfrwt>
<pdfrwt beam="2">  1       -2 0.25326989E-01 0.86833130E+02</pdfrwt>
<totfact> 0.74106402E+04</totfact>
</mgrwt>
</event>
<event>
 8    1  0.8247621E-014  0.8141480E+02  0.7818608E-02  0.1325084E+00
         -2   -1    0    0    0  501 -0.00000000000E+00  0.00000000000E+00  0.12849574079E+02  0.12849574332E+02  0.25500000000E-02 0.  1.
          1   -1    0    0  501    0  0.00000000000E+00 -0.00000000000E+00 -0.12896086650E+03  0.12896086660E+03  0.50400000000E-02 0. -1.
        -24    2    1    2    0    0  0.35527136788E-14  0.88817841970E-15 -0.11611129242E+03  0.14181044093E+03  0.81414795518E+02 0.  0.
         66    2    3    3    0    0 -0.22594305106E+02 -0.75258764843E+01 -0.63814000498E+00  0.23907084179E+02  0.20000027980E+01 0.  0.
         13    1    3    3    0    0  0.22594305106E+02  0.75258764843E+01 -0.11547315242E+03  0.11790335675E+03  0.10566000000E+00 0. -1.
         13    1    4    4    0    0 -0.10237814315E+02 -0.28016084698E+01 -0.95062195751E+00  0.10657236889E+02  0.10566000000E+00 0. -1.
        -13    1    4    4    0    0 -0.75363138342E+01 -0.30708491715E+01 -0.78388238409E-01  0.81390078998E+01  0.10566000000E+00 0.  1.
         14    1    4    4    0    0 -0.48201769569E+01 -0.16534188430E+01  0.39087019094E+00  0.51108393902E+01  0.00000000000E+00 0. -1.
<mgrwt>
<rscale>  0 0.81414796E+02</rscale>
<asrwt>0</asrwt>
<pdfrwt beam="1">  1        1 0.19840132E-01 0.81414796E+02</pdfrwt>
<pdfrwt beam="2">  1       -2 0.19768577E-02 0.81414796E+02</pdfrwt>
<totfact> 0.14654696E+05</totfact>
</mgrwt>
</event>
<event>
 8    1  0.8247621E-014  0.7961925E+02  0.7818608E-02  0.1330135E+00
         -2   -1    0    0    0  501 -0.00000000000E+00  0.00000000000E+00  0.18630792742E+02  0.18630792917E+02  0.25500000000E-02 0.  1.
          1   -1    0    0  501    0  0.00000000000E+00 -0.00000000000E+00 -0.85063800433E+02  0.85063800582E+02  0.50400000000E-02 0. -1.
        -24    2    1    2    0    0  0.00000000000E+00  0.00000000000E+00 -0.66433007691E+02  0.10369459350E+03  0.79619245224E+02 0.  0.
         66    2    3    3    0    0 -0.26712181110E+02  0.29105672265E+02 -0.39362794174E+02  0.55804214491E+02  0.20000030298E+01 0.  0.
         13    1    3    3    0    0  0.26712181110E+02 -0.29105672265E+02 -0.27070213517E+02  0.47890379008E+02  0.10566000000E+00 0. -1.
         13    1    4    4    0    0 -0.42621260012E+01  0.54978322711E+01 -0.74966243080E+01  0.10227532341E+02  0.10566000000E+00 0. -1.
        -13    1    4    4    0    0 -0.94928178392E+01  0.96869212492E+01 -0.13610031901E+02  0.19214425992E+02  0.10566000000E+00 0.  1.
         14    1    4    4    0    0 -0.12957237269E+02  0.13920918745E+02 -0.18256137965E+02  0.26362256158E+02  0.00000000000E+00 0. -1.
<mgrwt>
<rscale>  0 0.79619245E+02</rscale>
<asrwt>0</asrwt>
<pdfrwt beam="1">  1        1 0.13086738E-01 0.79619245E+02</pdfrwt>
<pdfrwt beam="2">  1       -2 0.28662759E-02 0.79619245E+02</pdfrwt>
<totfact> 0.14497633E+05</totfact>
</mgrwt>
</event>
<event>
 8    1  0.8247621E-014  0.7878737E+02  0.7818608E-02  0.1332528E+00
         -2   -1    0    0    0  501 -0.00000000000E+00  0.00000000000E+00  0.11959644513E+02  0.11959644785E+02  0.25500000000E-02 0.  1.
          1   -1    0    0  501    0  0.00000000000E+00 -0.00000000000E+00 -0.12975823158E+03  0.12975823168E+03  0.50400000000E-02 0. -1.
        -24    2    1    2    0    0 -0.71054273576E-14 -0.88817841970E-15 -0.11779858707E+03  0.14171787646E+03  0.78787368239E+02 0.  0.
         66    2    3    3    0    0 -0.38091700284E+02 -0.63772387145E+01 -0.45213508760E+02  0.59497127493E+02  0.20000003703E+01 0.  0.
         13    1    3    3    0    0  0.38091700284E+02  0.63772387145E+01 -0.72585078310E+02  0.82220748971E+02  0.10566000000E+00 0. -1.
         13    1    4    4    0    0 -0.78243906308E+01 -0.17400539190E+01 -0.98986284826E+01  0.12737459961E+02  0.10566000000E+00 0. -1.
        -13    1    4    4    0    0 -0.27301068729E+02 -0.40378640948E+01 -0.32355728162E+02  0.42527132623E+02  0.10566000000E+00 0.  1.
         14    1    4    4    0    0 -0.29662409236E+01 -0.59932070072E+00 -0.29591521148E+01  0.42325349092E+01  0.00000000000E+00 0. -1.
<mgrwt>
<rscale>  0 0.78787368E+02</rscale>
<asrwt>0</asrwt>
<pdfrwt beam="1">  1        1 0.19962804E-01 0.78787368E+02</pdfrwt>
<pdfrwt beam="2">  1       -2 0.18399454E-02 0.78787368E+02</pdfrwt>
<totfact> 0.16020347E+05</totfact>
</mgrwt>
</event>
<event>
 8    1  0.8247621E-014  0.8196429E+02  0.7818608E-02  0.1323568E+00
         -2   -1    0    0    0  501 -0.00000000000E+00  0.00000000000E+00  0.99948622765E+01  0.99948626018E+01  0.25500000000E-02 0.  1.
          1   -1    0    0  501    0  0.00000000000E+00 -0.00000000000E+00 -0.16803996341E+03  0.16803996349E+03  0.50400000000E-02 0. -1.
        -24    2    1    2    0    0  0.14210854715E-13  0.88817841970E-15 -0.15804510113E+03  0.17803482609E+03  0.81964292882E+02 0.  0.
         66    2    3    3    0    0  0.40516012962E+02  0.46696004956E+01 -0.70890453993E+02  0.81809589495E+02  0.19999977197E+01 0.  0.
         13    1    3    3    0    0 -0.40516012962E+02 -0.46696004956E+01 -0.87154647141E+02  0.96225236593E+02  0.10566000000E+00 0. -1.
         13    1    4    4    0    0  0.28702099832E+01  0.58177242861E+00 -0.47258572043E+01  0.55607063272E+01  0.10566000000E+00 0. -1.
        -13    1    4    4    0    0  0.23949959335E+02  0.32959263580E+01 -0.41855252669E+02  0.48335670294E+02  0.10566000000E+00 0.  1.
         14    1    4    4    0    0  0.13695843644E+02  0.79190170900E+00 -0.24309344120E+02  0.27913212874E+02  0.00000000000E+00 0. -1.
<mgrwt>
<rscale>  0 0.81964293E+02</rscale>
<asrwt>0</asrwt>
<pdfrwt beam="1">  1        1 0.25852300E-01 0.81964293E+02</pdfrwt>
<pdfrwt beam="2">  1       -2 0.15376713E-02 0.81964293E+02</pdfrwt>
<totfact> 0.15115606E+05</totfact>
</mgrwt>
</event>
<event>
 8    1  0.8247621E-014  0.8322601E+02  0.7818608E-02  0.1320138E+00
         -2   -1    0    0    0  501 -0.00000000000E+00  0.00000000000E+00  0.96335359318E+01  0.96335362693E+01  0.25500000000E-02 0.  1.
          1   -1    0    0  501    0  0.00000000000E+00 -0.00000000000E+00 -0.17975147820E+03  0.17975147827E+03  0.50400000000E-02 0. -1.
        -24    2    1    2    0    0  0.88817841970E-15 -0.71054273576E-14 -0.17011794227E+03  0.18938501454E+03  0.83226014267E+02 0.  0.
         66    2    3    3    0    0  0.53538590361E+01 -0.32666338359E+02 -0.27816299201E+02  0.43283945920E+02  0.20000012038E+01 0.  0.
         13    1    3    3    0    0 -0.53538590361E+01  0.32666338359E+02 -0.14230164307E+03  0.14610106862E+03  0.10566000000E+00 0. -1.
         13    1    4    4    0    0  0.13211047961E+01 -0.99739687008E+01 -0.94446420903E+01  0.13799920209E+02  0.10566000000E+00 0. -1.
        -13    1    4    4    0    0  0.82581748840E+00 -0.60410961890E+01 -0.51346537736E+01  0.79719916646E+01  0.10566000000E+00 0.  1.
        -14    1    4    4    0    0  0.32069367516E+01 -0.16651273469E+02 -0.13237003337E+02  0.21512034046E+02  0.00000000000E+00 0.  1.
<mgrwt>
<rscale>  0 0.83226014E+02</rscale>
<asrwt>0</asrwt>
<pdfrwt beam="1">  1        1 0.27654071E-01 0.83226014E+02</pdfrwt>
<pdfrwt beam="2">  1       -2 0.14820826E-02 0.83226014E+02</pdfrwt>
<totfact> 0.14699522E+05</totfact>
</mgrwt>
</event>
<event>
 8    1  0.8247621E-014  0.7830194E+02  0.7818608E-02  0.1333941E+00
          1   -1    0    0  501    0  0.00000000000E+00  0.00000000000E+00  0.24937681052E+02  0.24937681561E+02  0.50400000000E-02 0. -1.
         -2   -1    0    0    0  501 -0.00000000000E+00 -0.00000000000E+00 -0.61465152193E+02  0.61465152246E+02  0.25500000000E-02 0.  1.
        -24    2    1    2    0    0  0.00000000000E+00  0.35527136788E-14 -0.36527471141E+02  0.86402833807E+02  0.78301938302E+02 0.  0.
         66    2    3    3    0    0  0.25866588187E+02 -0.10343478905E+02 -0.48590088286E+02  0.56045201542E+02  0.19999989937E+01 0.  0.
         13    1    3    3    0    0 -0.25866588187E+02  0.10343478905E+02  0.12062617145E+02  0.30357632264E+02  0.10566000000E+00 0. -1.
         13    1    4    4    0    0  0.39947655569E+01 -0.13045200437E+01 -0.62715795370E+01  0.75500859812E+01  0.10566000000E+00 0. -1.
        -13    1    4    4    0    0  0.93001300449E+01 -0.35542018706E+01 -0.17072676915E+02  0.19763912337E+02  0.10566000000E+00 0.  1.
         14    1    4    4    0    0  0.12571692585E+02 -0.54847569911E+01 -0.25245831834E+02  0.28731203224E+02  0.00000000000E+00 0. -1.
<mgrwt>
<rscale>  0 0.78301938E+02</rscale>
<asrwt>0</asrwt>
<pdfrwt beam="1">  1        1 0.38365664E-02 0.78301938E+02</pdfrwt>
<pdfrwt beam="2">  1       -2 0.94561772E-02 0.78301938E+02</pdfrwt>
<totfact> 0.12443035E+05</totfact>
</mgrwt>
</event>
<event>
 8    1  0.8247621E-014  0.7781213E+02  0.7818608E-02  0.1335377E+00
         -2   -1    0    0    0  501 -0.00000000000E+00  0.00000000000E+00  0.46250248993E+03  0.46250248993E+03  0.25500000000E-02 0.  1.
          1   -1    0    0  501    0  0.00000000000E+00 -0.00000000000E+00 -0.32728061001E+01  0.32728099808E+01  0.50400000000E-02 0. -1.
        -24    2    1    2    0    0  0.35527136788E-14  0.00000000000E+00  0.45922968383E+03  0.46577529991E+03  0.77812129536E+02 0.  0.
         66    2    3    3    0    0  0.30287337161E+02  0.43614281745E+01  0.37334429574E+03  0.37460153231E+03  0.20000001477E+01 0.  0.
         13    1    3    3    0    0 -0.30287337161E+02 -0.43614281745E+01  0.85885388086E+02  0.91173767602E+02  0.10566000000E+00 0. -1.
         13    1    4    4    0    0  0.10142488138E+02  0.16226957357E+01  0.11780647285E+03  0.11825345414E+03  0.10566000000E+00 0. -1.
        -13    1    4    4    0    0  0.11037698017E+02  0.18875779173E+01  0.13492889403E+03  0.13539280385E+03  0.10566000000E+00 0.  1.
         14    1    4    4    0    0  0.91071510061E+01  0.85115452145E+00  0.12060892886E+03  0.12095527432E+03  0.00000000000E+00 0. -1.
<mgrwt>
<rscale>  0 0.77812130E+02</rscale>
<asrwt>0</asrwt>
<pdfrwt beam="1">  1        1 0.50350880E-03 0.77812130E+02</pdfrwt>
<pdfrwt beam="2">  1       -2 0.71154248E-01 0.77812130E+02</pdfrwt>
<totfact> 0.57377385E+04</totfact>
</mgrwt>
</event>
<event>
 8    1  0.8247621E-014  0.7864931E+02  0.7818608E-02  0.1332929E+00
          1   -1    0    0  501    0  0.00000000000E+00  0.00000000000E+00  0.99865241623E+01  0.99865254341E+01  0.50400000000E-02 0. -1.
         -2   -1    0    0    0  501 -0.00000000000E+00 -0.00000000000E+00 -0.15485151978E+03  0.15485151980E+03  0.25500000000E-02 0.  1.
        -24    2    1    2    0    0 -0.35527136788E-14  0.00000000000E+00 -0.14486499562E+03  0.16483804524E+03  0.78649311515E+02 0.  0.
         66    2    3    3    0    0 -0.13974206354E+02 -0.27112075497E+02 -0.12441600650E+03  0.12811590749E+03  0.19999990913E+01 0.  0.
         13    1    3    3    0    0  0.13974206354E+02  0.27112075497E+02 -0.20448989117E+02  0.36722137749E+02  0.10566000000E+00 0. -1.
         13    1    4    4    0    0 -0.76178345574E+01 -0.13293738457E+02 -0.60417015818E+02  0.62329622571E+02  0.10566000000E+00 0. -1.
        -13    1    4    4    0    0 -0.81792376811E+00 -0.23818557176E+01 -0.10132787065E+02  0.10441588658E+02  0.10566000000E+00 0.  1.
        -14    1    4    4    0    0 -0.55384480281E+01 -0.11436481322E+02 -0.53866203620E+02  0.55344696259E+02  0.00000000000E+00 0.  1.
<mgrwt>
<rscale>  0 0.78649312E+02</rscale>
<asrwt>0</asrwt>
<pdfrwt beam="1">  1        1 0.15363886E-02 0.78649312E+02</pdfrwt>
<pdfrwt beam="2">  1       -2 0.23823309E-01 0.78649312E+02</pdfrwt>
<totfact> 0.97704313E+04</totfact>
</mgrwt>
</event>
<event>
 8    1  0.8247621E-014  0.8112964E+02  0.7818608E-02  0.1325876E+00
          1   -1    0    0  501    0  0.00000000000E+00  0.00000000000E+00  0.12292906715E+02  0.12292907749E+02  0.50400000000E-02 0. -1.
         -2   -1    0    0    0  501 -0.00000000000E+00 -0.00000000000E+00 -0.13385804450E+03  0.13385804453E+03  0.25500000000E-02 0.  1.
        -24    2    1    2    0    0  0.00000000000E+00  0.00000000000E+00 -0.12156513779E+03  0.14615095227E+03  0.81129637776E+02 0.  0.
         66    2    3    3    0    0 -0.23969534110E+02  0.27860381494E+01 -0.11950351458E+03  0.12193190959E+03  0.20000014776E+01 0.  0.
         13    1    3    3    0    0  0.23969534110E+02 -0.27860381494E+01 -0.20616232040E+01  0.24219042679E+02  0.10566000000E+00 0. -1.
         13    1    4    4    0    0 -0.31806640929E+01  0.12376850223E+00 -0.13984563975E+02  0.14342633521E+02  0.10566000000E+00 0. -1.
        -13    1    4    4    0    0 -0.97625450346E+01  0.16689673192E+01 -0.52661763529E+02  0.53585121438E+02  0.10566000000E+00 0.  1.
        -14    1    4    4    0    0 -0.11026324983E+02  0.99330232790E+00 -0.52857187077E+02  0.54004154635E+02  0.00000000000E+00 0.  1.
<mgrwt>
<rscale>  0 0.81129638E+02</rscale>
<asrwt>0</asrwt>
<pdfrwt beam="1">  1        1 0.18912166E-02 0.81129638E+02</pdfrwt>
<pdfrwt beam="2">  1       -2 0.20593544E-01 0.81129638E+02</pdfrwt>
<totfact> 0.94500478E+04</totfact>
</mgrwt>
</event>
<event>
 8    1  0.8247621E-014  0.8047443E+02  0.7818608E-02  0.1327710E+00
          1   -1    0    0  501    0  0.00000000000E+00  0.00000000000E+00  0.25165938026E+02  0.25165938531E+02  0.50400000000E-02 0. -1.
         -2   -1    0    0    0  501 -0.00000000000E+00 -0.00000000000E+00 -0.64334314194E+02  0.64334314245E+02  0.25500000000E-02 0.  1.
        -24    2    1    2    0    0  0.00000000000E+00  0.00000000000E+00 -0.39168376168E+02  0.89500252776E+02  0.80474427959E+02 0.  0.
         66    2    3    3    0    0 -0.16723036552E+02  0.90562942924E+01 -0.59001050201E+02  0.62022579272E+02  0.19999992303E+01 0.  0.
         13    1    3    3    0    0  0.16723036552E+02 -0.90562942924E+01  0.19832674033E+02  0.27477673503E+02  0.10566000000E+00 0. -1.
         13    1    4    4    0    0 -0.10515012421E+00  0.12392794253E+00 -0.29598485129E+00  0.35381598516E+00  0.10566000000E+00 0. -1.
        -13    1    4    4    0    0 -0.83902530820E+01  0.40478619283E+01 -0.28383501523E+02  0.29873330175E+02  0.10566000000E+00 0.  1.
         14    1    4    4    0    0 -0.82276333458E+01  0.48845044215E+01 -0.30321563826E+02  0.31795433112E+02  0.00000000000E+00 0. -1.
<mgrwt>
<rscale>  0 0.80474428E+02</rscale>
<asrwt>0</asrwt>
<pdfrwt beam="1">  1        1 0.38716829E-02 0.80474428E+02</pdfrwt>
<pdfrwt beam="2">  1       -2 0.98975867E-02 0.80474428E+02</pdfrwt>
<totfact> 0.11509692E+05</totfact>
</mgrwt>
</event>
<event>
 8    1  0.8247621E-014  0.8036962E+02  0.7818608E-02  0.1328006E+00
          1   -1    0    0  501    0  0.00000000000E+00  0.00000000000E+00  0.13004039413E+03  0.13004039422E+03  0.50400000000E-02 0. -1.
         -2   -1    0    0    0  501 -0.00000000000E+00 -0.00000000000E+00 -0.12417824692E+02  0.12417824954E+02  0.25500000000E-02 0.  1.
        -24    2    1    2    0    0  0.00000000000E+00  0.00000000000E+00  0.11762256943E+03  0.14245821918E+03  0.80369617213E+02 0.  0.
         66    2    3    3    0    0  0.17582321853E+02 -0.35355526227E+02  0.45862914008E+02  0.60552110813E+02  0.19999915207E+01 0.  0.
         13    1    3    3    0    0 -0.17582321853E+02  0.35355526227E+02  0.71759655426E+02  0.81906108365E+02  0.10566000000E+00 0. -1.
         13    1    4    4    0    0  0.78309207116E+01 -0.14289069580E+02  0.18029939682E+02  0.24302072291E+02  0.10566000000E+00 0. -1.
        -13    1    4    4    0    0  0.34607939988E+01 -0.78149390225E+01  0.10718981994E+02  0.13709781401E+02  0.10566000000E+00 0.  1.
        -14    1    4    4    0    0  0.62906071424E+01 -0.13251517624E+02  0.17113992332E+02  0.22540257122E+02  0.00000000000E+00 0.  1.
<mgrwt>
<rscale>  0 0.80369617E+02</rscale>
<asrwt>0</asrwt>
<pdfrwt beam="1">  1        1 0.20006214E-01 0.80369617E+02</pdfrwt>
<pdfrwt beam="2">  1       -2 0.19104346E-02 0.80369617E+02</pdfrwt>
<totfact> 0.15194882E+05</totfact>
</mgrwt>
</event>
<event>
 8    1  0.8247621E-014  0.7856964E+02  0.7818608E-02  0.1333160E+00
          1   -1    0    0  501    0  0.00000000000E+00  0.00000000000E+00  0.29845090830E+02  0.29845091255E+02  0.50400000000E-02 0. -1.
         -2   -1    0    0    0  501 -0.00000000000E+00 -0.00000000000E+00 -0.51710251606E+02  0.51710251669E+02  0.25500000000E-02 0.  1.
        -24    2    1    2    0    0  0.00000000000E+00  0.00000000000E+00 -0.21865160777E+02  0.81555342925E+02  0.78569642380E+02 0.  0.
         66    2    3    3    0    0 -0.14814562805E+02 -0.26377424312E+02 -0.36911501536E+02  0.47767130206E+02  0.19999995055E+01 0.  0.
         13    1    3    3    0    0  0.14814562805E+02  0.26377424312E+02  0.15046340759E+02  0.33788212719E+02  0.10566000000E+00 0. -1.
         13    1    4    4    0    0 -0.42491587281E+01 -0.63367208741E+01 -0.92832500064E+01  0.12016624986E+02  0.10566000000E+00 0. -1.
        -13    1    4    4    0    0 -0.20828178908E+01 -0.35888349979E+01 -0.43950226629E+01  0.60452671779E+01  0.10566000000E+00 0.  1.
         14    1    4    4    0    0 -0.84825861862E+01 -0.16451868440E+02 -0.23233228866E+02  0.29705238042E+02  0.00000000000E+00 0. -1.
<mgrwt>
<rscale>  0 0.78569642E+02</rscale>
<asrwt>0</asrwt>
<pdfrwt beam="1">  1        1 0.45915525E-02 0.78569642E+02</pdfrwt>
<pdfrwt beam="2">  1       -2 0.79554234E-02 0.78569642E+02</pdfrwt>
<totfact> 0.12725788E+05</totfact>
</mgrwt>
</event>
<event>
 8    1  0.8247621E-014  0.7467041E+02  0.7818608E-02  0.1344895E+00
         -2   -1    0    0    0  501 -0.00000000000E+00  0.00000000000E+00  0.19489879328E+02  0.19489879495E+02  0.25500000000E-02 0.  1.
          1   -1    0    0  501    0  0.00000000000E+00 -0.00000000000E+00 -0.71520070455E+02  0.71520070632E+02  0.50400000000E-02 0. -1.
        -24    2    1    2    0    0 -0.44408920985E-15  0.17763568394E-14 -0.52030191126E+02  0.91009950127E+02  0.74670410696E+02 0.  0.
         66    2    3    3    0    0 -0.31612237908E+01 -0.11341426657E+02  0.17114859267E+02  0.20869587621E+02  0.19999963183E+01 0.  0.
         13    1    3    3    0    0  0.31612237908E+01  0.11341426657E+02 -0.69145050394E+02  0.70140362506E+02  0.10566000000E+00 0. -1.
         13    1    4    4    0    0 -0.45701624265E+00 -0.12694576397E+01  0.25213217126E+01  0.28615753981E+01  0.10566000000E+00 0. -1.
        -13    1    4    4    0    0 -0.97329787802E+00 -0.59825225032E+01  0.92600197515E+01  0.11067836920E+02  0.10566000000E+00 0.  1.
         14    1    4    4    0    0 -0.17309096701E+01 -0.40894465145E+01  0.53335178031E+01  0.69401753031E+01  0.00000000000E+00 0. -1.
<mgrwt>
<rscale>  0 0.74670411E+02</rscale>
<asrwt>0</asrwt>
<pdfrwt beam="1">  1        1 0.11003088E-01 0.74670411E+02</pdfrwt>
<pdfrwt beam="2">  1       -2 0.29984430E-02 0.74670411E+02</pdfrwt>
<totfact> 0.16789839E+05</totfact>
</mgrwt>
</event>
<event>
 8    1  0.8247621E-014  0.8000752E+02  0.7818608E-02  0.1329030E+00
         -2   -1    0    0    0  501 -0.00000000000E+00  0.00000000000E+00  0.50144647946E+02  0.50144648011E+02  0.25500000000E-02 0.  1.
          1   -1    0    0  501    0  0.00000000000E+00 -0.00000000000E+00 -0.31913688434E+02  0.31913688832E+02  0.50400000000E-02 0. -1.
        -24    2    1    2    0    0  0.35527136788E-14  0.35527136788E-14  0.18230959512E+02  0.82058336842E+02  0.80007516901E+02 0.  0.
         66    2    3    3    0    0  0.29896985572E+02  0.22126764384E+02  0.24155422008E+02  0.44394908052E+02  0.20000000507E+01 0.  0.
         13    1    3    3    0    0 -0.29896985572E+02 -0.22126764384E+02 -0.59244624960E+01  0.37663428791E+02  0.10566000000E+00 0. -1.
         13    1    4    4    0    0  0.55744658529E+01  0.49674045322E+01  0.47110380384E+01  0.88292027254E+01  0.10566000000E+00 0. -1.
        -13    1    4    4    0    0  0.78604762985E+01  0.50472140161E+01  0.61170980472E+01  0.11166535251E+02  0.10566000000E+00 0.  1.
        -14    1    4    4    0    0  0.16462043420E+02  0.12112145835E+02  0.13327285922E+02  0.24399170075E+02  0.00000000000E+00 0.  1.
<mgrwt>
<rscale>  0 0.80007517E+02</rscale>
<asrwt>0</asrwt>
<pdfrwt beam="1">  1        1 0.49097983E-02 0.80007517E+02</pdfrwt>
<pdfrwt beam="2">  1       -2 0.77145612E-02 0.80007517E+02</pdfrwt>
<totfact> 0.12223180E+05</totfact>
</mgrwt>
</event>
<event>
 8    1  0.8247621E-014  0.8323095E+02  0.7818608E-02  0.1320125E+00
         -2   -1    0    0    0  501 -0.00000000000E+00  0.00000000000E+00  0.25438560565E+03  0.25438560566E+03  0.25500000000E-02 0.  1.
          1   -1    0    0  501    0  0.00000000000E+00 -0.00000000000E+00 -0.68079625331E+01  0.68079643986E+01  0.50400000000E-02 0. -1.
        -24    2    1    2    0    0  0.00000000000E+00  0.00000000000E+00  0.24757764312E+03  0.26119357006E+03  0.83230953797E+02 0.  0.
         66    2    3    3    0    0  0.31424580768E+02  0.21937545092E+02  0.17456695756E+03  0.17873551084E+03  0.20000005296E+01 0.  0.
         13    1    3    3    0    0 -0.31424580768E+02 -0.21937545092E+02  0.73010685554E+02  0.82458059219E+02  0.10566000000E+00 0. -1.
         13    1    4    4    0    0  0.15396355537E+02  0.11077528073E+02  0.88123061410E+02  0.90141247541E+02  0.10566000000E+00 0. -1.
        -13    1    4    4    0    0  0.10204860129E+01  0.66104244806E+00  0.68883628183E+01  0.69956468731E+01  0.10566000000E+00 0.  1.
         14    1    4    4    0    0  0.15007739219E+02  0.10198974570E+02  0.79555533333E+02  0.81598616426E+02  0.00000000000E+00 0. -1.
<mgrwt>
<rscale>  0 0.83230954E+02</rscale>
<asrwt>0</asrwt>
<pdfrwt beam="1">  1        1 0.10473792E-02 0.83230954E+02</pdfrwt>
<pdfrwt beam="2">  1       -2 0.39136238E-01 0.83230954E+02</pdfrwt>
<totfact> 0.69031732E+04</totfact>
</mgrwt>
</event>
<event>
 8    1  0.8247621E-014  0.7856735E+02  0.7818608E-02  0.1333167E+00
          1   -1    0    0  501    0  0.00000000000E+00  0.00000000000E+00  0.40443537505E+02  0.40443537819E+02  0.50400000000E-02 0. -1.
         -2   -1    0    0    0  501 -0.00000000000E+00 -0.00000000000E+00 -0.38157079975E+02  0.38157080060E+02  0.25500000000E-02 0.  1.
        -24    2    1    2    0    0 -0.35527136788E-14  0.00000000000E+00  0.22864575306E+01  0.78600617879E+02  0.78567354817E+02 0.  0.
         66    2    3    3    0    0  0.22305616551E+02  0.23101655986E+02 -0.21448226736E+02  0.38668507488E+02  0.20000005543E+01 0.  0.
         13    1    3    3    0    0 -0.22305616551E+02 -0.23101655986E+02  0.23734684267E+02  0.39932110391E+02  0.10566000000E+00 0. -1.
         13    1    4    4    0    0  0.17586798604E+02  0.17391530271E+02 -0.17153403734E+02  0.30100020498E+02  0.10566000000E+00 0. -1.
        -13    1    4    4    0    0  0.34488008845E+01  0.39752414289E+01 -0.30033815540E+01  0.60603825584E+01  0.10566000000E+00 0.  1.
         14    1    4    4    0    0  0.12700170628E+01  0.17348842858E+01 -0.12914414486E+01  0.25081044317E+01  0.00000000000E+00 0. -1.
<mgrwt>
<rscale>  0 0.78567355E+02</rscale>
<asrwt>0</asrwt>
<pdfrwt beam="1">  1        1 0.62220828E-02 0.78567355E+02</pdfrwt>
<pdfrwt beam="2">  1       -2 0.58703200E-02 0.78567355E+02</pdfrwt>
<totfact> 0.13382997E+05</totfact>
</mgrwt>
</event>
<event>
 8    1  0.8247621E-014  0.7963681E+02  0.7818608E-02  0.1330085E+00
         -2   -1    0    0    0  501 -0.00000000000E+00  0.00000000000E+00  0.18411845642E+01  0.18411863300E+01  0.25500000000E-02 0.  1.
          1   -1    0    0  501    0  0.00000000000E+00 -0.00000000000E+00 -0.86113292306E+03  0.86113292307E+03  0.50400000000E-02 0. -1.
        -24    2    1    2    0    0  0.00000000000E+00 -0.88817841970E-15 -0.85929173849E+03  0.86297410940E+03  0.79636810934E+02 0.  0.
         66    2    3    3    0    0 -0.33174146937E+02 -0.73405841782E+01 -0.65438658150E+03  0.65527109371E+03  0.20000009972E+01 0.  0.
         13    1    3    3    0    0  0.33174146937E+02  0.73405841782E+01 -0.20490515699E+03  0.20770301569E+03  0.10566000000E+00 0. -1.
         13    1    4    4    0    0 -0.29394032307E+01 -0.19154885730E+00 -0.57583372890E+02  0.57658761518E+02  0.10566000000E+00 0. -1.
        -13    1    4    4    0    0 -0.20715816090E+02 -0.53665253950E+01 -0.40689457318E+03  0.40745692960E+03  0.10566000000E+00 0.  1.
        -14    1    4    4    0    0 -0.95189276156E+01 -0.17825099259E+01 -0.18990863542E+03  0.19015540259E+03  0.00000000000E+00 0.  1.
<mgrwt>
<rscale>  0 0.79636811E+02</rscale>
<asrwt>0</asrwt>
<pdfrwt beam="1">  1        1 0.13248167E+00 0.79636811E+02</pdfrwt>
<pdfrwt beam="2">  1       -2 0.28325999E-03 0.79636811E+02</pdfrwt>
<totfact> 0.19971390E+05</totfact>
</mgrwt>
</event>
<event>
 8    1  0.8247621E-014  0.7958552E+02  0.7818608E-02  0.1330232E+00
         -2   -1    0    0    0  501 -0.00000000000E+00  0.00000000000E+00  0.64947157273E+02  0.64947157323E+02  0.25500000000E-02 0.  1.
          1   -1    0    0  501    0  0.00000000000E+00 -0.00000000000E+00 -0.24380803805E+02  0.24380804326E+02  0.50400000000E-02 0. -1.
        -24    2    1    2    0    0  0.00000000000E+00  0.00000000000E+00  0.40566353468E+02  0.89327961649E+02  0.79585524429E+02 0.  0.
         66    2    3    3    0    0  0.71554292735E+01 -0.30983164698E+02  0.47100338940E+02  0.56864739490E+02  0.20000015366E+01 0.  0.
         13    1    3    3    0    0 -0.71554292735E+01  0.30983164698E+02 -0.65339854725E+01  0.32463222159E+02  0.10566000000E+00 0. -1.
         13    1    4    4    0    0  0.27551816546E+01 -0.14752815336E+02  0.22884299181E+02  0.27366748059E+02  0.10566000000E+00 0. -1.
        -13    1    4    4    0    0  0.43233338304E+01 -0.15400371420E+02  0.23262374327E+02  0.28231398808E+02  0.10566000000E+00 0.  1.
        -14    1    4    4    0    0  0.76913788510E-01 -0.82997794271E+00  0.95366543250E+00  0.12665926233E+01  0.00000000000E+00 0.  1.
<mgrwt>
<rscale>  0 0.79585524E+02</rscale>
<asrwt>0</asrwt>
<pdfrwt beam="1">  1        1 0.37508930E-02 0.79585524E+02</pdfrwt>
<pdfrwt beam="2">  1       -2 0.99918702E-02 0.79585524E+02</pdfrwt>
<totfact> 0.11816678E+05</totfact>
</mgrwt>
</event>
<event>
 8    1  0.8247621E-014  0.8433301E+02  0.7818608E-02  0.1317186E+00
          1   -1    0    0  501    0  0.00000000000E+00  0.00000000000E+00  0.12362543452E+03  0.12362543462E+03  0.50400000000E-02 0. -1.
         -2   -1    0    0    0  501 -0.00000000000E+00 -0.00000000000E+00 -0.14382268121E+02  0.14382268347E+02  0.25500000000E-02 0.  1.
        -24    2    1    2    0    0  0.00000000000E+00 -0.35527136788E-14  0.10924316640E+03  0.13800770297E+03  0.84333010585E+02 0.  0.
         66    2    3    3    0    0  0.33056618194E+02 -0.16798006373E+02  0.21878180015E+02  0.43099510308E+02  0.20000008593E+01 0.  0.
         13    1    3    3    0    0 -0.33056618194E+02  0.16798006373E+02  0.87364986385E+02  0.94908192664E+02  0.10566000000E+00 0. -1.
         13    1    4    4    0    0  0.88757185702E+01 -0.45150091851E+01  0.64958543402E+01  0.11889952722E+02  0.10566000000E+00 0. -1.
        -13    1    4    4    0    0  0.15474474702E+02 -0.73155712078E+01  0.92023889578E+01  0.19433786969E+02  0.10566000000E+00 0.  1.
        -14    1    4    4    0    0  0.87064249226E+01 -0.49674259804E+01  0.61799367167E+01  0.11775770617E+02  0.00000000000E+00 0.  1.
<mgrwt>
<rscale>  0 0.84333011E+02</rscale>
<asrwt>0</asrwt>
<pdfrwt beam="1">  1        1 0.19019299E-01 0.84333011E+02</pdfrwt>
<pdfrwt beam="2">  1       -2 0.22126566E-02 0.84333011E+02</pdfrwt>
<totfact> 0.13226126E+05</totfact>
</mgrwt>
</event>
<event>
 8    1  0.8247621E-014  0.8531329E+02  0.7818608E-02  0.1314615E+00
         -2   -1    0    0    0  501 -0.00000000000E+00  0.00000000000E+00  0.80959794121E+01  0.80959798137E+01  0.25500000000E-02 0.  1.
          1   -1    0    0  501    0  0.00000000000E+00 -0.00000000000E+00 -0.22475223082E+03  0.22475223088E+03  0.50400000000E-02 0. -1.
        -24    2    1    2    0    0  0.00000000000E+00 -0.35527136788E-14 -0.21665625141E+03  0.23284821069E+03  0.85313292912E+02 0.  0.
         66    2    3    3    0    0  0.35267582616E+02  0.16411385352E+02 -0.60764891772E+02  0.72176921637E+02  0.19999980457E+01 0.  0.
         13    1    3    3    0    0 -0.35267582616E+02 -0.16411385352E+02 -0.15589135964E+03  0.16067128905E+03  0.10566000000E+00 0. -1.
         13    1    4    4    0    0  0.25641314013E+02  0.11561337061E+02 -0.44016957343E+02  0.52236435528E+02  0.10566000000E+00 0. -1.
        -13    1    4    4    0    0  0.92323312183E+01  0.47404477080E+01 -0.16374784182E+02  0.19386915826E+02  0.10566000000E+00 0.  1.
         14    1    4    4    0    0  0.39393738540E+00  0.10960058319E+00 -0.37315024719E+00  0.55357028319E+00  0.00000000000E+00 0. -1.
<mgrwt>
<rscale>  0 0.85313293E+02</rscale>
<asrwt>0</asrwt>
<pdfrwt beam="1">  1        1 0.34577262E-01 0.85313293E+02</pdfrwt>
<pdfrwt beam="2">  1       -2 0.12455355E-02 0.85313293E+02</pdfrwt>
<totfact> 0.14376964E+05</totfact>
</mgrwt>
</event>
<event>
 8    1  0.8247621E-014  0.8078773E+02  0.7818608E-02  0.1326831E+00
          1   -1    0    0  501    0  0.00000000000E+00  0.00000000000E+00  0.21817647002E+01  0.21817705216E+01  0.50400000000E-02 0. -1.
         -2   -1    0    0    0  501 -0.00000000000E+00 -0.00000000000E+00 -0.74786344322E+03  0.74786344323E+03  0.25500000000E-02 0.  1.
        -24    2    1    2    0    0  0.00000000000E+00  0.00000000000E+00 -0.74568167852E+03  0.75004521375E+03  0.80787727924E+02 0.  0.
         66    2    3    3    0    0  0.70905555297E+01  0.14739466321E+02 -0.71571935221E+03  0.71590901585E+03  0.19999991600E+01 0.  0.
         13    1    3    3    0    0 -0.70905555297E+01 -0.14739466321E+02 -0.29962326311E+02  0.34136197901E+02  0.10566000000E+00 0. -1.
         13    1    4    4    0    0 -0.81802400370E-02  0.86205784429E+00 -0.35862355139E+02  0.35872871237E+02  0.10566000000E+00 0.  1.
        -13    1    4    4    0    0  0.68260334924E+01  0.13529678724E+02 -0.65565065664E+03  0.65582577081E+03  0.10566000000E+00 0.  1.
        -14    1    4    4    0    0  0.27270227738E+00  0.34772975266E+00 -0.24206340428E+02  0.24210373798E+02  0.00000000000E+00 0.  1.
<mgrwt>
<rscale>  0 0.80787728E+02</rscale>
<asrwt>0</asrwt>
<pdfrwt beam="1">  1        1 0.33565715E-03 0.80787728E+02</pdfrwt>
<pdfrwt beam="2">  1       -2 0.11505571E+00 0.80787728E+02</pdfrwt>
<totfact> 0.34641067E+04</totfact>
</mgrwt>
</event>
<event>
 8    1  0.8247621E-014  0.8046699E+02  0.7818608E-02  0.1327731E+00
         -2   -1    0    0    0  501 -0.00000000000E+00  0.00000000000E+00  0.29358872640E+02  0.29358872750E+02  0.25500000000E-02 0.  1.
          1   -1    0    0  501    0  0.00000000000E+00 -0.00000000000E+00 -0.55136119235E+02  0.55136119466E+02  0.50400000000E-02 0. -1.
        -24    2    1    2    0    0  0.00000000000E+00  0.88817841970E-15 -0.25777246596E+02  0.84494992216E+02  0.80466994896E+02 0.  0.
         66    2    3    3    0    0  0.28045501865E+02 -0.58207763978E+01  0.16734752090E+02  0.33233770917E+02  0.19999972838E+01 0.  0.
         13    1    3    3    0    0 -0.28045501865E+02  0.58207763978E+01 -0.42511998686E+02  0.51261221299E+02  0.10566000000E+00 0. -1.
         13    1    4    4    0    0  0.45891362264E+01 -0.69549649568E+00  0.21436281504E+01  0.51137258788E+01  0.10566000000E+00 0. -1.
        -13    1    4    4    0    0  0.49954845147E+00 -0.25137229289E+00  0.37599586212E+00  0.68210967515E+00  0.10566000000E+00 0.  1.
        -14    1    4    4    0    0  0.22956817187E+02 -0.48739076093E+01  0.14215128078E+02  0.27437935364E+02  0.00000000000E+00 0.  1.
<mgrwt>
<rscale>  0 0.80466995E+02</rscale>
<asrwt>0</asrwt>
<pdfrwt beam="1">  1        1 0.84824799E-02 0.80466995E+02</pdfrwt>
<pdfrwt beam="2">  1       -2 0.45167497E-02 0.80466995E+02</pdfrwt>
<totfact> 0.13146851E+05</totfact>
</mgrwt>
</event>
<event>
 8    1  0.8247621E-014  0.7853786E+02  0.7818608E-02  0.1333253E+00
         -2   -1    0    0    0  501 -0.00000000000E+00  0.00000000000E+00  0.39237637305E+02  0.39237637388E+02  0.25500000000E-02 0.  1.
          1   -1    0    0  501    0  0.00000000000E+00 -0.00000000000E+00 -0.39300248436E+02  0.39300248759E+02  0.50400000000E-02 0. -1.
        -24    2    1    2    0    0 -0.17763568394E-14  0.00000000000E+00 -0.62611130390E-01  0.78537886147E+02  0.78537861190E+02 0.  0.
         66    2    3    3    0    0 -0.98576411480E+01  0.12983162275E+02  0.35666141756E+02  0.39265879087E+02  0.20000002607E+01 0.  0.
         13    1    3    3    0    0  0.98576411480E+01 -0.12983162275E+02 -0.35728752886E+02  0.39272007060E+02  0.10566000000E+00 0. -1.
         13    1    4    4    0    0 -0.31957676388E+01  0.44530800985E+01  0.13592704658E+02  0.14656590228E+02  0.10566000000E+00 0. -1.
        -13    1    4    4    0    0 -0.37513747202E+01  0.39487649332E+01  0.11429467611E+02  0.12661336845E+02  0.10566000000E+00 0.  1.
         14    1    4    4    0    0 -0.29104987890E+01  0.45813172436E+01  0.10643969487E+02  0.11947952014E+02  0.00000000000E+00 0. -1.
<mgrwt>
<rscale>  0 0.78537861E+02</rscale>
<asrwt>0</asrwt>
<pdfrwt beam="1">  1        1 0.60461921E-02 0.78537861E+02</pdfrwt>
<pdfrwt beam="2">  1       -2 0.60365596E-02 0.78537861E+02</pdfrwt>
<totfact> 0.13336076E+05</totfact>
</mgrwt>
</event>
<event>
 8    1  0.8247621E-014  0.8006591E+02  0.7818608E-02  0.1328864E+00
          1   -1    0    0  501    0  0.00000000000E+00  0.00000000000E+00  0.61212443456E+02  0.61212443663E+02  0.50400000000E-02 0. -1.
         -2   -1    0    0    0  501 -0.00000000000E+00 -0.00000000000E+00 -0.26181565743E+02  0.26181565868E+02  0.25500000000E-02 0.  1.
        -24    2    1    2    0    0  0.88817841970E-15  0.00000000000E+00  0.35030877712E+02  0.87394009531E+02  0.80065913525E+02 0.  0.
         66    2    3    3    0    0  0.79212718258E+01 -0.34414637721E+02 -0.29966356176E+01  0.35497798004E+02  0.20000003200E+01 0.  0.
         13    1    3    3    0    0 -0.79212718258E+01  0.34414637721E+02  0.38027513330E+02  0.51896211527E+02  0.10566000000E+00 0. -1.
         13    1    4    4    0    0  0.24067567058E+00 -0.23533203129E+01 -0.53679702525E+00  0.24280354930E+01  0.10566000000E+00 0. -1.
        -13    1    4    4    0    0  0.48061785645E+01 -0.18426595681E+02 -0.13435649349E+01  0.19090707466E+02  0.10566000000E+00 0.  1.
         14    1    4    4    0    0  0.28744175907E+01 -0.13634721727E+02 -0.11162736575E+01  0.13979055045E+02  0.00000000000E+00 0. -1.
<mgrwt>
<rscale>  0 0.80065914E+02</rscale>
<asrwt>0</asrwt>
<pdfrwt beam="1">  1        1 0.94172990E-02 0.80065914E+02</pdfrwt>
<pdfrwt beam="2">  1       -2 0.40279332E-02 0.80065914E+02</pdfrwt>
<totfact> 0.13550173E+05</totfact>
</mgrwt>
</event>
<event>
 8    1  0.8247621E-014  0.7885913E+02  0.7818608E-02  0.1332321E+00
          1   -1    0    0  501    0  0.00000000000E+00  0.00000000000E+00  0.18119676982E+02  0.18119677683E+02  0.50400000000E-02 0. -1.
         -2   -1    0    0    0  501 -0.00000000000E+00 -0.00000000000E+00 -0.85801235739E+02  0.85801235777E+02  0.25500000000E-02 0.  1.
        -24    2    1    2    0    0 -0.71054273576E-14  0.35527136788E-14 -0.67681558757E+02  0.10392091346E+03  0.78859133007E+02 0.  0.
         66    2    3    3    0    0  0.32890469430E+02 -0.17204824680E+02 -0.51290258229E+02  0.63344136005E+02  0.20000013585E+01 0.  0.
         13    1    3    3    0    0 -0.32890469430E+02  0.17204824680E+02 -0.16391300528E+02  0.40576777455E+02  0.10566000000E+00 0. -1.
         13    1    4    4    0    0  0.11638471390E+02 -0.53605707720E+01 -0.17176001257E+02  0.21429323800E+02  0.10566000000E+00 0. -1.
        -13    1    4    4    0    0  0.18790130748E+02 -0.10154168180E+02 -0.29561837073E+02  0.36470392377E+02  0.10566000000E+00 0.  1.
         14    1    4    4    0    0  0.24618672914E+01 -0.16900857281E+01 -0.45524198993E+01  0.54444198284E+01  0.00000000000E+00 0. -1.
<mgrwt>
<rscale>  0 0.78859133E+02</rscale>
<asrwt>0</asrwt>
<pdfrwt beam="1">  1        1 0.27876427E-02 0.78859133E+02</pdfrwt>
<pdfrwt beam="2">  1       -2 0.13200190E-01 0.78859133E+02</pdfrwt>
<totfact> 0.11415417E+05</totfact>
</mgrwt>
</event>
<event>
 8    1  0.8247621E-014  0.8153352E+02  0.7818608E-02  0.1324755E+00
          1   -1    0    0  501    0  0.00000000000E+00  0.00000000000E+00  0.38726360947E+01  0.38726393743E+01  0.50400000000E-02 0. -1.
         -2   -1    0    0    0  501 -0.00000000000E+00 -0.00000000000E+00 -0.42914645881E+03  0.42914645882E+03  0.25500000000E-02 0.  1.
        -24    2    1    2    0    0  0.00000000000E+00  0.00000000000E+00 -0.42527382272E+03  0.43301909819E+03  0.81533521401E+02 0.  0.
         66    2    3    3    0    0 -0.81954492764E+01 -0.17186417628E+02 -0.40406026867E+03  0.40451358331E+03  0.20000050158E+01 0.  0.
         13    1    3    3    0    0  0.81954492764E+01  0.17186417628E+02 -0.21213554043E+02  0.28505514885E+02  0.10566000000E+00 0. -1.
         13    1    4    4    0    0 -0.64949856037E+00 -0.19041495936E+01 -0.35436607813E+02  0.35493830046E+02  0.10566000000E+00 0. -1.
        -13    1    4    4    0    0 -0.12041117509E+01 -0.33432850846E+01 -0.84105940553E+02  0.84181042050E+02  0.10566000000E+00 0.  1.
         14    1    4    4    0    0 -0.63418389651E+01 -0.11938982950E+02 -0.28451772031E+03  0.28483871121E+03  0.00000000000E+00 0. -1.
<mgrwt>
<rscale>  0 0.81533521E+02</rscale>
<asrwt>0</asrwt>
<pdfrwt beam="1">  1        1 0.59579076E-03 0.81533521E+02</pdfrwt>
<pdfrwt beam="2">  1       -2 0.66022495E-01 0.81533521E+02</pdfrwt>
<totfact> 0.53639764E+04</totfact>
</mgrwt>
</event>
<event>
 8    1  0.8247621E-014  0.8158774E+02  0.7818608E-02  0.1324605E+00
          1   -1    0    0  501    0  0.00000000000E+00  0.00000000000E+00  0.48723591184E+02  0.48723591445E+02  0.50400000000E-02 0. -1.
         -2   -1    0    0    0  501 -0.00000000000E+00 -0.00000000000E+00 -0.34154707273E+02  0.34154707368E+02  0.25500000000E-02 0.  1.
        -24    2    1    2    0    0  0.00000000000E+00 -0.35527136788E-14  0.14568883912E+02  0.82878298813E+02  0.81587744397E+02 0.  0.
         66    2    3    3    0    0  0.42453119319E+01 -0.29628752333E+02 -0.20830264175E+02  0.36521028752E+02  0.19999993235E+01 0.  0.
         13    1    3    3    0    0 -0.42453119319E+01  0.29628752333E+02  0.35399148087E+02  0.46357270061E+02  0.10566000000E+00 0. -1.
         13    1    4    4    0    0  0.14742165630E+01 -0.13776858607E+02 -0.97300773279E+01  0.16931057746E+02  0.10566000000E+00 0. -1.
        -13    1    4    4    0    0  0.32370424050E+00 -0.16232091069E+01 -0.71967430455E+00  0.18079511553E+01  0.10566000000E+00 0.  1.
        -14    1    4    4    0    0  0.24473911284E+01 -0.14228684619E+02 -0.10380512543E+02  0.17782019850E+02  0.00000000000E+00 0.  1.
<mgrwt>
<rscale>  0 0.81587744E+02</rscale>
<asrwt>0</asrwt>
<pdfrwt beam="1">  1        1 0.74959371E-02 0.81587744E+02</pdfrwt>
<pdfrwt beam="2">  1       -2 0.52545704E-02 0.81587744E+02</pdfrwt>
<totfact> 0.12404482E+05</totfact>
</mgrwt>
</event>
<event>
 8    1  0.8247621E-014  0.8139070E+02  0.7818608E-02  0.1325151E+00
         -2   -1    0    0    0  501 -0.00000000000E+00  0.00000000000E+00  0.86819260177E+01  0.86819263922E+01  0.25500000000E-02 0.  1.
          1   -1    0    0  501    0  0.00000000000E+00 -0.00000000000E+00 -0.19075392880E+03  0.19075392887E+03  0.50400000000E-02 0. -1.
        -24    2    1    2    0    0 -0.35527136788E-14  0.00000000000E+00 -0.18207200279E+03  0.19943585526E+03  0.81390700733E+02 0.  0.
         66    2    3    3    0    0 -0.19938246384E+02 -0.33098857015E+02 -0.59995615544E+02  0.71390068566E+02  0.20000002187E+01 0.  0.
         13    1    3    3    0    0  0.19938246384E+02  0.33098857015E+02 -0.12207638724E+03  0.12804578670E+03  0.10566000000E+00 0. -1.
         13    1    4    4    0    0 -0.12560702510E+02 -0.20166988373E+02 -0.38277196530E+02  0.45051455090E+02  0.10566000000E+00 0. -1.
        -13    1    4    4    0    0 -0.24137779723E+01 -0.38317916879E+01 -0.69222987839E+01  0.82727465892E+01  0.10566000000E+00 0.  1.
         14    1    4    4    0    0 -0.49637659014E+01 -0.91000769542E+01 -0.14796120230E+02  0.18065866887E+02  0.00000000000E+00 0. -1.
<mgrwt>
<rscale>  0 0.81390701E+02</rscale>
<asrwt>0</asrwt>
<pdfrwt beam="1">  1        1 0.29346755E-01 0.81390701E+02</pdfrwt>
<pdfrwt beam="2">  1       -2 0.13356811E-02 0.81390701E+02</pdfrwt>
<totfact> 0.15781471E+05</totfact>
</mgrwt>
</event>
<event>
 8    1  0.8247621E-014  0.7958172E+02  0.7818608E-02  0.1330243E+00
          1   -1    0    0  501    0  0.00000000000E+00  0.00000000000E+00  0.45610522798E+02  0.45610523077E+02  0.50400000000E-02 0. -1.
         -2   -1    0    0    0  501 -0.00000000000E+00 -0.00000000000E+00 -0.34713756517E+02  0.34713756611E+02  0.25500000000E-02 0.  1.
        -24    2    1    2    0    0  0.00000000000E+00  0.00000000000E+00  0.10896766281E+02  0.80324279687E+02  0.79581721468E+02 0.  0.
         66    2    3    3    0    0 -0.33257593397E+02 -0.44634574020E+01  0.26989090133E+02  0.43109174937E+02  0.20000017507E+01 0.  0.
         13    1    3    3    0    0  0.33257593397E+02  0.44634574020E+01 -0.16092323852E+02  0.37215104750E+02  0.10566000000E+00 0. -1.
         13    1    4    4    0    0 -0.36399561983E+01 -0.71963147619E+00  0.32939894509E+01  0.49627292013E+01  0.10566000000E+00 0. -1.
        -13    1    4    4    0    0 -0.24825934781E+02 -0.35417537280E+01  0.20407505879E+02  0.32331849893E+02  0.10566000000E+00 0.  1.
         14    1    4    4    0    0 -0.47917024176E+01 -0.20207219777E+00  0.32875948027E+01  0.58145958431E+01  0.00000000000E+00 0. -1.
<mgrwt>
<rscale>  0 0.79581721E+02</rscale>
<asrwt>0</asrwt>
<pdfrwt beam="1">  1        1 0.70170035E-02 0.79581721E+02</pdfrwt>
<pdfrwt beam="2">  1       -2 0.53405780E-02 0.79581721E+02</pdfrwt>
<totfact> 0.13158939E+05</totfact>
</mgrwt>
</event>
<event>
 8    1  0.8247621E-014  0.7991745E+02  0.7818608E-02  0.1329286E+00
          1   -1    0    0  501    0  0.00000000000E+00  0.00000000000E+00  0.54906940050E+02  0.54906940281E+02  0.50400000000E-02 0. -1.
         -2   -1    0    0    0  501 -0.00000000000E+00 -0.00000000000E+00 -0.29080104141E+02  0.29080104253E+02  0.25500000000E-02 0.  1.
        -24    2    1    2    0    0  0.00000000000E+00  0.35527136788E-14  0.25826835909E+02  0.83987044535E+02  0.79917446134E+02 0.  0.
         66    2    3    3    0    0  0.31195695449E+02  0.22436533551E+02  0.24343475900E+02  0.45532123220E+02  0.19999934138E+01 0.  0.
         13    1    3    3    0    0 -0.31195695449E+02 -0.22436533551E+02  0.14833600082E+01  0.38454921315E+02  0.10566000000E+00 0. -1.
         13    1    4    4    0    0  0.18026139970E+02  0.13689723172E+02  0.14460973473E+02  0.26860401348E+02  0.10566000000E+00 0. -1.
        -13    1    4    4    0    0  0.79184329959E+01  0.55477662555E+01  0.55353466905E+01  0.11141387640E+02  0.10566000000E+00 0.  1.
        -14    1    4    4    0    0  0.52511224832E+01  0.31990441238E+01  0.43471557370E+01  0.75303342318E+01  0.00000000000E+00 0.  1.
<mgrwt>
<rscale>  0 0.79917446E+02</rscale>
<asrwt>0</asrwt>
<pdfrwt beam="1">  1        1 0.84472216E-02 0.79917446E+02</pdfrwt>
<pdfrwt beam="2">  1       -2 0.44738622E-02 0.79917446E+02</pdfrwt>
<totfact> 0.13389975E+05</totfact>
</mgrwt>
</event>
<event>
 8    1  0.8247621E-014  0.8124147E+02  0.7818608E-02  0.1325565E+00
         -2   -1    0    0    0  501 -0.00000000000E+00  0.00000000000E+00  0.70785969694E+01  0.70785974287E+01  0.25500000000E-02 0.  1.
          1   -1    0    0  501    0  0.00000000000E+00 -0.00000000000E+00 -0.23310329072E+03  0.23310329078E+03  0.50400000000E-02 0. -1.
        -24    2    1    2    0    0  0.00000000000E+00  0.00000000000E+00 -0.22602469375E+03  0.24018188820E+03  0.81241474850E+02 0.  0.
         66    2    3    3    0    0  0.11271349404E+02  0.38225913390E+02 -0.13593791206E+03  0.14167349683E+03  0.19999991317E+01 0.  0.
         13    1    3    3    0    0 -0.11271349404E+02 -0.38225913390E+02 -0.90086781695E+02  0.98508391379E+02  0.10566000000E+00 0. -1.
         13    1    4    4    0    0  0.11196562801E+01  0.48216725368E+01 -0.18210047229E+02  0.18871119213E+02  0.10566000000E+00 0. -1.
        -13    1    4    4    0    0  0.98206920644E+01  0.31244519121E+02 -0.11033182944E+03  0.11509035459E+03  0.10566000000E+00 0.  1.
        -14    1    4    4    0    0  0.33100105977E+00  0.21597217315E+01 -0.73960353892E+01  0.77120230250E+01  0.00000000000E+00 0.  1.
<mgrwt>
<rscale>  0 0.81241475E+02</rscale>
<asrwt>0</asrwt>
<pdfrwt beam="1">  1        1 0.35862039E-01 0.81241475E+02</pdfrwt>
<pdfrwt beam="2">  1       -2 0.10890151E-02 0.81241475E+02</pdfrwt>
<totfact> 0.16492362E+05</totfact>
</mgrwt>
</event>
<event>
 8    1  0.8247621E-014  0.7795915E+02  0.7818608E-02  0.1334945E+00
         -2   -1    0    0    0  501 -0.00000000000E+00  0.00000000000E+00  0.15147587469E+03  0.15147587472E+03  0.25500000000E-02 0.  1.
          1   -1    0    0  501    0  0.00000000000E+00 -0.00000000000E+00 -0.10030688192E+02  0.10030689458E+02  0.50400000000E-02 0. -1.
        -24    2    1    2    0    0  0.00000000000E+00  0.00000000000E+00  0.14144518650E+03  0.16150656417E+03  0.77959152679E+02 0.  0.
         66    2    3    3    0    0  0.37703200448E+02 -0.54444390356E+01  0.53909388420E+02  0.66040861692E+02  0.20000031646E+01 0.  0.
         13    1    3    3    0    0 -0.37703200448E+02  0.54444390356E+01  0.87535798082E+02  0.95465702482E+02  0.10566000000E+00 0. -1.
         13    1    4    4    0    0  0.16581273756E+02 -0.26877472960E+01  0.24080627346E+02  0.29360694855E+02  0.10566000000E+00 0. -1.
        -13    1    4    4    0    0  0.63740792035E+01 -0.11072537257E+01  0.10062488575E+02  0.11963266145E+02  0.10566000000E+00 0.  1.
         14    1    4    4    0    0  0.14747847488E+02 -0.16494380139E+01  0.19766272499E+02  0.24716900692E+02  0.00000000000E+00 0. -1.
<mgrwt>
<rscale>  0 0.77959153E+02</rscale>
<asrwt>0</asrwt>
<pdfrwt beam="1">  1        1 0.15431829E-02 0.77959153E+02</pdfrwt>
<pdfrwt beam="2">  1       -2 0.23303981E-01 0.77959153E+02</pdfrwt>
<totfact> 0.10067986E+05</totfact>
</mgrwt>
</event>
<event>
 8    1  0.8247621E-014  0.7476138E+02  0.7818608E-02  0.1344612E+00
          1   -1    0    0  501    0  0.00000000000E+00  0.00000000000E+00  0.26136841443E+02  0.26136841929E+02  0.50400000000E-02 0. -1.
         -2   -1    0    0    0  501 -0.00000000000E+00 -0.00000000000E+00 -0.53461541320E+02  0.53461541381E+02  0.25500000000E-02 0.  1.
        -24    2    1    2    0    0 -0.88817841970E-15  0.00000000000E+00 -0.27324699878E+02  0.79598383310E+02  0.74761376406E+02 0.  0.
         66    2    3    3    0    0 -0.54578435214E+01 -0.31493441909E+02 -0.34253760070E+02  0.46892910093E+02  0.19999997305E+01 0.  0.
         13    1    3    3    0    0  0.54578435214E+01  0.31493441909E+02  0.69290601922E+01  0.32705473217E+02  0.10566000000E+00 0. -1.
         13    1    4    4    0    0 -0.29441589874E+00 -0.23186317746E+01 -0.20153261417E+01  0.30879503753E+01  0.10566000000E+00 0. -1.
        -13    1    4    4    0    0 -0.16521097678E+00 -0.71071877595E+00 -0.10781735757E+01  0.13061539497E+01  0.10566000000E+00 0.  1.
        -14    1    4    4    0    0 -0.49982166459E+01 -0.28464091358E+02 -0.31160260353E+02  0.42498805768E+02  0.00000000000E+00 0.  1.
<mgrwt>
<rscale>  0 0.74761376E+02</rscale>
<asrwt>0</asrwt>
<pdfrwt beam="1">  1        1 0.40210526E-02 0.74761376E+02</pdfrwt>
<pdfrwt beam="2">  1       -2 0.82248525E-02 0.74761376E+02</pdfrwt>
<totfact> 0.14337888E+05</totfact>
</mgrwt>
</event>
<event>
 8    1  0.8247621E-014  0.7751732E+02  0.7818608E-02  0.1336248E+00
         -2   -1    0    0    0  501 -0.00000000000E+00  0.00000000000E+00  0.13288496338E+02  0.13288496582E+02  0.25500000000E-02 0.  1.
          1   -1    0    0  501    0  0.00000000000E+00 -0.00000000000E+00 -0.11304767530E+03  0.11304767541E+03  0.50400000000E-02 0. -1.
        -24    2    1    2    0    0  0.00000000000E+00 -0.44408920985E-15 -0.99759178964E+02  0.12633617200E+03  0.77517317853E+02 0.  0.
         66    2    3    3    0    0  0.27554247501E+02 -0.24933785310E+01 -0.57346822177E+01  0.28325608054E+02  0.19999999176E+01 0.  0.
         13    1    3    3    0    0 -0.27554247501E+02  0.24933785310E+01 -0.94024496746E+02  0.98010563942E+02  0.10566000000E+00 0. -1.
         13    1    4    4    0    0  0.10530094056E+02 -0.10441484020E+01 -0.28968398888E+01  0.10971598430E+02  0.10566000000E+00 0. -1.
        -13    1    4    4    0    0  0.11012630484E+02 -0.61242479676E+00 -0.22384943520E+01  0.11255004012E+02  0.10566000000E+00 0.  1.
        -14    1    4    4    0    0  0.60115229602E+01 -0.83680533234E+00 -0.59934797696E+00  0.60990056126E+01  0.00000000000E+00 0.  1.
<mgrwt>
<rscale>  0 0.77517318E+02</rscale>
<asrwt>0</asrwt>
<pdfrwt beam="1">  1        1 0.17391950E-01 0.77517318E+02</pdfrwt>
<pdfrwt beam="2">  1       -2 0.20443841E-02 0.77517318E+02</pdfrwt>
<totfact> 0.16336621E+05</totfact>
</mgrwt>
</event>
<event>
 8    1  0.8247621E-014  0.8541867E+02  0.7818608E-02  0.1314341E+00
          1   -1    0    0  501    0  0.00000000000E+00  0.00000000000E+00  0.20251401127E+03  0.20251401133E+03  0.50400000000E-02 0. -1.
         -2   -1    0    0    0  501 -0.00000000000E+00 -0.00000000000E+00 -0.90072150909E+01  0.90072154519E+01  0.25500000000E-02 0.  1.
        -24    2    1    2    0    0  0.35527136788E-14  0.00000000000E+00  0.19350679618E+03  0.21152122678E+03  0.85418670166E+02 0.  0.
         66    2    3    3    0    0 -0.30159464313E+02 -0.29680452086E+02  0.82894986882E+02  0.93091897462E+02  0.19999998227E+01 0.  0.
         13    1    3    3    0    0  0.30159464313E+02  0.29680452086E+02  0.11061180930E+03  0.11842932932E+03  0.10566000000E+00 0. -1.
         13    1    4    4    0    0 -0.52076554678E+01 -0.49951773204E+01  0.12764952826E+02  0.14663787254E+02  0.10566000000E+00 0. -1.
        -13    1    4    4    0    0 -0.24747498243E+02 -0.24567029083E+02  0.69562226909E+02  0.77813187596E+02  0.10566000000E+00 0.  1.
         14    1    4    4    0    0 -0.20431060200E+00 -0.11824568238E+00  0.56780714619E+00  0.61492261201E+00  0.00000000000E+00 0. -1.
<mgrwt>
<rscale>  0 0.85418670E+02</rscale>
<asrwt>0</asrwt>
<pdfrwt beam="1">  1        1 0.31156000E-01 0.85418670E+02</pdfrwt>
<pdfrwt beam="2">  1       -2 0.13857255E-02 0.85418670E+02</pdfrwt>
<totfact> 0.14036685E+05</totfact>
</mgrwt>
</event>
<event>
 8    1  0.8247621E-014  0.8520267E+02  0.7818608E-02  0.1314903E+00
         -2   -1    0    0    0  501 -0.00000000000E+00  0.00000000000E+00  0.74105490982E+01  0.74105495369E+01  0.25500000000E-02 0.  1.
          1   -1    0    0  501    0  0.00000000000E+00 -0.00000000000E+00 -0.24490404960E+03  0.24490404965E+03  0.50400000000E-02 0. -1.
        -24    2    1    2    0    0  0.00000000000E+00  0.00000000000E+00 -0.23749350050E+03  0.25231459919E+03  0.85202665353E+02 0.  0.
         66    2    3    3    0    0  0.32541804105E+02  0.17119400463E+02 -0.55241221118E+02  0.66390024720E+02  0.19999962915E+01 0.  0.
         13    1    3    3    0    0 -0.32541804105E+02 -0.17119400463E+02 -0.18225227939E+03  0.18592457447E+03  0.10566000000E+00 0. -1.
         13    1    4    4    0    0  0.67962316464E+01  0.41844697405E+01 -0.12699916176E+02  0.14999919550E+02  0.10566000000E+00 0. -1.
        -13    1    4    4    0    0  0.38923426613E+01  0.21039442544E+01 -0.71327291214E+01  0.83942779066E+01  0.10566000000E+00 0.  1.
        -14    1    4    4    0    0  0.21853229797E+02  0.10830986468E+02 -0.35408575820E+02  0.42995827263E+02  0.00000000000E+00 0.  1.
<mgrwt>
<rscale>  0 0.85202665E+02</rscale>
<asrwt>0</asrwt>
<pdfrwt beam="1">  1        1 0.37677540E-01 0.85202665E+02</pdfrwt>
<pdfrwt beam="2">  1       -2 0.11400847E-02 0.85202665E+02</pdfrwt>
<totfact> 0.14674493E+05</totfact>
</mgrwt>
</event>
<event>
 8    1  0.8247621E-014  0.8026595E+02  0.7818608E-02  0.1328298E+00
         -2   -1    0    0    0  501 -0.00000000000E+00  0.00000000000E+00  0.81549003303E+02  0.81549003343E+02  0.25500000000E-02 0.  1.
          1   -1    0    0  501    0  0.00000000000E+00 -0.00000000000E+00 -0.19750768943E+02  0.19750769586E+02  0.50400000000E-02 0. -1.
        -24    2    1    2    0    0  0.35527136788E-14 -0.35527136788E-14  0.61798234360E+02  0.10129977293E+03  0.80265946860E+02 0.  0.
         66    2    3    3    0    0 -0.25665498380E+02 -0.29741676361E+02  0.41121798892E+02  0.56905952778E+02  0.19999994203E+01 0.  0.
         13    1    3    3    0    0  0.25665498380E+02  0.29741676361E+02  0.20676435469E+02  0.44393820150E+02  0.10566000000E+00 0. -1.
         13    1    4    4    0    0 -0.10649119018E+01 -0.17488576969E+01  0.23264097017E+01  0.31009493286E+01  0.10566000000E+00 0. -1.
        -13    1    4    4    0    0 -0.22439381831E+02 -0.25264012937E+02  0.34806662402E+02  0.48510938131E+02  0.10566000000E+00 0.  1.
        -14    1    4    4    0    0 -0.21612046466E+01 -0.27288057262E+01  0.39887267875E+01  0.52940653190E+01  0.00000000000E+00 0.  1.
<mgrwt>
<rscale>  0 0.80265947E+02</rscale>
<asrwt>0</asrwt>
<pdfrwt beam="1">  1        1 0.30385799E-02 0.80265947E+02</pdfrwt>
<pdfrwt beam="2">  1       -2 0.12546001E-01 0.80265947E+02</pdfrwt>
<totfact> 0.11035778E+05</totfact>
</mgrwt>
</event>
<event>
 8    1  0.8247621E-014  0.8026637E+02  0.7818608E-02  0.1328297E+00
          1   -1    0    0  501    0  0.00000000000E+00  0.00000000000E+00  0.89963076466E+01  0.89963090583E+01  0.50400000000E-02 0. -1.
         -2   -1    0    0    0  501 -0.00000000000E+00 -0.00000000000E+00 -0.17903703094E+03  0.17903703096E+03  0.25500000000E-02 0.  1.
        -24    2    1    2    0    0  0.00000000000E+00 -0.71054273576E-14 -0.17004072329E+03  0.18803334001E+03  0.80266365182E+02 0.  0.
         66    2    3    3    0    0 -0.10752337704E+02 -0.38639780924E+02 -0.84725990385E+02  0.93761073409E+02  0.20000010540E+01 0.  0.
         13    1    3    3    0    0  0.10752337704E+02  0.38639780924E+02 -0.85314732906E+02  0.94272266604E+02  0.10566000000E+00 0. -1.
         13    1    4    4    0    0 -0.23639911996E+01 -0.96972847928E+01 -0.22756266917E+02  0.24849238112E+02  0.10566000000E+00 0.  1.
        -13    1    4    4    0    0 -0.40991990095E+00 -0.18840667600E+01 -0.37945424090E+01  0.42576352604E+01  0.10566000000E+00 0. -1.
         14    1    4    4    0    0 -0.79784266032E+01 -0.27058429371E+02 -0.58175181060E+02  0.64654200037E+02  0.00000000000E+00 0. -1.
<mgrwt>
<rscale>  0 0.80266365E+02</rscale>
<asrwt>0</asrwt>
<pdfrwt beam="1">  1        1 0.13840476E-02 0.80266365E+02</pdfrwt>
<pdfrwt beam="2">  1       -2 0.27544156E-01 0.80266365E+02</pdfrwt>
<totfact> 0.88070207E+04</totfact>
</mgrwt>
</event>
<event>
 8    1  0.8247621E-014  0.8139034E+02  0.7818608E-02  0.1325152E+00
         -2   -1    0    0    0  501 -0.00000000000E+00  0.00000000000E+00  0.22570101045E+03  0.22570101046E+03  0.25500000000E-02 0.  1.
          1   -1    0    0  501    0  0.00000000000E+00 -0.00000000000E+00 -0.73375689009E+01  0.73375706318E+01  0.50400000000E-02 0. -1.
        -24    2    1    2    0    0  0.00000000000E+00  0.00000000000E+00  0.21836344155E+03  0.23303858110E+03  0.81390341406E+02 0.  0.
         66    2    3    3    0    0  0.10131049125E+02 -0.35733642252E+02  0.15669067319E+03  0.16104501981E+03  0.19999993212E+01 0.  0.
         13    1    3    3    0    0 -0.10131049125E+02  0.35733642252E+02  0.61672768361E+02  0.71993561284E+02  0.10566000000E+00 0. -1.
         13    1    4    4    0    0  0.58036329265E+01 -0.19126402716E+02  0.87067416060E+02  0.89332231246E+02  0.10566000000E+00 0. -1.
        -13    1    4    4    0    0  0.28156506953E+01 -0.10044202669E+02  0.40680276688E+02  0.41996547139E+02  0.10566000000E+00 0.  1.
         14    1    4    4    0    0  0.15117655032E+01 -0.65630368669E+01  0.28942980439E+02  0.29716241427E+02  0.00000000000E+00 0. -1.
<mgrwt>
<rscale>  0 0.81390341E+02</rscale>
<asrwt>0</asrwt>
<pdfrwt beam="1">  1        1 0.11288573E-02 0.81390341E+02</pdfrwt>
<pdfrwt beam="2">  1       -2 0.34723220E-01 0.81390341E+02</pdfrwt>
<totfact> 0.77307506E+04</totfact>
</mgrwt>
</event>
<event>
 8    1  0.8247621E-014  0.7944077E+02  0.7818608E-02  0.1330646E+00
         -2   -1    0    0    0  501 -0.00000000000E+00  0.00000000000E+00  0.25771904119E+03  0.25771904120E+03  0.25500000000E-02 0.  1.
          1   -1    0    0  501    0  0.00000000000E+00 -0.00000000000E+00 -0.61218172729E+01  0.61218193476E+01  0.50400000000E-02 0. -1.
        -24    2    1    2    0    0  0.00000000000E+00  0.00000000000E+00  0.25159722392E+03  0.26384086055E+03  0.79440774248E+02 0.  0.
         66    2    3    3    0    0  0.38681283756E+02 -0.60399058063E+01  0.14765231557E+03  0.15276756353E+03  0.19999997969E+01 0.  0.
         13    1    3    3    0    0 -0.38681283756E+02  0.60399058063E+01  0.10394490835E+03  0.11107329702E+03  0.10566000000E+00 0. -1.
         13    1    4    4    0    0  0.18411994630E+02 -0.30543627504E+01  0.73513958269E+02  0.75846185814E+02  0.10566000000E+00 0. -1.
        -13    1    4    4    0    0  0.51747894447E+01 -0.42615660480E+00  0.18985575761E+02  0.19683071566E+02  0.10566000000E+00 0.  1.
         14    1    4    4    0    0  0.15094499681E+02 -0.25593864511E+01  0.55152781539E+02  0.57238306152E+02  0.00000000000E+00 0. -1.
<mgrwt>
<rscale>  0 0.79440774E+02</rscale>
<asrwt>0</asrwt>
<pdfrwt beam="1">  1        1 0.94181836E-03 0.79440774E+02</pdfrwt>
<pdfrwt beam="2">  1       -2 0.39649077E-01 0.79440774E+02</pdfrwt>
<totfact> 0.77381818E+04</totfact>
</mgrwt>
</event>
<event>
 8    1  0.8247621E-014  0.8129672E+02  0.7818608E-02  0.1325411E+00
         -2   -1    0    0    0  501 -0.00000000000E+00  0.00000000000E+00  0.70041880791E+02  0.70041880837E+02  0.25500000000E-02 0.  1.
          1   -1    0    0  501    0  0.00000000000E+00 -0.00000000000E+00 -0.23590015530E+02  0.23590016068E+02  0.50400000000E-02 0. -1.
        -24    2    1    2    0    0  0.00000000000E+00 -0.35527136788E-14  0.46451865261E+02  0.93631896905E+02  0.81296717841E+02 0.  0.
         66    2    3    3    0    0 -0.30589499170E+02 -0.15271921358E+02  0.48508164893E+02  0.59380056463E+02  0.20000006988E+01 0.  0.
         13    1    3    3    0    0  0.30589499170E+02  0.15271921358E+02 -0.20562996322E+01  0.34251840442E+02  0.10566000000E+00 0. -1.
         13    1    4    4    0    0 -0.73830434535E+01 -0.38565343046E+01  0.12998944221E+02  0.15439103030E+02  0.10566000000E+00 0. -1.
        -13    1    4    4    0    0 -0.17619093255E+02 -0.88500205409E+01  0.27737691380E+02  0.34031544158E+02  0.10566000000E+00 0.  1.
         14    1    4    4    0    0 -0.55873624624E+01 -0.25653665121E+01  0.77715292928E+01  0.99094092749E+01  0.00000000000E+00 0. -1.
<mgrwt>
<rscale>  0 0.81296718E+02</rscale>
<asrwt>0</asrwt>
<pdfrwt beam="1">  1        1 0.36292332E-02 0.81296718E+02</pdfrwt>
<pdfrwt beam="2">  1       -2 0.10775674E-01 0.81296718E+02</pdfrwt>
<totfact> 0.11029842E+05</totfact>
</mgrwt>
</event>
<event>
 8    1  0.8247621E-014  0.8114978E+02  0.7818608E-02  0.1325820E+00
          1   -1    0    0  501    0  0.00000000000E+00  0.00000000000E+00  0.12113907296E+02  0.12113908345E+02  0.50400000000E-02 0. -1.
         -2   -1    0    0    0  501 -0.00000000000E+00 -0.00000000000E+00 -0.13590343879E+03  0.13590343881E+03  0.25500000000E-02 0.  1.
        -24    2    1    2    0    0  0.71054273576E-14  0.00000000000E+00 -0.12378953149E+03  0.14801734715E+03  0.81149780975E+02 0.  0.
         66    2    3    3    0    0 -0.34766918883E+02  0.15643635326E+02 -0.87130878649E+02  0.95127556392E+02  0.19999990269E+01 0.  0.
         13    1    3    3    0    0  0.34766918883E+02 -0.15643635326E+02 -0.36658652841E+02  0.52889790763E+02  0.10566000000E+00 0. -1.
         13    1    4    4    0    0 -0.56899225435E+01  0.24121695720E+01 -0.15061744926E+02  0.16280697308E+02  0.10566000000E+00 0. -1.
        -13    1    4    4    0    0 -0.15721732697E+02  0.68633118712E+01 -0.40437512470E+02  0.43925863766E+02  0.10566000000E+00 0.  1.
        -14    1    4    4    0    0 -0.13355263642E+02  0.63681538828E+01 -0.31631621254E+02  0.34920995318E+02  0.00000000000E+00 0.  1.
<mgrwt>
<rscale>  0 0.81149781E+02</rscale>
<asrwt>0</asrwt>
<pdfrwt beam="1">  1        1 0.18636782E-02 0.81149781E+02</pdfrwt>
<pdfrwt beam="2">  1       -2 0.20908220E-01 0.81149781E+02</pdfrwt>
<totfact> 0.94003857E+04</totfact>
</mgrwt>
</event>
<event>
 8    1  0.8247621E-014  0.7926185E+02  0.7818608E-02  0.1331159E+00
         -2   -1    0    0    0  501 -0.00000000000E+00  0.00000000000E+00  0.10898193300E+02  0.10898193598E+02  0.25500000000E-02 0.  1.
          1   -1    0    0  501    0  0.00000000000E+00 -0.00000000000E+00 -0.14411657081E+03  0.14411657090E+03  0.50400000000E-02 0. -1.
        -24    2    1    2    0    0  0.71054273576E-14  0.00000000000E+00 -0.13321837751E+03  0.15501476450E+03  0.79261851516E+02 0.  0.
         66    2    3    3    0    0  0.33788974429E+02 -0.19953915092E+02 -0.77138238784E+02  0.86568824925E+02  0.20000114129E+01 0.  0.
         13    1    3    3    0    0 -0.33788974429E+02  0.19953915092E+02 -0.56080138731E+02  0.68445939577E+02  0.10566000000E+00 0. -1.
         13    1    4    4    0    0  0.11733189243E+02 -0.75661926532E+01 -0.27459817206E+02  0.30805319769E+02  0.10566000000E+00 0. -1.
        -13    1    4    4    0    0  0.20438659754E+02 -0.11559507247E+02 -0.46783699307E+02  0.52345837515E+02  0.10566000000E+00 0.  1.
         14    1    4    4    0    0  0.16171254327E+01 -0.82821519173E+00 -0.28947222716E+01  0.34176676401E+01  0.00000000000E+00 0. -1.
<mgrwt>
<rscale>  0 0.79261852E+02</rscale>
<asrwt>0</asrwt>
<pdfrwt beam="1">  1        1 0.22171779E-01 0.79261852E+02</pdfrwt>
<pdfrwt beam="2">  1       -2 0.16766453E-02 0.79261852E+02</pdfrwt>
<totfact> 0.16065997E+05</totfact>
</mgrwt>
</event>
<event>
 8    1  0.8247621E-014  0.8379679E+02  0.7818608E-02  0.1318609E+00
         -2   -1    0    0    0  501 -0.00000000000E+00  0.00000000000E+00  0.76485957525E+02  0.76485957568E+02  0.25500000000E-02 0.  1.
          1   -1    0    0  501    0  0.00000000000E+00 -0.00000000000E+00 -0.22951603190E+02  0.22951603744E+02  0.50400000000E-02 0. -1.
        -24    2    1    2    0    0 -0.17763568394E-14 -0.71054273576E-14  0.53534354335E+02  0.99437561311E+02  0.83796786964E+02 0.  0.
         66    2    3    3    0    0  0.12700321439E+02  0.36234650212E+02  0.46611260547E+02  0.60422327975E+02  0.20000168875E+01 0.  0.
         13    1    3    3    0    0 -0.12700321439E+02 -0.36234650212E+02  0.69230937876E+01  0.39015233336E+02  0.10566000000E+00 0. -1.
         13    1    4    4    0    0  0.39355626058E+01  0.13535921368E+02  0.16353909237E+02  0.21591001174E+02  0.10566000000E+00 0. -1.
        -13    1    4    4    0    0  0.62352908105E+01  0.16603948731E+02  0.21767505862E+02  0.28078558375E+02  0.10566000000E+00 0.  1.
         14    1    4    4    0    0  0.25294680232E+01  0.60947801127E+01  0.84898454480E+01  0.10752768426E+02  0.00000000000E+00 0. -1.
<mgrwt>
<rscale>  0 0.83796787E+02</rscale>
<asrwt>0</asrwt>
<pdfrwt beam="1">  1        1 0.35310160E-02 0.83796787E+02</pdfrwt>
<pdfrwt beam="2">  1       -2 0.11767070E-01 0.83796787E+02</pdfrwt>
<totfact> 0.10026614E+05</totfact>
</mgrwt>
</event>
<event>
 8    1  0.8247621E-014  0.8148819E+02  0.7818608E-02  0.1324880E+00
         -2   -1    0    0    0  501 -0.00000000000E+00  0.00000000000E+00  0.18857064162E+02  0.18857064334E+02  0.25500000000E-02 0.  1.
          1   -1    0    0  501    0  0.00000000000E+00 -0.00000000000E+00 -0.88034982123E+02  0.88034982267E+02  0.50400000000E-02 0. -1.
        -24    2    1    2    0    0  0.44408920985E-15  0.00000000000E+00 -0.69177917961E+02  0.10689204660E+03  0.81488191128E+02 0.  0.
         66    2    3    3    0    0 -0.35576265878E+01 -0.39286444238E+02 -0.47857422066E+02  0.62051706315E+02  0.20000005077E+01 0.  0.
         13    1    3    3    0    0  0.35576265878E+01  0.39286444238E+02 -0.21320495895E+02  0.44840340287E+02  0.10566000000E+00 0. -1.
         13    1    4    4    0    0 -0.48133225962E+00 -0.45575376586E+01 -0.50596962758E+01  0.68274827493E+01  0.10566000000E+00 0. -1.
        -13    1    4    4    0    0 -0.29869732086E+01 -0.26195541554E+02 -0.32109983595E+02  0.41547450184E+02  0.10566000000E+00 0.  1.
         14    1    4    4    0    0 -0.89321119540E-01 -0.85333650253E+01 -0.10687742195E+02  0.13676773382E+02  0.00000000000E+00 0. -1.
<mgrwt>
<rscale>  0 0.81488191E+02</rscale>
<asrwt>0</asrwt>
<pdfrwt beam="1">  1        1 0.13543843E-01 0.81488191E+02</pdfrwt>
<pdfrwt beam="2">  1       -2 0.29010869E-02 0.81488191E+02</pdfrwt>
<totfact> 0.13688370E+05</totfact>
</mgrwt>
</event>
<event>
 8    1  0.8247621E-014  0.7010008E+02  0.7818608E-02  0.1359753E+00
          1   -1    0    0  501    0  0.00000000000E+00  0.00000000000E+00  0.35189032769E+02  0.35189033130E+02  0.50400000000E-02 0. -1.
         -2   -1    0    0    0  501 -0.00000000000E+00 -0.00000000000E+00 -0.34911599695E+02  0.34911599788E+02  0.25500000000E-02 0.  1.
        -24    2    1    2    0    0  0.00000000000E+00 -0.17763568394E-14  0.27743307341E+00  0.70100632918E+02  0.70100083926E+02 0.  0.
         66    2    3    3    0    0  0.22828301450E+02 -0.13132858554E+02 -0.22945921139E+02  0.34987406553E+02  0.19999998671E+01 0.  0.
         13    1    3    3    0    0 -0.22828301450E+02  0.13132858554E+02  0.23223354212E+02  0.35113226366E+02  0.10566000000E+00 0. -1.
         13    1    4    4    0    0  0.51025187547E+01 -0.35205712078E+01 -0.46938276997E+01  0.77764581772E+01  0.10566000000E+00 0. -1.
        -13    1    4    4    0    0  0.76113325922E+01 -0.41529080913E+01 -0.73046195080E+01  0.11337886030E+02  0.10566000000E+00 0.  1.
        -14    1    4    4    0    0  0.10114450103E+02 -0.54593792554E+01 -0.10947473931E+02  0.15873062345E+02  0.00000000000E+00 0.  1.
<mgrwt>
<rscale>  0 0.70100084E+02</rscale>
<asrwt>0</asrwt>
<pdfrwt beam="1">  1        1 0.54136974E-02 0.70100084E+02</pdfrwt>
<pdfrwt beam="2">  1       -2 0.53710153E-02 0.70100084E+02</pdfrwt>
<totfact> 0.17998655E+05</totfact>
</mgrwt>
</event>
<event>
 8    1  0.8247621E-014  0.7665312E+02  0.7818608E-02  0.1338827E+00
          1   -1    0    0  501    0  0.00000000000E+00  0.00000000000E+00  0.58178718700E+02  0.58178718919E+02  0.50400000000E-02 0. -1.
         -2   -1    0    0    0  501 -0.00000000000E+00 -0.00000000000E+00 -0.25248499734E+02  0.25248499862E+02  0.25500000000E-02 0.  1.
        -24    2    1    2    0    0  0.35527136788E-14 -0.17763568394E-14  0.32930218967E+02  0.83427218781E+02  0.76653124609E+02 0.  0.
         66    2    3    3    0    0 -0.23110703960E+02  0.15627608725E+02 -0.12083792756E+02  0.30468751967E+02  0.20000017744E+01 0.  0.
         13    1    3    3    0    0  0.23110703960E+02 -0.15627608725E+02  0.45014011722E+02  0.52958466814E+02  0.10566000000E+00 0. -1.
         13    1    4    4    0    0 -0.14367390229E+02  0.97257778298E+01 -0.65658743868E+01  0.18550863238E+02  0.10566000000E+00 0. -1.
        -13    1    4    4    0    0 -0.67171301654E+01  0.44682160272E+01 -0.39626097314E+01  0.89887836799E+01  0.10566000000E+00 0.  1.
        -14    1    4    4    0    0 -0.20261835652E+01  0.14336148677E+01 -0.15553086374E+01  0.29291050487E+01  0.00000000000E+00 0.  1.
<mgrwt>
<rscale>  0 0.76653125E+02</rscale>
<asrwt>0</asrwt>
<pdfrwt beam="1">  1        1 0.89505720E-02 0.76653125E+02</pdfrwt>
<pdfrwt beam="2">  1       -2 0.38843846E-02 0.76653125E+02</pdfrwt>
<totfact> 0.15154183E+05</totfact>
</mgrwt>
</event>
<event>
 8    1  0.8247621E-014  0.8205946E+02  0.7818608E-02  0.1323307E+00
         -2   -1    0    0    0  501 -0.00000000000E+00  0.00000000000E+00  0.17868421807E+02  0.17868421989E+02  0.25500000000E-02 0.  1.
          1   -1    0    0  501    0  0.00000000000E+00 -0.00000000000E+00 -0.94213070326E+02  0.94213070461E+02  0.50400000000E-02 0. -1.
        -24    2    1    2    0    0  0.88817841970E-15 -0.35527136788E-14 -0.76344648519E+02  0.11208149245E+03  0.82059463758E+02 0.  0.
         66    2    3    3    0    0 -0.44042087019E+01 -0.21063440680E+02  0.94804840385E+01  0.23599685675E+02  0.19999996930E+01 0.  0.
         13    1    3    3    0    0  0.44042087019E+01  0.21063440680E+02 -0.85825132558E+02  0.88481806775E+02  0.10566000000E+00 0. -1.
         13    1    4    4    0    0 -0.29473431910E+00 -0.29334177233E+01  0.18814415591E+01  0.34989704535E+01  0.10566000000E+00 0. -1.
        -13    1    4    4    0    0 -0.41254580973E+01 -0.17663218833E+02  0.73508145209E+01  0.19571774120E+02  0.10566000000E+00 0.  1.
        -14    1    4    4    0    0  0.15983714556E-01 -0.46680412393E+00  0.24822795854E+00  0.52894110131E+00  0.00000000000E+00 0.  1.
<mgrwt>
<rscale>  0 0.82059464E+02</rscale>
<asrwt>0</asrwt>
<pdfrwt beam="1">  1        1 0.14494318E-01 0.82059464E+02</pdfrwt>
<pdfrwt beam="2">  1       -2 0.27489880E-02 0.82059464E+02</pdfrwt>
<totfact> 0.13583822E+05</totfact>
</mgrwt>
</event>
<event>
 8    1  0.8247621E-014  0.8040213E+02  0.7818608E-02  0.1327914E+00
         -2   -1    0    0    0  501 -0.00000000000E+00  0.00000000000E+00  0.24993969822E+02  0.24993969953E+02  0.25500000000E-02 0.  1.
          1   -1    0    0  501    0  0.00000000000E+00 -0.00000000000E+00 -0.64660623097E+02  0.64660623294E+02  0.50400000000E-02 0. -1.
        -24    2    1    2    0    0 -0.71054273576E-14  0.00000000000E+00 -0.39666653275E+02  0.89654593246E+02  0.80402131241E+02 0.  0.
         66    2    3    3    0    0 -0.32619930782E+02  0.19586316452E+02 -0.54598985206E+01  0.38490182654E+02  0.19999981311E+01 0.  0.
         13    1    3    3    0    0  0.32619930782E+02 -0.19586316452E+02 -0.34206754754E+02  0.51164410592E+02  0.10566000000E+00 0. -1.
         13    1    4    4    0    0 -0.45852583397E+01  0.34365533697E+01 -0.50866773336E+00  0.57536423249E+01  0.10566000000E+00 0. -1.
        -13    1    4    4    0    0 -0.58208149029E+01  0.30965850802E+01 -0.10993886265E+01  0.66850987039E+01  0.10566000000E+00 0.  1.
        -14    1    4    4    0    0 -0.22213857539E+02  0.13053178002E+02 -0.38518421607E+01  0.26051441625E+02  0.00000000000E+00 0.  1.
<mgrwt>
<rscale>  0 0.80402131E+02</rscale>
<asrwt>0</asrwt>
<pdfrwt beam="1">  1        1 0.99477881E-02 0.80402131E+02</pdfrwt>
<pdfrwt beam="2">  1       -2 0.38452262E-02 0.80402131E+02</pdfrwt>
<totfact> 0.13510735E+05</totfact>
</mgrwt>
</event>
<event>
 8    1  0.8247621E-014  0.7912814E+02  0.7818608E-02  0.1331544E+00
          1   -1    0    0  501    0  0.00000000000E+00  0.00000000000E+00  0.12113873483E+02  0.12113874531E+02  0.50400000000E-02 0. -1.
         -2   -1    0    0    0  501 -0.00000000000E+00 -0.00000000000E+00 -0.12921677871E+03  0.12921677873E+03  0.25500000000E-02 0.  1.
        -24    2    1    2    0    0 -0.35527136788E-14  0.00000000000E+00 -0.11710290523E+03  0.14133065327E+03  0.79128143792E+02 0.  0.
         66    2    3    3    0    0 -0.24123177438E+02  0.24802414844E+02 -0.92769253983E+02  0.99031419009E+02  0.19999986640E+01 0.  0.
         13    1    3    3    0    0  0.24123177438E+02 -0.24802414844E+02 -0.24333651243E+02  0.42299234256E+02  0.10566000000E+00 0. -1.
         13    1    4    4    0    0 -0.34111696764E+01  0.42304870939E+01 -0.14324172918E+02  0.15320776528E+02  0.10566000000E+00 0.  1.
        -13    1    4    4    0    0 -0.73188788128E+01  0.66339558515E+01 -0.25400805014E+02  0.27254126600E+02  0.10566000000E+00 0. -1.
         14    1    4    4    0    0 -0.13393128949E+02  0.13937971898E+02 -0.53044276050E+02  0.56456515881E+02  0.00000000000E+00 0. -1.
<mgrwt>
<rscale>  0 0.79128144E+02</rscale>
<asrwt>0</asrwt>
<pdfrwt beam="1">  1        1 0.18636730E-02 0.79128144E+02</pdfrwt>
<pdfrwt beam="2">  1       -2 0.19879504E-01 0.79128144E+02</pdfrwt>
<totfact> 0.10183702E+05</totfact>
</mgrwt>
</event>
<event>
 8    1  0.8247621E-014  0.7895624E+02  0.7818608E-02  0.1332040E+00
          1   -1    0    0  501    0  0.00000000000E+00  0.00000000000E+00  0.24988154645E+03  0.24988154651E+03  0.50400000000E-02 0. -1.
         -2   -1    0    0    0  501 -0.00000000000E+00 -0.00000000000E+00 -0.62370435108E+01  0.62370440321E+01  0.25500000000E-02 0.  1.
        -24    2    1    2    0    0  0.17763568394E-14  0.00000000000E+00  0.24364450294E+03  0.25611859054E+03  0.78956244872E+02 0.  0.
         66    2    3    3    0    0  0.11470644863E+02  0.33689883358E+02  0.66666561020E+02  0.75597713557E+02  0.20000006387E+01 0.  0.
         13    1    3    3    0    0 -0.11470644863E+02 -0.33689883358E+02  0.17697794192E+03  0.18052087698E+03  0.10566000000E+00 0. -1.
         13    1    4    4    0    0  0.30031941695E+01  0.98954016341E+01  0.20030075621E+02  0.22542254593E+02  0.10566000000E+00 0. -1.
        -13    1    4    4    0    0  0.83305761673E+01  0.22767457820E+02  0.45079651711E+02  0.51185367023E+02  0.10566000000E+00 0.  1.
        -14    1    4    4    0    0  0.13687452659E+00  0.10270239039E+01  0.15568336878E+01  0.18700919407E+01  0.00000000000E+00 0.  1.
<mgrwt>
<rscale>  0 0.78956245E+02</rscale>
<asrwt>0</asrwt>
<pdfrwt beam="1">  1        1 0.38443318E-01 0.78956245E+02</pdfrwt>
<pdfrwt beam="2">  1       -2 0.95954512E-03 0.78956245E+02</pdfrwt>
<totfact> 0.18028551E+05</totfact>
</mgrwt>
</event>
<event>
 8    1  0.8247621E-014  0.7484507E+02  0.7818608E-02  0.1344351E+00
          1   -1    0    0  501    0  0.00000000000E+00  0.00000000000E+00  0.31034491847E+03  0.31034491851E+03  0.50400000000E-02 0. -1.
         -2   -1    0    0    0  501 -0.00000000000E+00 -0.00000000000E+00 -0.45125467483E+01  0.45125474688E+01  0.25500000000E-02 0.  1.
        -24    2    1    2    0    0  0.35527136788E-14 -0.71054273576E-14  0.30583237172E+03  0.31485746598E+03  0.74845068576E+02 0.  0.
         66    2    3    3    0    0  0.16624808609E+02 -0.33374875847E+02  0.14099733119E+03  0.14585785548E+03  0.20000006024E+01 0.  0.
         13    1    3    3    0    0 -0.16624808609E+02  0.33374875847E+02  0.16483504053E+03  0.16899961050E+03  0.10566000000E+00 0. -1.
         13    1    4    4    0    0  0.17583025689E+01 -0.39073230882E+01  0.18263452219E+02  0.18759628265E+02  0.10566000000E+00 0. -1.
        -13    1    4    4    0    0  0.74181517541E+01 -0.15604461351E+02  0.65323965182E+02  0.67570406101E+02  0.10566000000E+00 0.  1.
        -14    1    4    4    0    0  0.74483542856E+01 -0.13863091408E+02  0.57409913790E+02  0.59527821111E+02  0.00000000000E+00 0.  1.
<mgrwt>
<rscale>  0 0.74845069E+02</rscale>
<asrwt>0</asrwt>
<pdfrwt beam="1">  1        1 0.47745374E-01 0.74845069E+02</pdfrwt>
<pdfrwt beam="2">  1       -2 0.69423799E-03 0.74845069E+02</pdfrwt>
<totfact> 0.21627733E+05</totfact>
</mgrwt>
</event>
<event>
 8    1  0.8247621E-014  0.8354208E+02  0.7818608E-02  0.1319290E+00
          1   -1    0    0  501    0  0.00000000000E+00  0.00000000000E+00  0.39702162340E+02  0.39702162660E+02  0.50400000000E-02 0. -1.
         -2   -1    0    0    0  501 -0.00000000000E+00 -0.00000000000E+00 -0.43947727366E+02  0.43947727440E+02  0.25500000000E-02 0.  1.
        -24    2    1    2    0    0 -0.35527136788E-14  0.00000000000E+00 -0.42455650259E+01  0.83649890101E+02  0.83542080962E+02 0.  0.
         66    2    3    3    0    0 -0.26718545636E+02 -0.16350173351E+02 -0.29756818625E+02  0.43251324857E+02  0.19999994417E+01 0.  0.
         13    1    3    3    0    0  0.26718545636E+02  0.16350173351E+02  0.25511253599E+02  0.40398565243E+02  0.10566000000E+00 0. -1.
         13    1    4    4    0    0 -0.55225582348E+01 -0.27097767953E+01 -0.64009594858E+01  0.88783436581E+01  0.10566000000E+00 0. -1.
        -13    1    4    4    0    0 -0.19352884958E+02 -0.12501048348E+02 -0.21645139907E+02  0.31612238320E+02  0.10566000000E+00 0.  1.
        -14    1    4    4    0    0 -0.18431024429E+01 -0.11393482070E+01 -0.17107192322E+01  0.27607428789E+01  0.00000000000E+00 0.  1.
<mgrwt>
<rscale>  0 0.83542081E+02</rscale>
<asrwt>0</asrwt>
<pdfrwt beam="1">  1        1 0.61080251E-02 0.83542081E+02</pdfrwt>
<pdfrwt beam="2">  1       -2 0.67611888E-02 0.83542081E+02</pdfrwt>
<totfact> 0.11218334E+05</totfact>
</mgrwt>
</event>
<event>
 8    1  0.8247621E-014  0.7979139E+02  0.7818608E-02  0.1329644E+00
         -2   -1    0    0    0  501 -0.00000000000E+00  0.00000000000E+00  0.50683069371E+02  0.50683069435E+02  0.25500000000E-02 0.  1.
          1   -1    0    0  501    0  0.00000000000E+00 -0.00000000000E+00 -0.31404301784E+02  0.31404302189E+02  0.50400000000E-02 0. -1.
        -24    2    1    2    0    0  0.00000000000E+00  0.17763568394E-14  0.19278767587E+02  0.82087371624E+02  0.79791388636E+02 0.  0.
         66    2    3    3    0    0 -0.32705716659E+02 -0.11123772587E+02  0.30124483714E+02  0.45879044666E+02  0.20000004132E+01 0.  0.
         13    1    3    3    0    0  0.32705716659E+02  0.11123772587E+02 -0.10845716127E+02  0.36208326958E+02  0.10566000000E+00 0. -1.
         13    1    4    4    0    0 -0.31628496539E+01 -0.13106100133E+01  0.35683246128E+01  0.49462532404E+01  0.10566000000E+00 0. -1.
        -13    1    4    4    0    0 -0.17610144986E+02 -0.55030187422E+01  0.16280912829E+02  0.24606497278E+02  0.10566000000E+00 0.  1.
        -14    1    4    4    0    0 -0.11932722019E+02 -0.43101438311E+01  0.10275246272E+02  0.16326294147E+02  0.00000000000E+00 0.  1.
<mgrwt>
<rscale>  0 0.79791389E+02</rscale>
<asrwt>0</asrwt>
<pdfrwt beam="1">  1        1 0.48314311E-02 0.79791389E+02</pdfrwt>
<pdfrwt beam="2">  1       -2 0.77973953E-02 0.79791389E+02</pdfrwt>
<totfact> 0.12283854E+05</totfact>
</mgrwt>
</event>
<event>
 8    1  0.8247621E-014  0.8077397E+02  0.7818608E-02  0.1326869E+00
         -2   -1    0    0    0  501 -0.00000000000E+00  0.00000000000E+00  0.27922501908E+02  0.27922502024E+02  0.25500000000E-02 0.  1.
          1   -1    0    0  501    0  0.00000000000E+00 -0.00000000000E+00 -0.58415562582E+02  0.58415562800E+02  0.50400000000E-02 0. -1.
        -24    2    1    2    0    0  0.00000000000E+00  0.00000000000E+00 -0.30493060675E+02  0.86338064824E+02  0.80773972839E+02 0.  0.
         66    2    3    3    0    0 -0.37930222423E+02  0.98965142447E+01 -0.25533884517E+02  0.46825442038E+02  0.19999990619E+01 0.  0.
         13    1    3    3    0    0  0.37930222423E+02 -0.98965142447E+01 -0.49591761578E+01  0.39512622786E+02  0.10566000000E+00 0. -1.
         13    1    4    4    0    0 -0.12995552291E+02  0.37259250367E+01 -0.91965455195E+01  0.16350978878E+02  0.10566000000E+00 0. -1.
        -13    1    4    4    0    0 -0.13459420396E+02  0.33393247536E+01 -0.96425412154E+01  0.16890732735E+02  0.10566000000E+00 0.  1.
         14    1    4    4    0    0 -0.11475249736E+02  0.28312644544E+01 -0.66947977819E+01  0.13583730424E+02  0.00000000000E+00 0. -1.
<mgrwt>
<rscale>  0 0.80773973E+02</rscale>
<asrwt>0</asrwt>
<pdfrwt beam="1">  1        1 0.89870096E-02 0.80773973E+02</pdfrwt>
<pdfrwt beam="2">  1       -2 0.42957696E-02 0.80773973E+02</pdfrwt>
<totfact> 0.13128048E+05</totfact>
</mgrwt>
</event>
<event>
 8    1  0.8247621E-014  0.7990251E+02  0.7818608E-02  0.1329328E+00
          1   -1    0    0  501    0  0.00000000000E+00  0.00000000000E+00  0.43081357072E+01  0.43081386553E+01  0.50400000000E-02 0. -1.
         -2   -1    0    0    0  501 -0.00000000000E+00 -0.00000000000E+00 -0.37048558197E+03  0.37048558198E+03  0.25500000000E-02 0.  1.
        -24    2    1    2    0    0  0.71054273576E-14  0.00000000000E+00 -0.36617744626E+03  0.37479372063E+03  0.79902508566E+02 0.  0.
         66    2    3    3    0    0 -0.35844837775E+02  0.10624890184E+02 -0.24893183156E+03  0.25173159804E+03  0.20000002320E+01 0.  0.
         13    1    3    3    0    0  0.35844837775E+02 -0.10624890184E+02 -0.11724561470E+03  0.12306212259E+03  0.10566000000E+00 0. -1.
         13    1    4    4    0    0 -0.15042592808E+02  0.48590558246E+01 -0.11086402331E+03  0.11198541356E+03  0.10566000000E+00 0. -1.
        -13    1    4    4    0    0 -0.11170983066E+01  0.35149659625E+00 -0.71640130380E+01  0.72598695118E+01  0.10566000000E+00 0.  1.
         14    1    4    4    0    0 -0.19685146661E+02  0.54143377627E+01 -0.13090379522E+03  0.13248631497E+03  0.00000000000E+00 0. -1.
<mgrwt>
<rscale>  0 0.79902509E+02</rscale>
<asrwt>0</asrwt>
<pdfrwt beam="1">  1        1 0.66279063E-03 0.79902509E+02</pdfrwt>
<pdfrwt beam="2">  1       -2 0.56997757E-01 0.79902509E+02</pdfrwt>
<totfact> 0.62288865E+04</totfact>
</mgrwt>
</event>
<event>
 8    1  0.8247621E-014  0.8024285E+02  0.7818608E-02  0.1328364E+00
          1   -1    0    0  501    0  0.00000000000E+00  0.00000000000E+00  0.62275841890E+02  0.62275842094E+02  0.50400000000E-02 0. -1.
         -2   -1    0    0    0  501 -0.00000000000E+00 -0.00000000000E+00 -0.25848368176E+02  0.25848368302E+02  0.25500000000E-02 0.  1.
        -24    2    1    2    0    0 -0.17763568394E-14  0.00000000000E+00  0.36427473714E+02  0.88124210396E+02  0.80242853992E+02 0.  0.
         66    2    3    3    0    0 -0.14527448062E+02  0.18692626028E+02 -0.17314923689E+02  0.29398428515E+02  0.20000004548E+01 0.  0.
         13    1    3    3    0    0  0.14527448062E+02 -0.18692626028E+02  0.53742397402E+02  0.58725781881E+02  0.10566000000E+00 0. -1.
         13    1    4    4    0    0 -0.47809074401E+01  0.55322865186E+01 -0.47554805883E+01  0.87229025981E+01  0.10566000000E+00 0. -1.
        -13    1    4    4    0    0 -0.90715115837E+01  0.12190317112E+02 -0.11218516373E+02  0.18888155743E+02  0.10566000000E+00 0.  1.
         14    1    4    4    0    0 -0.67502903782E+00  0.97002239664E+00 -0.13409267270E+01  0.17873701740E+01  0.00000000000E+00 0. -1.
<mgrwt>
<rscale>  0 0.80242854E+02</rscale>
<asrwt>0</asrwt>
<pdfrwt beam="1">  1        1 0.95808988E-02 0.80242854E+02</pdfrwt>
<pdfrwt beam="2">  1       -2 0.39766720E-02 0.80242854E+02</pdfrwt>
<totfact> 0.13504512E+05</totfact>
</mgrwt>
</event>
<event>
 8    1  0.8247621E-014  0.8574239E+02  0.7818608E-02  0.1313502E+00
         -2   -1    0    0    0  501 -0.00000000000E+00  0.00000000000E+00  0.36221358296E+03  0.36221358297E+03  0.25500000000E-02 0.  1.
          1   -1    0    0  501    0  0.00000000000E+00 -0.00000000000E+00 -0.50741857043E+01  0.50741882073E+01  0.50400000000E-02 0. -1.
        -24    2    1    2    0    0  0.00000000000E+00  0.00000000000E+00  0.35713939726E+03  0.36728777118E+03  0.85742391987E+02 0.  0.
         66    2    3    3    0    0 -0.14978493589E+02 -0.85876365334E+01  0.34664956020E+03  0.34708503332E+03  0.19999991352E+01 0.  0.
         13    1    3    3    0    0  0.14978493589E+02  0.85876365334E+01  0.10489837057E+02  0.20202737857E+02  0.10566000000E+00 0. -1.
         13    1    4    4    0    0 -0.31450693791E+01 -0.13159748705E+01  0.79019149224E+02  0.79092732658E+02  0.10566000000E+00 0. -1.
        -13    1    4    4    0    0 -0.73217856518E+01 -0.39591854528E+01  0.15839583168E+03  0.15861442038E+03  0.10566000000E+00 0.  1.
        -14    1    4    4    0    0 -0.45116385578E+01 -0.33124762101E+01  0.10923457930E+03  0.10937788029E+03  0.00000000000E+00 0.  1.
<mgrwt>
<rscale>  0 0.85742392E+02</rscale>
<asrwt>0</asrwt>
<pdfrwt beam="1">  1        1 0.78064411E-03 0.85742392E+02</pdfrwt>
<pdfrwt beam="2">  1       -2 0.55725169E-01 0.85742392E+02</pdfrwt>
<totfact> 0.52622891E+04</totfact>
</mgrwt>
</event>
<event>
 8    1  0.8247621E-014  0.8145270E+02  0.7818608E-02  0.1324979E+00
         -2   -1    0    0    0  501 -0.00000000000E+00  0.00000000000E+00  0.86675656757E+01  0.86675660508E+01  0.25500000000E-02 0.  1.
          1   -1    0    0  501    0  0.00000000000E+00 -0.00000000000E+00 -0.19136119410E+03  0.19136119417E+03  0.50400000000E-02 0. -1.
        -24    2    1    2    0    0  0.00000000000E+00  0.88817841970E-15 -0.18269362842E+03  0.20002876022E+03  0.81452704358E+02 0.  0.
         66    2    3    3    0    0 -0.40241929272E+02  0.48958010074E+01 -0.82462935681E+02  0.91910377549E+02  0.20000002471E+01 0.  0.
         13    1    3    3    0    0  0.40241929272E+02 -0.48958010074E+01 -0.10023069274E+03  0.10811838267E+03  0.10566000000E+00 0. -1.
         13    1    4    4    0    0 -0.80221484971E+01  0.16307811078E+01 -0.16339725190E+02  0.18275997835E+02  0.10566000000E+00 0. -1.
        -13    1    4    4    0    0 -0.11248036464E+02  0.15906979774E+01 -0.22937309245E+02  0.25596483426E+02  0.10566000000E+00 0.  1.
         14    1    4    4    0    0 -0.20971744311E+02  0.16743219221E+01 -0.43185901246E+02  0.48037896288E+02  0.00000000000E+00 0. -1.
<mgrwt>
<rscale>  0 0.81452704E+02</rscale>
<asrwt>0</asrwt>
<pdfrwt beam="1">  1        1 0.29440181E-01 0.81452704E+02</pdfrwt>
<pdfrwt beam="2">  1       -2 0.13334718E-02 0.81452704E+02</pdfrwt>
<totfact> 0.15759224E+05</totfact>
</mgrwt>
</event>
<event>
 8    1  0.8247621E-014  0.7814371E+02  0.7818608E-02  0.1334403E+00
         -2   -1    0    0    0  501 -0.00000000000E+00  0.00000000000E+00  0.15155208652E+02  0.15155208867E+02  0.25500000000E-02 0.  1.
          1   -1    0    0  501    0  0.00000000000E+00 -0.00000000000E+00 -0.10073168325E+03  0.10073168338E+03  0.50400000000E-02 0. -1.
        -24    2    1    2    0    0  0.00000000000E+00  0.71054273576E-14 -0.85576474602E+02  0.11588689225E+03  0.78143706013E+02 0.  0.
         66    2    3    3    0    0 -0.54525535959E+01 -0.38440021153E+02 -0.36658764356E+02  0.53434357417E+02  0.19999953658E+01 0.  0.
         13    1    3    3    0    0  0.54525535959E+01  0.38440021153E+02 -0.48917710246E+02  0.62452534830E+02  0.10566000000E+00 0. -1.
         13    1    4    4    0    0 -0.15698734759E+01 -0.80171860773E+01 -0.78955311307E+01  0.11361793485E+02  0.10566000000E+00 0.  1.
        -13    1    4    4    0    0 -0.69551208326E+00 -0.10686472769E+02 -0.10315614299E+02  0.14869683914E+02  0.10566000000E+00 0.  1.
        -14    1    4    4    0    0 -0.31871680368E+01 -0.19736362307E+02 -0.18447618926E+02  0.27202880017E+02  0.00000000000E+00 0.  1.
<mgrwt>
<rscale>  0 0.78143706E+02</rscale>
<asrwt>0</asrwt>
<pdfrwt beam="1">  1        1 0.15497182E-01 0.78143706E+02</pdfrwt>
<pdfrwt beam="2">  1       -2 0.23315707E-02 0.78143706E+02</pdfrwt>
<totfact> 0.15679469E+05</totfact>
</mgrwt>
</event>
<event>
 8    1  0.8247621E-014  0.8047861E+02  0.7818608E-02  0.1327699E+00
          1   -1    0    0  501    0  0.00000000000E+00  0.00000000000E+00  0.55295072530E+02  0.55295072759E+02  0.50400000000E-02 0. -1.
         -2   -1    0    0    0  501 -0.00000000000E+00 -0.00000000000E+00 -0.29282927100E+02  0.29282927211E+02  0.25500000000E-02 0.  1.
        -24    2    1    2    0    0 -0.35527136788E-14  0.00000000000E+00  0.26012145430E+02  0.84577999971E+02  0.80478608147E+02 0.  0.
         66    2    3    3    0    0 -0.20735607302E+02 -0.18407040888E+02 -0.17597118458E+02  0.32900503656E+02  0.19999995898E+01 0.  0.
         13    1    3    3    0    0  0.20735607302E+02  0.18407040888E+02  0.43609263888E+02  0.51677496314E+02  0.10566000000E+00 0. -1.
         13    1    4    4    0    0 -0.90193626968E+01 -0.77620078685E+01 -0.76919478213E+01  0.14169505811E+02  0.10566000000E+00 0. -1.
        -13    1    4    4    0    0 -0.51686465272E+01 -0.38031605630E+01 -0.43235144329E+01  0.77384028247E+01  0.10566000000E+00 0.  1.
         14    1    4    4    0    0 -0.65475980784E+01 -0.68418724565E+01 -0.55816562041E+01  0.10992595021E+02  0.00000000000E+00 0. -1.
<mgrwt>
<rscale>  0 0.80478608E+02</rscale>
<asrwt>0</asrwt>
<pdfrwt beam="1">  1        1 0.85069341E-02 0.80478608E+02</pdfrwt>
<pdfrwt beam="2">  1       -2 0.45050658E-02 0.80478608E+02</pdfrwt>
<totfact> 0.13147552E+05</totfact>
</mgrwt>
</event>
<event>
 8    1  0.8305734E-014  0.7509487E+02  0.7818608E-02  0.1343578E+00
          1   -1    0    0  501    0  0.00000000000E+00  0.00000000000E+00  0.86963277312E+02  0.86963277458E+02  0.50400000000E-02 0. -1.
         -2   -1    0    0    0  501 -0.00000000000E+00 -0.00000000000E+00 -0.16211552783E+02  0.16211552983E+02  0.25500000000E-02 0.  1.
        -24    2    1    2    0    0  0.17763568394E-14  0.00000000000E+00  0.70751724530E+02  0.10317483044E+03  0.75094867420E+02 0.  0.
         66    2    3    3    0    0 -0.11365907611E+02 -0.16591552650E+02 -0.81190144288E+01  0.21780309109E+02  0.19999986039E+01 0.  0.
         13    1    3    3    0    0  0.11365907611E+02  0.16591552650E+02  0.78870738958E+02  0.81394521333E+02  0.10566000000E+00 0. -1.
         13    1    4    4    0    0 -0.12381134294E+01 -0.21974727363E+01 -0.60021725021E+00  0.25948479867E+01  0.10566000000E+00 0. -1.
        -13    1    4    4    0    0 -0.21446063764E+00 -0.61920638995E+00 -0.13385393628E+00  0.67711950962E+00  0.10566000000E+00 0. -1.
        -14    1    4    4    0    0 -0.99133335443E+01 -0.13774873523E+02 -0.73849432423E+01  0.18508341612E+02  0.00000000000E+00 0.  1.
<mgrwt>
<rscale>  0 0.75094867E+02</rscale>
<asrwt>0</asrwt>
<pdfrwt beam="1">  1        1 0.13378966E-01 0.75094867E+02</pdfrwt>
<pdfrwt beam="2">  1       -2 0.24940851E-02 0.75094867E+02</pdfrwt>
<totfact> 0.17041753E+05</totfact>
</mgrwt>
</event>
<event>
 8    1  0.8247621E-014  0.8062218E+02  0.7818608E-02  0.1327295E+00
          1   -1    0    0  501    0  0.00000000000E+00  0.00000000000E+00  0.10004016934E+03  0.10004016947E+03  0.50400000000E-02 0. -1.
         -2   -1    0    0    0  501 -0.00000000000E+00 -0.00000000000E+00 -0.16243314488E+02  0.16243314688E+02  0.25500000000E-02 0.  1.
        -24    2    1    2    0    0  0.00000000000E+00  0.17763568394E-14  0.83796854854E+02  0.11628348416E+03  0.80622179358E+02 0.  0.
         66    2    3    3    0    0  0.21327999372E+02 -0.15604280829E+02 -0.19330584822E+01  0.26572802842E+02  0.19999995942E+01 0.  0.
         13    1    3    3    0    0 -0.21327999372E+02  0.15604280829E+02  0.85729913336E+02  0.89710681315E+02  0.10566000000E+00 0. -1.
         13    1    4    4    0    0  0.47599863573E+00 -0.24314409874E+00 -0.18628514736E+00  0.57581242232E+00  0.10566000000E+00 0. -1.
        -13    1    4    4    0    0  0.18735739113E+02 -0.14097554032E+02 -0.12367614830E+01  0.23479984940E+02  0.10566000000E+00 0.  1.
        -14    1    4    4    0    0  0.21162616236E+01 -0.12635826979E+01 -0.51001185185E+00  0.25170054793E+01  0.00000000000E+00 0.  1.
<mgrwt>
<rscale>  0 0.80622179E+02</rscale>
<asrwt>0</asrwt>
<pdfrwt beam="1">  1        1 0.15390796E-01 0.80622179E+02</pdfrwt>
<pdfrwt beam="2">  1       -2 0.24989714E-02 0.80622179E+02</pdfrwt>
<totfact> 0.14395377E+05</totfact>
</mgrwt>
</event>
<event>
 8    1  0.8247621E-014  0.8279553E+02  0.7818608E-02  0.1321300E+00
          1   -1    0    0  501    0  0.00000000000E+00  0.00000000000E+00  0.44010455985E+01  0.44010484843E+01  0.50400000000E-02 0. -1.
         -2   -1    0    0    0  501 -0.00000000000E+00 -0.00000000000E+00 -0.38940160224E+03  0.38940160225E+03  0.25500000000E-02 0.  1.
        -24    2    1    2    0    0  0.00000000000E+00  0.00000000000E+00 -0.38500055664E+03  0.39380265073E+03  0.82795525904E+02 0.  0.
         66    2    3    3    0    0  0.83094338403E+01 -0.19341851249E+02 -0.36202142979E+03  0.36263848325E+03  0.19999999320E+01 0.  0.
         13    1    3    3    0    0 -0.83094338403E+01  0.19341851249E+02 -0.22979126848E+02  0.31164167488E+02  0.10566000000E+00 0. -1.
         13    1    4    4    0    0  0.31457071902E+01 -0.68892802527E+01 -0.12166236289E+03  0.12189790550E+03  0.10566000000E+00 0. -1.
        -13    1    4    4    0    0  0.32459822662E+01 -0.81552574074E+01 -0.14499521364E+03  0.14526068899E+03  0.10566000000E+00 0.  1.
         14    1    4    4    0    0  0.19177443839E+01 -0.42973135890E+01 -0.95363853259E+02  0.95479888752E+02  0.00000000000E+00 0. -1.
<mgrwt>
<rscale>  0 0.82795526E+02</rscale>
<asrwt>0</asrwt>
<pdfrwt beam="1">  1        1 0.67708447E-03 0.82795526E+02</pdfrwt>
<pdfrwt beam="2">  1       -2 0.59907912E-01 0.82795526E+02</pdfrwt>
<totfact> 0.55030293E+04</totfact>
</mgrwt>
</event>
<event>
 8    1  0.8247621E-014  0.7925038E+02  0.7818608E-02  0.1331192E+00
          1   -1    0    0  501    0  0.00000000000E+00  0.00000000000E+00  0.59822204228E+01  0.59822225459E+01  0.50400000000E-02 0. -1.
         -2   -1    0    0    0  501 -0.00000000000E+00 -0.00000000000E+00 -0.26247035193E+03  0.26247035194E+03  0.25500000000E-02 0.  1.
        -24    2    1    2    0    0  0.88817841970E-15  0.00000000000E+00 -0.25648813151E+03  0.26845257449E+03  0.79250382620E+02 0.  0.
         66    2    3    3    0    0  0.74940235392E+01  0.73579356983E+01 -0.25766252156E+03  0.25788422729E+03  0.20000150013E+01 0.  0.
         13    1    3    3    0    0 -0.74940235392E+01 -0.73579356983E+01  0.11743900527E+01  0.10568347202E+02  0.10566000000E+00 0. -1.
         13    1    4    4    0    0  0.24999358441E+00  0.77706479448E-01 -0.13377682055E+02  0.13380660533E+02  0.10566000000E+00 0. -1.
        -13    1    4    4    0    0  0.12542811330E+01  0.19041393183E+01 -0.49935229892E+02  0.49987371566E+02  0.10566000000E+00 0.  1.
        -14    1    4    4    0    0  0.59897488219E+01  0.53760899005E+01 -0.19434960961E+03  0.19451619519E+03  0.00000000000E+00 0.  1.
<mgrwt>
<rscale>  0 0.79250383E+02</rscale>
<asrwt>0</asrwt>
<pdfrwt beam="1">  1        1 0.92034197E-03 0.79250383E+02</pdfrwt>
<pdfrwt beam="2">  1       -2 0.40380045E-01 0.79250383E+02</pdfrwt>
<totfact> 0.77167304E+04</totfact>
</mgrwt>
</event>
<event>
 8    1  0.8247621E-014  0.6995412E+02  0.7818608E-02  0.1360249E+00
         -2   -1    0    0    0  501 -0.00000000000E+00  0.00000000000E+00  0.17002204753E+02  0.17002204945E+02  0.25500000000E-02 0.  1.
          1   -1    0    0  501    0  0.00000000000E+00 -0.00000000000E+00 -0.71955056698E+02  0.71955056875E+02  0.50400000000E-02 0. -1.
        -24    2    1    2    0    0  0.00000000000E+00  0.00000000000E+00 -0.54952851945E+02  0.88957261819E+02  0.69954117059E+02 0.  0.
         66    2    3    3    0    0  0.18060782447E+02 -0.71163090952E+01  0.94569588220E+01  0.21685658562E+02  0.19999998437E+01 0.  0.
         13    1    3    3    0    0 -0.18060782447E+02  0.71163090952E+01 -0.64409810767E+02  0.67271603257E+02  0.10566000000E+00 0. -1.
         13    1    4    4    0    0  0.11187572064E+01 -0.64354254247E+00  0.30678313270E+00  0.13308060027E+01  0.10566000000E+00 0. -1.
        -13    1    4    4    0    0  0.50704754219E+00 -0.25878461494E+00  0.89926407747E-01  0.58593300076E+00  0.10566000000E+00 0.  1.
        -14    1    4    4    0    0  0.16434977698E+02 -0.62139819378E+01  0.90602492816E+01  0.19768919559E+02  0.00000000000E+00 0.  1.
<mgrwt>
<rscale>  0 0.69954117E+02</rscale>
<asrwt>0</asrwt>
<pdfrwt beam="1">  1        1 0.11070009E-01 0.69954117E+02</pdfrwt>
<pdfrwt beam="2">  1       -2 0.26157238E-02 0.69954117E+02</pdfrwt>
<totfact> 0.20028095E+05</totfact>
</mgrwt>
</event>
<event>
 8    1  0.8247621E-014  0.8019130E+02  0.7818608E-02  0.1328509E+00
          1   -1    0    0  501    0  0.00000000000E+00  0.00000000000E+00  0.12271260080E+03  0.12271260090E+03  0.50400000000E-02 0. -1.
         -2   -1    0    0    0  501 -0.00000000000E+00 -0.00000000000E+00 -0.13101028183E+02  0.13101028431E+02  0.25500000000E-02 0.  1.
        -24    2    1    2    0    0 -0.35527136788E-14  0.35527136788E-14  0.10961157261E+03  0.13581362933E+03  0.80191302904E+02 0.  0.
         66    2    3    3    0    0 -0.25104650796E+02 -0.29088911497E+02  0.35585466749E+02  0.52409290253E+02  0.19999993619E+01 0.  0.
         13    1    3    3    0    0  0.25104650796E+02  0.29088911497E+02  0.74026105865E+02  0.83404339079E+02  0.10566000000E+00 0. -1.
         13    1    4    4    0    0 -0.35066062554E+01 -0.48334448423E+01  0.61643657402E+01  0.85830673707E+01  0.10566000000E+00 0. -1.
        -13    1    4    4    0    0 -0.20110126928E+02 -0.22473914128E+02  0.27485912282E+02  0.40804173308E+02  0.10566000000E+00 0.  1.
         14    1    4    4    0    0 -0.14879176126E+01 -0.17815525263E+01  0.19351887260E+01  0.30220495746E+01  0.00000000000E+00 0. -1.
<mgrwt>
<rscale>  0 0.80191303E+02</rscale>
<asrwt>0</asrwt>
<pdfrwt beam="1">  1        1 0.18878862E-01 0.80191303E+02</pdfrwt>
<pdfrwt beam="2">  1       -2 0.20155428E-02 0.80191303E+02</pdfrwt>
<totfact> 0.15128757E+05</totfact>
</mgrwt>
</event>
<event>
 8    1  0.8247621E-014  0.8005547E+02  0.7818608E-02  0.1328894E+00
         -2   -1    0    0    0  501 -0.00000000000E+00  0.00000000000E+00  0.29702126156E+02  0.29702126265E+02  0.25500000000E-02 0.  1.
          1   -1    0    0  501    0  0.00000000000E+00 -0.00000000000E+00 -0.53942924281E+02  0.53942924516E+02  0.50400000000E-02 0. -1.
        -24    2    1    2    0    0 -0.71054273576E-14 -0.88817841970E-15 -0.24240798125E+02  0.83645050781E+02  0.80055469685E+02 0.  0.
         66    2    3    3    0    0  0.35084205281E+02  0.70052242403E+01 -0.30825591840E+02  0.47267237499E+02  0.20000003982E+01 0.  0.
         13    1    3    3    0    0 -0.35084205281E+02 -0.70052242403E+01  0.65847937157E+01  0.36377813282E+02  0.10566000000E+00 0. -1.
         13    1    4    4    0    0  0.67714258897E+01  0.11264885565E+01 -0.50184433937E+01  0.85039475057E+01  0.10566000000E+00 0. -1.
        -13    1    4    4    0    0  0.26095467371E+02  0.52763154656E+01 -0.23887825945E+02  0.35769432685E+02  0.10566000000E+00 0.  1.
        -14    1    4    4    0    0  0.22173120202E+01  0.60242021815E+00 -0.19193225021E+01  0.29938573081E+01  0.00000000000E+00 0.  1.
<mgrwt>
<rscale>  0 0.80055470E+02</rscale>
<asrwt>0</asrwt>
<pdfrwt beam="1">  1        1 0.82989115E-02 0.80055470E+02</pdfrwt>
<pdfrwt beam="2">  1       -2 0.45695579E-02 0.80055470E+02</pdfrwt>
<totfact> 0.13289215E+05</totfact>
</mgrwt>
</event>
<event>
 8    1  0.8247621E-014  0.7417368E+02  0.7818608E-02  0.1346449E+00
          1   -1    0    0  501    0  0.00000000000E+00  0.00000000000E+00  0.47922568023E+02  0.47922568288E+02  0.50400000000E-02 0. -1.
         -2   -1    0    0    0  501 -0.00000000000E+00 -0.00000000000E+00 -0.28701168597E+02  0.28701168711E+02  0.25500000000E-02 0.  1.
        -24    2    1    2    0    0  0.88817841970E-15  0.00000000000E+00  0.19221399426E+02  0.76623736999E+02  0.74173680479E+02 0.  0.
         66    2    3    3    0    0  0.78883364674E+01 -0.95310794735E+01 -0.26469911952E+02  0.29286918057E+02  0.20000005967E+01 0.  0.
         13    1    3    3    0    0 -0.78883364674E+01  0.95310794735E+01  0.45691311377E+02  0.47336818942E+02  0.10566000000E+00 0. -1.
         13    1    4    4    0    0  0.90051918158E+00 -0.46760529734E+00 -0.22190010965E+01  0.24422775052E+01  0.10566000000E+00 0. -1.
        -13    1    4    4    0    0  0.26823080975E+01 -0.42584421593E+01 -0.97343958079E+01  0.10958956708E+02  0.10566000000E+00 0.  1.
         14    1    4    4    0    0  0.43055091883E+01 -0.48050320169E+01 -0.14516515047E+02  0.15885683843E+02  0.00000000000E+00 0. -1.
<mgrwt>
<rscale>  0 0.74173680E+02</rscale>
<asrwt>0</asrwt>
<pdfrwt beam="1">  1        1 0.73727028E-02 0.74173680E+02</pdfrwt>
<pdfrwt beam="2">  1       -2 0.44155644E-02 0.74173680E+02</pdfrwt>
<totfact> 0.16112948E+05</totfact>
</mgrwt>
</event>
<event>
 8    1  0.1011537E-013  0.7460907E+02  0.7818608E-02  0.1345086E+00
         -2   -1    0    0    0  501 -0.00000000000E+00  0.00000000000E+00  0.16134866836E+02  0.16134867038E+02  0.25500000000E-02 0.  1.
          1   -1    0    0  501    0  0.00000000000E+00 -0.00000000000E+00 -0.86249762093E+02  0.86249762241E+02  0.50400000000E-02 0. -1.
        -24    2    1    2    0    0  0.00000000000E+00  0.44408920985E-15 -0.70114895257E+02  0.10238462928E+03  0.74609073011E+02 0.  0.
         66    2    3    3    0    0 -0.18265522113E+02  0.38385933186E+01  0.91989594400E+01  0.20904184952E+02  0.19999992459E+01 0.  0.
         13    1    3    3    0    0  0.18265522113E+02 -0.38385933186E+01 -0.79313854697E+02  0.81480444327E+02  0.10566000000E+00 0. -1.
         13    1    4    4    0    0 -0.95581218468E+00  0.74598224530E-01  0.84035415353E+00  0.12792579749E+01  0.10566000000E+00 0. -1.
        -13    1    4    4    0    0 -0.10254146414E+02  0.18391510392E+01  0.54129952391E+01  0.11740599504E+02  0.10566000000E+00 0.  1.
        -14    1    4    4    0    0 -0.70555635145E+01  0.19248440549E+01  0.29456100473E+01  0.78843274725E+01  0.00000000000E+00 0.  1.
<mgrwt>
<rscale>  0 0.74609073E+02</rscale>
<asrwt>0</asrwt>
<pdfrwt beam="1">  1        1 0.13269194E-01 0.74609073E+02</pdfrwt>
<pdfrwt beam="2">  1       -2 0.24822873E-02 0.74609073E+02</pdfrwt>
<totfact> 0.17318897E+05</totfact>
</mgrwt>
</event>
<event>
 8    1  0.8247621E-014  0.7948532E+02  0.7818608E-02  0.1330518E+00
          1   -1    0    0  501    0  0.00000000000E+00  0.00000000000E+00  0.55854857822E+01  0.55854880561E+01  0.50400000000E-02 0. -1.
         -2   -1    0    0    0  501 -0.00000000000E+00 -0.00000000000E+00 -0.28278268554E+03  0.28278268555E+03  0.25500000000E-02 0.  1.
        -24    2    1    2    0    0  0.17763568394E-14  0.00000000000E+00 -0.27719719976E+03  0.28836817361E+03  0.79485319375E+02 0.  0.
         66    2    3    3    0    0  0.15695299051E+02  0.35128392629E+02 -0.17444070065E+03  0.17864463168E+03  0.20000006162E+01 0.  0.
         13    1    3    3    0    0 -0.15695299051E+02 -0.35128392629E+02 -0.10275649910E+03  0.10972354193E+03  0.10566000000E+00 0. -1.
         13    1    4    4    0    0  0.29969584007E+01  0.60076634975E+01 -0.32905205542E+02  0.33583291919E+02  0.10566000000E+00 0. -1.
        -13    1    4    4    0    0  0.91943699815E+00  0.22947927734E+01 -0.98515026712E+01  0.10157495123E+02  0.10566000000E+00 0.  1.
        -14    1    4    4    0    0  0.11778903652E+02  0.26825936358E+02 -0.13168399244E+03  0.13490384464E+03  0.00000000000E+00 0.  1.
<mgrwt>
<rscale>  0 0.79485319E+02</rscale>
<asrwt>0</asrwt>
<pdfrwt beam="1">  1        1 0.85930590E-03 0.79485319E+02</pdfrwt>
<pdfrwt beam="2">  1       -2 0.43505018E-01 0.79485319E+02</pdfrwt>
<totfact> 0.73735820E+04</totfact>
</mgrwt>
</event>
<event>
 8    1  0.8247621E-014  0.8013903E+02  0.7818608E-02  0.1328657E+00
          1   -1    0    0  501    0  0.00000000000E+00  0.00000000000E+00  0.16256926607E+03  0.16256926615E+03  0.50400000000E-02 0. -1.
         -2   -1    0    0    0  501 -0.00000000000E+00 -0.00000000000E+00 -0.98761974643E+01  0.98761977935E+01  0.25500000000E-02 0.  1.
        -24    2    1    2    0    0  0.00000000000E+00 -0.17763568394E-14  0.15269306860E+03  0.17244546394E+03  0.80139034395E+02 0.  0.
         66    2    3    3    0    0 -0.33866257479E+02 -0.15959042191E+02  0.45814748276E+02  0.59199709302E+02  0.19999996321E+01 0.  0.
         13    1    3    3    0    0  0.33866257479E+02  0.15959042191E+02  0.10687832033E+03  0.11324575464E+03  0.10566000000E+00 0. -1.
         13    1    4    4    0    0 -0.33367517008E+01 -0.13670903527E+01  0.53024448722E+01  0.64132623215E+01  0.10566000000E+00 0. -1.
        -13    1    4    4    0    0 -0.85618159930E+01 -0.42291979984E+01  0.11246029835E+02  0.14753818485E+02  0.10566000000E+00 0.  1.
         14    1    4    4    0    0 -0.21967689786E+02 -0.10362753840E+02  0.29266273569E+02  0.38032628496E+02  0.00000000000E+00 0. -1.
<mgrwt>
<rscale>  0 0.80139034E+02</rscale>
<asrwt>0</asrwt>
<pdfrwt beam="1">  1        1 0.25010654E-01 0.80139034E+02</pdfrwt>
<pdfrwt beam="2">  1       -2 0.15194152E-02 0.80139034E+02</pdfrwt>
<totfact> 0.15952446E+05</totfact>
</mgrwt>
</event>
<event>
 8    1  0.8247621E-014  0.8012478E+02  0.7818608E-02  0.1328698E+00
          1   -1    0    0  501    0  0.00000000000E+00  0.00000000000E+00  0.27959111197E+03  0.27959111201E+03  0.50400000000E-02 0. -1.
         -2   -1    0    0    0  501 -0.00000000000E+00 -0.00000000000E+00 -0.57405082601E+01  0.57405088265E+01  0.25500000000E-02 0.  1.
        -24    2    1    2    0    0  0.17763568394E-14 -0.71054273576E-14  0.27385060371E+03  0.28533162084E+03  0.80124782058E+02 0.  0.
         66    2    3    3    0    0 -0.14293103368E+02  0.36687308049E+02  0.11114919670E+03  0.11793385985E+03  0.19999994680E+01 0.  0.
         13    1    3    3    0    0  0.14293103368E+02 -0.36687308049E+02  0.16270140701E+03  0.16739776099E+03  0.10566000000E+00 0. -1.
         13    1    4    4    0    0 -0.28254724070E+00  0.64522056943E+00  0.16057987971E+01  0.17566719497E+01  0.10566000000E+00 0. -1.
        -13    1    4    4    0    0 -0.12326649080E+02  0.31864057500E+02  0.98094061632E+02  0.10387357955E+03  0.10566000000E+00 0.  1.
        -14    1    4    4    0    0 -0.16839070474E+01  0.41780299788E+01  0.11449336266E+02  0.12303608348E+02  0.00000000000E+00 0.  1.
<mgrwt>
<rscale>  0 0.80124782E+02</rscale>
<asrwt>0</asrwt>
<pdfrwt beam="1">  1        1 0.43014021E-01 0.80124782E+02</pdfrwt>
<pdfrwt beam="2">  1       -2 0.88315509E-03 0.80124782E+02</pdfrwt>
<totfact> 0.17725997E+05</totfact>
</mgrwt>
</event>
<event>
 8    1  0.8247621E-014  0.8117540E+02  0.7818608E-02  0.1325749E+00
          1   -1    0    0  501    0  0.00000000000E+00  0.00000000000E+00  0.16518201749E+03  0.16518201757E+03  0.50400000000E-02 0. -1.
         -2   -1    0    0    0  501 -0.00000000000E+00 -0.00000000000E+00 -0.99730056833E+01  0.99730060093E+01  0.25500000000E-02 0.  1.
        -24    2    1    2    0    0  0.00000000000E+00  0.00000000000E+00  0.15520901180E+03  0.17515502357E+03  0.81175396136E+02 0.  0.
         66    2    3    3    0    0  0.62717199381E+01 -0.35487212083E+02  0.37475889464E+02  0.52029981635E+02  0.20000013642E+01 0.  0.
         13    1    3    3    0    0 -0.62717199381E+01  0.35487212083E+02  0.11773312234E+03  0.12312504194E+03  0.10566000000E+00 0. -1.
         13    1    4    4    0    0  0.13026385346E+01 -0.77966756643E+01  0.89465163398E+01  0.11938858288E+02  0.10566000000E+00 0. -1.
        -13    1    4    4    0    0  0.20173519637E+01 -0.13082588634E+02  0.14282559797E+02  0.19473739053E+02  0.10566000000E+00 0.  1.
         14    1    4    4    0    0  0.29517294398E+01 -0.14607947785E+02  0.14246813327E+02  0.20617384294E+02  0.00000000000E+00 0. -1.
<mgrwt>
<rscale>  0 0.81175396E+02</rscale>
<asrwt>0</asrwt>
<pdfrwt beam="1">  1        1 0.25412620E-01 0.81175396E+02</pdfrwt>
<pdfrwt beam="2">  1       -2 0.15343085E-02 0.81175396E+02</pdfrwt>
<totfact> 0.15460940E+05</totfact>
</mgrwt>
</event>
<event>
 8    1  0.8247621E-014  0.8012950E+02  0.7818608E-02  0.1328684E+00
         -2   -1    0    0    0  501 -0.00000000000E+00  0.00000000000E+00  0.10058859000E+02  0.10058859323E+02  0.25500000000E-02 0.  1.
          1   -1    0    0  501    0  0.00000000000E+00 -0.00000000000E+00 -0.15957915087E+03  0.15957915095E+03  0.50400000000E-02 0. -1.
        -24    2    1    2    0    0  0.00000000000E+00  0.00000000000E+00 -0.14952029187E+03  0.16963801027E+03  0.80129500487E+02 0.  0.
         66    2    3    3    0    0 -0.17171315114E+02  0.19154591530E+02 -0.98498806845E+01  0.27618337818E+02  0.19999987271E+01 0.  0.
         13    1    3    3    0    0  0.17171315114E+02 -0.19154591530E+02 -0.13967041118E+03  0.14201967245E+03  0.10566000000E+00 0. -1.
         13    1    4    4    0    0 -0.12474474024E+01  0.16073248103E+01 -0.11250044107E+01  0.23273197088E+01  0.10566000000E+00 0. -1.
        -13    1    4    4    0    0 -0.15761977313E+02  0.17075313636E+02 -0.85773847387E+01  0.24770727837E+02  0.10566000000E+00 0.  1.
        -14    1    4    4    0    0 -0.16189039810E+00  0.47195308325E+00 -0.14749153515E+00  0.52029027161E+00  0.00000000000E+00 0.  1.
<mgrwt>
<rscale>  0 0.80129500E+02</rscale>
<asrwt>0</asrwt>
<pdfrwt beam="1">  1        1 0.24550637E-01 0.80129500E+02</pdfrwt>
<pdfrwt beam="2">  1       -2 0.15475169E-02 0.80129500E+02</pdfrwt>
<totfact> 0.15902158E+05</totfact>
</mgrwt>
</event>
<event>
 8    1  0.8247621E-014  0.8086750E+02  0.7818608E-02  0.1326607E+00
          1   -1    0    0  501    0  0.00000000000E+00  0.00000000000E+00  0.41115443113E+03  0.41115443116E+03  0.50400000000E-02 0. -1.
         -2   -1    0    0    0  501 -0.00000000000E+00 -0.00000000000E+00 -0.39763357833E+01  0.39763366010E+01  0.25500000000E-02 0.  1.
        -24    2    1    2    0    0  0.00000000000E+00  0.71054273576E-14  0.40717809534E+03  0.41513076776E+03  0.80867502820E+02 0.  0.
         66    2    3    3    0    0  0.29554196257E+02 -0.23968552245E+02  0.27352486241E+03  0.27616624045E+03  0.19999983764E+01 0.  0.
         13    1    3    3    0    0 -0.29554196257E+02  0.23968552245E+02  0.13365323293E+03  0.13896452731E+03  0.10566000000E+00 0. -1.
         13    1    4    4    0    0  0.12438059320E+02 -0.94518047676E+01  0.11087126142E+03  0.11196646688E+03  0.10566000000E+00 0. -1.
        -13    1    4    4    0    0  0.11917991844E+02 -0.10625250123E+02  0.11242548220E+03  0.11355366433E+03  0.10566000000E+00 0.  1.
         14    1    4    4    0    0  0.51981450928E+01 -0.38914973543E+01  0.50228118783E+02  0.50646109234E+02  0.00000000000E+00 0. -1.
<mgrwt>
<rscale>  0 0.80867503E+02</rscale>
<asrwt>0</asrwt>
<pdfrwt beam="1">  1        1 0.63254481E-01 0.80867503E+02</pdfrwt>
<pdfrwt beam="2">  1       -2 0.61174449E-03 0.80867503E+02</pdfrwt>
<totfact> 0.18545042E+05</totfact>
</mgrwt>
</event>
<event>
 8    1  0.8247621E-014  0.7949837E+02  0.7818608E-02  0.1330481E+00
         -2   -1    0    0    0  501 -0.00000000000E+00  0.00000000000E+00  0.35193276465E+02  0.35193276557E+02  0.25500000000E-02 0.  1.
          1   -1    0    0  501    0  0.00000000000E+00 -0.00000000000E+00 -0.44894871243E+02  0.44894871526E+02  0.50400000000E-02 0. -1.
        -24    2    1    2    0    0 -0.88817841970E-15  0.00000000000E+00 -0.97015947786E+01  0.80088148083E+02  0.79498368047E+02 0.  0.
         66    2    3    3    0    0  0.46161160846E+01 -0.17336000553E+02  0.30851245832E+02  0.35744157639E+02  0.19999982648E+01 0.  0.
         13    1    3    3    0    0 -0.46161160846E+01  0.17336000553E+02 -0.40552840611E+02  0.44343990444E+02  0.10566000000E+00 0. -1.
         13    1    4    4    0    0  0.17317681033E+01 -0.67818587473E+01  0.10389241217E+02  0.12527574623E+02  0.10566000000E+00 0. -1.
        -13    1    4    4    0    0  0.82501503505E+00 -0.25292854675E+01  0.43739871731E+01  0.51206310754E+01  0.10566000000E+00 0.  1.
         14    1    4    4    0    0  0.20593329462E+01 -0.80248563384E+01  0.16088017442E+02  0.18095951941E+02  0.00000000000E+00 0. -1.
<mgrwt>
<rscale>  0 0.79498368E+02</rscale>
<asrwt>0</asrwt>
<pdfrwt beam="1">  1        1 0.69069034E-02 0.79498368E+02</pdfrwt>
<pdfrwt beam="2">  1       -2 0.54143502E-02 0.79498368E+02</pdfrwt>
<totfact> 0.13164597E+05</totfact>
</mgrwt>
</event>
<event>
 8    1  0.8247621E-014  0.7747880E+02  0.7818608E-02  0.1336362E+00
         -2   -1    0    0    0  501 -0.00000000000E+00  0.00000000000E+00  0.10017411952E+03  0.10017411955E+03  0.25500000000E-02 0.  1.
          1   -1    0    0  501    0  0.00000000000E+00 -0.00000000000E+00 -0.14981326411E+02  0.14981327258E+02  0.50400000000E-02 0. -1.
        -24    2    1    2    0    0 -0.17763568394E-14  0.00000000000E+00  0.85192793108E+02  0.11515544681E+03  0.77478803116E+02 0.  0.
         66    2    3    3    0    0 -0.13442759908E+02  0.34299092060E+02  0.24938504137E+02  0.44531612210E+02  0.19999968444E+01 0.  0.
         13    1    3    3    0    0  0.13442759908E+02 -0.34299092060E+02  0.60254288971E+02  0.70623834599E+02  0.10566000000E+00 0. -1.
         13    1    4    4    0    0 -0.29419141262E+01  0.82580374837E+01  0.66533826324E+01  0.11005848731E+02  0.10566000000E+00 0. -1.
        -13    1    4    4    0    0 -0.26877061315E+01  0.79862816776E+01  0.55732141152E+01  0.10103283570E+02  0.10566000000E+00 0.  1.
        -14    1    4    4    0    0 -0.78131396504E+01  0.18054772898E+02  0.12711907389E+02  0.23422479909E+02  0.00000000000E+00 0.  1.
<mgrwt>
<rscale>  0 0.77478803E+02</rscale>
<asrwt>0</asrwt>
<pdfrwt beam="1">  1        1 0.23048195E-02 0.77478803E+02</pdfrwt>
<pdfrwt beam="2">  1       -2 0.15411403E-01 0.77478803E+02</pdfrwt>
<totfact> 0.11513697E+05</totfact>
</mgrwt>
</event>
<event>
 8    1  0.8247621E-014  0.8375441E+02  0.7818608E-02  0.1318722E+00
         -2   -1    0    0    0  501 -0.00000000000E+00  0.00000000000E+00  0.90933460919E+01  0.90933464495E+01  0.25500000000E-02 0.  1.
          1   -1    0    0  501    0  0.00000000000E+00 -0.00000000000E+00 -0.19285531366E+03  0.19285531373E+03  0.50400000000E-02 0. -1.
        -24    2    1    2    0    0  0.00000000000E+00  0.35527136788E-14 -0.18376196757E+03  0.20194866018E+03  0.83754406584E+02 0.  0.
         66    2    3    3    0    0 -0.10260328657E+01 -0.27718278331E+02 -0.16360676001E+02  0.32264956539E+02  0.20000010496E+01 0.  0.
         13    1    3    3    0    0  0.10260328657E+01  0.27718278331E+02 -0.16740129157E+03  0.16968370364E+03  0.10566000000E+00 0. -1.
         13    1    4    4    0    0 -0.11085902736E+01 -0.15462328302E+02 -0.83887567415E+01  0.17626541709E+02  0.10566000000E+00 0. -1.
        -13    1    4    4    0    0 -0.23887429130E+00 -0.91148236241E+01 -0.60101223684E+01  0.10921071630E+02  0.10566000000E+00 0.  1.
        -14    1    4    4    0    0  0.32143169916E+00 -0.31411264055E+01 -0.19617968907E+01  0.37173432008E+01  0.00000000000E+00 0.  1.
<mgrwt>
<rscale>  0 0.83754407E+02</rscale>
<asrwt>0</asrwt>
<pdfrwt beam="1">  1        1 0.29670045E-01 0.83754407E+02</pdfrwt>
<pdfrwt beam="2">  1       -2 0.13989765E-02 0.83754407E+02</pdfrwt>
<totfact> 0.14652782E+05</totfact>
</mgrwt>
</event>
<event>
 8    1  0.8247621E-014  0.7973637E+02  0.7818608E-02  0.1329801E+00
          1   -1    0    0  501    0  0.00000000000E+00  0.00000000000E+00  0.22579786651E+02  0.22579787213E+02  0.50400000000E-02 0. -1.
         -2   -1    0    0    0  501 -0.00000000000E+00 -0.00000000000E+00 -0.70393583283E+02  0.70393583329E+02  0.25500000000E-02 0.  1.
        -24    2    1    2    0    0 -0.11102230246E-15  0.00000000000E+00 -0.47813796632E+02  0.92973370542E+02  0.79736368626E+02 0.  0.
         66    2    3    3    0    0  0.96693328244E+00  0.39728003441E+02 -0.27264491428E+02  0.48234859997E+02  0.20000021799E+01 0.  0.
         13    1    3    3    0    0 -0.96693328244E+00 -0.39728003441E+02 -0.20549305204E+02  0.44738510545E+02  0.10566000000E+00 0. -1.
         13    1    4    4    0    0  0.13194717376E+00  0.87410102750E+01 -0.57457905729E+01  0.10461737142E+02  0.10566000000E+00 0. -1.
        -13    1    4    4    0    0  0.80972864575E+00  0.30757048103E+02 -0.21143815860E+02  0.37332610163E+02  0.10566000000E+00 0.  1.
         14    1    4    4    0    0  0.25257462932E-01  0.22994506340E+00 -0.37488499584E+00  0.44051269189E+00  0.00000000000E+00 0. -1.
<mgrwt>
<rscale>  0 0.79736369E+02</rscale>
<asrwt>0</asrwt>
<pdfrwt beam="1">  1        1 0.34738134E-02 0.79736369E+02</pdfrwt>
<pdfrwt beam="2">  1       -2 0.10829782E-01 0.79736369E+02</pdfrwt>
<totfact> 0.11574826E+05</totfact>
</mgrwt>
</event>
<event>
 8    1  0.8247621E-014  0.7930908E+02  0.7818608E-02  0.1331024E+00
         -2   -1    0    0    0  501 -0.00000000000E+00  0.00000000000E+00  0.14810836880E+03  0.14810836882E+03  0.25500000000E-02 0.  1.
          1   -1    0    0  501    0  0.00000000000E+00 -0.00000000000E+00 -0.10617106739E+02  0.10617107936E+02  0.50400000000E-02 0. -1.
        -24    2    1    2    0    0  0.00000000000E+00  0.17763568394E-14  0.13749126206E+03  0.15872547675E+03  0.79309077846E+02 0.  0.
         66    2    3    3    0    0  0.15322465722E+02  0.12970407371E+02  0.13717192779E+03  0.13864756447E+03  0.19999841684E+01 0.  0.
         13    1    3    3    0    0 -0.15322465722E+02 -0.12970407371E+02  0.31933426450E+00  0.20077912282E+02  0.10566000000E+00 0. -1.
         13    1    4    4    0    0  0.37131648135E+01  0.27920072071E+01  0.28749438100E+02  0.29122572899E+02  0.10566000000E+00 0.  1.
        -13    1    4    4    0    0  0.10463679279E+02  0.87867930330E+01  0.97955946644E+02  0.98904372820E+02  0.10566000000E+00 0.  1.
        -14    1    4    4    0    0  0.11456216301E+01  0.13916071306E+01  0.10466543048E+02  0.10620618753E+02  0.00000000000E+00 0.  1.
<mgrwt>
<rscale>  0 0.79309078E+02</rscale>
<asrwt>0</asrwt>
<pdfrwt beam="1">  1        1 0.16334012E-02 0.79309078E+02</pdfrwt>
<pdfrwt beam="2">  1       -2 0.22785902E-01 0.79309078E+02</pdfrwt>
<totfact> 0.97045053E+04</totfact>
</mgrwt>
</event>
<event>
 8    1  0.8361999E-014  0.7860154E+02  0.7818608E-02  0.1333068E+00
         -2   -1    0    0    0  501 -0.00000000000E+00  0.00000000000E+00  0.14716268198E+02  0.14716268419E+02  0.25500000000E-02 0.  1.
          1   -1    0    0  501    0  0.00000000000E+00 -0.00000000000E+00 -0.10495531830E+03  0.10495531842E+03  0.50400000000E-02 0. -1.
        -24    2    1    2    0    0  0.00000000000E+00  0.00000000000E+00 -0.90239050101E+02  0.11967158684E+03  0.78601542818E+02 0.  0.
         66    2    3    3    0    0 -0.17440268264E+02  0.10134721569E+02  0.61594625565E+01  0.21185242887E+02  0.19999997010E+01 0.  0.
         13    1    3    3    0    0  0.17440268264E+02 -0.10134721569E+02 -0.96398512657E+02  0.98486343952E+02  0.10566000000E+00 0. -1.
         13    1    4    4    0    0 -0.21003853730E+01  0.16926878566E+01  0.12031865772E+01  0.29556104057E+01  0.10566000000E+00 0. -1.
        -13    1    4    4    0    0 -0.25800678074E+01  0.18553430812E+01  0.75469018524E+00  0.32679916082E+01  0.10566000000E+00 0.  1.
        -14    1    4    4    0    0 -0.12759815084E+02  0.65866906312E+01  0.42015857940E+01  0.14961640873E+02  0.00000000000E+00 0.  1.
<mgrwt>
<rscale>  0 0.78601543E+02</rscale>
<asrwt>0</asrwt>
<pdfrwt beam="1">  1        1 0.16146972E-01 0.78601543E+02</pdfrwt>
<pdfrwt beam="2">  1       -2 0.22640413E-02 0.78601543E+02</pdfrwt>
<totfact> 0.15541289E+05</totfact>
</mgrwt>
</event>
<event>
 8    1  0.8247621E-014  0.7775387E+02  0.7818608E-02  0.1335549E+00
         -2   -1    0    0    0  501 -0.00000000000E+00  0.00000000000E+00  0.16903598915E+02  0.16903599108E+02  0.25500000000E-02 0.  1.
          1   -1    0    0  501    0  0.00000000000E+00 -0.00000000000E+00 -0.89413871551E+02  0.89413871693E+02  0.50400000000E-02 0. -1.
        -24    2    1    2    0    0 -0.35527136788E-14  0.00000000000E+00 -0.72510272636E+02  0.10631747080E+03  0.77753874243E+02 0.  0.
         66    2    3    3    0    0  0.27653361597E+02 -0.12583848614E+01  0.99544862627E+00  0.27771979763E+02  0.20000004864E+01 0.  0.
         13    1    3    3    0    0 -0.27653361597E+02  0.12583848614E+01 -0.73505721262E+02  0.78545491038E+02  0.10566000000E+00 0. -1.
         13    1    4    4    0    0  0.82751566659E+01 -0.15002961120E+00 -0.40508700632E+00  0.82870975768E+01  0.10566000000E+00 0. -1.
        -13    1    4    4    0    0  0.19171107110E+02 -0.10458377578E+01  0.14740487643E+01  0.19256404344E+02  0.10566000000E+00 0.  1.
        -14    1    4    4    0    0  0.20709782041E+00 -0.62517492394E-01 -0.73513131734E-01  0.22847784271E+00  0.00000000000E+00 0.  1.
<mgrwt>
<rscale>  0 0.77753874E+02</rscale>
<asrwt>0</asrwt>
<pdfrwt beam="1">  1        1 0.13755980E-01 0.77753874E+02</pdfrwt>
<pdfrwt beam="2">  1       -2 0.26005537E-02 0.77753874E+02</pdfrwt>
<totfact> 0.15584649E+05</totfact>
</mgrwt>
</event>
<event>
 8    1  0.8247621E-014  0.7792569E+02  0.7818608E-02  0.1335043E+00
         -2   -1    0    0    0  501 -0.00000000000E+00  0.00000000000E+00  0.15042847806E+03  0.15042847809E+03  0.25500000000E-02 0.  1.
          1   -1    0    0  501    0  0.00000000000E+00 -0.00000000000E+00 -0.10091861026E+02  0.10091862284E+02  0.50400000000E-02 0. -1.
        -24    2    1    2    0    0  0.00000000000E+00  0.00000000000E+00  0.14033661704E+03  0.16052034037E+03  0.77925692751E+02 0.  0.
         66    2    3    3    0    0 -0.21230652407E+02  0.24881419770E+02  0.11373046558E+03  0.11835727465E+03  0.20000025062E+01 0.  0.
         13    1    3    3    0    0  0.21230652407E+02 -0.24881419770E+02  0.26606151455E+02  0.42163065718E+02  0.10566000000E+00 0. -1.
         13    1    4    4    0    0 -0.22759906939E+01  0.26174469458E+01  0.14196509283E+02  0.14614486033E+02  0.10566000000E+00 0. -1.
        -13    1    4    4    0    0 -0.74921149676E+01  0.92945235895E+01  0.41286523834E+02  0.42977996344E+02  0.10566000000E+00 0.  1.
        -14    1    4    4    0    0 -0.11462546745E+02  0.12969449235E+02  0.58247432467E+02  0.60764792276E+02  0.00000000000E+00 0.  1.
<mgrwt>
<rscale>  0 0.77925693E+02</rscale>
<asrwt>0</asrwt>
<pdfrwt beam="1">  1        1 0.15525942E-02 0.77925693E+02</pdfrwt>
<pdfrwt beam="2">  1       -2 0.23142841E-01 0.77925693E+02</pdfrwt>
<totfact> 0.10102164E+05</totfact>
</mgrwt>
</event>
<event>
 8    1  0.8247621E-014  0.7910771E+02  0.7818608E-02  0.1331603E+00
          1   -1    0    0  501    0  0.00000000000E+00  0.00000000000E+00  0.19655113892E+03  0.19655113899E+03  0.50400000000E-02 0. -1.
         -2   -1    0    0    0  501 -0.00000000000E+00 -0.00000000000E+00 -0.79597984103E+01  0.79597988188E+01  0.25500000000E-02 0.  1.
        -24    2    1    2    0    0  0.17763568394E-14  0.71054273576E-14  0.18859134051E+03  0.20451093781E+03  0.79107711167E+02 0.  0.
         66    2    3    3    0    0  0.13279879864E+02  0.35009117232E+02  0.61603045615E+02  0.72117464767E+02  0.19999991865E+01 0.  0.
         13    1    3    3    0    0 -0.13279879864E+02 -0.35009117232E+02  0.12698829490E+03  0.13239347304E+03  0.10566000000E+00 0. -1.
         13    1    4    4    0    0  0.38737986779E+01  0.10193564158E+02  0.16690112207E+02  0.19937052840E+02  0.10566000000E+00 0. -1.
        -13    1    4    4    0    0  0.30401781856E+01  0.79160154065E+01  0.15409603372E+02  0.17589002911E+02  0.10566000000E+00 0.  1.
         14    1    4    4    0    0  0.63659030002E+01  0.16899537668E+02  0.29503330037E+02  0.34591409015E+02  0.00000000000E+00 0. -1.
<mgrwt>
<rscale>  0 0.79107711E+02</rscale>
<asrwt>0</asrwt>
<pdfrwt beam="1">  1        1 0.30238637E-01 0.79107711E+02</pdfrwt>
<pdfrwt beam="2">  1       -2 0.12245844E-02 0.79107711E+02</pdfrwt>
<totfact> 0.17119945E+05</totfact>
</mgrwt>
</event>
<event>
 8    1  0.8247621E-014  0.7959295E+02  0.7818608E-02  0.1330211E+00
         -2   -1    0    0    0  501 -0.00000000000E+00  0.00000000000E+00  0.54970773289E+02  0.54970773348E+02  0.25500000000E-02 0.  1.
          1   -1    0    0  501    0  0.00000000000E+00 -0.00000000000E+00 -0.28810938263E+02  0.28810938703E+02  0.50400000000E-02 0. -1.
        -24    2    1    2    0    0  0.00000000000E+00  0.00000000000E+00  0.26159835027E+02  0.83781712052E+02  0.79592953870E+02 0.  0.
         66    2    3    3    0    0 -0.38607155382E+02 -0.66146381316E+01  0.20342025688E+02  0.44182167183E+02  0.20000009008E+01 0.  0.
         13    1    3    3    0    0  0.38607155382E+02  0.66146381316E+01  0.58178093390E+01  0.39599544869E+02  0.10566000000E+00 0. -1.
         13    1    4    4    0    0 -0.11173931343E+02 -0.20651948937E+01  0.66730334606E+01  0.13178099681E+02  0.10566000000E+00 0. -1.
        -13    1    4    4    0    0 -0.20520069442E+02 -0.35267943462E+01  0.10721831188E+02  0.23419657477E+02  0.10566000000E+00 0.  1.
        -14    1    4    4    0    0 -0.69131545966E+01 -0.10226488918E+01  0.29471610388E+01  0.75844100246E+01  0.00000000000E+00 0.  1.
<mgrwt>
<rscale>  0 0.79592954E+02</rscale>
<asrwt>0</asrwt>
<pdfrwt beam="1">  1        1 0.44324522E-02 0.79592954E+02</pdfrwt>
<pdfrwt beam="2">  1       -2 0.84570419E-02 0.79592954E+02</pdfrwt>
<totfact> 0.12185621E+05</totfact>
</mgrwt>
</event>
<event>
 8    1  0.8247621E-014  0.7988949E+02  0.7818608E-02  0.1329365E+00
          1   -1    0    0  501    0  0.00000000000E+00  0.00000000000E+00  0.19350131973E+03  0.19350131979E+03  0.50400000000E-02 0. -1.
         -2   -1    0    0    0  501 -0.00000000000E+00 -0.00000000000E+00 -0.82458492942E+01  0.82458496885E+01  0.25500000000E-02 0.  1.
        -24    2    1    2    0    0  0.35527136788E-14 -0.17763568394E-14  0.18525547043E+03  0.20174716948E+03  0.79889492853E+02 0.  0.
         66    2    3    3    0    0  0.25470217597E+02 -0.15768019724E+02  0.26052591304E+02  0.39750471005E+02  0.20000002489E+01 0.  0.
         13    1    3    3    0    0 -0.25470217597E+02  0.15768019724E+02  0.15920287913E+03  0.16199669847E+03  0.10566000000E+00 0. -1.
         13    1    4    4    0    0  0.19987802328E+01 -0.17431970378E+01  0.26197496022E+01  0.37293578999E+01  0.10566000000E+00 0. -1.
        -13    1    4    4    0    0  0.10429526191E+02 -0.57674004610E+01  0.99604299370E+01  0.15532522436E+02  0.10566000000E+00 0.  1.
         14    1    4    4    0    0  0.13041911172E+02 -0.82574222249E+01  0.13472411765E+02  0.20488590669E+02  0.00000000000E+00 0. -1.
<mgrwt>
<rscale>  0 0.79889493E+02</rscale>
<asrwt>0</asrwt>
<pdfrwt beam="1">  1        1 0.29769434E-01 0.79889493E+02</pdfrwt>
<pdfrwt beam="2">  1       -2 0.12685922E-02 0.79889493E+02</pdfrwt>
<totfact> 0.16628496E+05</totfact>
</mgrwt>
</event>
<event>
 8    1  0.8247621E-014  0.7799772E+02  0.7818608E-02  0.1334832E+00
          1   -1    0    0  501    0  0.00000000000E+00  0.00000000000E+00  0.92857340129E+02  0.92857340266E+02  0.50400000000E-02 0. -1.
         -2   -1    0    0    0  501 -0.00000000000E+00 -0.00000000000E+00 -0.16379006248E+02  0.16379006447E+02  0.25500000000E-02 0.  1.
        -24    2    1    2    0    0  0.35527136788E-14  0.17763568394E-14  0.76478333881E+02  0.10923634671E+03  0.77997717209E+02 0.  0.
         66    2    3    3    0    0 -0.24937876778E+02  0.14148586683E+02  0.12944136467E+01  0.28770743942E+02  0.19999992332E+01 0.  0.
         13    1    3    3    0    0  0.24937876778E+02 -0.14148586683E+02  0.75183920235E+02  0.80465602771E+02  0.10566000000E+00 0. -1.
         13    1    4    4    0    0 -0.11120055262E+01  0.90845901106E+00 -0.11150777817E+00  0.14441094436E+01  0.10566000000E+00 0.  1.
        -13    1    4    4    0    0 -0.53281839182E+01  0.23462337885E+01  0.35933344580E+00  0.58339216157E+01  0.10566000000E+00 0.  1.
         14    1    4    4    0    0 -0.18497687334E+02  0.10893893884E+02  0.10465879791E+01  0.21492712883E+02  0.00000000000E+00 0. -1.
<mgrwt>
<rscale>  0 0.77997717E+02</rscale>
<asrwt>0</asrwt>
<pdfrwt beam="1">  1        1 0.14285744E-01 0.77997717E+02</pdfrwt>
<pdfrwt beam="2">  1       -2 0.25198472E-02 0.77997717E+02</pdfrwt>
<totfact> 0.15548626E+05</totfact>
</mgrwt>
</event>
<event>
 8    1  0.8247621E-014  0.7998404E+02  0.7818608E-02  0.1329097E+00
         -2   -1    0    0    0  501 -0.00000000000E+00  0.00000000000E+00  0.10244428934E+02  0.10244429251E+02  0.25500000000E-02 0.  1.
          1   -1    0    0  501    0  0.00000000000E+00 -0.00000000000E+00 -0.15612012197E+03  0.15612012206E+03  0.50400000000E-02 0. -1.
        -24    2    1    2    0    0  0.71054273576E-14  0.00000000000E+00 -0.14587569304E+03  0.16636455131E+03  0.79984036605E+02 0.  0.
         66    2    3    3    0    0  0.32227245446E+02  0.23634321005E+02 -0.73866081756E+02  0.84008180820E+02  0.19999830811E+01 0.  0.
         13    1    3    3    0    0 -0.32227245446E+02 -0.23634321005E+02 -0.72009611284E+02  0.82356370487E+02  0.10566000000E+00 0. -1.
         13    1    4    4    0    0  0.53039638278E+00  0.60200462904E+00 -0.12261678494E+01  0.14691431267E+01  0.10566000000E+00 0. -1.
        -13    1    4    4    0    0  0.28633903687E+02  0.20680499341E+02 -0.64893620827E+02  0.73883534576E+02  0.10566000000E+00 0.  1.
        -14    1    4    4    0    0  0.30629453763E+01  0.23518170351E+01 -0.77462930793E+01  0.86555031174E+01  0.00000000000E+00 0.  1.
<mgrwt>
<rscale>  0 0.79984037E+02</rscale>
<asrwt>0</asrwt>
<pdfrwt beam="1">  1        1 0.24018479E-01 0.79984037E+02</pdfrwt>
<pdfrwt beam="2">  1       -2 0.15760661E-02 0.79984037E+02</pdfrwt>
<totfact> 0.15914322E+05</totfact>
</mgrwt>
</event>
<event>
 8    1  0.8247621E-014  0.8080729E+02  0.7818608E-02  0.1326776E+00
         -2   -1    0    0    0  501 -0.00000000000E+00  0.00000000000E+00  0.11701883516E+03  0.11701883519E+03  0.25500000000E-02 0.  1.
          1   -1    0    0  501    0  0.00000000000E+00 -0.00000000000E+00 -0.13950356271E+02  0.13950357181E+02  0.50400000000E-02 0. -1.
        -24    2    1    2    0    0  0.71054273576E-14  0.00000000000E+00  0.10306847889E+03  0.13096919237E+03  0.80807289333E+02 0.  0.
         66    2    3    3    0    0 -0.28960894397E+02  0.24285674917E+02  0.74596601257E+02  0.83649150206E+02  0.20000001683E+01 0.  0.
         13    1    3    3    0    0  0.28960894397E+02 -0.24285674917E+02  0.28471877633E+02  0.47320042164E+02  0.10566000000E+00 0. -1.
         13    1    4    4    0    0 -0.71142566342E+00  0.84172058295E+00  0.26080362615E+01  0.28333085239E+01  0.10566000000E+00 0. -1.
        -13    1    4    4    0    0 -0.10980808813E+02  0.84338547873E+01  0.27200682209E+02  0.30522063256E+02  0.10566000000E+00 0.  1.
        -14    1    4    4    0    0 -0.17268659921E+02  0.15010099547E+02  0.44787882787E+02  0.50293778426E+02  0.00000000000E+00 0.  1.
<mgrwt>
<rscale>  0 0.80807289E+02</rscale>
<asrwt>0</asrwt>
<pdfrwt beam="1">  1        1 0.21462088E-02 0.80807289E+02</pdfrwt>
<pdfrwt beam="2">  1       -2 0.18002897E-01 0.80807289E+02</pdfrwt>
<totfact> 0.99263421E+04</totfact>
</mgrwt>
</event>
<event>
 8    1  0.8247621E-014  0.8042366E+02  0.7818608E-02  0.1327853E+00
          1   -1    0    0  501    0  0.00000000000E+00  0.00000000000E+00  0.10023200196E+02  0.10023201463E+02  0.50400000000E-02 0. -1.
         -2   -1    0    0    0  501 -0.00000000000E+00 -0.00000000000E+00 -0.16132483836E+03  0.16132483838E+03  0.25500000000E-02 0.  1.
        -24    2    1    2    0    0  0.17763568394E-14 -0.17763568394E-14 -0.15130163816E+03  0.17134803984E+03  0.80423659747E+02 0.  0.
         66    2    3    3    0    0 -0.14664137247E+02  0.13458776775E+02 -0.15007871749E+03  0.15140606671E+03  0.19999995283E+01 0.  0.
         13    1    3    3    0    0  0.14664137247E+02 -0.13458776775E+02 -0.12229206688E+01  0.19941973134E+02  0.10566000000E+00 0. -1.
         13    1    4    4    0    0 -0.58419564372E+00  0.73617966926E+00 -0.86273843406E+01  0.86790650217E+01  0.10566000000E+00 0. -1.
        -13    1    4    4    0    0 -0.97061266614E+01  0.78134719388E+01 -0.94009678308E+02  0.94831904009E+02  0.10566000000E+00 0.  1.
        -14    1    4    4    0    0 -0.43738149416E+01  0.49091251668E+01 -0.47441654845E+02  0.47895097677E+02  0.00000000000E+00 0.  1.
<mgrwt>
<rscale>  0 0.80423660E+02</rscale>
<asrwt>0</asrwt>
<pdfrwt beam="1">  1        1 0.15420310E-02 0.80423660E+02</pdfrwt>
<pdfrwt beam="2">  1       -2 0.24819204E-01 0.80423660E+02</pdfrwt>
<totfact> 0.90972329E+04</totfact>
</mgrwt>
</event>
<event>
 8    1  0.8247621E-014  0.7995654E+02  0.7818608E-02  0.1329175E+00
         -2   -1    0    0    0  501 -0.00000000000E+00  0.00000000000E+00  0.76852414041E+01  0.76852418271E+01  0.25500000000E-02 0.  1.
          1   -1    0    0  501    0  0.00000000000E+00 -0.00000000000E+00 -0.20796511602E+03  0.20796511608E+03  0.50400000000E-02 0. -1.
        -24    2    1    2    0    0  0.00000000000E+00  0.35527136788E-14 -0.20027987462E+03  0.21565035791E+03  0.79956542507E+02 0.  0.
         66    2    3    3    0    0  0.13047977646E+01 -0.30222907356E+02 -0.29812355140E+02  0.42519445052E+02  0.20000155545E+01 0.  0.
         13    1    3    3    0    0 -0.13047977646E+01  0.30222907356E+02 -0.17046751948E+03  0.17313091286E+03  0.10566000000E+00 0. -1.
         13    1    4    4    0    0  0.35672361068E-01 -0.81456213993E+00 -0.11218277264E+01  0.13908434421E+01  0.10566000000E+00 0. -1.
        -13    1    4    4    0    0  0.14979939878E+01 -0.24397057798E+02 -0.23413867806E+02  0.33847906654E+02  0.10566000000E+00 0.  1.
        -14    1    4    4    0    0 -0.22886858428E+00 -0.50112874185E+01 -0.52766596079E+01  0.72806949557E+01  0.00000000000E+00 0.  1.
<mgrwt>
<rscale>  0 0.79956543E+02</rscale>
<asrwt>0</asrwt>
<pdfrwt beam="1">  1        1 0.31994629E-01 0.79956543E+02</pdfrwt>
<pdfrwt beam="2">  1       -2 0.11823450E-02 0.79956543E+02</pdfrwt>
<totfact> 0.16825210E+05</totfact>
</mgrwt>
</event>
<event>
 8    1  0.8247621E-014  0.7891553E+02  0.7818608E-02  0.1332157E+00
         -2   -1    0    0    0  501 -0.00000000000E+00  0.00000000000E+00  0.29199285903E+01  0.29199297038E+01  0.25500000000E-02 0.  1.
          1   -1    0    0  501    0  0.00000000000E+00 -0.00000000000E+00 -0.53320312557E+03  0.53320312560E+03  0.50400000000E-02 0. -1.
        -24    2    1    2    0    0  0.00000000000E+00  0.00000000000E+00 -0.53028319698E+03  0.53612305530E+03  0.78915533469E+02 0.  0.
         66    2    3    3    0    0 -0.30017275979E+02 -0.23456044030E+02 -0.33448899171E+03  0.33665725662E+03  0.20000011873E+01 0.  0.
         13    1    3    3    0    0  0.30017275979E+02  0.23456044030E+02 -0.19579420527E+03  0.19946579868E+03  0.10566000000E+00 0. -1.
         13    1    4    4    0    0 -0.40868627321E+00 -0.34335031620E+00 -0.42127893483E+01  0.42477843682E+01  0.10566000000E+00 0. -1.
        -13    1    4    4    0    0 -0.39420435618E+01 -0.38185894096E+01 -0.48141896037E+02  0.48453840411E+02  0.10566000000E+00 0.  1.
        -14    1    4    4    0    0 -0.25666546144E+02 -0.19294104304E+02 -0.28213430632E+03  0.28395563184E+03  0.00000000000E+00 0.  1.
<mgrwt>
<rscale>  0 0.78915533E+02</rscale>
<asrwt>0</asrwt>
<pdfrwt beam="1">  1        1 0.82031173E-01 0.78915533E+02</pdfrwt>
<pdfrwt beam="2">  1       -2 0.44922029E-03 0.78915533E+02</pdfrwt>
<totfact> 0.20464666E+05</totfact>
</mgrwt>
</event>
<event>
 8    1  0.8247621E-014  0.7399421E+02  0.7818608E-02  0.1347014E+00
         -2   -1    0    0    0  501 -0.00000000000E+00  0.00000000000E+00  0.21146764784E+03  0.21146764786E+03  0.25500000000E-02 0.  1.
          1   -1    0    0  501    0  0.00000000000E+00 -0.00000000000E+00 -0.64727887328E+01  0.64727906950E+01  0.50400000000E-02 0. -1.
        -24    2    1    2    0    0  0.00000000000E+00  0.00000000000E+00  0.20499485911E+03  0.21794043855E+03  0.73994205822E+02 0.  0.
         66    2    3    3    0    0  0.12349174846E+02  0.32951330040E+02  0.13595870410E+03  0.14045305807E+03  0.20000078157E+01 0.  0.
         13    1    3    3    0    0 -0.12349174846E+02 -0.32951330040E+02  0.69036155012E+02  0.77487380480E+02  0.10566000000E+00 0. -1.
         13    1    4    4    0    0  0.59922752454E+01  0.16569366190E+02  0.64832577251E+02  0.67184265238E+02  0.10566000000E+00 0. -1.
        -13    1    4    4    0    0  0.31961104559E+01  0.71842921366E+01  0.31784132401E+02  0.32742501616E+02  0.10566000000E+00 0.  1.
         14    1    4    4    0    0  0.31607891446E+01  0.91976717142E+01  0.39341994448E+02  0.40526291221E+02  0.00000000000E+00 0. -1.
<mgrwt>
<rscale>  0 0.73994206E+02</rscale>
<asrwt>0</asrwt>
<pdfrwt beam="1">  1        1 0.99581369E-03 0.73994206E+02</pdfrwt>
<pdfrwt beam="2">  1       -2 0.32533488E-01 0.73994206E+02</pdfrwt>
<totfact> 0.10161971E+05</totfact>
</mgrwt>
</event>
<event>
 8    1  0.8247621E-014  0.8114392E+02  0.7818608E-02  0.1325836E+00
          1   -1    0    0  501    0  0.00000000000E+00  0.00000000000E+00  0.48193715002E+02  0.48193715265E+02  0.50400000000E-02 0. -1.
         -2   -1    0    0    0  501 -0.00000000000E+00 -0.00000000000E+00 -0.34155569807E+02  0.34155569902E+02  0.25500000000E-02 0.  1.
        -24    2    1    2    0    0  0.00000000000E+00 -0.35527136788E-14  0.14038145195E+02  0.82349285167E+02  0.81143916883E+02 0.  0.
         66    2    3    3    0    0  0.66673260085E+01 -0.23684535452E+02 -0.25683796371E+02  0.35623978732E+02  0.20000022496E+01 0.  0.
         13    1    3    3    0    0 -0.66673260085E+01  0.23684535452E+02  0.39721941565E+02  0.46725306435E+02  0.10566000000E+00 0. -1.
         13    1    4    4    0    0  0.11903834666E+01 -0.25756431355E+01 -0.24962966058E+01  0.37806892412E+01  0.10566000000E+00 0. -1.
        -13    1    4    4    0    0  0.45943472194E+01 -0.16865963510E+02 -0.18180089256E+02  0.25220934973E+02  0.10566000000E+00 0.  1.
         14    1    4    4    0    0  0.88259532243E+00 -0.42429288067E+01 -0.50074105087E+01  0.66223545182E+01  0.00000000000E+00 0. -1.
<mgrwt>
<rscale>  0 0.81143917E+02</rscale>
<asrwt>0</asrwt>
<pdfrwt beam="1">  1        1 0.74144177E-02 0.81143917E+02</pdfrwt>
<pdfrwt beam="2">  1       -2 0.52547031E-02 0.81143917E+02</pdfrwt>
<totfact> 0.12572969E+05</totfact>
</mgrwt>
</event>
<event>
 8    1  0.8247621E-014  0.8025638E+02  0.7818608E-02  0.1328325E+00
         -2   -1    0    0    0  501 -0.00000000000E+00  0.00000000000E+00  0.39710178776E+01  0.39710186963E+01  0.25500000000E-02 0.  1.
          1   -1    0    0  501    0  0.00000000000E+00 -0.00000000000E+00 -0.40550601787E+03  0.40550601790E+03  0.50400000000E-02 0. -1.
        -24    2    1    2    0    0  0.00000000000E+00 -0.17763568394E-14 -0.40153499999E+03  0.40947703660E+03  0.80256384679E+02 0.  0.
         66    2    3    3    0    0  0.38208677335E+02 -0.99221367983E+01 -0.23693853946E+03  0.24021287085E+03  0.20000045787E+01 0.  0.
         13    1    3    3    0    0 -0.38208677335E+02  0.99221367983E+01 -0.16459646053E+03  0.16926416575E+03  0.10566000000E+00 0. -1.
         13    1    4    4    0    0  0.11130286971E+02 -0.32269806508E+01 -0.66849684592E+02  0.67846799381E+02  0.10566000000E+00 0. -1.
        -13    1    4    4    0    0  0.19773403014E+02 -0.45119897928E+01 -0.12069341266E+03  0.12238568765E+03  0.10566000000E+00 0.  1.
        -14    1    4    4    0    0  0.73049873493E+01 -0.21831663547E+01 -0.49395442210E+02  0.49980383818E+02  0.00000000000E+00 0.  1.
<mgrwt>
<rscale>  0 0.80256385E+02</rscale>
<asrwt>0</asrwt>
<pdfrwt beam="1">  1        1 0.62385509E-01 0.80256385E+02</pdfrwt>
<pdfrwt beam="2">  1       -2 0.61092621E-03 0.80256385E+02</pdfrwt>
<totfact> 0.18876432E+05</totfact>
</mgrwt>
</event>
<event>
 8    1  0.8247621E-014  0.8494482E+02  0.7818608E-02  0.1315577E+00
          1   -1    0    0  501    0  0.00000000000E+00  0.00000000000E+00  0.23735438214E+01  0.23735491724E+01  0.50400000000E-02 0. -1.
         -2   -1    0    0    0  501 -0.00000000000E+00 -0.00000000000E+00 -0.76000436461E+03  0.76000436462E+03  0.25500000000E-02 0.  1.
        -24    2    1    2    0    0  0.17763568394E-14  0.35527136788E-14 -0.75763082079E+03  0.76237791379E+03  0.84944822214E+02 0.  0.
         66    2    3    3    0    0 -0.13854829710E+02  0.30571183951E+02 -0.61226153218E+03  0.61318409747E+03  0.20000000502E+01 0.  0.
         13    1    3    3    0    0  0.13854829710E+02 -0.30571183951E+02 -0.14536928861E+03  0.14919381632E+03  0.10566000000E+00 0. -1.
         13    1    4    4    0    0 -0.82672362024E+01  0.18074395574E+02 -0.37232864692E+03  0.37285877145E+03  0.10566000000E+00 0. -1.
        -13    1    4    4    0    0 -0.30693167220E+01  0.80791518559E+01 -0.15190173290E+03  0.15214743186E+03  0.10566000000E+00 0.  1.
        -14    1    4    4    0    0 -0.25182767855E+01  0.44176365211E+01 -0.88031152365E+02  0.88177894152E+02  0.00000000000E+00 0.  1.
<mgrwt>
<rscale>  0 0.84944822E+02</rscale>
<asrwt>0</asrwt>
<pdfrwt beam="1">  1        1 0.36516161E-03 0.84944822E+02</pdfrwt>
<pdfrwt beam="2">  1       -2 0.11692355E+00 0.84944822E+02</pdfrwt>
<totfact> 0.29948950E+04</totfact>
</mgrwt>
</event>
<event>
 8    1  0.8247621E-014  0.8000428E+02  0.7818608E-02  0.1329039E+00
         -2   -1    0    0    0  501 -0.00000000000E+00  0.00000000000E+00  0.21040346993E+02  0.21040347147E+02  0.25500000000E-02 0.  1.
          1   -1    0    0  501    0  0.00000000000E+00 -0.00000000000E+00 -0.76052512885E+02  0.76052513052E+02  0.50400000000E-02 0. -1.
        -24    2    1    2    0    0  0.00000000000E+00  0.00000000000E+00 -0.55012165892E+02  0.97092860199E+02  0.80004281795E+02 0.  0.
         66    2    3    3    0    0  0.13267027101E+02 -0.21891737960E+02  0.97423509483E+01  0.27462257629E+02  0.19999982628E+01 0.  0.
         13    1    3    3    0    0 -0.13267027101E+02  0.21891737960E+02 -0.64754516841E+02  0.69630602570E+02  0.10566000000E+00 0. -1.
         13    1    4    4    0    0  0.61992247220E+00 -0.12310565658E+01  0.41188905616E+00  0.14424357074E+01  0.10566000000E+00 0. -1.
        -13    1    4    4    0    0  0.46432013966E+01 -0.70006780113E+01  0.40818208571E+01  0.93403017816E+01  0.10566000000E+00 0.  1.
        -14    1    4    4    0    0  0.80039032321E+01 -0.13660003383E+02  0.52486410351E+01  0.16679520140E+02  0.00000000000E+00 0.  1.
<mgrwt>
<rscale>  0 0.80004282E+02</rscale>
<asrwt>0</asrwt>
<pdfrwt beam="1">  1        1 0.11700387E-01 0.80004282E+02</pdfrwt>
<pdfrwt beam="2">  1       -2 0.32369765E-02 0.80004282E+02</pdfrwt>
<totfact> 0.14052732E+05</totfact>
</mgrwt>
</event>
<event>
 8    1  0.8247621E-014  0.7947713E+02  0.7818608E-02  0.1330542E+00
          1   -1    0    0  501    0  0.00000000000E+00  0.00000000000E+00  0.13621636584E+02  0.13621637517E+02  0.50400000000E-02 0. -1.
         -2   -1    0    0    0  501 -0.00000000000E+00 -0.00000000000E+00 -0.11592978177E+03  0.11592978180E+03  0.25500000000E-02 0.  1.
        -24    2    1    2    0    0  0.00000000000E+00  0.00000000000E+00 -0.10230814518E+03  0.12955141931E+03  0.79477126741E+02 0.  0.
         66    2    3    3    0    0  0.35119035873E+02  0.59298346120E+01 -0.79823229771E+02  0.87431445378E+02  0.20000026602E+01 0.  0.
         13    1    3    3    0    0 -0.35119035873E+02 -0.59298346120E+01 -0.22484915413E+02  0.42119973935E+02  0.10566000000E+00 0. -1.
         13    1    4    4    0    0  0.42120034722E+01  0.10497208564E+01 -0.91052117533E+01  0.10087563246E+02  0.10566000000E+00 0. -1.
        -13    1    4    4    0    0  0.19933654114E+02  0.32373624494E+01 -0.43981691102E+02  0.48396605235E+02  0.10566000000E+00 0.  1.
        -14    1    4    4    0    0  0.10973378286E+02  0.16427513062E+01 -0.26736326916E+02  0.28947276898E+02  0.00000000000E+00 0.  1.
<mgrwt>
<rscale>  0 0.79477127E+02</rscale>
<asrwt>0</asrwt>
<pdfrwt beam="1">  1        1 0.20956365E-02 0.79477127E+02</pdfrwt>
<pdfrwt beam="2">  1       -2 0.17835350E-01 0.79477127E+02</pdfrwt>
<totfact> 0.10384868E+05</totfact>
</mgrwt>
</event>
<event>
 8    1  0.8247621E-014  0.7881517E+02  0.7818608E-02  0.1332448E+00
         -2   -1    0    0    0  501 -0.00000000000E+00  0.00000000000E+00  0.44535298921E+02  0.44535298994E+02  0.25500000000E-02 0.  1.
          1   -1    0    0  501    0  0.00000000000E+00 -0.00000000000E+00 -0.34870266663E+02  0.34870267027E+02  0.50400000000E-02 0. -1.
        -24    2    1    2    0    0  0.00000000000E+00  0.00000000000E+00  0.96650322583E+01  0.79405566021E+02  0.78815170282E+02 0.  0.
         66    2    3    3    0    0  0.18253013914E+02 -0.26890876067E+02  0.27243201931E+02  0.42455668245E+02  0.19999955374E+01 0.  0.
         13    1    3    3    0    0 -0.18253013914E+02  0.26890876067E+02 -0.17578169673E+02  0.36949897776E+02  0.10566000000E+00 0. -1.
         13    1    4    4    0    0  0.23512556055E+01 -0.24375708188E+01  0.26286528573E+01  0.42884885797E+01  0.10566000000E+00 0. -1.
        -13    1    4    4    0    0  0.81935751231E+01 -0.12592789245E+02  0.12727842105E+02  0.19690661313E+02  0.10566000000E+00 0.  1.
         14    1    4    4    0    0  0.77081831849E+01 -0.11860516003E+02  0.11886706968E+02  0.18476518352E+02  0.00000000000E+00 0. -1.
<mgrwt>
<rscale>  0 0.78815170E+02</rscale>
<asrwt>0</asrwt>
<pdfrwt beam="1">  1        1 0.53646565E-02 0.78815170E+02</pdfrwt>
<pdfrwt beam="2">  1       -2 0.68515844E-02 0.78815170E+02</pdfrwt>
<totfact> 0.12949827E+05</totfact>
</mgrwt>
</event>
<event>
 8    1  0.8247621E-014  0.8580698E+02  0.7818608E-02  0.1313336E+00
          1   -1    0    0  501    0  0.00000000000E+00  0.00000000000E+00  0.15131116798E+03  0.15131116806E+03  0.50400000000E-02 0. -1.
         -2   -1    0    0    0  501 -0.00000000000E+00 -0.00000000000E+00 -0.12165058940E+02  0.12165059207E+02  0.25500000000E-02 0.  1.
        -24    2    1    2    0    0 -0.27755575616E-16 -0.35527136788E-14  0.13914610904E+03  0.16347622727E+03  0.85806976532E+02 0.  0.
         66    2    3    3    0    0 -0.92542915618E-01 -0.29303792044E+02  0.99702313332E+01  0.31018160934E+02  0.20000006243E+01 0.  0.
         13    1    3    3    0    0  0.92542915618E-01  0.29303792044E+02  0.12917587770E+03  0.13245806633E+03  0.10566000000E+00 0. -1.
         13    1    4    4    0    0 -0.15008838925E+00 -0.23053164971E+01  0.74998242598E+00  0.24311825006E+01  0.10566000000E+00 0. -1.
        -13    1    4    4    0    0 -0.77875327413E+00 -0.12775961760E+02  0.47895764852E+01  0.13666852692E+02  0.10566000000E+00 0.  1.
         14    1    4    4    0    0  0.83629874777E+00 -0.14222513787E+02  0.44306724220E+01  0.14920125741E+02  0.00000000000E+00 0. -1.
<mgrwt>
<rscale>  0 0.85806977E+02</rscale>
<asrwt>0</asrwt>
<pdfrwt beam="1">  1        1 0.23278641E-01 0.85806977E+02</pdfrwt>
<pdfrwt beam="2">  1       -2 0.18715476E-02 0.85806977E+02</pdfrwt>
<totfact> 0.13103815E+05</totfact>
</mgrwt>
</event>
<event>
 8    1  0.8247621E-014  0.7460756E+02  0.7818608E-02  0.1345091E+00
         -2   -1    0    0    0  501 -0.00000000000E+00  0.00000000000E+00  0.21945638841E+02  0.21945638989E+02  0.25500000000E-02 0.  1.
          1   -1    0    0  501    0  0.00000000000E+00 -0.00000000000E+00 -0.63409949967E+02  0.63409950168E+02  0.50400000000E-02 0. -1.
        -24    2    1    2    0    0  0.44408920985E-15 -0.35527136788E-14 -0.41464311126E+02  0.85355589157E+02  0.74607556609E+02 0.  0.
         66    2    3    3    0    0  0.32598669386E+01 -0.26936491374E+02  0.84963506460E+01  0.28502443345E+02  0.20000005753E+01 0.  0.
         13    1    3    3    0    0 -0.32598669386E+01  0.26936491374E+02 -0.49960661772E+02  0.56853145812E+02  0.10566000000E+00 0. -1.
         13    1    4    4    0    0  0.19922036147E+01 -0.14792113906E+02  0.51346357057E+01  0.15784522702E+02  0.10566000000E+00 0. -1.
        -13    1    4    4    0    0  0.12196575571E+01 -0.10758899750E+02  0.33389410754E+01  0.11331424444E+02  0.10566000000E+00 0.  1.
         14    1    4    4    0    0  0.48005766774E-01 -0.13854777177E+01  0.22773864871E-01  0.13864961986E+01  0.00000000000E+00 0. -1.
<mgrwt>
<rscale>  0 0.74607557E+02</rscale>
<asrwt>0</asrwt>
<pdfrwt beam="1">  1        1 0.97553769E-02 0.74607557E+02</pdfrwt>
<pdfrwt beam="2">  1       -2 0.33762522E-02 0.74607557E+02</pdfrwt>
<totfact> 0.16526861E+05</totfact>
</mgrwt>
</event>
<event>
 8    1  0.8247621E-014  0.7902693E+02  0.7818608E-02  0.1331836E+00
          1   -1    0    0  501    0  0.00000000000E+00  0.00000000000E+00  0.96458965226E+01  0.96458978393E+01  0.50400000000E-02 0. -1.
         -2   -1    0    0    0  501 -0.00000000000E+00 -0.00000000000E+00 -0.16186302138E+03  0.16186302140E+03  0.25500000000E-02 0.  1.
        -24    2    1    2    0    0  0.88817841970E-15  0.17763568394E-14 -0.15221712486E+03  0.17150891924E+03  0.79026933883E+02 0.  0.
         66    2    3    3    0    0  0.53363357155E+01  0.13345203451E+02 -0.15597840981E+03  0.15665195581E+03  0.19999990916E+01 0.  0.
         13    1    3    3    0    0 -0.53363357155E+01 -0.13345203451E+02  0.37612849515E+01  0.14856963436E+02  0.10566000000E+00 0. -1.
         13    1    4    4    0    0  0.25787634057E+01  0.75189603520E+01 -0.91771367872E+02  0.92115036290E+02  0.10566000000E+00 0. -1.
        -13    1    4    4    0    0  0.67698959417E+00  0.24407647839E+01 -0.23460109815E+02  0.23596685449E+02  0.10566000000E+00 0.  1.
         14    1    4    4    0    0  0.20805827156E+01  0.33854783155E+01 -0.40746932124E+02  0.40940234066E+02  0.00000000000E+00 0. -1.
<mgrwt>
<rscale>  0 0.79026934E+02</rscale>
<asrwt>0</asrwt>
<pdfrwt beam="1">  1        1 0.14839843E-02 0.79026934E+02</pdfrwt>
<pdfrwt beam="2">  1       -2 0.24902001E-01 0.79026934E+02</pdfrwt>
<totfact> 0.95060606E+04</totfact>
</mgrwt>
</event>
<event>
 8    1  0.8247621E-014  0.7743073E+02  0.7818608E-02  0.1336505E+00
         -2   -1    0    0    0  501 -0.00000000000E+00  0.00000000000E+00  0.14183375964E+03  0.14183375966E+03  0.25500000000E-02 0.  1.
          1   -1    0    0  501    0  0.00000000000E+00 -0.00000000000E+00 -0.10567860658E+02  0.10567861860E+02  0.50400000000E-02 0. -1.
        -24    2    1    2    0    0  0.00000000000E+00  0.35527136788E-14  0.13126589898E+03  0.15240162152E+03  0.77430730378E+02 0.  0.
         66    2    3    3    0    0  0.30118516139E+02 -0.22905269274E+02  0.81556990183E+02  0.89929522525E+02  0.19999997382E+01 0.  0.
         13    1    3    3    0    0 -0.30118516139E+02  0.22905269274E+02  0.49708908796E+02  0.62472098994E+02  0.10566000000E+00 0. -1.
         13    1    4    4    0    0  0.10841648420E+02 -0.83648054941E+01  0.28120186434E+02  0.31277265873E+02  0.10566000000E+00 0. -1.
        -13    1    4    4    0    0  0.11582115704E+02 -0.83952295953E+01  0.30308083325E+02  0.33514420225E+02  0.10566000000E+00 0.  1.
         14    1    4    4    0    0  0.76947520162E+01 -0.61452341850E+01  0.23128720425E+02  0.25137836428E+02  0.00000000000E+00 0. -1.
<mgrwt>
<rscale>  0 0.77430730E+02</rscale>
<asrwt>0</asrwt>
<pdfrwt beam="1">  1        1 0.16258250E-02 0.77430730E+02</pdfrwt>
<pdfrwt beam="2">  1       -2 0.21820577E-01 0.77430730E+02</pdfrwt>
<totfact> 0.10465089E+05</totfact>
</mgrwt>
</event>
<event>
 8    1  0.8247621E-014  0.7937708E+02  0.7818608E-02  0.1330829E+00
         -2   -1    0    0    0  501 -0.00000000000E+00  0.00000000000E+00  0.11455707304E+02  0.11455707588E+02  0.25500000000E-02 0.  1.
          1   -1    0    0  501    0  0.00000000000E+00 -0.00000000000E+00 -0.13750179149E+03  0.13750179159E+03  0.50400000000E-02 0. -1.
        -24    2    1    2    0    0  0.00000000000E+00  0.00000000000E+00 -0.12604608419E+03  0.14895749917E+03  0.79377082466E+02 0.  0.
         66    2    3    3    0    0 -0.24308206695E+02  0.90411932978E+01 -0.67485299894E+01  0.26873308178E+02  0.19999866112E+01 0.  0.
         13    1    3    3    0    0  0.24308206695E+02 -0.90411932978E+01 -0.11929755420E+03  0.12208419100E+03  0.10566000000E+00 0. -1.
         13    1    4    4    0    0 -0.15412978214E+01  0.23025007499E+00 -0.61589877577E+00  0.16790203718E+01  0.10566000000E+00 0. -1.
        -13    1    4    4    0    0 -0.10121294299E+02  0.36609828629E+01 -0.22125089414E+01  0.10988619279E+02  0.10566000000E+00 0.  1.
        -14    1    4    4    0    0 -0.12645614575E+02  0.51499603599E+01 -0.39201222723E+01  0.14205668528E+02  0.00000000000E+00 0.  1.
<mgrwt>
<rscale>  0 0.79377082E+02</rscale>
<asrwt>0</asrwt>
<pdfrwt beam="1">  1        1 0.21154121E-01 0.79377082E+02</pdfrwt>
<pdfrwt beam="2">  1       -2 0.17624166E-02 0.79377082E+02</pdfrwt>
<totfact> 0.15867803E+05</totfact>
</mgrwt>
</event>
<event>
 8    1  0.8247621E-014  0.7836212E+02  0.7818608E-02  0.1333765E+00
         -2   -1    0    0    0  501 -0.00000000000E+00  0.00000000000E+00  0.72561138144E+02  0.72561138189E+02  0.25500000000E-02 0.  1.
          1   -1    0    0  501    0  0.00000000000E+00 -0.00000000000E+00 -0.21156719137E+02  0.21156719738E+02  0.50400000000E-02 0. -1.
        -24    2    1    2    0    0  0.00000000000E+00  0.00000000000E+00  0.51404419006E+02  0.93717857926E+02  0.78362124785E+02 0.  0.
         66    2    3    3    0    0  0.82388445562E+01  0.77691049480E+01  0.70546030726E+02  0.71477129193E+02  0.19999987705E+01 0.  0.
         13    1    3    3    0    0 -0.82388445562E+01 -0.77691049480E+01 -0.19141611720E+02  0.22240728733E+02  0.10566000000E+00 0. -1.
         13    1    4    4    0    0  0.86750381405E-01  0.19981781508E+00  0.16319417622E+01  0.16498032424E+01  0.10566000000E+00 0.  1.
        -13    1    4    4    0    0  0.12876284562E+01  0.12314665596E+01  0.15484750173E+02  0.15587275224E+02  0.10566000000E+00 0.  1.
         14    1    4    4    0    0  0.68644657185E+01  0.63378205732E+01  0.53429338791E+02  0.54240050727E+02  0.00000000000E+00 0. -1.
<mgrwt>
<rscale>  0 0.78362125E+02</rscale>
<asrwt>0</asrwt>
<pdfrwt beam="1">  1        1 0.32548800E-02 0.78362125E+02</pdfrwt>
<pdfrwt beam="2">  1       -2 0.11163252E-01 0.78362125E+02</pdfrwt>
<totfact> 0.12023560E+05</totfact>
</mgrwt>
</event>
<event>
 8    1  0.8247621E-014  0.8387192E+02  0.7818608E-02  0.1318409E+00
         -2   -1    0    0    0  501 -0.00000000000E+00  0.00000000000E+00  0.17403688942E+03  0.17403688944E+03  0.25500000000E-02 0.  1.
          1   -1    0    0  501    0  0.00000000000E+00 -0.00000000000E+00 -0.10104894698E+02  0.10104895955E+02  0.50400000000E-02 0. -1.
        -24    2    1    2    0    0  0.00000000000E+00  0.00000000000E+00  0.16393199473E+03  0.18414178540E+03  0.83871915647E+02 0.  0.
         66    2    3    3    0    0 -0.86821478497E+01 -0.21267043631E+02  0.15897926496E+03  0.16064268898E+03  0.19999999358E+01 0.  0.
         13    1    3    3    0    0  0.86821478497E+01  0.21267043631E+02  0.49527297638E+01  0.23499096414E+02  0.10566000000E+00 0. -1.
         13    1    4    4    0    0 -0.25342483307E+01 -0.77665305802E+01  0.58428057028E+02  0.58996528914E+02  0.10566000000E+00 0. -1.
        -13    1    4    4    0    0 -0.28040582837E+01 -0.69794088881E+01  0.54078034941E+02  0.54598717187E+02  0.10566000000E+00 0.  1.
        -14    1    4    4    0    0 -0.33438412352E+01 -0.65211041631E+01  0.46473172994E+02  0.47047442883E+02  0.00000000000E+00 0.  1.
<mgrwt>
<rscale>  0 0.83871916E+02</rscale>
<asrwt>0</asrwt>
<pdfrwt beam="1">  1        1 0.15545992E-02 0.83871916E+02</pdfrwt>
<pdfrwt beam="2">  1       -2 0.26774908E-01 0.83871916E+02</pdfrwt>
<totfact> 0.79456241E+04</totfact>
</mgrwt>
</event>
<event>
 8    1  0.8247621E-014  0.7992610E+02  0.7818608E-02  0.1329261E+00
         -2   -1    0    0    0  501 -0.00000000000E+00  0.00000000000E+00  0.60551011131E+02  0.60551011184E+02  0.25500000000E-02 0.  1.
          1   -1    0    0  501    0  0.00000000000E+00 -0.00000000000E+00 -0.26375205692E+02  0.26375206174E+02  0.50400000000E-02 0. -1.
        -24    2    1    2    0    0  0.00000000000E+00  0.00000000000E+00  0.34175805439E+02  0.86926217358E+02  0.79926100785E+02 0.  0.
         66    2    3    3    0    0 -0.39165819698E+02  0.35280428397E+01  0.95141440089E+01  0.40508362739E+02  0.19999991775E+01 0.  0.
         13    1    3    3    0    0  0.39165819698E+02 -0.35280428397E+01  0.24661661430E+02  0.46417854619E+02  0.10566000000E+00 0. -1.
         13    1    4    4    0    0 -0.34805139275E+02  0.30671782678E+01  0.88372011960E+01  0.36040429957E+02  0.10566000000E+00 0. -1.
        -13    1    4    4    0    0 -0.35117293559E+01  0.48386265661E+00  0.37353038052E+00  0.35660980245E+01  0.10566000000E+00 0.  1.
         14    1    4    4    0    0 -0.84895106664E+00 -0.22998084718E-01  0.30341243239E+00  0.90183475735E+00  0.00000000000E+00 0. -1.
<mgrwt>
<rscale>  0 0.79926101E+02</rscale>
<asrwt>0</asrwt>
<pdfrwt beam="1">  1        1 0.40577240E-02 0.79926101E+02</pdfrwt>
<pdfrwt beam="2">  1       -2 0.93155402E-02 0.79926101E+02</pdfrwt>
<totfact> 0.11846398E+05</totfact>
</mgrwt>
</event>
<event>
 8    1  0.8247621E-014  0.7869428E+02  0.7818608E-02  0.1332798E+00
          1   -1    0    0  501    0  0.00000000000E+00  0.00000000000E+00  0.17779984478E+03  0.17779984486E+03  0.50400000000E-02 0. -1.
         -2   -1    0    0    0  501 -0.00000000000E+00 -0.00000000000E+00 -0.87075296188E+01  0.87075299922E+01  0.25500000000E-02 0.  1.
        -24    2    1    2    0    0  0.00000000000E+00  0.00000000000E+00  0.16909231517E+03  0.18650737485E+03  0.78694280762E+02 0.  0.
         66    2    3    3    0    0  0.41026223398E+01  0.39068816311E+02  0.80503424203E+02  0.89599136375E+02  0.20000031664E+01 0.  0.
         13    1    3    3    0    0 -0.41026223398E+01 -0.39068816311E+02  0.88588890963E+02  0.96908238474E+02  0.10566000000E+00 0. -1.
         13    1    4    4    0    0  0.12446594268E+01  0.93510644418E+01  0.18306972409E+02  0.20594853389E+02  0.10566000000E+00 0. -1.
        -13    1    4    4    0    0  0.16315835241E+01  0.10247208177E+02  0.21431783514E+02  0.23811758625E+02  0.10566000000E+00 0.  1.
         14    1    4    4    0    0  0.12263793889E+01  0.19470543693E+02  0.40764668280E+02  0.45192524360E+02  0.00000000000E+00 0. -1.
<mgrwt>
<rscale>  0 0.78694281E+02</rscale>
<asrwt>0</asrwt>
<pdfrwt beam="1">  1        1 0.27353824E-01 0.78694281E+02</pdfrwt>
<pdfrwt beam="2">  1       -2 0.13396199E-02 0.78694281E+02</pdfrwt>
<totfact> 0.17029044E+05</totfact>
</mgrwt>
</event>
<event>
 8    1  0.8247621E-014  0.8251747E+02  0.7818608E-02  0.1322055E+00
          1   -1    0    0  501    0  0.00000000000E+00  0.00000000000E+00  0.30618420178E+02  0.30618420592E+02  0.50400000000E-02 0. -1.
         -2   -1    0    0    0  501 -0.00000000000E+00 -0.00000000000E+00 -0.55596696919E+02  0.55596696977E+02  0.25500000000E-02 0.  1.
        -24    2    1    2    0    0 -0.35527136788E-14  0.00000000000E+00 -0.24978276741E+02  0.86215117570E+02  0.82517465961E+02 0.  0.
         66    2    3    3    0    0  0.30188914916E+02  0.27626168585E+02 -0.71995348905E+01  0.41598185802E+02  0.19999962291E+01 0.  0.
         13    1    3    3    0    0 -0.30188914916E+02 -0.27626168585E+02 -0.17778741851E+02  0.44616931767E+02  0.10566000000E+00 0. -1.
         13    1    4    4    0    0  0.99468884907E+01  0.90299339278E+01 -0.22656606023E+01  0.13624414827E+02  0.10566000000E+00 0. -1.
        -13    1    4    4    0    0  0.18768905117E+02  0.17763115914E+02 -0.46815934917E+01  0.26262683944E+02  0.10566000000E+00 0.  1.
         14    1    4    4    0    0  0.14731213079E+01  0.83311874360E+00 -0.25228079648E+00  0.17110870314E+01  0.00000000000E+00 0. -1.
<mgrwt>
<rscale>  0 0.82517466E+02</rscale>
<asrwt>0</asrwt>
<pdfrwt beam="1">  1        1 0.47105262E-02 0.82517466E+02</pdfrwt>
<pdfrwt beam="2">  1       -2 0.85533380E-02 0.82517466E+02</pdfrwt>
<totfact> 0.11102414E+05</totfact>
</mgrwt>
</event>
<event>
 8    1  0.8247621E-014  0.8388804E+02  0.7818608E-02  0.1318366E+00
          1   -1    0    0  501    0  0.00000000000E+00  0.00000000000E+00  0.18530855771E+02  0.18530856456E+02  0.50400000000E-02 0. -1.
         -2   -1    0    0    0  501 -0.00000000000E+00 -0.00000000000E+00 -0.94938990800E+02  0.94938990834E+02  0.25500000000E-02 0.  1.
        -24    2    1    2    0    0  0.00000000000E+00  0.00000000000E+00 -0.76408135030E+02  0.11346984729E+03  0.83888039346E+02 0.  0.
         66    2    3    3    0    0  0.31283121508E+02 -0.13466725327E+02 -0.71283990407E+02  0.79027803152E+02  0.20000000799E+01 0.  0.
         13    1    3    3    0    0 -0.31283121508E+02  0.13466725327E+02 -0.51241446224E+01  0.34442044139E+02  0.10566000000E+00 0. -1.
         13    1    4    4    0    0  0.71553668534E+00 -0.41216852682E+00 -0.17173790289E+01  0.19085152362E+01  0.10566000000E+00 0.  1.
        -13    1    4    4    0    0  0.24517620109E+01 -0.11070174997E+01 -0.46316857312E+01  0.53572662292E+01  0.10566000000E+00 0.  1.
        -14    1    4    4    0    0  0.28115822812E+02 -0.11947539300E+02 -0.64934925647E+02  0.71762021686E+02  0.00000000000E+00 0.  1.
<mgrwt>
<rscale>  0 0.83888039E+02</rscale>
<asrwt>0</asrwt>
<pdfrwt beam="1">  1        1 0.28509010E-02 0.83888039E+02</pdfrwt>
<pdfrwt beam="2">  1       -2 0.14605998E-01 0.83888039E+02</pdfrwt>
<totfact> 0.95190495E+04</totfact>
</mgrwt>
</event>
<event>
 8    1  0.8247621E-014  0.8104888E+02  0.7818608E-02  0.1326101E+00
         -2   -1    0    0    0  501 -0.00000000000E+00  0.00000000000E+00  0.81090574656E+02  0.81090574696E+02  0.25500000000E-02 0.  1.
          1   -1    0    0  501    0  0.00000000000E+00 -0.00000000000E+00 -0.20251801361E+02  0.20251801988E+02  0.50400000000E-02 0. -1.
        -24    2    1    2    0    0  0.00000000000E+00  0.00000000000E+00  0.60838773295E+02  0.10134237668E+03  0.81048880165E+02 0.  0.
         66    2    3    3    0    0 -0.19289995843E+02  0.16123433060E+02  0.70139456024E+02  0.74535980125E+02  0.20000021388E+01 0.  0.
         13    1    3    3    0    0  0.19289995843E+02 -0.16123433060E+02 -0.93006827286E+01  0.26806396560E+02  0.10566000000E+00 0. -1.
         13    1    4    4    0    0 -0.94424462083E+01  0.69567633861E+01  0.31298585701E+02  0.33424077820E+02  0.10566000000E+00 0. -1.
        -13    1    4    4    0    0 -0.58543136286E+01  0.53463904378E+01  0.21784498024E+02  0.23182588229E+02  0.10566000000E+00 0.  1.
         14    1    4    4    0    0 -0.39932360060E+01  0.38202792358E+01  0.17056372299E+02  0.17929314076E+02  0.00000000000E+00 0. -1.
<mgrwt>
<rscale>  0 0.81048880E+02</rscale>
<asrwt>0</asrwt>
<pdfrwt beam="1">  1        1 0.31156618E-02 0.81048880E+02</pdfrwt>
<pdfrwt beam="2">  1       -2 0.12475473E-01 0.81048880E+02</pdfrwt>
<totfact> 0.10779247E+05</totfact>
</mgrwt>
</event>
<event>
 8    1  0.8247621E-014  0.8109768E+02  0.7818608E-02  0.1325965E+00
         -2   -1    0    0    0  501 -0.00000000000E+00  0.00000000000E+00  0.21978455650E+02  0.21978455798E+02  0.25500000000E-02 0.  1.
          1   -1    0    0  501    0  0.00000000000E+00 -0.00000000000E+00 -0.74810008196E+02  0.74810008366E+02  0.50400000000E-02 0. -1.
        -24    2    1    2    0    0  0.00000000000E+00  0.00000000000E+00 -0.52831552546E+02  0.96788464163E+02  0.81097680921E+02 0.  0.
         66    2    3    3    0    0  0.40257680345E+02 -0.46034387472E+01 -0.27118451214E+02  0.48798389990E+02  0.19999985841E+01 0.  0.
         13    1    3    3    0    0 -0.40257680345E+02  0.46034387472E+01 -0.25713101332E+02  0.47990074173E+02  0.10566000000E+00 0. -1.
         13    1    4    4    0    0  0.15976239785E+02 -0.16694544275E+01 -0.97631817972E+01  0.18797824304E+02  0.10566000000E+00 0. -1.
        -13    1    4    4    0    0  0.10872989146E+02 -0.92562488095E+00 -0.76932080116E+01  0.13351976929E+02  0.10566000000E+00 0.  1.
         14    1    4    4    0    0  0.13408451415E+02 -0.20083594387E+01 -0.96620614055E+01  0.16648588756E+02  0.00000000000E+00 0. -1.
<mgrwt>
<rscale>  0 0.81097681E+02</rscale>
<asrwt>0</asrwt>
<pdfrwt beam="1">  1        1 0.11509232E-01 0.81097681E+02</pdfrwt>
<pdfrwt beam="2">  1       -2 0.33813009E-02 0.81097681E+02</pdfrwt>
<totfact> 0.13505269E+05</totfact>
</mgrwt>
</event>
<event>
 8    1  0.8247621E-014  0.8443057E+02  0.7818608E-02  0.1316928E+00
          1   -1    0    0  501    0  0.00000000000E+00  0.00000000000E+00  0.10775233986E+02  0.10775235165E+02  0.50400000000E-02 0. -1.
         -2   -1    0    0    0  501 -0.00000000000E+00 -0.00000000000E+00 -0.16539131526E+03  0.16539131528E+03  0.25500000000E-02 0.  1.
        -24    2    1    2    0    0  0.00000000000E+00  0.71054273576E-14 -0.15461608127E+03  0.17616655044E+03  0.84430568558E+02 0.  0.
         66    2    3    3    0    0  0.84381760063E+00 -0.35411168515E+02 -0.12518065448E+03  0.13011094928E+03  0.19999958164E+01 0.  0.
         13    1    3    3    0    0 -0.84381760063E+00  0.35411168515E+02 -0.29435426789E+02  0.46055601158E+02  0.10566000000E+00 0. -1.
         13    1    4    4    0    0  0.14833751404E+00 -0.34173458355E+01 -0.10801693856E+02  0.11330843339E+02  0.10566000000E+00 0. -1.
        -13    1    4    4    0    0  0.84855122922E+00 -0.22589249523E+02 -0.78705868251E+02  0.81887844607E+02  0.10566000000E+00 0.  1.
        -14    1    4    4    0    0 -0.15307114262E+00 -0.94045731571E+01 -0.35673092374E+02  0.36892261337E+02  0.00000000000E+00 0.  1.
<mgrwt>
<rscale>  0 0.84430569E+02</rscale>
<asrwt>0</asrwt>
<pdfrwt beam="1">  1        1 0.16577285E-02 0.84430569E+02</pdfrwt>
<pdfrwt beam="2">  1       -2 0.25444816E-01 0.84430569E+02</pdfrwt>
<totfact> 0.79551418E+04</totfact>
</mgrwt>
</event>
<event>
 8    1  0.8247621E-014  0.8056203E+02  0.7818608E-02  0.1327464E+00
         -2   -1    0    0    0  501 -0.00000000000E+00  0.00000000000E+00  0.20562835894E+02  0.20562836052E+02  0.25500000000E-02 0.  1.
          1   -1    0    0  501    0  0.00000000000E+00 -0.00000000000E+00 -0.78907404943E+02  0.78907405104E+02  0.50400000000E-02 0. -1.
        -24    2    1    2    0    0  0.35527136788E-14 -0.17763568394E-14 -0.58344569048E+02  0.99470241156E+02  0.80562026651E+02 0.  0.
         66    2    3    3    0    0  0.29089613085E+02  0.13469293069E+02  0.87495420823E+00  0.32130872700E+02  0.19999975979E+01 0.  0.
         13    1    3    3    0    0 -0.29089613085E+02 -0.13469293069E+02 -0.59219523257E+02  0.67339368456E+02  0.10566000000E+00 0. -1.
         13    1    4    4    0    0  0.94014757298E+01  0.49649711723E+01  0.60004084328E-01  0.10632659553E+02  0.10566000000E+00 0. -1.
        -13    1    4    4    0    0  0.15930471989E+02  0.71816508253E+01  0.26493399098E+00  0.17476767447E+02  0.10566000000E+00 0.  1.
        -14    1    4    4    0    0  0.37576653670E+01  0.13226710709E+01  0.55001613292E+00  0.40214457001E+01  0.00000000000E+00 0.  1.
<mgrwt>
<rscale>  0 0.80562027E+02</rscale>
<asrwt>0</asrwt>
<pdfrwt beam="1">  1        1 0.12139601E-01 0.80562027E+02</pdfrwt>
<pdfrwt beam="2">  1       -2 0.31635133E-02 0.80562027E+02</pdfrwt>
<totfact> 0.13870758E+05</totfact>
</mgrwt>
</event>
<event>
 8    1  0.8247621E-014  0.8028767E+02  0.7818608E-02  0.1328237E+00
         -2   -1    0    0    0  501 -0.00000000000E+00  0.00000000000E+00  0.28446036689E+03  0.28446036690E+03  0.25500000000E-02 0.  1.
          1   -1    0    0  501    0  0.00000000000E+00 -0.00000000000E+00 -0.56652077175E+01  0.56652099594E+01  0.50400000000E-02 0. -1.
        -24    2    1    2    0    0  0.00000000000E+00  0.00000000000E+00  0.27879515917E+03  0.29012557686E+03  0.80287667613E+02 0.  0.
         66    2    3    3    0    0 -0.56171300347E+01  0.38852499596E+02  0.16938135888E+03  0.17388247069E+03  0.20000002726E+01 0.  0.
         13    1    3    3    0    0  0.56171300347E+01 -0.38852499596E+02  0.10941380029E+03  0.11624310617E+03  0.10566000000E+00 0. -1.
         13    1    4    4    0    0 -0.29111802405E+01  0.20000523773E+02  0.89941309916E+02  0.92184306229E+02  0.10566000000E+00 0. -1.
        -13    1    4    4    0    0 -0.14435833165E+01  0.11270095631E+02  0.49473825513E+02  0.50761890856E+02  0.10566000000E+00 0.  1.
         14    1    4    4    0    0 -0.12623664777E+01  0.75818801927E+01  0.29966223451E+02  0.30936273601E+02  0.00000000000E+00 0. -1.
<mgrwt>
<rscale>  0 0.80287668E+02</rscale>
<asrwt>0</asrwt>
<pdfrwt beam="1">  1        1 0.87157065E-03 0.80287668E+02</pdfrwt>
<pdfrwt beam="2">  1       -2 0.43763130E-01 0.80287668E+02</pdfrwt>
<totfact> 0.71625727E+04</totfact>
</mgrwt>
</event>
<event>
 8    1  0.8247621E-014  0.8351869E+02  0.7818608E-02  0.1319352E+00
         -2   -1    0    0    0  501 -0.00000000000E+00  0.00000000000E+00  0.56913643148E+03  0.56913643148E+03  0.25500000000E-02 0.  1.
          1   -1    0    0  501    0  0.00000000000E+00 -0.00000000000E+00 -0.30640137375E+01  0.30640178827E+01  0.50400000000E-02 0. -1.
        -24    2    1    2    0    0  0.00000000000E+00  0.17763568394E-14  0.56607241774E+03  0.57220044936E+03  0.83518693288E+02 0.  0.
         66    2    3    3    0    0 -0.19445255468E+02  0.13776303145E+02  0.51793760647E+03  0.51848941039E+03  0.19999986212E+01 0.  0.
         13    1    3    3    0    0  0.19445255468E+02 -0.13776303145E+02  0.48134811264E+02  0.53711038977E+02  0.10566000000E+00 0. -1.
         13    1    4    4    0    0 -0.79280240609E+01  0.57641995941E+01  0.20777257998E+03  0.20800369159E+03  0.10566000000E+00 0. -1.
        -13    1    4    4    0    0 -0.56614042866E+01  0.42125553519E+01  0.14046977163E+03  0.14064695171E+03  0.10566000000E+00 0.  1.
         14    1    4    4    0    0 -0.58558271210E+01  0.37995481987E+01  0.16969525487E+03  0.16983876708E+03  0.00000000000E+00 0. -1.
<mgrwt>
<rscale>  0 0.83518693E+02</rscale>
<asrwt>0</asrwt>
<pdfrwt beam="1">  1        1 0.47138612E-03 0.83518693E+02</pdfrwt>
<pdfrwt beam="2">  1       -2 0.87559625E-01 0.83518693E+02</pdfrwt>
<totfact> 0.40653850E+04</totfact>
</mgrwt>
</event>
<event>
 8    1  0.8247621E-014  0.8539187E+02  0.7818608E-02  0.1314411E+00
          1   -1    0    0  501    0  0.00000000000E+00  0.00000000000E+00  0.80678087216E+02  0.80678087373E+02  0.50400000000E-02 0. -1.
         -2   -1    0    0    0  501 -0.00000000000E+00 -0.00000000000E+00 -0.22595265901E+02  0.22595266045E+02  0.25500000000E-02 0.  1.
        -24    2    1    2    0    0  0.71054273576E-14  0.17763568394E-14  0.58082821315E+02  0.10327335342E+03  0.85391869604E+02 0.  0.
         66    2    3    3    0    0  0.38966081409E+02  0.10682897510E+02  0.12454584246E+02  0.42327254432E+02  0.19999998579E+01 0.  0.
         13    1    3    3    0    0 -0.38966081409E+02 -0.10682897510E+02  0.45628237069E+02  0.60946098986E+02  0.10566000000E+00 0. -1.
         13    1    4    4    0    0  0.13444284668E+02  0.36251187788E+01  0.34318933656E+01  0.14341524762E+02  0.10566000000E+00 0. -1.
        -13    1    4    4    0    0  0.25819521532E+01  0.78007700646E+00  0.70421790481E+00  0.27896386774E+01  0.10566000000E+00 0.  1.
        -14    1    4    4    0    0  0.22939844588E+02  0.62777017244E+01  0.83184729754E+01  0.25196090993E+02  0.00000000000E+00 0.  1.
<mgrwt>
<rscale>  0 0.85391870E+02</rscale>
<asrwt>0</asrwt>
<pdfrwt beam="1">  1        1 0.12412013E-01 0.85391870E+02</pdfrwt>
<pdfrwt beam="2">  1       -2 0.34761948E-02 0.85391870E+02</pdfrwt>
<totfact> 0.11869893E+05</totfact>
</mgrwt>
</event>
<event>
 8    1  0.8247621E-014  0.8030897E+02  0.7818608E-02  0.1328177E+00
         -2   -1    0    0    0  501 -0.00000000000E+00  0.00000000000E+00  0.12876016260E+04  0.12876016260E+04  0.25500000000E-02 0.  1.
          1   -1    0    0  501    0  0.00000000000E+00 -0.00000000000E+00 -0.12522322599E+01  0.12522424024E+01  0.50400000000E-02 0. -1.
        -24    2    1    2    0    0  0.00000000000E+00  0.00000000000E+00  0.12863493938E+04  0.12888538684E+04  0.80308974139E+02 0.  0.
         66    2    3    3    0    0  0.17838743018E+02  0.62524839569E+01  0.12116742621E+04  0.12118233501E+04  0.19999977712E+01 0.  0.
         13    1    3    3    0    0 -0.17838743018E+02 -0.62524839569E+01  0.74675131661E+02  0.77030518373E+02  0.10566000000E+00 0. -1.
         13    1    4    4    0    0  0.67942076705E+01  0.17835228568E+01  0.41948526862E+03  0.41954409061E+03  0.10566000000E+00 0. -1.
        -13    1    4    4    0    0  0.71215669082E+01  0.33392733433E+01  0.50551769824E+03  0.50557889776E+03  0.10566000000E+00 0.  1.
         14    1    4    4    0    0  0.39229684398E+01  0.11296877568E+01  0.28667129525E+03  0.28670036170E+03  0.00000000000E+00 0. -1.
<mgrwt>
<rscale>  0 0.80308974E+02</rscale>
<asrwt>0</asrwt>
<pdfrwt beam="1">  1        1 0.19265164E-03 0.80308974E+02</pdfrwt>
<pdfrwt beam="2">  1       -2 0.19809282E+00 0.80308974E+02</pdfrwt>
<totfact> 0.18643386E+04</totfact>
</mgrwt>
</event>
<event>
 8    1  0.8247621E-014  0.7898185E+02  0.7818608E-02  0.1331966E+00
         -2   -1    0    0    0  501 -0.00000000000E+00  0.00000000000E+00  0.12198519116E+02  0.12198519382E+02  0.25500000000E-02 0.  1.
          1   -1    0    0  501    0  0.00000000000E+00 -0.00000000000E+00 -0.12784610608E+03  0.12784610618E+03  0.50400000000E-02 0. -1.
        -24    2    1    2    0    0  0.00000000000E+00  0.35527136788E-14 -0.11564758697E+03  0.14004462556E+03  0.78981850940E+02 0.  0.
         66    2    3    3    0    0 -0.15396189141E+02  0.24568962952E+02 -0.10386990294E+02  0.30863670464E+02  0.20000016327E+01 0.  0.
         13    1    3    3    0    0  0.15396189141E+02 -0.24568962952E+02 -0.10526059667E+03  0.10918095510E+03  0.10566000000E+00 0. -1.
         13    1    4    4    0    0 -0.98737161027E+01  0.15748958245E+02 -0.66684244588E+01  0.19748392448E+02  0.10566000000E+00 0. -1.
        -13    1    4    4    0    0 -0.35352038443E+01  0.45344372355E+01 -0.20030612685E+01  0.60895160517E+01  0.10566000000E+00 0.  1.
         14    1    4    4    0    0 -0.19872691941E+01  0.42855674714E+01 -0.17155045666E+01  0.50257619641E+01  0.00000000000E+00 0. -1.
<mgrwt>
<rscale>  0 0.78981851E+02</rscale>
<asrwt>0</asrwt>
<pdfrwt beam="1">  1        1 0.19668631E-01 0.78981851E+02</pdfrwt>
<pdfrwt beam="2">  1       -2 0.18766954E-02 0.78981851E+02</pdfrwt>
<totfact> 0.15873037E+05</totfact>
</mgrwt>
</event>
<event>
 8    1  0.8247621E-014  0.8012918E+02  0.7818608E-02  0.1328685E+00
         -2   -1    0    0    0  501 -0.00000000000E+00  0.00000000000E+00  0.20785001064E+02  0.20785001221E+02  0.25500000000E-02 0.  1.
          1   -1    0    0  501    0  0.00000000000E+00 -0.00000000000E+00 -0.77227384671E+02  0.77227384836E+02  0.50400000000E-02 0. -1.
        -24    2    1    2    0    0  0.17763568394E-14  0.35527136788E-14 -0.56442383607E+02  0.98012386057E+02  0.80129177914E+02 0.  0.
         66    2    3    3    0    0 -0.14427679503E+02 -0.11817572555E+02  0.15099715524E+02  0.24079334793E+02  0.19999995550E+01 0.  0.
         13    1    3    3    0    0  0.14427679503E+02  0.11817572555E+02 -0.71542099132E+02  0.73933051263E+02  0.10566000000E+00 0. -1.
         13    1    4    4    0    0 -0.87800146021E+00 -0.37165774186E+00  0.11328986367E+01  0.14844660312E+01  0.10566000000E+00 0. -1.
        -13    1    4    4    0    0 -0.22019007705E+01 -0.22557422544E+01  0.26800525820E+01  0.41389112094E+01  0.10566000000E+00 0.  1.
         14    1    4    4    0    0 -0.11347777273E+02 -0.91901725588E+01  0.11286764305E+02  0.18455957552E+02  0.00000000000E+00 0. -1.
<mgrwt>
<rscale>  0 0.80129178E+02</rscale>
<asrwt>0</asrwt>
<pdfrwt beam="1">  1        1 0.11881136E-01 0.80129178E+02</pdfrwt>
<pdfrwt beam="2">  1       -2 0.31976925E-02 0.80129178E+02</pdfrwt>
<totfact> 0.14027446E+05</totfact>
</mgrwt>
</event>
<event>
 8    1  0.8247621E-014  0.7911517E+02  0.7818608E-02  0.1331581E+00
          1   -1    0    0  501    0  0.00000000000E+00  0.00000000000E+00  0.44078918145E+01  0.44078946959E+01  0.50400000000E-02 0. -1.
         -2   -1    0    0    0  501 -0.00000000000E+00 -0.00000000000E+00 -0.35500008949E+03  0.35500008950E+03  0.25500000000E-02 0.  1.
        -24    2    1    2    0    0 -0.17763568394E-14 -0.35527136788E-14 -0.35059219768E+03  0.35940798420E+03  0.79115169420E+02 0.  0.
         66    2    3    3    0    0 -0.11937041208E+02 -0.26867590376E+02 -0.29546595823E+03  0.29693179829E+03  0.19999999607E+01 0.  0.
         13    1    3    3    0    0  0.11937041208E+02  0.26867590376E+02 -0.55126239453E+02  0.62476185908E+02  0.10566000000E+00 0. -1.
         13    1    4    4    0    0 -0.21712841099E+01 -0.61823248016E+01 -0.62143152442E+02  0.62487744192E+02  0.10566000000E+00 0. -1.
        -13    1    4    4    0    0 -0.13481356003E+01 -0.33087748716E+01 -0.33098433134E+02  0.33290883148E+02  0.10566000000E+00 0.  1.
         14    1    4    4    0    0 -0.84176214976E+01 -0.17376490703E+02 -0.20022437265E+03  0.20115317095E+03  0.00000000000E+00 0. -1.
<mgrwt>
<rscale>  0 0.79115169E+02</rscale>
<asrwt>0</asrwt>
<pdfrwt beam="1">  1        1 0.67813770E-03 0.79115169E+02</pdfrwt>
<pdfrwt beam="2">  1       -2 0.54615376E-01 0.79115169E+02</pdfrwt>
<totfact> 0.65619765E+04</totfact>
</mgrwt>
</event>
<event>
 8    1  0.8247621E-014  0.7804739E+02  0.7818608E-02  0.1334686E+00
          1   -1    0    0  501    0  0.00000000000E+00  0.00000000000E+00  0.99726350451E+01  0.99726363187E+01  0.50400000000E-02 0. -1.
         -2   -1    0    0    0  501 -0.00000000000E+00 -0.00000000000E+00 -0.15270272618E+03  0.15270272621E+03  0.25500000000E-02 0.  1.
        -24    2    1    2    0    0  0.00000000000E+00 -0.35527136788E-14 -0.14273009114E+03  0.16267536252E+03  0.78047387245E+02 0.  0.
         66    2    3    3    0    0  0.22071519886E+02 -0.24246011939E+02 -0.27402475837E+02  0.42777526429E+02  0.20000000869E+01 0.  0.
         13    1    3    3    0    0 -0.22071519886E+02  0.24246011939E+02 -0.11532761530E+03  0.11989783610E+03  0.10566000000E+00 0. -1.
         13    1    4    4    0    0  0.39569326884E+01 -0.49510086211E+01 -0.60390027455E+01  0.87550283188E+01  0.10566000000E+00 0. -1.
        -13    1    4    4    0    0  0.34592905507E+01 -0.40427754912E+01 -0.40307039315E+01  0.66759615791E+01  0.10566000000E+00 0.  1.
         14    1    4    4    0    0  0.14655296647E+02 -0.15252227827E+02 -0.17332769159E+02  0.27346536531E+02  0.00000000000E+00 0. -1.
<mgrwt>
<rscale>  0 0.78047387E+02</rscale>
<asrwt>0</asrwt>
<pdfrwt beam="1">  1        1 0.15342518E-02 0.78047387E+02</pdfrwt>
<pdfrwt beam="2">  1       -2 0.23492725E-01 0.78047387E+02</pdfrwt>
<totfact> 0.10011970E+05</totfact>
</mgrwt>
</event>
<event>
 8    1  0.8247621E-014  0.8008059E+02  0.7818608E-02  0.1328823E+00
          1   -1    0    0  501    0  0.00000000000E+00  0.00000000000E+00  0.84277652620E+02  0.84277652771E+02  0.50400000000E-02 0. -1.
         -2   -1    0    0    0  501 -0.00000000000E+00 -0.00000000000E+00 -0.19023134913E+02  0.19023135083E+02  0.25500000000E-02 0.  1.
        -24    2    1    2    0    0  0.00000000000E+00  0.00000000000E+00  0.65254517708E+02  0.10330078785E+03  0.80080588722E+02 0.  0.
         66    2    3    3    0    0 -0.28210537263E+02 -0.17966175707E+02  0.43094295907E+01  0.33781489729E+02  0.19999956847E+01 0.  0.
         13    1    3    3    0    0  0.28210537263E+02  0.17966175707E+02  0.60945088117E+02  0.69519298125E+02  0.10566000000E+00 0. -1.
         13    1    4    4    0    0 -0.78548817415E+01 -0.56709479777E+01  0.15959849993E+01  0.98192235076E+01  0.10566000000E+00 0. -1.
        -13    1    4    4    0    0 -0.11885421329E+02 -0.75475172438E+01  0.20673209584E+01  0.14230714553E+02  0.10566000000E+00 0.  1.
         14    1    4    4    0    0 -0.84702341927E+01 -0.47477104857E+01  0.64612363294E+00  0.97315516689E+01  0.00000000000E+00 0. -1.
<mgrwt>
<rscale>  0 0.80080589E+02</rscale>
<asrwt>0</asrwt>
<pdfrwt beam="1">  1        1 0.12965793E-01 0.80080589E+02</pdfrwt>
<pdfrwt beam="2">  1       -2 0.29266362E-02 0.80080589E+02</pdfrwt>
<totfact> 0.14250287E+05</totfact>
</mgrwt>
</event>
<event>
 8    1  0.8247621E-014  0.7767583E+02  0.7818608E-02  0.1335780E+00
         -2   -1    0    0    0  501 -0.00000000000E+00  0.00000000000E+00  0.11061205003E+02  0.11061205297E+02  0.25500000000E-02 0.  1.
          1   -1    0    0  501    0  0.00000000000E+00 -0.00000000000E+00 -0.13636703582E+03  0.13636703592E+03  0.50400000000E-02 0. -1.
        -24    2    1    2    0    0  0.00000000000E+00 -0.88817841970E-15 -0.12530583082E+03  0.14742824121E+03  0.77675833240E+02 0.  0.
         66    2    3    3    0    0 -0.34290194848E+02 -0.70220291179E+01 -0.30863873097E+02  0.46708725237E+02  0.19999987818E+01 0.  0.
         13    1    3    3    0    0  0.34290194848E+02  0.70220291179E+01 -0.94441957723E+02  0.10071951597E+03  0.10566000000E+00 0. -1.
         13    1    4    4    0    0 -0.23668908686E+01 -0.17913997279E+00 -0.20591662641E+01  0.31441363286E+01  0.10566000000E+00 0. -1.
        -13    1    4    4    0    0 -0.31137011564E+02 -0.69039551009E+01 -0.28065672210E+02  0.42483775795E+02  0.10566000000E+00 0.  1.
        -14    1    4    4    0    0 -0.78629241564E+00  0.61065955836E-01 -0.73903462257E+00  0.10808131139E+01  0.00000000000E+00 0.  1.
<mgrwt>
<rscale>  0 0.77675833E+02</rscale>
<asrwt>0</asrwt>
<pdfrwt beam="1">  1        1 0.20979543E-01 0.77675833E+02</pdfrwt>
<pdfrwt beam="2">  1       -2 0.17017240E-02 0.77675833E+02</pdfrwt>
<totfact> 0.16788515E+05</totfact>
</mgrwt>
</event>
<event>
 8    1  0.8247621E-014  0.8350294E+02  0.7818608E-02  0.1319395E+00
          1   -1    0    0  501    0  0.00000000000E+00  0.00000000000E+00  0.15345219884E+03  0.15345219892E+03  0.50400000000E-02 0. -1.
         -2   -1    0    0    0  501 -0.00000000000E+00 -0.00000000000E+00 -0.11359792855E+02  0.11359793141E+02  0.25500000000E-02 0.  1.
        -24    2    1    2    0    0  0.00000000000E+00  0.35527136788E-14  0.14209240598E+03  0.16481199206E+03  0.83502939405E+02 0.  0.
         66    2    3    3    0    0  0.12334794342E+02  0.22371765963E+02  0.59677031903E+01  0.26310768463E+02  0.19999980028E+01 0.  0.
         13    1    3    3    0    0 -0.12334794342E+02 -0.22371765963E+02  0.13612470279E+03  0.13850122360E+03  0.10566000000E+00 0. -1.
         13    1    4    4    0    0  0.22254111593E+01  0.56477436397E+01  0.11466831823E+01  0.61786332958E+01  0.10566000000E+00 0. -1.
        -13    1    4    4    0    0  0.53237579700E+01  0.91761341102E+01  0.26300962134E+01  0.10930343373E+02  0.10566000000E+00 0.  1.
         14    1    4    4    0    0  0.47856252126E+01  0.75478882130E+01  0.21909237946E+01  0.92017917943E+01  0.00000000000E+00 0. -1.
<mgrwt>
<rscale>  0 0.83502939E+02</rscale>
<asrwt>0</asrwt>
<pdfrwt beam="1">  1        1 0.23608029E-01 0.83502939E+02</pdfrwt>
<pdfrwt beam="2">  1       -2 0.17476606E-02 0.83502939E+02</pdfrwt>
<totfact> 0.14136313E+05</totfact>
</mgrwt>
</event>
<event>
 8    1  0.8247621E-014  0.7986626E+02  0.7818608E-02  0.1329431E+00
         -2   -1    0    0    0  501 -0.00000000000E+00  0.00000000000E+00  0.94362105946E+02  0.94362105980E+02  0.25500000000E-02 0.  1.
          1   -1    0    0  501    0  0.00000000000E+00 -0.00000000000E+00 -0.16899314456E+02  0.16899315207E+02  0.50400000000E-02 0. -1.
        -24    2    1    2    0    0  0.35527136788E-14  0.00000000000E+00  0.77462791490E+02  0.11126142119E+03  0.79866261833E+02 0.  0.
         66    2    3    3    0    0 -0.19385731419E+02 -0.21943224760E+02  0.76532387481E+02  0.81966566499E+02  0.19999986726E+01 0.  0.
         13    1    3    3    0    0  0.19385731419E+02  0.21943224760E+02  0.93040400925E+00  0.29294854688E+02  0.10566000000E+00 0. -1.
         13    1    4    4    0    0 -0.62802206739E+01 -0.78818954979E+01  0.28173249290E+02  0.29921707637E+02  0.10566000000E+00 0. -1.
        -13    1    4    4    0    0 -0.10281561136E+02 -0.11409225795E+02  0.38179299616E+02  0.41152776526E+02  0.10566000000E+00 0.  1.
        -14    1    4    4    0    0 -0.28239496093E+01 -0.26521034673E+01  0.10179838575E+02  0.10892082336E+02  0.00000000000E+00 0.  1.
<mgrwt>
<rscale>  0 0.79866262E+02</rscale>
<asrwt>0</asrwt>
<pdfrwt beam="1">  1        1 0.25998947E-02 0.79866262E+02</pdfrwt>
<pdfrwt beam="2">  1       -2 0.14517247E-01 0.79866262E+02</pdfrwt>
<totfact> 0.10810138E+05</totfact>
</mgrwt>
</event>
<event>
 8    1  0.8247621E-014  0.8233275E+02  0.7818608E-02  0.1322559E+00
         -2   -1    0    0    0  501 -0.00000000000E+00  0.00000000000E+00  0.28634422016E+02  0.28634422130E+02  0.25500000000E-02 0.  1.
          1   -1    0    0  501    0  0.00000000000E+00 -0.00000000000E+00 -0.59182977478E+02  0.59182977692E+02  0.50400000000E-02 0. -1.
        -24    2    1    2    0    0  0.00000000000E+00  0.00000000000E+00 -0.30548555462E+02  0.87817399822E+02  0.82332748471E+02 0.  0.
         66    2    3    3    0    0  0.25627490408E+02 -0.19996023219E+02  0.11616945631E+02  0.34576909070E+02  0.20000014617E+01 0.  0.
         13    1    3    3    0    0 -0.25627490408E+02  0.19996023219E+02 -0.42165501092E+02  0.53240490753E+02  0.10566000000E+00 0. -1.
         13    1    4    4    0    0  0.39354565852E+01 -0.28471549119E+01  0.21585164891E+01  0.53164336820E+01  0.10566000000E+00 0. -1.
        -13    1    4    4    0    0  0.20915138600E+02 -0.16768685247E+02  0.89773608379E+01  0.28270762268E+02  0.10566000000E+00 0.  1.
        -14    1    4    4    0    0  0.77689522277E+00 -0.38018306028E+00  0.48106830381E+00  0.98971311975E+00  0.00000000000E+00 0.  1.
<mgrwt>
<rscale>  0 0.82332748E+02</rscale>
<asrwt>0</asrwt>
<pdfrwt beam="1">  1        1 0.91050735E-02 0.82332748E+02</pdfrwt>
<pdfrwt beam="2">  1       -2 0.44052957E-02 0.82332748E+02</pdfrwt>
<totfact> 0.12477423E+05</totfact>
</mgrwt>
</event>
<event>
 8    1  0.8247621E-014  0.7906378E+02  0.7818608E-02  0.1331729E+00
         -2   -1    0    0    0  501 -0.00000000000E+00  0.00000000000E+00  0.22281027675E+02  0.22281027821E+02  0.25500000000E-02 0.  1.
          1   -1    0    0  501    0  0.00000000000E+00 -0.00000000000E+00 -0.70139065180E+02  0.70139065361E+02  0.50400000000E-02 0. -1.
        -24    2    1    2    0    0 -0.71054273576E-14  0.00000000000E+00 -0.47858037505E+02  0.92420093182E+02  0.79063783554E+02 0.  0.
         66    2    3    3    0    0  0.22761293696E+02  0.59877817749E+01  0.13146671614E+02  0.27032665338E+02  0.19999998585E+01 0.  0.
         13    1    3    3    0    0 -0.22761293696E+02 -0.59877817749E+01 -0.61004709119E+02  0.65387427844E+02  0.10566000000E+00 0. -1.
         13    1    4    4    0    0  0.43332021987E+01  0.68675905429E+00  0.22761992023E+01  0.49437360506E+01  0.10566000000E+00 0. -1.
        -13    1    4    4    0    0  0.12774880000E+02  0.30549303411E+01  0.70895218965E+01  0.14926575065E+02  0.10566000000E+00 0.  1.
         14    1    4    4    0    0  0.56532114976E+01  0.22460923795E+01  0.37809505151E+01  0.71623542227E+01  0.00000000000E+00 0. -1.
<mgrwt>
<rscale>  0 0.79063784E+02</rscale>
<asrwt>0</asrwt>
<pdfrwt beam="1">  1        1 0.10790625E-01 0.79063784E+02</pdfrwt>
<pdfrwt beam="2">  1       -2 0.34278504E-02 0.79063784E+02</pdfrwt>
<totfact> 0.14329050E+05</totfact>
</mgrwt>
</event>
<event>
 8    1  0.8247621E-014  0.8455551E+02  0.7818608E-02  0.1316599E+00
         -2   -1    0    0    0  501 -0.00000000000E+00  0.00000000000E+00  0.43623853100E+03  0.43623853101E+03  0.25500000000E-02 0.  1.
          1   -1    0    0  501    0  0.00000000000E+00 -0.00000000000E+00 -0.40973180264E+01  0.40973211262E+01  0.50400000000E-02 0. -1.
        -24    2    1    2    0    0  0.00000000000E+00  0.22204460493E-15  0.43214121297E+03  0.44033585213E+03  0.84555512676E+02 0.  0.
         66    2    3    3    0    0 -0.17453746844E+02  0.13486602402E+01  0.41646262367E+03  0.41683518214E+03  0.19999992235E+01 0.  0.
         13    1    3    3    0    0  0.17453746844E+02 -0.13486602402E+01  0.15678589307E+02  0.23500669991E+02  0.10566000000E+00 0. -1.
         13    1    4    4    0    0 -0.69739982242E+01  0.34055942914E+00  0.15713657114E+03  0.15729165835E+03  0.10566000000E+00 0. -1.
        -13    1    4    4    0    0 -0.10255186108E+02  0.11768197101E+01  0.24951813068E+03  0.24973158080E+03  0.10566000000E+00 0.  1.
         14    1    4    4    0    0 -0.22456251170E+00 -0.16871889904E+00  0.98079218464E+01  0.98119429948E+01  0.00000000000E+00 0. -1.
<mgrwt>
<rscale>  0 0.84555513E+02</rscale>
<asrwt>0</asrwt>
<pdfrwt beam="1">  1        1 0.63035704E-03 0.84555513E+02</pdfrwt>
<pdfrwt beam="2">  1       -2 0.67113601E-01 0.84555513E+02</pdfrwt>
<totfact> 0.48256628E+04</totfact>
</mgrwt>
</event>
<event>
 8    1  0.8247621E-014  0.8408077E+02  0.7818608E-02  0.1317854E+00
         -2   -1    0    0    0  501 -0.00000000000E+00  0.00000000000E+00  0.72430142213E+02  0.72430142258E+02  0.25500000000E-02 0.  1.
          1   -1    0    0  501    0  0.00000000000E+00 -0.00000000000E+00 -0.24401358273E+02  0.24401358794E+02  0.50400000000E-02 0. -1.
        -24    2    1    2    0    0  0.00000000000E+00  0.35527136788E-14  0.48028783940E+02  0.96831501052E+02  0.84080767772E+02 0.  0.
         66    2    3    3    0    0  0.16642202674E+01 -0.22242695282E+02  0.65035070930E+02  0.68782756272E+02  0.19999967391E+01 0.  0.
         13    1    3    3    0    0 -0.16642202674E+01  0.22242695282E+02 -0.17006286990E+02  0.28048744780E+02  0.10566000000E+00 0. -1.
         13    1    4    4    0    0  0.18879031918E+01 -0.21187393555E+02  0.61142846158E+02  0.64737381970E+02  0.10566000000E+00 0. -1.
        -13    1    4    4    0    0 -0.23321817838E-01 -0.26990209786E+00  0.11136977531E+01  0.11510333490E+01  0.10566000000E+00 0.  1.
         14    1    4    4    0    0 -0.20036110650E+00 -0.78539962955E+00  0.27785270194E+01  0.28943409524E+01  0.00000000000E+00 0. -1.
<mgrwt>
<rscale>  0 0.84080768E+02</rscale>
<asrwt>0</asrwt>
<pdfrwt beam="1">  1        1 0.37540552E-02 0.84080768E+02</pdfrwt>
<pdfrwt beam="2">  1       -2 0.11143099E-01 0.84080768E+02</pdfrwt>
<totfact> 0.10055348E+05</totfact>
</mgrwt>
</event>
<event>
 8    1  0.8247621E-014  0.8048722E+02  0.7818608E-02  0.1327674E+00
         -2   -1    0    0    0  501 -0.00000000000E+00  0.00000000000E+00  0.66022319308E+01  0.66022324233E+01  0.25500000000E-02 0.  1.
          1   -1    0    0  501    0  0.00000000000E+00 -0.00000000000E+00 -0.24530314002E+03  0.24530314007E+03  0.50400000000E-02 0. -1.
        -24    2    1    2    0    0  0.00000000000E+00  0.00000000000E+00 -0.23870090809E+03  0.25190537250E+03  0.80487223640E+02 0.  0.
         66    2    3    3    0    0 -0.26742767389E+01 -0.39788033116E+02 -0.10306996037E+03  0.11053350656E+03  0.20000015176E+01 0.  0.
         13    1    3    3    0    0  0.26742767389E+01  0.39788033116E+02 -0.13563094772E+03  0.14137186594E+03  0.10566000000E+00 0. -1.
         13    1    4    4    0    0 -0.95032386468E+00 -0.95230756299E+01 -0.23709331239E+02  0.25568254472E+02  0.10566000000E+00 0. -1.
        -13    1    4    4    0    0 -0.15951491876E+01 -0.17865053520E+02 -0.45806025393E+02  0.49192558020E+02  0.10566000000E+00 0.  1.
         14    1    4    4    0    0 -0.12880368665E+00 -0.12399903965E+02 -0.33554603740E+02  0.35772694068E+02  0.00000000000E+00 0. -1.
<mgrwt>
<rscale>  0 0.80487224E+02</rscale>
<asrwt>0</asrwt>
<pdfrwt beam="1">  1        1 0.37738938E-01 0.80487224E+02</pdfrwt>
<pdfrwt beam="2">  1       -2 0.10157282E-02 0.80487224E+02</pdfrwt>
<totfact> 0.17074522E+05</totfact>
</mgrwt>
</event>
<event>
 8    1  0.8247621E-014  0.8032193E+02  0.7818608E-02  0.1328140E+00
          1   -1    0    0  501    0  0.00000000000E+00  0.00000000000E+00  0.44103016245E+03  0.44103016247E+03  0.50400000000E-02 0. -1.
         -2   -1    0    0    0  501 -0.00000000000E+00 -0.00000000000E+00 -0.36571259053E+01  0.36571267943E+01  0.25500000000E-02 0.  1.
        -24    2    1    2    0    0  0.53290705182E-14  0.00000000000E+00  0.43737303654E+03  0.44468728927E+03  0.80321928168E+02 0.  0.
         66    2    3    3    0    0  0.11136551069E+02  0.38406987709E+02  0.19982112488E+03  0.20379303576E+03  0.20000006400E+01 0.  0.
         13    1    3    3    0    0 -0.11136551069E+02 -0.38406987709E+02  0.23755191166E+03  0.24089425351E+03  0.10566000000E+00 0. -1.
         13    1    4    4    0    0  0.15357790972E+00  0.25438591006E+00  0.12240599019E+01  0.12640352229E+01  0.10566000000E+00 0. -1.
        -13    1    4    4    0    0  0.74955008472E+01  0.27419701177E+02  0.14323450034E+03  0.14602792815E+03  0.10566000000E+00 0.  1.
         14    1    4    4    0    0  0.34874723120E+01  0.10732900622E+02  0.55362564633E+02  0.56501072393E+02  0.00000000000E+00 0. -1.
<mgrwt>
<rscale>  0 0.80321928E+02</rscale>
<asrwt>0</asrwt>
<pdfrwt beam="1">  1        1 0.67850778E-01 0.80321928E+02</pdfrwt>
<pdfrwt beam="2">  1       -2 0.56263496E-03 0.80321928E+02</pdfrwt>
<totfact> 0.19081806E+05</totfact>
</mgrwt>
</event>
<event>
 8    1  0.8247621E-014  0.7795460E+02  0.7818608E-02  0.1334958E+00
          1   -1    0    0  501    0  0.00000000000E+00  0.00000000000E+00  0.25271354096E+02  0.25271354598E+02  0.50400000000E-02 0. -1.
         -2   -1    0    0    0  501 -0.00000000000E+00 -0.00000000000E+00 -0.60116684233E+02  0.60116684287E+02  0.25500000000E-02 0.  1.
        -24    2    1    2    0    0 -0.22204460493E-15  0.00000000000E+00 -0.34845330137E+02  0.85388038885E+02  0.77954603150E+02 0.  0.
         66    2    3    3    0    0  0.16469014483E+01 -0.26480965921E+02  0.13803162925E+02  0.29974675138E+02  0.20000006081E+01 0.  0.
         13    1    3    3    0    0 -0.16469014483E+01  0.26480965921E+02 -0.48648493062E+02  0.55413363747E+02  0.10566000000E+00 0. -1.
         13    1    4    4    0    0  0.21972788172E+00 -0.30596957663E+01  0.93788257306E+00  0.32094869186E+01  0.10566000000E+00 0. -1.
        -13    1    4    4    0    0  0.73067698149E+00 -0.14113893818E+02  0.79840751808E+01  0.16232452313E+02  0.10566000000E+00 0.  1.
        -14    1    4    4    0    0  0.69649658505E+00 -0.93073763367E+01  0.48812051715E+01  0.10532735907E+02  0.00000000000E+00 0.  1.
<mgrwt>
<rscale>  0 0.77954603E+02</rscale>
<asrwt>0</asrwt>
<pdfrwt beam="1">  1        1 0.38879007E-02 0.77954603E+02</pdfrwt>
<pdfrwt beam="2">  1       -2 0.92487207E-02 0.77954603E+02</pdfrwt>
<totfact> 0.12635727E+05</totfact>
</mgrwt>
</event>
<event>
 8    1  0.8247621E-014  0.8012460E+02  0.7818608E-02  0.1328698E+00
         -2   -1    0    0    0  501 -0.00000000000E+00  0.00000000000E+00  0.26608471751E+02  0.26608471874E+02  0.25500000000E-02 0.  1.
          1   -1    0    0  501    0  0.00000000000E+00 -0.00000000000E+00 -0.60318676589E+02  0.60318676800E+02  0.50400000000E-02 0. -1.
        -24    2    1    2    0    0  0.00000000000E+00 -0.17763568394E-14 -0.33710204838E+02  0.86927148673E+02  0.80124598385E+02 0.  0.
         66    2    3    3    0    0 -0.39112511453E+02 -0.85233702196E+01 -0.17667564261E+02  0.43801589282E+02  0.20000011658E+01 0.  0.
         13    1    3    3    0    0  0.39112511453E+02  0.85233702196E+01 -0.16042640577E+02  0.43125559391E+02  0.10566000000E+00 0. -1.
         13    1    4    4    0    0 -0.48945612156E+01 -0.76653012786E+00 -0.17842351128E+01  0.52667786078E+01  0.10566000000E+00 0. -1.
        -13    1    4    4    0    0 -0.44419154754E+01 -0.14189440919E+01 -0.19779479788E+01  0.50663061168E+01  0.10566000000E+00 0.  1.
        -14    1    4    4    0    0 -0.29776034762E+02 -0.63378959998E+01 -0.13905381170E+02  0.33468504558E+02  0.00000000000E+00 0.  1.
<mgrwt>
<rscale>  0 0.80124598E+02</rscale>
<asrwt>0</asrwt>
<pdfrwt beam="1">  1        1 0.92797964E-02 0.80124598E+02</pdfrwt>
<pdfrwt beam="2">  1       -2 0.40936111E-02 0.80124598E+02</pdfrwt>
<totfact> 0.13491703E+05</totfact>
</mgrwt>
</event>
<event>
 8    1  0.8247621E-014  0.8222536E+02  0.7818608E-02  0.1322852E+00
         -2   -1    0    0    0  501 -0.00000000000E+00  0.00000000000E+00  0.64461676110E+01  0.64461681153E+01  0.25500000000E-02 0.  1.
          1   -1    0    0  501    0  0.00000000000E+00 -0.00000000000E+00 -0.26221043154E+03  0.26221043159E+03  0.50400000000E-02 0. -1.
        -24    2    1    2    0    0  0.00000000000E+00  0.00000000000E+00 -0.25576426393E+03  0.26865659970E+03  0.82225360208E+02 0.  0.
         66    2    3    3    0    0 -0.25140003342E+02  0.29743150340E+02 -0.85160331945E+02  0.93664064055E+02  0.19999995571E+01 0.  0.
         13    1    3    3    0    0  0.25140003342E+02 -0.29743150340E+02 -0.17060393199E+03  0.17499253565E+03  0.10566000000E+00 0. -1.
         13    1    4    4    0    0 -0.28573991456E+01  0.39685406870E+01 -0.10522653336E+02  0.11603940811E+02  0.10566000000E+00 0. -1.
        -13    1    4    4    0    0 -0.19340550369E+02  0.22916068041E+02 -0.64838962340E+02  0.71437422016E+02  0.10566000000E+00 0.  1.
        -14    1    4    4    0    0 -0.29420538272E+01  0.28585416121E+01 -0.97987162686E+01  0.10622701228E+02  0.00000000000E+00 0.  1.
<mgrwt>
<rscale>  0 0.82225360E+02</rscale>
<asrwt>0</asrwt>
<pdfrwt beam="1">  1        1 0.40340058E-01 0.82225360E+02</pdfrwt>
<pdfrwt beam="2">  1       -2 0.99171834E-03 0.82225360E+02</pdfrwt>
<totfact> 0.16347201E+05</totfact>
</mgrwt>
</event>
<event>
 8    1  0.8247621E-014  0.7981008E+02  0.7818608E-02  0.1329591E+00
          1   -1    0    0  501    0  0.00000000000E+00  0.00000000000E+00  0.71476803022E+02  0.71476803200E+02  0.50400000000E-02 0. -1.
         -2   -1    0    0    0  501 -0.00000000000E+00 -0.00000000000E+00 -0.22278727723E+02  0.22278727869E+02  0.25500000000E-02 0.  1.
        -24    2    1    2    0    0  0.00000000000E+00  0.00000000000E+00  0.49198075299E+02  0.93755531069E+02  0.79810080772E+02 0.  0.
         66    2    3    3    0    0  0.21297317158E+02  0.14716003440E+02 -0.11022216031E+02  0.28206838272E+02  0.20000009327E+01 0.  0.
         13    1    3    3    0    0 -0.21297317158E+02 -0.14716003440E+02  0.60220291330E+02  0.65548692796E+02  0.10566000000E+00 0. -1.
         13    1    4    4    0    0  0.14543085466E+02  0.10062795564E+02 -0.81858055213E+01  0.19487938975E+02  0.10566000000E+00 0.  1.
        -13    1    4    4    0    0  0.62933504580E+01  0.45226425976E+01 -0.25427886484E+01  0.81570518080E+01  0.10566000000E+00 0. -1.
         14    1    4    4    0    0  0.46088123416E+00  0.13056527806E+00 -0.29362186132E+00  0.56184748934E+00  0.00000000000E+00 0. -1.
<mgrwt>
<rscale>  0 0.79810081E+02</rscale>
<asrwt>0</asrwt>
<pdfrwt beam="1">  1        1 0.10996431E-01 0.79810081E+02</pdfrwt>
<pdfrwt beam="2">  1       -2 0.34274966E-02 0.79810081E+02</pdfrwt>
<totfact> 0.14007360E+05</totfact>
</mgrwt>
</event>
<event>
 8    1  0.8247621E-014  0.8784996E+02  0.7818608E-02  0.1308143E+00
         -2   -1    0    0    0  501 -0.00000000000E+00  0.00000000000E+00  0.24874767314E+03  0.24874767315E+03  0.25500000000E-02 0.  1.
          1   -1    0    0  501    0  0.00000000000E+00 -0.00000000000E+00 -0.77564683622E+01  0.77564699996E+01  0.50400000000E-02 0. -1.
        -24    2    1    2    0    0  0.00000000000E+00 -0.17763568394E-14  0.24099120477E+03  0.25650414315E+03  0.87849955459E+02 0.  0.
         66    2    3    3    0    0 -0.99188789849E+01 -0.10722352977E+02  0.24144054451E+03  0.24189024278E+03  0.20000016773E+01 0.  0.
         13    1    3    3    0    0  0.99188789849E+01  0.10722352977E+02 -0.44933973542E+00  0.14613900366E+02  0.10566000000E+00 0. -1.
         13    1    4    4    0    0 -0.17404204947E+01 -0.12158157268E+01  0.32922767335E+02  0.32991317713E+02  0.10566000000E+00 0.  1.
        -13    1    4    4    0    0 -0.64396278460E+01 -0.78879979636E+01  0.16089968706E+03  0.16122161697E+03  0.10566000000E+00 0. -1.
         14    1    4    4    0    0 -0.17388306441E+01 -0.16185392868E+01  0.47618090112E+02  0.47677308097E+02  0.00000000000E+00 0. -1.
<mgrwt>
<rscale>  0 0.87849955E+02</rscale>
<asrwt>0</asrwt>
<pdfrwt beam="1">  1        1 0.11933031E-02 0.87849955E+02</pdfrwt>
<pdfrwt beam="2">  1       -2 0.38268869E-01 0.87849955E+02</pdfrwt>
<totfact> 0.60656467E+04</totfact>
</mgrwt>
</event>
<event>
 8    1  0.8247621E-014  0.7999269E+02  0.7818608E-02  0.1329072E+00
         -2   -1    0    0    0  501 -0.00000000000E+00  0.00000000000E+00  0.26810153689E+03  0.26810153690E+03  0.25500000000E-02 0.  1.
          1   -1    0    0  501    0  0.00000000000E+00 -0.00000000000E+00 -0.59667971491E+01  0.59667992777E+01  0.50400000000E-02 0. -1.
        -24    2    1    2    0    0  0.22204460493E-15  0.71054273576E-14  0.26213473974E+03  0.27406833618E+03  0.79992694150E+02 0.  0.
         66    2    3    3    0    0  0.14137454250E+01  0.38431929704E+02  0.16847557533E+03  0.17282080713E+03  0.19999991549E+01 0.  0.
         13    1    3    3    0    0 -0.14137454250E+01 -0.38431929704E+02  0.93659164408E+02  0.10124752905E+03  0.10566000000E+00 0. -1.
         13    1    4    4    0    0  0.26782238136E+00  0.48826169622E+01  0.20400495674E+02  0.20978633535E+02  0.10566000000E+00 0. -1.
        -13    1    4    4    0    0  0.13254454201E+01  0.27958137627E+02  0.12567431193E+03  0.12875347804E+03  0.10566000000E+00 0.  1.
        -14    1    4    4    0    0 -0.17952237643E+00  0.55911751152E+01  0.22400767726E+02  0.23088695549E+02  0.00000000000E+00 0.  1.
<mgrwt>
<rscale>  0 0.79992694E+02</rscale>
<asrwt>0</asrwt>
<pdfrwt beam="1">  1        1 0.91796915E-03 0.79992694E+02</pdfrwt>
<pdfrwt beam="2">  1       -2 0.41246382E-01 0.79992694E+02</pdfrwt>
<totfact> 0.74539667E+04</totfact>
</mgrwt>
</event>
<event>
 8    1  0.8247621E-014  0.7887192E+02  0.7818608E-02  0.1332284E+00
          1   -1    0    0  501    0  0.00000000000E+00  0.00000000000E+00  0.22577030103E+03  0.22577030109E+03  0.50400000000E-02 0. -1.
         -2   -1    0    0    0  501 -0.00000000000E+00 -0.00000000000E+00 -0.68883940750E+01  0.68883945470E+01  0.25500000000E-02 0.  1.
        -24    2    1    2    0    0 -0.71054273576E-14 -0.17763568394E-14  0.21888190696E+03  0.23265869564E+03  0.78871918080E+02 0.  0.
         66    2    3    3    0    0  0.28305043311E+02  0.15329269383E+02  0.42437176257E+02  0.53301743909E+02  0.19999996152E+01 0.  0.
         13    1    3    3    0    0 -0.28305043311E+02 -0.15329269383E+02  0.17644473070E+03  0.17935695173E+03  0.10566000000E+00 0. -1.
         13    1    4    4    0    0  0.22773509675E+01  0.12737047179E+01  0.39120262709E+01  0.47035906196E+01  0.10566000000E+00 0. -1.
        -13    1    4    4    0    0  0.24184692463E+02  0.12976072864E+02  0.35022726581E+02  0.44495846522E+02  0.10566000000E+00 0.  1.
        -14    1    4    4    0    0  0.18429998801E+01  0.10794918019E+01  0.35024234053E+01  0.41023067680E+01  0.00000000000E+00 0.  1.
<mgrwt>
<rscale>  0 0.78871918E+02</rscale>
<asrwt>0</asrwt>
<pdfrwt beam="1">  1        1 0.34733890E-01 0.78871918E+02</pdfrwt>
<pdfrwt beam="2">  1       -2 0.10597531E-02 0.78871918E+02</pdfrwt>
<totfact> 0.17726265E+05</totfact>
</mgrwt>
</event>
<event>
 8    1  0.8247621E-014  0.8040876E+02  0.7818608E-02  0.1327895E+00
          1   -1    0    0  501    0  0.00000000000E+00  0.00000000000E+00  0.29476443449E+02  0.29476443880E+02  0.50400000000E-02 0. -1.
         -2   -1    0    0    0  501 -0.00000000000E+00 -0.00000000000E+00 -0.54836748391E+02  0.54836748450E+02  0.25500000000E-02 0.  1.
        -24    2    1    2    0    0 -0.22204460493E-15 -0.35527136788E-14 -0.25360304941E+02  0.84313192330E+02  0.80408764038E+02 0.  0.
         66    2    3    3    0    0  0.14432370111E+01  0.11739144794E+02 -0.52951712315E+02  0.54293409212E+02  0.19999982949E+01 0.  0.
         13    1    3    3    0    0 -0.14432370111E+01 -0.11739144794E+02  0.27591407374E+02  0.30019783118E+02  0.10566000000E+00 0. -1.
         13    1    4    4    0    0 -0.17112774421E+00  0.21302926111E+01 -0.70902590693E+01  0.74061034977E+01  0.10566000000E+00 0. -1.
        -13    1    4    4    0    0  0.77206572514E+00  0.49467256343E+01 -0.24570306760E+02  0.25075432565E+02  0.10566000000E+00 0.  1.
         14    1    4    4    0    0  0.84229903019E+00  0.46621265484E+01 -0.21291146486E+02  0.21811873150E+02  0.00000000000E+00 0. -1.
<mgrwt>
<rscale>  0 0.80408764E+02</rscale>
<asrwt>0</asrwt>
<pdfrwt beam="1">  1        1 0.45348375E-02 0.80408764E+02</pdfrwt>
<pdfrwt beam="2">  1       -2 0.84364228E-02 0.80408764E+02</pdfrwt>
<totfact> 0.11881371E+05</totfact>
</mgrwt>
</event>
<event>
 8    1  0.8247621E-014  0.7883724E+02  0.7818608E-02  0.1332384E+00
          1   -1    0    0  501    0  0.00000000000E+00  0.00000000000E+00  0.13713716415E+02  0.13713717341E+02  0.50400000000E-02 0. -1.
         -2   -1    0    0    0  501 -0.00000000000E+00 -0.00000000000E+00 -0.11330462922E+03  0.11330462925E+03  0.25500000000E-02 0.  1.
        -24    2    1    2    0    0  0.44408920985E-15 -0.35527136788E-14 -0.99590912802E+02  0.12701834659E+03  0.78837240291E+02 0.  0.
         66    2    3    3    0    0 -0.37410897472E+01 -0.23212634985E+02 -0.10075087274E+03  0.10347734307E+03  0.19999990262E+01 0.  0.
         13    1    3    3    0    0  0.37410897472E+01  0.23212634985E+02  0.11599599354E+01  0.23541003516E+02  0.10566000000E+00 0. -1.
         13    1    4    4    0    0 -0.44431103005E-01 -0.44772456260E+01 -0.19245501033E+02  0.19759761552E+02  0.10566000000E+00 0. -1.
        -13    1    4    4    0    0 -0.86130756107E+00 -0.50298499347E+01 -0.20194140758E+02  0.20829203683E+02  0.10566000000E+00 0.  1.
         14    1    4    4    0    0 -0.28353510831E+01 -0.13705539424E+02 -0.61311230946E+02  0.62888377836E+02  0.00000000000E+00 0. -1.
<mgrwt>
<rscale>  0 0.78837240E+02</rscale>
<asrwt>0</asrwt>
<pdfrwt beam="1">  1        1 0.21098027E-02 0.78837240E+02</pdfrwt>
<pdfrwt beam="2">  1       -2 0.17431481E-01 0.78837240E+02</pdfrwt>
<totfact> 0.10668412E+05</totfact>
</mgrwt>
</event>
<event>
 8    1  0.8247621E-014  0.8011657E+02  0.7818608E-02  0.1328721E+00
          1   -1    0    0  501    0  0.00000000000E+00  0.00000000000E+00  0.80700193519E+01  0.80700209257E+01  0.50400000000E-02 0. -1.
         -2   -1    0    0    0  501 -0.00000000000E+00 -0.00000000000E+00 -0.19884288028E+03  0.19884288030E+03  0.25500000000E-02 0.  1.
        -24    2    1    2    0    0  0.00000000000E+00 -0.17763568394E-14 -0.19077286093E+03  0.20691290123E+03  0.80116566486E+02 0.  0.
         66    2    3    3    0    0  0.26208439008E+02  0.11986524363E+02 -0.16720903970E+03  0.16968624576E+03  0.20000009877E+01 0.  0.
         13    1    3    3    0    0 -0.26208439008E+02 -0.11986524363E+02 -0.23563821235E+02  0.37226655461E+02  0.10566000000E+00 0. -1.
         13    1    4    4    0    0  0.11821625426E+02  0.58478192288E+01 -0.75709357474E+02  0.76849631037E+02  0.10566000000E+00 0. -1.
        -13    1    4    4    0    0  0.84582479038E+01  0.43105632932E+01 -0.55748584244E+02  0.56551204432E+02  0.10566000000E+00 0.  1.
         14    1    4    4    0    0  0.59285656790E+01  0.18281418413E+01 -0.35751097979E+02  0.36285410295E+02  0.00000000000E+00 0. -1.
<mgrwt>
<rscale>  0 0.80116566E+02</rscale>
<asrwt>0</asrwt>
<pdfrwt beam="1">  1        1 0.12415417E-02 0.80116566E+02</pdfrwt>
<pdfrwt beam="2">  1       -2 0.30591209E-01 0.80116566E+02</pdfrwt>
<totfact> 0.84956494E+04</totfact>
</mgrwt>
</event>
<event>
 8    1  0.8247621E-014  0.7924911E+02  0.7818608E-02  0.1331196E+00
         -2   -1    0    0    0  501 -0.00000000000E+00  0.00000000000E+00  0.81237267067E+02  0.81237267107E+02  0.25500000000E-02 0.  1.
          1   -1    0    0  501    0  0.00000000000E+00 -0.00000000000E+00 -0.19327402447E+02  0.19327403104E+02  0.50400000000E-02 0. -1.
        -24    2    1    2    0    0 -0.35527136788E-14  0.00000000000E+00  0.61909864620E+02  0.10056467021E+03  0.79249110767E+02 0.  0.
         66    2    3    3    0    0 -0.31603564494E+02  0.19096254185E+02  0.12821315599E+02  0.39138706468E+02  0.19999994150E+01 0.  0.
         13    1    3    3    0    0  0.31603564494E+02 -0.19096254185E+02  0.49088549021E+02  0.61425963743E+02  0.10566000000E+00 0. -1.
         13    1    4    4    0    0 -0.34078440640E+01  0.23463947433E+01  0.10180531366E+01  0.42622254376E+01  0.10566000000E+00 0. -1.
        -13    1    4    4    0    0 -0.26599383307E+02  0.16081780330E+02  0.11312980974E+02  0.33077871053E+02  0.10566000000E+00 0.  1.
        -14    1    4    4    0    0 -0.15963371239E+01  0.66807911199E+00  0.49028148905E+00  0.17986099776E+01  0.00000000000E+00 0.  1.
<mgrwt>
<rscale>  0 0.79249111E+02</rscale>
<asrwt>0</asrwt>
<pdfrwt beam="1">  1        1 0.29734466E-02 0.79249111E+02</pdfrwt>
<pdfrwt beam="2">  1       -2 0.12498041E-01 0.79249111E+02</pdfrwt>
<totfact> 0.11409847E+05</totfact>
</mgrwt>
</event>
<event>
 8    1  0.8247621E-014  0.8024957E+02  0.7818608E-02  0.1328345E+00
         -2   -1    0    0    0  501 -0.00000000000E+00  0.00000000000E+00  0.96598322176E+02  0.96598322210E+02  0.25500000000E-02 0.  1.
          1   -1    0    0  501    0  0.00000000000E+00 -0.00000000000E+00 -0.16666939775E+02  0.16666940537E+02  0.50400000000E-02 0. -1.
        -24    2    1    2    0    0 -0.35527136788E-14 -0.35527136788E-14  0.79931382401E+02  0.11326526275E+03  0.80249572288E+02 0.  0.
         66    2    3    3    0    0  0.26198690914E+02  0.26478390023E+02  0.60949659588E+02  0.71458642351E+02  0.20000047404E+01 0.  0.
         13    1    3    3    0    0 -0.26198690914E+02 -0.26478390023E+02  0.18981722813E+02  0.41806620395E+02  0.10566000000E+00 0. -1.
         13    1    4    4    0    0  0.40300577379E+01  0.40487062500E+01  0.99129697109E+01  0.11441657231E+02  0.10566000000E+00 0.  1.
        -13    1    4    4    0    0  0.45129909740E+01  0.36626413404E+01  0.94433076949E+01  0.11089150255E+02  0.10566000000E+00 0.  1.
        -14    1    4    4    0    0  0.17655642203E+02  0.18767042433E+02  0.41593382182E+02  0.48927834865E+02  0.00000000000E+00 0.  1.
<mgrwt>
<rscale>  0 0.80249572E+02</rscale>
<asrwt>0</asrwt>
<pdfrwt beam="1">  1        1 0.25641447E-02 0.80249572E+02</pdfrwt>
<pdfrwt beam="2">  1       -2 0.14861280E-01 0.80249572E+02</pdfrwt>
<totfact> 0.10618428E+05</totfact>
</mgrwt>
</event>
<event>
 8    1  0.8247621E-014  0.8265366E+02  0.7818608E-02  0.1321685E+00
         -2   -1    0    0    0  501 -0.00000000000E+00  0.00000000000E+00  0.47976963005E+03  0.47976963006E+03  0.25500000000E-02 0.  1.
          1   -1    0    0  501    0  0.00000000000E+00 -0.00000000000E+00 -0.35598458898E+01  0.35598494576E+01  0.50400000000E-02 0. -1.
        -24    2    1    2    0    0  0.00000000000E+00  0.00000000000E+00  0.47620978416E+03  0.48332947951E+03  0.82653658344E+02 0.  0.
         66    2    3    3    0    0 -0.94362488302E+01  0.20518427323E+02  0.44046206557E+03  0.44104521293E+03  0.19999984250E+01 0.  0.
         13    1    3    3    0    0  0.94362488302E+01 -0.20518427323E+02  0.35747718588E+02  0.42284266579E+02  0.10566000000E+00 0. -1.
         13    1    4    4    0    0 -0.79922174158E+01  0.16934340933E+02  0.36478321038E+03  0.36526353388E+03  0.10566000000E+00 0. -1.
        -13    1    4    4    0    0 -0.15220881122E+01  0.33160155640E+01  0.71847880199E+02  0.71940543260E+02  0.10566000000E+00 0.  1.
         14    1    4    4    0    0  0.78056697751E-01  0.26807082560E+00  0.38309749933E+01  0.38411357975E+01  0.00000000000E+00 0. -1.
<mgrwt>
<rscale>  0 0.82653658E+02</rscale>
<asrwt>0</asrwt>
<pdfrwt beam="1">  1        1 0.54766931E-03 0.82653658E+02</pdfrwt>
<pdfrwt beam="2">  1       -2 0.73810654E-01 0.82653658E+02</pdfrwt>
<totfact> 0.47779802E+04</totfact>
</mgrwt>
</event>
<event>
 8    1  0.8247621E-014  0.7713041E+02  0.7818608E-02  0.1337398E+00
          1   -1    0    0  501    0  0.00000000000E+00  0.00000000000E+00  0.20789932861E+02  0.20789933472E+02  0.50400000000E-02 0. -1.
         -2   -1    0    0    0  501 -0.00000000000E+00 -0.00000000000E+00 -0.71538226399E+02  0.71538226445E+02  0.25500000000E-02 0.  1.
        -24    2    1    2    0    0  0.00000000000E+00  0.35527136788E-14 -0.50748293538E+02  0.92328159917E+02  0.77130407860E+02 0.  0.
         66    2    3    3    0    0  0.26373704967E+02 -0.27053172863E+02 -0.16288653807E+02  0.41191828312E+02  0.20000002896E+01 0.  0.
         13    1    3    3    0    0 -0.26373704967E+02  0.27053172863E+02 -0.34459639731E+02  0.51136331605E+02  0.10566000000E+00 0. -1.
         13    1    4    4    0    0  0.21788172057E+02 -0.22774912765E+02 -0.13299209523E+02  0.34209665754E+02  0.10566000000E+00 0. -1.
        -13    1    4    4    0    0  0.23782210075E+01 -0.26391151285E+01 -0.18398082942E+01  0.40021147431E+01  0.10566000000E+00 0.  1.
         14    1    4    4    0    0  0.22073119027E+01 -0.16391449695E+01 -0.11496359900E+01  0.29800478144E+01  0.00000000000E+00 0. -1.
<mgrwt>
<rscale>  0 0.77130408E+02</rscale>
<asrwt>0</asrwt>
<pdfrwt beam="1">  1        1 0.31984513E-02 0.77130408E+02</pdfrwt>
<pdfrwt beam="2">  1       -2 0.11005881E-01 0.77130408E+02</pdfrwt>
<totfact> 0.12553279E+05</totfact>
</mgrwt>
</event>
<event>
 8    1  0.8247621E-014  0.7975542E+02  0.7818608E-02  0.1329747E+00
          1   -1    0    0  501    0  0.00000000000E+00  0.00000000000E+00  0.40521399334E+02  0.40521399648E+02  0.50400000000E-02 0. -1.
         -2   -1    0    0    0  501 -0.00000000000E+00 -0.00000000000E+00 -0.39244246590E+02  0.39244246673E+02  0.25500000000E-02 0.  1.
        -24    2    1    2    0    0  0.00000000000E+00  0.71054273576E-14  0.12771527441E+01  0.79765646321E+02  0.79755421219E+02 0.  0.
         66    2    3    3    0    0  0.11779859033E+01  0.38069156348E+02 -0.11091914653E+02  0.39720006007E+02  0.19999976590E+01 0.  0.
         13    1    3    3    0    0 -0.11779859033E+01 -0.38069156348E+02  0.12369067398E+02  0.40045640314E+02  0.10566000000E+00 0. -1.
         13    1    4    4    0    0  0.19154093459E+00  0.17458738948E+01 -0.12979261383E+00  0.17643054567E+01  0.10566000000E+00 0. -1.
        -13    1    4    4    0    0  0.46597323276E+00  0.15206570506E+02 -0.44487087973E+01  0.15851154267E+02  0.10566000000E+00 0.  1.
        -14    1    4    4    0    0  0.52047173597E+00  0.21116711947E+02 -0.65134132423E+01  0.22104546283E+02  0.00000000000E+00 0.  1.
<mgrwt>
<rscale>  0 0.79755421E+02</rscale>
<asrwt>0</asrwt>
<pdfrwt beam="1">  1        1 0.62340615E-02 0.79755421E+02</pdfrwt>
<pdfrwt beam="2">  1       -2 0.60375764E-02 0.79755421E+02</pdfrwt>
<totfact> 0.12834370E+05</totfact>
</mgrwt>
</event>
<event>
 8    1  0.8247621E-014  0.7944621E+02  0.7818608E-02  0.1330630E+00
          1   -1    0    0  501    0  0.00000000000E+00  0.00000000000E+00  0.40025568497E+01  0.40025600229E+01  0.50400000000E-02 0. -1.
         -2   -1    0    0    0  501 -0.00000000000E+00 -0.00000000000E+00 -0.39422908595E+03  0.39422908596E+03  0.25500000000E-02 0.  1.
        -24    2    1    2    0    0  0.35527136788E-14 -0.35527136788E-14 -0.39022652910E+03  0.39823164598E+03  0.79446207255E+02 0.  0.
         66    2    3    3    0    0  0.29176891724E+02 -0.16109601051E+02 -0.30334021293E+03  0.30517223830E+03  0.19999976567E+01 0.  0.
         13    1    3    3    0    0 -0.29176891724E+02  0.16109601051E+02 -0.86886316173E+02  0.93059407686E+02  0.10566000000E+00 0. -1.
         13    1    4    4    0    0  0.14346361728E+02 -0.71208865611E+01 -0.15068944358E+03  0.15153826147E+03  0.10566000000E+00 0. -1.
        -13    1    4    4    0    0  0.78672718173E+01 -0.46707920518E+01 -0.83147912702E+02  0.83649846473E+02  0.10566000000E+00 0.  1.
         14    1    4    4    0    0  0.69632581790E+01 -0.43179224382E+01 -0.69502856650E+02  0.69984130352E+02  0.00000000000E+00 0. -1.
<mgrwt>
<rscale>  0 0.79446207E+02</rscale>
<asrwt>0</asrwt>
<pdfrwt beam="1">  1        1 0.61577854E-03 0.79446207E+02</pdfrwt>
<pdfrwt beam="2">  1       -2 0.60650598E-01 0.79446207E+02</pdfrwt>
<totfact> 0.60742954E+04</totfact>
</mgrwt>
</event>
<event>
 8    1  0.8247621E-014  0.8639703E+02  0.7818608E-02  0.1311819E+00
         -2   -1    0    0    0  501 -0.00000000000E+00  0.00000000000E+00  0.43036545581E+02  0.43036545656E+02  0.25500000000E-02 0.  1.
          1   -1    0    0  501    0  0.00000000000E+00 -0.00000000000E+00 -0.43361097814E+02  0.43361098107E+02  0.50400000000E-02 0. -1.
        -24    2    1    2    0    0  0.00000000000E+00 -0.71054273576E-14 -0.32455223321E+00  0.86397643763E+02  0.86397034172E+02 0.  0.
         66    2    3    3    0    0  0.11568285707E+01 -0.41832195195E+02  0.10460141606E+02  0.43182003164E+02  0.20000069177E+01 0.  0.
         13    1    3    3    0    0 -0.11568285707E+01  0.41832195195E+02 -0.10784693839E+02  0.43215640599E+02  0.10566000000E+00 0. -1.
         13    1    4    4    0    0  0.12519575845E+01 -0.15549004595E+02  0.42944197248E+01  0.16179992166E+02  0.10566000000E+00 0. -1.
        -13    1    4    4    0    0  0.76336696651E-01 -0.13597307904E+02  0.34149202814E+01  0.14020180245E+02  0.10566000000E+00 0.  1.
         14    1    4    4    0    0 -0.17146571040E+00 -0.12685882696E+02  0.27508016000E+01  0.12981830753E+02  0.00000000000E+00 0. -1.
<mgrwt>
<rscale>  0 0.86397034E+02</rscale>
<asrwt>0</asrwt>
<pdfrwt beam="1">  1        1 0.66709381E-02 0.86397034E+02</pdfrwt>
<pdfrwt beam="2">  1       -2 0.66210071E-02 0.86397034E+02</pdfrwt>
<totfact> 0.10351720E+05</totfact>
</mgrwt>
</event>
<event>
 8    1  0.8247621E-014  0.7969169E+02  0.7818608E-02  0.1329929E+00
          1   -1    0    0  501    0  0.00000000000E+00  0.00000000000E+00  0.31075710767E+02  0.31075711175E+02  0.50400000000E-02 0. -1.
         -2   -1    0    0    0  501 -0.00000000000E+00 -0.00000000000E+00 -0.51091068464E+02  0.51091068528E+02  0.25500000000E-02 0.  1.
        -24    2    1    2    0    0 -0.17763568394E-14  0.00000000000E+00 -0.20015357698E+02  0.82166779703E+02  0.79691688042E+02 0.  0.
         66    2    3    3    0    0  0.11147122337E+02  0.88284559138E+01 -0.48364433703E+02  0.50451148784E+02  0.19999989989E+01 0.  0.
         13    1    3    3    0    0 -0.11147122337E+02 -0.88284559138E+01  0.28349076005E+02  0.31715630919E+02  0.10566000000E+00 0. -1.
         13    1    4    4    0    0  0.59247713478E+01  0.40963586177E+01 -0.22989718089E+02  0.24091935815E+02  0.10566000000E+00 0. -1.
        -13    1    4    4    0    0  0.50717173665E+00  0.40623155321E+00 -0.37603517531E+01  0.38175458855E+01  0.10566000000E+00 0.  1.
        -14    1    4    4    0    0  0.47151792530E+01  0.43258657429E+01 -0.21614363860E+02  0.22541667084E+02  0.00000000000E+00 0.  1.
<mgrwt>
<rscale>  0 0.79691688E+02</rscale>
<asrwt>0</asrwt>
<pdfrwt beam="1">  1        1 0.47808786E-02 0.79691688E+02</pdfrwt>
<pdfrwt beam="2">  1       -2 0.78601644E-02 0.79691688E+02</pdfrwt>
<totfact> 0.12305398E+05</totfact>
</mgrwt>
</event>
<event>
 8    1  0.8247621E-014  0.8123298E+02  0.7818608E-02  0.1325588E+00
          1   -1    0    0  501    0  0.00000000000E+00  0.00000000000E+00  0.14240001256E+03  0.14240001265E+03  0.50400000000E-02 0. -1.
         -2   -1    0    0    0  501 -0.00000000000E+00 -0.00000000000E+00 -0.11584965952E+02  0.11584966232E+02  0.25500000000E-02 0.  1.
        -24    2    1    2    0    0 -0.71054273576E-14  0.17763568394E-14  0.13081504661E+03  0.15398497888E+03  0.81232981614E+02 0.  0.
         66    2    3    3    0    0  0.28195936512E+02 -0.14501831333E+02  0.17402735021E+02  0.36223875238E+02  0.20000008097E+01 0.  0.
         13    1    3    3    0    0 -0.28195936512E+02  0.14501831333E+02  0.11341231158E+03  0.11776110364E+03  0.10566000000E+00 0. -1.
         13    1    4    4    0    0  0.18375132712E+01 -0.99036443393E+00  0.73491616771E+00  0.22155230856E+01  0.10566000000E+00 0. -1.
        -13    1    4    4    0    0  0.12987708725E+02 -0.70294874432E+01  0.77449270374E+01  0.16676010628E+02  0.10566000000E+00 0.  1.
         14    1    4    4    0    0  0.13370714516E+02 -0.64819794562E+01  0.89228918162E+01  0.17332341524E+02  0.00000000000E+00 0. -1.
<mgrwt>
<rscale>  0 0.81232982E+02</rscale>
<asrwt>0</asrwt>
<pdfrwt beam="1">  1        1 0.21907694E-01 0.81232982E+02</pdfrwt>
<pdfrwt beam="2">  1       -2 0.17823025E-02 0.81232982E+02</pdfrwt>
<totfact> 0.15010910E+05</totfact>
</mgrwt>
</event>
<event>
 8    1  0.8247621E-014  0.8008192E+02  0.7818608E-02  0.1328819E+00
         -2   -1    0    0    0  501 -0.00000000000E+00  0.00000000000E+00  0.31951890044E+02  0.31951890146E+02  0.25500000000E-02 0.  1.
          1   -1    0    0  501    0  0.00000000000E+00 -0.00000000000E+00 -0.50177897437E+02  0.50177897690E+02  0.50400000000E-02 0. -1.
        -24    2    1    2    0    0  0.00000000000E+00  0.00000000000E+00 -0.18226007393E+02  0.82129787836E+02  0.80081924955E+02 0.  0.
         66    2    3    3    0    0 -0.14887998242E+02 -0.16594356630E+02  0.24961330545E+02  0.33527498942E+02  0.19999997751E+01 0.  0.
         13    1    3    3    0    0  0.14887998242E+02  0.16594356630E+02 -0.43187337938E+02  0.48602288895E+02  0.10566000000E+00 0. -1.
         13    1    4    4    0    0 -0.30831576347E+01 -0.29778536084E+01  0.39204049864E+01  0.58098375542E+01  0.10566000000E+00 0. -1.
        -13    1    4    4    0    0 -0.66204129801E+01 -0.82563082122E+01  0.12564595031E+02  0.16427924570E+02  0.10566000000E+00 0.  1.
         14    1    4    4    0    0 -0.51844276270E+01 -0.53601948096E+01  0.84763305269E+01  0.11289736818E+02  0.00000000000E+00 0. -1.
<mgrwt>
<rscale>  0 0.80081925E+02</rscale>
<asrwt>0</asrwt>
<pdfrwt beam="1">  1        1 0.77196766E-02 0.80081925E+02</pdfrwt>
<pdfrwt beam="2">  1       -2 0.49156754E-02 0.80081925E+02</pdfrwt>
<totfact> 0.13127039E+05</totfact>
</mgrwt>
</event>
<event>
 8    1  0.8247621E-014  0.8306605E+02  0.7818608E-02  0.1320569E+00
          1   -1    0    0  501    0  0.00000000000E+00  0.00000000000E+00  0.90856804597E+01  0.90856818576E+01  0.50400000000E-02 0. -1.
         -2   -1    0    0    0  501 -0.00000000000E+00 -0.00000000000E+00 -0.18985833526E+03  0.18985833528E+03  0.25500000000E-02 0.  1.
        -24    2    1    2    0    0  0.00000000000E+00  0.55511151231E-16 -0.18077265480E+03  0.19894401714E+03  0.83066053417E+02 0.  0.
         66    2    3    3    0    0  0.26438252987E+02 -0.48291645296E+00 -0.16707039495E+03  0.16916184935E+03  0.19999939284E+01 0.  0.
         13    1    3    3    0    0 -0.26438252987E+02  0.48291645296E+00 -0.13702259852E+02  0.29782167792E+02  0.10566000000E+00 0. -1.
         13    1    4    4    0    0  0.55833524122E+01  0.32420686688E+00 -0.37602433481E+02  0.38016221564E+02  0.10566000000E+00 0.  1.
        -13    1    4    4    0    0  0.24645022525E+01  0.21376533661E+00 -0.13798777743E+02  0.14019161823E+02  0.10566000000E+00 0.  1.
         14    1    4    4    0    0  0.18390398322E+02 -0.10208886564E+01 -0.11566918373E+03  0.11712646596E+03  0.00000000000E+00 0. -1.
<mgrwt>
<rscale>  0 0.83066053E+02</rscale>
<asrwt>0</asrwt>
<pdfrwt beam="1">  1        1 0.13977973E-02 0.83066053E+02</pdfrwt>
<pdfrwt beam="2">  1       -2 0.29208972E-01 0.83066053E+02</pdfrwt>
<totfact> 0.78820432E+04</totfact>
</mgrwt>
</event>
<event>
 8    1  0.8247621E-014  0.8213101E+02  0.7818608E-02  0.1323110E+00
         -2   -1    0    0    0  501 -0.00000000000E+00  0.00000000000E+00  0.19176916708E+02  0.19176916877E+02  0.25500000000E-02 0.  1.
          1   -1    0    0  501    0  0.00000000000E+00 -0.00000000000E+00 -0.87937790409E+02  0.87937790554E+02  0.50400000000E-02 0. -1.
        -24    2    1    2    0    0  0.88817841970E-15 -0.17763568394E-14 -0.68760873702E+02  0.10711470743E+03  0.82131009952E+02 0.  0.
         66    2    3    3    0    0  0.72853522667E+01 -0.14725924685E+02  0.14648716052E+02  0.22102355138E+02  0.20000013068E+01 0.  0.
         13    1    3    3    0    0 -0.72853522667E+01  0.14725924685E+02 -0.83409589753E+02  0.85012352293E+02  0.10566000000E+00 0. -1.
         13    1    4    4    0    0  0.42404600709E+01 -0.90336676114E+01  0.84462430169E+01  0.13074358006E+02  0.10566000000E+00 0. -1.
        -13    1    4    4    0    0  0.14476103915E+01 -0.31316527497E+01  0.40487144706E+01  0.53203456364E+01  0.10566000000E+00 0.  1.
         14    1    4    4    0    0  0.15972818042E+01 -0.25606043239E+01  0.21537585641E+01  0.37076514963E+01  0.00000000000E+00 0. -1.
<mgrwt>
<rscale>  0 0.82131010E+02</rscale>
<asrwt>0</asrwt>
<pdfrwt beam="1">  1        1 0.13528891E-01 0.82131010E+02</pdfrwt>
<pdfrwt beam="2">  1       -2 0.29502949E-02 0.82131010E+02</pdfrwt>
<totfact> 0.13396162E+05</totfact>
</mgrwt>
</event>
<event>
 8    1  0.8247621E-014  0.8132534E+02  0.7818608E-02  0.1325332E+00
          1   -1    0    0  501    0  0.00000000000E+00  0.00000000000E+00  0.57345553180E+02  0.57345553402E+02  0.50400000000E-02 0. -1.
         -2   -1    0    0    0  501 -0.00000000000E+00 -0.00000000000E+00 -0.28833145749E+02  0.28833145862E+02  0.25500000000E-02 0.  1.
        -24    2    1    2    0    0 -0.44408920985E-15  0.00000000000E+00  0.28512407431E+02  0.86178699264E+02  0.81325339405E+02 0.  0.
         66    2    3    3    0    0  0.14562089175E+01 -0.22065567344E+02 -0.21864447262E+02  0.31161897654E+02  0.20000011756E+01 0.  0.
         13    1    3    3    0    0 -0.14562089175E+01  0.22065567344E+02  0.50376854692E+02  0.55016801610E+02  0.10566000000E+00 0. -1.
         13    1    4    4    0    0 -0.27609537414E+00 -0.28223597114E+01 -0.22392441391E+01  0.36148750111E+01  0.10566000000E+00 0. -1.
        -13    1    4    4    0    0  0.15469073747E+01 -0.17437790273E+02 -0.18026838541E+02  0.25128619617E+02  0.10566000000E+00 0.  1.
         14    1    4    4    0    0  0.18539691689E+00 -0.18054173602E+01 -0.15983645814E+01  0.24184030260E+01  0.00000000000E+00 0. -1.
<mgrwt>
<rscale>  0 0.81325339E+02</rscale>
<asrwt>0</asrwt>
<pdfrwt beam="1">  1        1 0.88223927E-02 0.81325339E+02</pdfrwt>
<pdfrwt beam="2">  1       -2 0.44358687E-02 0.81325339E+02</pdfrwt>
<totfact> 0.12845560E+05</totfact>
</mgrwt>
</event>
<event>
 8    1  0.8247621E-014  0.7960489E+02  0.7818608E-02  0.1330176E+00
          1   -1    0    0  501    0  0.00000000000E+00  0.00000000000E+00  0.46082099795E+02  0.46082100071E+02  0.50400000000E-02 0. -1.
         -2   -1    0    0    0  501 -0.00000000000E+00 -0.00000000000E+00 -0.34378526707E+02  0.34378526802E+02  0.25500000000E-02 0.  1.
        -24    2    1    2    0    0 -0.17763568394E-14 -0.71054273576E-14  0.11703573088E+02  0.80460626873E+02  0.79604892147E+02 0.  0.
         66    2    3    3    0    0  0.15813781134E+02  0.34070911340E+02 -0.73744330861E+01  0.38331252834E+02  0.20000017921E+01 0.  0.
         13    1    3    3    0    0 -0.15813781134E+02 -0.34070911340E+02  0.19078006174E+02  0.42129374039E+02  0.10566000000E+00 0. -1.
         13    1    4    4    0    0  0.17996185850E+01  0.39961941759E+01 -0.33507070687E+00  0.43967751088E+01  0.10566000000E+00 0.  1.
        -13    1    4    4    0    0  0.42345505934E+01  0.10044276727E+02 -0.25906629301E+01  0.11204535338E+02  0.10566000000E+00 0. -1.
        -14    1    4    4    0    0  0.97796119554E+01  0.20030440438E+02 -0.44486994491E+01  0.22729942387E+02  0.00000000000E+00 0.  1.
<mgrwt>
<rscale>  0 0.79604892E+02</rscale>
<asrwt>0</asrwt>
<pdfrwt beam="1">  1        1 0.70895539E-02 0.79604892E+02</pdfrwt>
<pdfrwt beam="2">  1       -2 0.52890041E-02 0.79604892E+02</pdfrwt>
<totfact> 0.13169606E+05</totfact>
</mgrwt>
</event>
<event>
 8    1  0.8247621E-014  0.8534728E+02  0.7818608E-02  0.1314527E+00
         -2   -1    0    0    0  501 -0.00000000000E+00  0.00000000000E+00  0.71529673489E+01  0.71529678035E+01  0.25500000000E-02 0.  1.
          1   -1    0    0  501    0  0.00000000000E+00 -0.00000000000E+00 -0.25458519910E+03  0.25458519915E+03  0.50400000000E-02 0. -1.
        -24    2    1    2    0    0  0.88817841970E-15  0.71054273576E-14 -0.24743223175E+03  0.26173816695E+03  0.85347283090E+02 0.  0.
         66    2    3    3    0    0 -0.49825778078E+01 -0.40962678146E+02 -0.90715961761E+02  0.99680252842E+02  0.20000014703E+01 0.  0.
         13    1    3    3    0    0  0.49825778078E+01  0.40962678146E+02 -0.15671626999E+03  0.16205791411E+03  0.10566000000E+00 0. -1.
         13    1    4    4    0    0 -0.18247595815E+01 -0.16048333628E+02 -0.36565058484E+02  0.39973659149E+02  0.10566000000E+00 0. -1.
        -13    1    4    4    0    0 -0.29397437076E+01 -0.19835377881E+02 -0.42359529273E+02  0.46866034535E+02  0.10566000000E+00 0.  1.
        -14    1    4    4    0    0 -0.21807451874E+00 -0.50789666362E+01 -0.11791374003E+02  0.12840559158E+02  0.00000000000E+00 0.  1.
<mgrwt>
<rscale>  0 0.85347283E+02</rscale>
<asrwt>0</asrwt>
<pdfrwt beam="1">  1        1 0.39166947E-01 0.85347283E+02</pdfrwt>
<pdfrwt beam="2">  1       -2 0.11004567E-02 0.85347283E+02</pdfrwt>
<totfact> 0.14720764E+05</totfact>
</mgrwt>
</event>
<event>
 8    1  0.8247621E-014  0.8149651E+02  0.7818608E-02  0.1324857E+00
         -2   -1    0    0    0  501 -0.00000000000E+00  0.00000000000E+00  0.44567033436E+02  0.44567033509E+02  0.25500000000E-02 0.  1.
          1   -1    0    0  501    0  0.00000000000E+00 -0.00000000000E+00 -0.37256695109E+02  0.37256695450E+02  0.50400000000E-02 0. -1.
        -24    2    1    2    0    0 -0.35527136788E-14  0.00000000000E+00  0.73103383273E+01  0.81823728959E+02  0.81496512651E+02 0.  0.
         66    2    3    3    0    0  0.27056055494E+02  0.21242966052E+02  0.25542168295E+02  0.42891678748E+02  0.19999997569E+01 0.  0.
         13    1    3    3    0    0 -0.27056055494E+02 -0.21242966052E+02 -0.18231829968E+02  0.38932050211E+02  0.10566000000E+00 0. -1.
         13    1    4    4    0    0  0.47812315808E+00  0.60262799650E+00  0.79250141428E+00  0.11094975366E+01  0.10566000000E+00 0. -1.
        -13    1    4    4    0    0  0.18977841419E+02  0.14228685490E+02  0.17455228637E+02  0.29450129482E+02  0.10566000000E+00 0.  1.
         14    1    4    4    0    0  0.76000909172E+01  0.64116525651E+01  0.72944382438E+01  0.12332051729E+02  0.00000000000E+00 0. -1.
<mgrwt>
<rscale>  0 0.81496513E+02</rscale>
<asrwt>0</asrwt>
<pdfrwt beam="1">  1        1 0.57317993E-02 0.81496513E+02</pdfrwt>
<pdfrwt beam="2">  1       -2 0.68564667E-02 0.81496513E+02</pdfrwt>
<totfact> 0.11907983E+05</totfact>
</mgrwt>
</event>
<event>
 8    1  0.8247621E-014  0.8387626E+02  0.7818608E-02  0.1318398E+00
         -2   -1    0    0    0  501 -0.00000000000E+00  0.00000000000E+00  0.32566751933E+01  0.32566761916E+01  0.25500000000E-02 0.  1.
          1   -1    0    0  501    0  0.00000000000E+00 -0.00000000000E+00 -0.54006200283E+03  0.54006200285E+03  0.50400000000E-02 0. -1.
        -24    2    1    2    0    0  0.00000000000E+00  0.00000000000E+00 -0.53680532764E+03  0.54331867905E+03  0.83876261362E+02 0.  0.
         66    2    3    3    0    0  0.28511971002E+02 -0.30031476738E+02 -0.31052447756E+03  0.31327986415E+03  0.20000072209E+01 0.  0.
         13    1    3    3    0    0 -0.28511971002E+02  0.30031476738E+02 -0.22628085008E+03  0.23003881490E+03  0.10566000000E+00 0. -1.
         13    1    4    4    0    0  0.46014482529E+01 -0.53168137415E+01 -0.52509480842E+02  0.52978284011E+02  0.10566000000E+00 0. -1.
        -13    1    4    4    0    0  0.12359630924E+02 -0.11683794403E+02 -0.12962656044E+03  0.13073762987E+03  0.10566000000E+00 0.  1.
        -14    1    4    4    0    0  0.11550891825E+02 -0.13030868593E+02 -0.12838843628E+03  0.12956395027E+03  0.00000000000E+00 0.  1.
<mgrwt>
<rscale>  0 0.83876261E+02</rscale>
<asrwt>0</asrwt>
<pdfrwt beam="1">  1        1 0.83086391E-01 0.83876261E+02</pdfrwt>
<pdfrwt beam="2">  1       -2 0.50102746E-03 0.83876261E+02</pdfrwt>
<totfact> 0.17462141E+05</totfact>
</mgrwt>
</event>
<event>
 8    1  0.8247621E-014  0.8090134E+02  0.7818608E-02  0.1326513E+00
         -2   -1    0    0    0  501 -0.00000000000E+00  0.00000000000E+00  0.59850749039E+02  0.59850749093E+02  0.25500000000E-02 0.  1.
          1   -1    0    0  501    0  0.00000000000E+00 -0.00000000000E+00 -0.27338948421E+02  0.27338948885E+02  0.50400000000E-02 0. -1.
        -24    2    1    2    0    0 -0.17763568394E-14  0.00000000000E+00  0.32511800618E+02  0.87189697978E+02  0.80901336541E+02 0.  0.
         66    2    3    3    0    0 -0.15575688362E+02  0.25171681542E+02  0.45938323821E+02  0.54685878065E+02  0.20000111520E+01 0.  0.
         13    1    3    3    0    0  0.15575688362E+02 -0.25171681542E+02 -0.13426523203E+02  0.32503819914E+02  0.10566000000E+00 0. -1.
         13    1    4    4    0    0 -0.19839478544E-01  0.74077494796E-01  0.26327836439E+00  0.29387176268E+00  0.10566000000E+00 0. -1.
        -13    1    4    4    0    0 -0.18020207110E+01  0.26126326455E+01  0.47832585188E+01  0.57414156858E+01  0.10566000000E+00 0.  1.
         14    1    4    4    0    0 -0.13753828173E+02  0.22484971402E+02  0.40891786938E+02  0.48650590616E+02  0.00000000000E+00 0. -1.
<mgrwt>
<rscale>  0 0.80901337E+02</rscale>
<asrwt>0</asrwt>
<pdfrwt beam="1">  1        1 0.42059921E-02 0.80901337E+02</pdfrwt>
<pdfrwt beam="2">  1       -2 0.92078076E-02 0.80901337E+02</pdfrwt>
<totfact> 0.11513527E+05</totfact>
</mgrwt>
</event>
<event>
 8    1  0.8247621E-014  0.8025807E+02  0.7818608E-02  0.1328321E+00
         -2   -1    0    0    0  501 -0.00000000000E+00  0.00000000000E+00  0.30948434676E+02  0.30948434781E+02  0.25500000000E-02 0.  1.
          1   -1    0    0  501    0  0.00000000000E+00 -0.00000000000E+00 -0.52032987158E+02  0.52032987403E+02  0.50400000000E-02 0. -1.
        -24    2    1    2    0    0 -0.17763568394E-14  0.00000000000E+00 -0.21084552482E+02  0.82981422184E+02  0.80258071708E+02 0.  0.
         66    2    3    3    0    0  0.14699404121E+02  0.20123787360E+02  0.21938649395E+02  0.33261744359E+02  0.20000003194E+01 0.  0.
         13    1    3    3    0    0 -0.14699404121E+02 -0.20123787360E+02 -0.43023201877E+02  0.49719677825E+02  0.10566000000E+00 0. -1.
         13    1    4    4    0    0  0.86622978440E+01  0.11032353777E+02  0.11964029645E+02  0.18436306657E+02  0.10566000000E+00 0. -1.
        -13    1    4    4    0    0  0.48843953116E+01  0.77973861661E+01  0.87978071437E+01  0.12730637186E+02  0.10566000000E+00 0.  1.
        -14    1    4    4    0    0  0.11527109659E+01  0.12940474178E+01  0.11768126063E+01  0.20948005157E+01  0.00000000000E+00 0.  1.
<mgrwt>
<rscale>  0 0.80258072E+02</rscale>
<asrwt>0</asrwt>
<pdfrwt beam="1">  1        1 0.80050750E-02 0.80258072E+02</pdfrwt>
<pdfrwt beam="2">  1       -2 0.47612977E-02 0.80258072E+02</pdfrwt>
<totfact> 0.13121857E+05</totfact>
</mgrwt>
</event>
<event>
 8    1  0.8247621E-014  0.7789610E+02  0.7818608E-02  0.1335130E+00
         -2   -1    0    0    0  501 -0.00000000000E+00  0.00000000000E+00  0.53893016967E+02  0.53893017028E+02  0.25500000000E-02 0.  1.
          1   -1    0    0  501    0  0.00000000000E+00 -0.00000000000E+00 -0.28147439912E+02  0.28147440363E+02  0.50400000000E-02 0. -1.
        -24    2    1    2    0    0  0.35527136788E-14  0.00000000000E+00  0.25745577055E+02  0.82040457391E+02  0.77896096892E+02 0.  0.
         66    2    3    3    0    0 -0.30424912523E+02  0.18533123175E+02  0.29393173725E+02  0.46228893865E+02  0.20000024147E+01 0.  0.
         13    1    3    3    0    0  0.30424912523E+02 -0.18533123175E+02 -0.36475966698E+01  0.35811563526E+02  0.10566000000E+00 0. -1.
         13    1    4    4    0    0 -0.62006221948E+01  0.30455157269E+01  0.61078564657E+01  0.92217111366E+01  0.10566000000E+00 0. -1.
        -13    1    4    4    0    0 -0.16444245044E+02  0.10083228641E+02  0.15508572047E+02  0.24750993230E+02  0.10566000000E+00 0.  1.
        -14    1    4    4    0    0 -0.77800452841E+01  0.54043788073E+01  0.77767452127E+01  0.12256189498E+02  0.00000000000E+00 0.  1.
<mgrwt>
<rscale>  0 0.77896097E+02</rscale>
<asrwt>0</asrwt>
<pdfrwt beam="1">  1        1 0.43303755E-02 0.77896097E+02</pdfrwt>
<pdfrwt beam="2">  1       -2 0.82912332E-02 0.77896097E+02</pdfrwt>
<totfact> 0.12911234E+05</totfact>
</mgrwt>
</event>
<event>
 8    1  0.8247621E-014  0.7890356E+02  0.7818608E-02  0.1332192E+00
         -2   -1    0    0    0  501 -0.00000000000E+00  0.00000000000E+00  0.13028829557E+02  0.13028829806E+02  0.25500000000E-02 0.  1.
          1   -1    0    0  501    0  0.00000000000E+00 -0.00000000000E+00 -0.11946145489E+03  0.11946145500E+03  0.50400000000E-02 0. -1.
        -24    2    1    2    0    0  0.00000000000E+00  0.00000000000E+00 -0.10643262534E+03  0.13249028481E+03  0.78903560324E+02 0.  0.
         66    2    3    3    0    0  0.35653631567E+02 -0.89308074981E+01 -0.77203782671E+02  0.85529906037E+02  0.20000003765E+01 0.  0.
         13    1    3    3    0    0 -0.35653631567E+02  0.89308074981E+01 -0.29228842667E+02  0.46960378770E+02  0.10566000000E+00 0. -1.
         13    1    4    4    0    0  0.35791306027E+01 -0.88858449082E+00 -0.91356716574E+01  0.98524828818E+01  0.10566000000E+00 0.  1.
        -13    1    4    4    0    0  0.11199750015E+02 -0.28431856872E+01 -0.23175216394E+02  0.25896330323E+02  0.10566000000E+00 0. -1.
        -14    1    4    4    0    0  0.20874750950E+02 -0.51990373201E+01 -0.44892894620E+02  0.49781092833E+02  0.00000000000E+00 0.  1.
<mgrwt>
<rscale>  0 0.78903560E+02</rscale>
<asrwt>0</asrwt>
<pdfrwt beam="1">  1        1 0.18378685E-01 0.78903560E+02</pdfrwt>
<pdfrwt beam="2">  1       -2 0.20044354E-02 0.78903560E+02</pdfrwt>
<totfact> 0.15726722E+05</totfact>
</mgrwt>
</event>
<event>
 8    1  0.8247621E-014  0.8231351E+02  0.7818608E-02  0.1322611E+00
         -2   -1    0    0    0  501 -0.00000000000E+00  0.00000000000E+00  0.14606179301E+03  0.14606179303E+03  0.25500000000E-02 0.  1.
          1   -1    0    0  501    0  0.00000000000E+00 -0.00000000000E+00 -0.11596998989E+02  0.11597000084E+02  0.50400000000E-02 0. -1.
        -24    2    1    2    0    0  0.00000000000E+00  0.35527136788E-14  0.13446479402E+03  0.15765879311E+03  0.82313511742E+02 0.  0.
         66    2    3    3    0    0 -0.27618110699E+01  0.27542295787E+02  0.12554595619E+03  0.12857679714E+03  0.19999971335E+01 0.  0.
         13    1    3    3    0    0  0.27618110699E+01 -0.27542295787E+02  0.89188378253E+01  0.29081995974E+02  0.10566000000E+00 0. -1.
         13    1    4    4    0    0 -0.41948881558E+00  0.12980802040E+01  0.50793437902E+01  0.52604068718E+01  0.10566000000E+00 0. -1.
        -13    1    4    4    0    0 -0.14580878247E+01  0.18670329426E+02  0.84523759098E+02  0.86573577015E+02  0.10566000000E+00 0.  1.
        -14    1    4    4    0    0 -0.88423442964E+00  0.75738861576E+01  0.35942853303E+02  0.36742813252E+02  0.00000000000E+00 0.  1.
<mgrwt>
<rscale>  0 0.82313512E+02</rscale>
<asrwt>0</asrwt>
<pdfrwt beam="1">  1        1 0.17841539E-02 0.82313512E+02</pdfrwt>
<pdfrwt beam="2">  1       -2 0.22471044E-01 0.82313512E+02</pdfrwt>
<totfact> 0.88585282E+04</totfact>
</mgrwt>
</event>
<event>
 8    1  0.8247621E-014  0.7895499E+02  0.7818608E-02  0.1332043E+00
         -2   -1    0    0    0  501 -0.00000000000E+00  0.00000000000E+00  0.50802158176E+02  0.50802158240E+02  0.25500000000E-02 0.  1.
          1   -1    0    0  501    0  0.00000000000E+00 -0.00000000000E+00 -0.30677292240E+02  0.30677292654E+02  0.50400000000E-02 0. -1.
        -24    2    1    2    0    0 -0.88817841970E-15  0.00000000000E+00  0.20124865936E+02  0.81479450894E+02  0.78954991540E+02 0.  0.
         66    2    3    3    0    0 -0.65428831725E+01  0.28094252517E+02  0.37843556496E+02  0.47625950279E+02  0.20000067622E+01 0.  0.
         13    1    3    3    0    0  0.65428831725E+01 -0.28094252517E+02 -0.17718690559E+02  0.33853500615E+02  0.10566000000E+00 0. -1.
         13    1    4    4    0    0 -0.19217816212E+01  0.10684477237E+02  0.13778582169E+02  0.17541715682E+02  0.10566000000E+00 0. -1.
        -13    1    4    4    0    0 -0.15254763873E+01  0.73661495358E+01  0.10754393655E+02  0.13124609865E+02  0.10566000000E+00 0.  1.
         14    1    4    4    0    0 -0.30956251641E+01  0.10043625744E+02  0.13310580672E+02  0.16959624733E+02  0.00000000000E+00 0. -1.
<mgrwt>
<rscale>  0 0.78954992E+02</rscale>
<asrwt>0</asrwt>
<pdfrwt beam="1">  1        1 0.47195835E-02 0.78954992E+02</pdfrwt>
<pdfrwt beam="2">  1       -2 0.78157166E-02 0.78954992E+02</pdfrwt>
<totfact> 0.12608703E+05</totfact>
</mgrwt>
</event>
<event>
 8    1  0.8247621E-014  0.7956279E+02  0.7818608E-02  0.1330297E+00
          1   -1    0    0  501    0  0.00000000000E+00  0.00000000000E+00  0.28291232124E+03  0.28291232128E+03  0.50400000000E-02 0. -1.
         -2   -1    0    0    0  501 -0.00000000000E+00 -0.00000000000E+00 -0.55938154529E+01  0.55938160341E+01  0.25500000000E-02 0.  1.
        -24    2    1    2    0    0  0.00000000000E+00 -0.17763568394E-14  0.27731850578E+03  0.28850613732E+03  0.79562790415E+02 0.  0.
         66    2    3    3    0    0  0.38352445788E+02 -0.84677480795E+01  0.11641075607E+03  0.12287423237E+03  0.19999987948E+01 0.  0.
         13    1    3    3    0    0 -0.38352445788E+02  0.84677480795E+01  0.16090774971E+03  0.16563190495E+03  0.10566000000E+00 0. -1.
         13    1    4    4    0    0  0.57613845291E+01 -0.15601908491E+01  0.18289576072E+02  0.19239217866E+02  0.10566000000E+00 0. -1.
        -13    1    4    4    0    0  0.23614821709E+02 -0.44206703810E+01  0.69353636347E+02  0.73397140064E+02  0.10566000000E+00 0.  1.
        -14    1    4    4    0    0  0.89762395499E+01 -0.24868868495E+01  0.28767543655E+02  0.30237874439E+02  0.00000000000E+00 0.  1.
<mgrwt>
<rscale>  0 0.79562790E+02</rscale>
<asrwt>0</asrwt>
<pdfrwt beam="1">  1        1 0.43524971E-01 0.79562790E+02</pdfrwt>
<pdfrwt beam="2">  1       -2 0.86058708E-03 0.79562790E+02</pdfrwt>
<totfact> 0.18099529E+05</totfact>
</mgrwt>
</event>
<event>
 8    1  0.8247621E-014  0.8134912E+02  0.7818608E-02  0.1325266E+00
         -2   -1    0    0    0  501 -0.00000000000E+00  0.00000000000E+00  0.89059768853E+01  0.89059772504E+01  0.25500000000E-02 0.  1.
          1   -1    0    0  501    0  0.00000000000E+00 -0.00000000000E+00 -0.18576509965E+03  0.18576509972E+03  0.50400000000E-02 0. -1.
        -24    2    1    2    0    0  0.00000000000E+00  0.71054273576E-14 -0.17685912276E+03  0.19467107697E+03  0.81349117408E+02 0.  0.
         66    2    3    3    0    0 -0.16004687575E+02 -0.37340850516E+02 -0.91803582609E+02  0.10041108961E+03  0.19999988194E+01 0.  0.
         13    1    3    3    0    0  0.16004687575E+02  0.37340850516E+02 -0.85055540155E+02  0.94259987358E+02  0.10566000000E+00 0. -1.
         13    1    4    4    0    0 -0.54097254745E+01 -0.11982052081E+02 -0.31362185703E+02  0.34006360551E+02  0.10566000000E+00 0. -1.
        -13    1    4    4    0    0 -0.47435077533E+01 -0.10063297519E+02 -0.24188702562E+02  0.26624712551E+02  0.10566000000E+00 0.  1.
         14    1    4    4    0    0 -0.58514543471E+01 -0.15295500915E+02 -0.36252694343E+02  0.39780016508E+02  0.00000000000E+00 0. -1.
<mgrwt>
<rscale>  0 0.81349117E+02</rscale>
<asrwt>0</asrwt>
<pdfrwt beam="1">  1        1 0.28579243E-01 0.81349117E+02</pdfrwt>
<pdfrwt beam="2">  1       -2 0.13701505E-02 0.81349117E+02</pdfrwt>
<totfact> 0.15722038E+05</totfact>
</mgrwt>
</event>
<event>
 8    1  0.8247621E-014  0.7832238E+02  0.7818608E-02  0.1333881E+00
         -2   -1    0    0    0  501 -0.00000000000E+00  0.00000000000E+00  0.80943313704E+02  0.80943313744E+02  0.25500000000E-02 0.  1.
          1   -1    0    0  501    0  0.00000000000E+00 -0.00000000000E+00 -0.18946575716E+02  0.18946576386E+02  0.50400000000E-02 0. -1.
        -24    2    1    2    0    0 -0.35527136788E-14 -0.88817841970E-15  0.61996737988E+02  0.99889890130E+02  0.78322376299E+02 0.  0.
         66    2    3    3    0    0  0.25507909525E+02  0.57805555866E+01 -0.61103722076E+01  0.26933342141E+02  0.19999997904E+01 0.  0.
         13    1    3    3    0    0 -0.25507909525E+02 -0.57805555866E+01  0.68107110195E+02  0.72956547989E+02  0.10566000000E+00 0. -1.
         13    1    4    4    0    0  0.25234568602E+01  0.30868819662E+00 -0.10878327977E+01  0.27672490238E+01  0.10566000000E+00 0. -1.
        -13    1    4    4    0    0  0.46025506632E+01  0.13511115127E+01 -0.88280604697E+00  0.48784716335E+01  0.10566000000E+00 0.  1.
        -14    1    4    4    0    0  0.18381902002E+02  0.41207558773E+01 -0.41397333630E+01  0.19287621484E+02  0.00000000000E+00 0.  1.
<mgrwt>
<rscale>  0 0.78322376E+02</rscale>
<asrwt>0</asrwt>
<pdfrwt beam="1">  1        1 0.29148579E-02 0.78322376E+02</pdfrwt>
<pdfrwt beam="2">  1       -2 0.12452817E-01 0.78322376E+02</pdfrwt>
<totfact> 0.11766232E+05</totfact>
</mgrwt>
</event>
<event>
 8    1  0.8247621E-014  0.8221020E+02  0.7818608E-02  0.1322894E+00
         -2   -1    0    0    0  501 -0.00000000000E+00  0.00000000000E+00  0.14025056685E+02  0.14025056917E+02  0.25500000000E-02 0.  1.
          1   -1    0    0  501    0  0.00000000000E+00 -0.00000000000E+00 -0.12047218899E+03  0.12047218910E+03  0.50400000000E-02 0. -1.
        -24    2    1    2    0    0  0.00000000000E+00  0.00000000000E+00 -0.10644713231E+03  0.13449724602E+03  0.82210201369E+02 0.  0.
         66    2    3    3    0    0 -0.25090879263E+02  0.26430651650E+02 -0.22235624829E+02  0.42738209814E+02  0.19999994266E+01 0.  0.
         13    1    3    3    0    0  0.25090879263E+02 -0.26430651650E+02 -0.84211507481E+02  0.91759036204E+02  0.10566000000E+00 0. -1.
         13    1    4    4    0    0 -0.25947373956E+01  0.25328867120E+01 -0.19951516602E+01  0.41400448586E+01  0.10566000000E+00 0.  1.
        -13    1    4    4    0    0 -0.13422051444E+02  0.13421938219E+02 -0.12429050584E+02  0.22689035963E+02  0.10566000000E+00 0.  1.
        -14    1    4    4    0    0 -0.90740904234E+01  0.10475826719E+02 -0.78114225854E+01  0.15909128991E+02  0.00000000000E+00 0.  1.
<mgrwt>
<rscale>  0 0.82210201E+02</rscale>
<asrwt>0</asrwt>
<pdfrwt beam="1">  1        1 0.18534182E-01 0.82210201E+02</pdfrwt>
<pdfrwt beam="2">  1       -2 0.21577011E-02 0.82210201E+02</pdfrwt>
<totfact> 0.14103173E+05</totfact>
</mgrwt>
</event>
<event>
 8    1  0.8247621E-014  0.8287533E+02  0.7818608E-02  0.1321084E+00
         -2   -1    0    0    0  501 -0.00000000000E+00  0.00000000000E+00  0.19000574519E+02  0.19000574690E+02  0.25500000000E-02 0.  1.
          1   -1    0    0  501    0  0.00000000000E+00 -0.00000000000E+00 -0.90369905041E+02  0.90369905181E+02  0.50400000000E-02 0. -1.
        -24    2    1    2    0    0  0.00000000000E+00  0.00000000000E+00 -0.71369330522E+02  0.10937047987E+03  0.82875331240E+02 0.  0.
         66    2    3    3    0    0 -0.62549440181E+01  0.16451148436E+02  0.13766783912E+02  0.22434102247E+02  0.19999987018E+01 0.  0.
         13    1    3    3    0    0  0.62549440181E+01 -0.16451148436E+02 -0.85136114434E+02  0.86936377624E+02  0.10566000000E+00 0. -1.
         13    1    4    4    0    0 -0.14670120508E+01  0.23315843151E+01  0.21793930836E+01  0.35141610697E+01  0.10566000000E+00 0. -1.
        -13    1    4    4    0    0 -0.22732913030E+01  0.69289586667E+01  0.49291888192E+01  0.88026352874E+01  0.10566000000E+00 0.  1.
         14    1    4    4    0    0 -0.25146406643E+01  0.71906054543E+01  0.66582020092E+01  0.10117305890E+02  0.00000000000E+00 0. -1.
<mgrwt>
<rscale>  0 0.82875331E+02</rscale>
<asrwt>0</asrwt>
<pdfrwt beam="1">  1        1 0.13903062E-01 0.82875331E+02</pdfrwt>
<pdfrwt beam="2">  1       -2 0.29231654E-02 0.82875331E+02</pdfrwt>
<totfact> 0.13130697E+05</totfact>
</mgrwt>
</event>
<event>
 8    1  0.8247621E-014  0.7652353E+02  0.7818608E-02  0.1339217E+00
          1   -1    0    0  501    0  0.00000000000E+00  0.00000000000E+00  0.52628424883E+01  0.52628449016E+01  0.50400000000E-02 0. -1.
         -2   -1    0    0    0  501 -0.00000000000E+00 -0.00000000000E+00 -0.27816952326E+03  0.27816952327E+03  0.25500000000E-02 0.  1.
        -24    2    1    2    0    0  0.35527136788E-14  0.00000000000E+00 -0.27290668077E+03  0.28343236817E+03  0.76523531796E+02 0.  0.
         66    2    3    3    0    0 -0.25569031714E+02  0.25507116295E+02 -0.90052978279E+02  0.97046005894E+02  0.19999996423E+01 0.  0.
         13    1    3    3    0    0  0.25569031714E+02 -0.25507116295E+02 -0.18285370249E+03  0.18638636228E+03  0.10566000000E+00 0. -1.
         13    1    4    4    0    0 -0.10823096765E+02  0.10131420698E+02 -0.37772728527E+02  0.40578014901E+02  0.10566000000E+00 0. -1.
        -13    1    4    4    0    0 -0.25841422339E+01  0.20614789797E+01 -0.82081096391E+01  0.88493906317E+01  0.10566000000E+00 0.  1.
        -14    1    4    4    0    0 -0.12161792715E+02  0.13314216617E+02 -0.44072140113E+02  0.47618600361E+02  0.00000000000E+00 0.  1.
<mgrwt>
<rscale>  0 0.76523532E+02</rscale>
<asrwt>0</asrwt>
<pdfrwt beam="1">  1        1 0.80966848E-03 0.76523532E+02</pdfrwt>
<pdfrwt beam="2">  1       -2 0.42795300E-01 0.76523532E+02</pdfrwt>
<totfact> 0.82017413E+04</totfact>
</mgrwt>
</event>
<event>
 8    1  0.8247621E-014  0.7151354E+02  0.7818608E-02  0.1355021E+00
          1   -1    0    0  501    0  0.00000000000E+00  0.00000000000E+00  0.19275065302E+03  0.19275065309E+03  0.50400000000E-02 0. -1.
         -2   -1    0    0    0  501 -0.00000000000E+00 -0.00000000000E+00 -0.66331636387E+01  0.66331641289E+01  0.25500000000E-02 0.  1.
        -24    2    1    2    0    0  0.00000000000E+00  0.35527136788E-14  0.18611748938E+03  0.19938381722E+03  0.71513542169E+02 0.  0.
         66    2    3    3    0    0 -0.16558042414E+02 -0.30436481594E+02  0.68826621787E+02  0.77082112544E+02  0.20000067990E+01 0.  0.
         13    1    3    3    0    0  0.16558042414E+02  0.30436481594E+02  0.11729086760E+03  0.12230170467E+03  0.10566000000E+00 0. -1.
         13    1    4    4    0    0 -0.23873346596E+01 -0.59120010535E+01  0.12385322669E+02  0.13930488322E+02  0.10566000000E+00 0. -1.
        -13    1    4    4    0    0 -0.11705232813E+01 -0.18569742737E+01  0.44188135787E+01  0.49351348193E+01  0.10566000000E+00 0.  1.
         14    1    4    4    0    0 -0.13000184473E+02 -0.22667506267E+02  0.52022485539E+02  0.58216489403E+02  0.00000000000E+00 0. -1.
<mgrwt>
<rscale>  0 0.71513542E+02</rscale>
<asrwt>0</asrwt>
<pdfrwt beam="1">  1        1 0.29653946E-01 0.71513542E+02</pdfrwt>
<pdfrwt beam="2">  1       -2 0.10204868E-02 0.71513542E+02</pdfrwt>
<totfact> 0.22254851E+05</totfact>
</mgrwt>
</event>
<event>
 8    1  0.8247621E-014  0.7267832E+02  0.7818608E-02  0.1351215E+00
         -2   -1    0    0    0  501 -0.00000000000E+00  0.00000000000E+00  0.14553852542E+02  0.14553852765E+02  0.25500000000E-02 0.  1.
          1   -1    0    0  501    0  0.00000000000E+00 -0.00000000000E+00 -0.90734355440E+02  0.90734355580E+02  0.50400000000E-02 0. -1.
        -24    2    1    2    0    0  0.35527136788E-14  0.00000000000E+00 -0.76180502899E+02  0.10528820835E+03  0.72678317226E+02 0.  0.
         66    2    3    3    0    0  0.25108110251E+02 -0.20933953271E+02 -0.61019379014E+02  0.69253246969E+02  0.20000001162E+01 0.  0.
         13    1    3    3    0    0 -0.25108110251E+02  0.20933953271E+02 -0.15161123884E+02  0.36034961377E+02  0.10566000000E+00 0. -1.
         13    1    4    4    0    0  0.16163805339E+02 -0.12749833198E+02 -0.37016215282E+02  0.42356088198E+02  0.10566000000E+00 0. -1.
        -13    1    4    4    0    0  0.40425715762E+01 -0.33650538061E+01 -0.10156544750E+02  0.11438205164E+02  0.10566000000E+00 0.  1.
         14    1    4    4    0    0  0.49017333364E+01 -0.48190662672E+01 -0.13846618982E+02  0.15458953607E+02  0.00000000000E+00 0. -1.
<mgrwt>
<rscale>  0 0.72678317E+02</rscale>
<asrwt>0</asrwt>
<pdfrwt beam="1">  1        1 0.13959131E-01 0.72678317E+02</pdfrwt>
<pdfrwt beam="2">  1       -2 0.22390543E-02 0.72678317E+02</pdfrwt>
<totfact> 0.18726742E+05</totfact>
</mgrwt>
</event>
<event>
 8    1  0.8247621E-014  0.7867236E+02  0.7818608E-02  0.1332862E+00
         -2   -1    0    0    0  501 -0.00000000000E+00  0.00000000000E+00  0.34913078715E+01  0.34913088027E+01  0.25500000000E-02 0.  1.
          1   -1    0    0  501    0  0.00000000000E+00 -0.00000000000E+00 -0.44319634225E+03  0.44319634228E+03  0.50400000000E-02 0. -1.
        -24    2    1    2    0    0  0.00000000000E+00  0.00000000000E+00 -0.43970503438E+03  0.44668765108E+03  0.78672360908E+02 0.  0.
         66    2    3    3    0    0  0.41296363916E+01 -0.39091871591E+02 -0.22180608719E+03  0.22527132225E+03  0.19999986373E+01 0.  0.
         13    1    3    3    0    0 -0.41296363916E+01  0.39091871591E+02 -0.21789894719E+03  0.22141632882E+03  0.10566000000E+00 0. -1.
         13    1    4    4    0    0  0.40573261842E+01 -0.34035285404E+02 -0.19447816937E+03  0.19747564932E+03  0.10566000000E+00 0. -1.
        -13    1    4    4    0    0 -0.24884570098E-02 -0.38126210441E+01 -0.19554574025E+02  0.19923067403E+02  0.10566000000E+00 0.  1.
         14    1    4    4    0    0  0.74798664327E-01 -0.12439651428E+01 -0.77733437928E+01  0.78726055304E+01  0.00000000000E+00 0. -1.
<mgrwt>
<rscale>  0 0.78672361E+02</rscale>
<asrwt>0</asrwt>
<pdfrwt beam="1">  1        1 0.68184008E-01 0.78672361E+02</pdfrwt>
<pdfrwt beam="2">  1       -2 0.53712471E-03 0.78672361E+02</pdfrwt>
<totfact> 0.20163084E+05</totfact>
</mgrwt>
</event>
<event>
 8    1  0.8247621E-014  0.7862804E+02  0.7818608E-02  0.1332991E+00
          1   -1    0    0  501    0  0.00000000000E+00  0.00000000000E+00  0.99486642100E+02  0.99486642228E+02  0.50400000000E-02 0. -1.
         -2   -1    0    0    0  501 -0.00000000000E+00 -0.00000000000E+00 -0.15535674127E+02  0.15535674337E+02  0.25500000000E-02 0.  1.
        -24    2    1    2    0    0  0.53290705182E-14  0.35527136788E-14  0.83950967973E+02  0.11502231656E+03  0.78628037521E+02 0.  0.
         66    2    3    3    0    0 -0.13310717316E+02 -0.17017886381E+02 -0.60009329825E+01  0.22512104686E+02  0.20000021028E+01 0.  0.
         13    1    3    3    0    0  0.13310717316E+02  0.17017886381E+02  0.89951900955E+02  0.92510211879E+02  0.10566000000E+00 0. -1.
         13    1    4    4    0    0 -0.10492676563E+02 -0.12919786062E+02 -0.43061227246E+01  0.17192178172E+02  0.10566000000E+00 0.  1.
        -13    1    4    4    0    0 -0.25900214433E+01 -0.32804001213E+01 -0.15485546743E+01  0.44585223614E+01  0.10566000000E+00 0. -1.
        -14    1    4    4    0    0 -0.22801930919E+00 -0.81770019731E+00 -0.14625558355E+00  0.86140415240E+00  0.00000000000E+00 0.  1.
<mgrwt>
<rscale>  0 0.78628038E+02</rscale>
<asrwt>0</asrwt>
<pdfrwt beam="1">  1        1 0.15305637E-01 0.78628038E+02</pdfrwt>
<pdfrwt beam="2">  1       -2 0.23901037E-02 0.78628038E+02</pdfrwt>
<totfact> 0.15388607E+05</totfact>
</mgrwt>
</event>
<event>
 8    1  0.8247621E-014  0.8255633E+02  0.7818608E-02  0.1321950E+00
         -2   -1    0    0    0  501 -0.00000000000E+00  0.00000000000E+00  0.10177924869E+02  0.10177925189E+02  0.25500000000E-02 0.  1.
          1   -1    0    0  501    0  0.00000000000E+00 -0.00000000000E+00 -0.16741004616E+03  0.16741004624E+03  0.50400000000E-02 0. -1.
        -24    2    1    2    0    0  0.17763568394E-14 -0.35527136788E-14 -0.15723212129E+03  0.17758797143E+03  0.82556330037E+02 0.  0.
         66    2    3    3    0    0  0.99019549889E+01 -0.31510565472E+02 -0.25493567228E+02  0.41771837480E+02  0.19999968800E+01 0.  0.
         13    1    3    3    0    0 -0.99019549889E+01  0.31510565472E+02 -0.13173855406E+03  0.13581613395E+03  0.10566000000E+00 0. -1.
         13    1    4    4    0    0  0.81053389409E+01 -0.24473988740E+02 -0.19359406896E+02  0.32240819524E+02  0.10566000000E+00 0. -1.
        -13    1    4    4    0    0  0.86183130354E+00 -0.34190865272E+01 -0.25427735048E+01  0.43485361915E+01  0.10566000000E+00 0.  1.
         14    1    4    4    0    0  0.93478474446E+00 -0.36174902049E+01 -0.35913868268E+01  0.51824817646E+01  0.00000000000E+00 0. -1.
<mgrwt>
<rscale>  0 0.82556330E+02</rscale>
<asrwt>0</asrwt>
<pdfrwt beam="1">  1        1 0.25755390E-01 0.82556330E+02</pdfrwt>
<pdfrwt beam="2">  1       -2 0.15658347E-02 0.82556330E+02</pdfrwt>
<totfact> 0.14816928E+05</totfact>
</mgrwt>
</event>
<event>
 8    1  0.8247621E-014  0.9018595E+02  0.7818608E-02  0.1302402E+00
         -2   -1    0    0    0  501 -0.00000000000E+00  0.00000000000E+00  0.18106418349E+03  0.18106418351E+03  0.25500000000E-02 0.  1.
          1   -1    0    0  501    0  0.00000000000E+00 -0.00000000000E+00 -0.11230140733E+02  0.11230141864E+02  0.50400000000E-02 0. -1.
        -24    2    1    2    0    0 -0.55511151231E-16  0.00000000000E+00  0.16983404276E+03  0.19229432537E+03  0.90185949523E+02 0.  0.
         66    2    3    3    0    0  0.49851130705E+00 -0.36068763862E+02  0.14257408194E+03  0.14708015870E+03  0.20000006131E+01 0.  0.
         13    1    3    3    0    0 -0.49851130705E+00  0.36068763862E+02  0.27259960818E+02  0.45214166672E+02  0.10566000000E+00 0. -1.
         13    1    4    4    0    0  0.70339548198E+00 -0.24449840752E+02  0.94779664712E+02  0.97885062624E+02  0.10566000000E+00 0. -1.
        -13    1    4    4    0    0 -0.98410019286E-01 -0.10804012344E+02  0.45205595955E+02  0.46478956927E+02  0.10566000000E+00 0.  1.
         14    1    4    4    0    0 -0.10647415564E+00 -0.81491076592E+00  0.25888212730E+01  0.27161391507E+01  0.00000000000E+00 0. -1.
<mgrwt>
<rscale>  0 0.90185950E+02</rscale>
<asrwt>0</asrwt>
<pdfrwt beam="1">  1        1 0.17277143E-02 0.90185950E+02</pdfrwt>
<pdfrwt beam="2">  1       -2 0.27856024E-01 0.90185950E+02</pdfrwt>
<totfact> 0.64875562E+04</totfact>
</mgrwt>
</event>
<event>
 8    1  0.8247621E-014  0.7950357E+02  0.7818608E-02  0.1330466E+00
          1   -1    0    0  501    0  0.00000000000E+00  0.00000000000E+00  0.14732895869E+03  0.14732895878E+03  0.50400000000E-02 0. -1.
         -2   -1    0    0    0  501 -0.00000000000E+00 -0.00000000000E+00 -0.10725687035E+02  0.10725687338E+02  0.25500000000E-02 0.  1.
        -24    2    1    2    0    0  0.00000000000E+00  0.35527136788E-14  0.13660327166E+03  0.15805464612E+03  0.79503568043E+02 0.  0.
         66    2    3    3    0    0 -0.10519826599E+02  0.27065738219E+02  0.14448565570E+02  0.32495877724E+02  0.20000212419E+01 0.  0.
         13    1    3    3    0    0  0.10519826599E+02 -0.27065738219E+02  0.12215470609E+03  0.12555876839E+03  0.10566000000E+00 0. -1.
         13    1    4    4    0    0 -0.28663472674E+01  0.81213347779E+01  0.38347282402E+01  0.94280607733E+01  0.10566000000E+00 0. -1.
        -13    1    4    4    0    0 -0.21599639699E+01  0.55040926589E+01  0.23687585539E+01  0.63704522188E+01  0.10566000000E+00 0.  1.
        -14    1    4    4    0    0 -0.54935153620E+01  0.13440310783E+02  0.82450787763E+01  0.16697364732E+02  0.00000000000E+00 0.  1.
<mgrwt>
<rscale>  0 0.79503568E+02</rscale>
<asrwt>0</asrwt>
<pdfrwt beam="1">  1        1 0.22665996E-01 0.79503568E+02</pdfrwt>
<pdfrwt beam="2">  1       -2 0.16501056E-02 0.79503568E+02</pdfrwt>
<totfact> 0.16000230E+05</totfact>
</mgrwt>
</event>
<event>
 8    1  0.8247621E-014  0.7729421E+02  0.7818608E-02  0.1336910E+00
          1   -1    0    0  501    0  0.00000000000E+00  0.00000000000E+00  0.51728593459E+02  0.51728593704E+02  0.50400000000E-02 0. -1.
         -2   -1    0    0    0  501 -0.00000000000E+00 -0.00000000000E+00 -0.28873752694E+02  0.28873752807E+02  0.25500000000E-02 0.  1.
        -24    2    1    2    0    0  0.35527136788E-14  0.00000000000E+00  0.22854840765E+02  0.80602346511E+02  0.77294207524E+02 0.  0.
         66    2    3    3    0    0  0.19627107371E+02 -0.30370468603E+02 -0.27103604328E+01  0.36317141496E+02  0.20000014577E+01 0.  0.
         13    1    3    3    0    0 -0.19627107371E+02  0.30370468603E+02  0.25565201197E+02  0.44285205015E+02  0.10566000000E+00 0. -1.
         13    1    4    4    0    0  0.43213821505E+00 -0.83377087550E+00 -0.29660513062E+00  0.99048268478E+00  0.10566000000E+00 0. -1.
        -13    1    4    4    0    0  0.16516288710E+02 -0.25730942229E+02 -0.24356767266E+01  0.30672672950E+02  0.10566000000E+00 0.  1.
        -14    1    4    4    0    0  0.26786804460E+01 -0.38057554987E+01  0.21921424347E-01  0.46539858612E+01  0.00000000000E+00 0.  1.
<mgrwt>
<rscale>  0 0.77294208E+02</rscale>
<asrwt>0</asrwt>
<pdfrwt beam="1">  1        1 0.79582451E-02 0.77294208E+02</pdfrwt>
<pdfrwt beam="2">  1       -2 0.44421159E-02 0.77294208E+02</pdfrwt>
<totfact> 0.14549654E+05</totfact>
</mgrwt>
</event>
<event>
 8    1  0.8247621E-014  0.7962231E+02  0.7818608E-02  0.1330127E+00
          1   -1    0    0  501    0  0.00000000000E+00  0.00000000000E+00  0.69624489949E+01  0.69624508191E+01  0.50400000000E-02 0. -1.
         -2   -1    0    0    0  501 -0.00000000000E+00 -0.00000000000E+00 -0.22763943603E+03  0.22763943605E+03  0.25500000000E-02 0.  1.
        -24    2    1    2    0    0 -0.17763568394E-14  0.00000000000E+00 -0.22067698704E+03  0.23460188687E+03  0.79622312910E+02 0.  0.
         66    2    3    3    0    0 -0.10888370739E+02 -0.33083788511E+02 -0.16707064906E+03  0.17067423780E+03  0.19999979782E+01 0.  0.
         13    1    3    3    0    0  0.10888370739E+02  0.33083788511E+02 -0.53606337976E+02  0.63927649064E+02  0.10566000000E+00 0. -1.
         13    1    4    4    0    0 -0.41149805343E+01 -0.10888994931E+02 -0.57726322860E+02  0.58888392663E+02  0.10566000000E+00 0. -1.
        -13    1    4    4    0    0 -0.46960071430E+01 -0.16956626658E+02 -0.81778600163E+02  0.83650046500E+02  0.10566000000E+00 0.  1.
        -14    1    4    4    0    0 -0.20773830619E+01 -0.52381669218E+01 -0.27565726040E+02  0.28135798641E+02  0.00000000000E+00 0.  1.
<mgrwt>
<rscale>  0 0.79622313E+02</rscale>
<asrwt>0</asrwt>
<pdfrwt beam="1">  1        1 0.10711463E-02 0.79622313E+02</pdfrwt>
<pdfrwt beam="2">  1       -2 0.35021446E-01 0.79622313E+02</pdfrwt>
<totfact> 0.81508519E+04</totfact>
</mgrwt>
</event>
<event>
 8    1  0.8247621E-014  0.7313749E+02  0.7818608E-02  0.1349738E+00
         -2   -1    0    0    0  501 -0.00000000000E+00  0.00000000000E+00  0.39054409604E+03  0.39054409604E+03  0.25500000000E-02 0.  1.
          1   -1    0    0  501    0  0.00000000000E+00 -0.00000000000E+00 -0.34241261751E+01  0.34241298843E+01  0.50400000000E-02 0. -1.
        -24    2    1    2    0    0  0.00000000000E+00  0.00000000000E+00  0.38711996986E+03  0.39396822593E+03  0.73137486806E+02 0.  0.
         66    2    3    3    0    0 -0.29900974337E+02 -0.10264089956E+02  0.29242151051E+03  0.29413221451E+03  0.19999983835E+01 0.  0.
         13    1    3    3    0    0  0.29900974337E+02  0.10264089956E+02  0.94698459352E+02  0.99836011422E+02  0.10566000000E+00 0. -1.
         13    1    4    4    0    0 -0.13076329460E+02 -0.55087169766E+01  0.13138601690E+03  0.13215003956E+03  0.10566000000E+00 0. -1.
        -13    1    4    4    0    0 -0.11073198801E+02 -0.32518594331E+01  0.10547490581E+03  0.10610446382E+03  0.10566000000E+00 0.  1.
         14    1    4    4    0    0 -0.57514460764E+01 -0.15035135464E+01  0.55560587798E+02  0.55877711133E+02  0.00000000000E+00 0. -1.
<mgrwt>
<rscale>  0 0.73137487E+02</rscale>
<asrwt>0</asrwt>
<pdfrwt beam="1">  1        1 0.52678892E-03 0.73137487E+02</pdfrwt>
<pdfrwt beam="2">  1       -2 0.60083709E-01 0.73137487E+02</pdfrwt>
<totfact> 0.75617263E+04</totfact>
</mgrwt>
</event>
<event>
 8    1  0.8247621E-014  0.7965561E+02  0.7818608E-02  0.1330032E+00
          1   -1    0    0  501    0  0.00000000000E+00  0.00000000000E+00  0.62098294113E+02  0.62098294318E+02  0.50400000000E-02 0. -1.
         -2   -1    0    0    0  501 -0.00000000000E+00 -0.00000000000E+00 -0.25544243048E+02  0.25544243175E+02  0.25500000000E-02 0.  1.
        -24    2    1    2    0    0  0.17763568394E-14  0.00000000000E+00  0.36554051066E+02  0.87642537492E+02  0.79655607014E+02 0.  0.
         66    2    3    3    0    0 -0.85689989195E+01  0.32902798186E+02 -0.44800500883E+01  0.34352477514E+02  0.19999979016E+01 0.  0.
         13    1    3    3    0    0  0.85689989195E+01 -0.32902798186E+02  0.41034101154E+02  0.53290059978E+02  0.10566000000E+00 0. -1.
         13    1    4    4    0    0 -0.29503648662E+01  0.98830688462E+01 -0.18037170071E+01  0.10471115592E+02  0.10566000000E+00 0. -1.
        -13    1    4    4    0    0 -0.48690292703E+01  0.21001088959E+02 -0.27079637618E+01  0.21727802817E+02  0.10566000000E+00 0.  1.
         14    1    4    4    0    0 -0.74960478296E+00  0.20186403813E+01  0.31630680585E-01  0.21535591052E+01  0.00000000000E+00 0. -1.
<mgrwt>
<rscale>  0 0.79655607E+02</rscale>
<asrwt>0</asrwt>
<pdfrwt beam="1">  1        1 0.95535837E-02 0.79655607E+02</pdfrwt>
<pdfrwt beam="2">  1       -2 0.39298836E-02 0.79655607E+02</pdfrwt>
<totfact> 0.13774075E+05</totfact>
</mgrwt>
</event>
<event>
 8    1  0.8247621E-014  0.8051805E+02  0.7818608E-02  0.1327588E+00
         -2   -1    0    0    0  501 -0.00000000000E+00  0.00000000000E+00  0.27073974144E+02  0.27073974264E+02  0.25500000000E-02 0.  1.
          1   -1    0    0  501    0  0.00000000000E+00 -0.00000000000E+00 -0.59865204198E+02  0.59865204410E+02  0.50400000000E-02 0. -1.
        -24    2    1    2    0    0  0.00000000000E+00  0.00000000000E+00 -0.32791230054E+02  0.86939178675E+02  0.80518047791E+02 0.  0.
         66    2    3    3    0    0  0.91560692699E+01 -0.21795883924E+02  0.18746510138E+02  0.30237820766E+02  0.20000004616E+01 0.  0.
         13    1    3    3    0    0 -0.91560692699E+01  0.21795883924E+02 -0.51537740192E+02  0.56701357908E+02  0.10566000000E+00 0. -1.
         13    1    4    4    0    0  0.74258184788E+00 -0.29023165407E+01  0.28261238462E+01  0.41198312020E+01  0.10566000000E+00 0. -1.
        -13    1    4    4    0    0  0.60285778317E+01 -0.13937717050E+02  0.12175033141E+02  0.19463974498E+02  0.10566000000E+00 0.  1.
         14    1    4    4    0    0  0.23849095903E+01 -0.49558503332E+01  0.37453531503E+01  0.66540150661E+01  0.00000000000E+00 0. -1.
<mgrwt>
<rscale>  0 0.80518048E+02</rscale>
<asrwt>0</asrwt>
<pdfrwt beam="1">  1        1 0.92100315E-02 0.80518048E+02</pdfrwt>
<pdfrwt beam="2">  1       -2 0.41652268E-02 0.80518048E+02</pdfrwt>
<totfact> 0.13294893E+05</totfact>
</mgrwt>
</event>
<event>
 8    1  0.8247621E-014  0.7953422E+02  0.7818608E-02  0.1330378E+00
         -2   -1    0    0    0  501 -0.00000000000E+00  0.00000000000E+00  0.14746193342E+03  0.14746193344E+03  0.25500000000E-02 0.  1.
          1   -1    0    0  501    0  0.00000000000E+00 -0.00000000000E+00 -0.10724278005E+02  0.10724279190E+02  0.50400000000E-02 0. -1.
        -24    2    1    2    0    0 -0.88817841970E-15  0.00000000000E+00  0.13673765541E+03  0.15818621263E+03  0.79534215646E+02 0.  0.
         66    2    3    3    0    0 -0.76150232624E+01  0.27238290149E+02  0.12394147564E+03  0.12714323580E+03  0.19999991153E+01 0.  0.
         13    1    3    3    0    0  0.76150232624E+01 -0.27238290149E+02  0.12796179772E+02  0.31042976828E+02  0.10566000000E+00 0. -1.
         13    1    4    4    0    0 -0.54394874316E+00  0.16431625675E+01  0.60507155078E+01  0.62942978679E+01  0.10566000000E+00 0. -1.
        -13    1    4    4    0    0 -0.19533312923E+01  0.82923788672E+01  0.39478381556E+02  0.40387285434E+02  0.10566000000E+00 0.  1.
        -14    1    4    4    0    0 -0.51177432269E+01  0.17302748715E+02  0.78412378580E+02  0.80461652502E+02  0.00000000000E+00 0.  1.
<mgrwt>
<rscale>  0 0.79534216E+02</rscale>
<asrwt>0</asrwt>
<pdfrwt beam="1">  1        1 0.16498891E-02 0.79534216E+02</pdfrwt>
<pdfrwt beam="2">  1       -2 0.22686451E-01 0.79534216E+02</pdfrwt>
<totfact> 0.96477061E+04</totfact>
</mgrwt>
</event>
<event>
 8    1  0.8247621E-014  0.8095583E+02  0.7818608E-02  0.1326361E+00
          1   -1    0    0  501    0  0.00000000000E+00  0.00000000000E+00  0.13260416013E+02  0.13260416971E+02  0.50400000000E-02 0. -1.
         -2   -1    0    0    0  501 -0.00000000000E+00 -0.00000000000E+00 -0.12356034177E+03  0.12356034180E+03  0.25500000000E-02 0.  1.
        -24    2    1    2    0    0  0.00000000000E+00 -0.71054273576E-14 -0.11029992576E+03  0.13682075877E+03  0.80955829982E+02 0.  0.
         66    2    3    3    0    0  0.79640849784E+01 -0.35992778172E+02 -0.83339751666E+02  0.91150540015E+02  0.20000017967E+01 0.  0.
         13    1    3    3    0    0 -0.79640849784E+01  0.35992778172E+02 -0.26960174095E+02  0.45670218757E+02  0.10566000000E+00 0. -1.
         13    1    4    4    0    0  0.41880395741E+01 -0.15447954096E+02 -0.36823706125E+02  0.40151904787E+02  0.10566000000E+00 0. -1.
        -13    1    4    4    0    0  0.35337785867E+01 -0.17536752202E+02 -0.39804135132E+02  0.43639495947E+02  0.10566000000E+00 0.  1.
         14    1    4    4    0    0  0.24226681759E+00 -0.30080718739E+01 -0.67119104088E+01  0.73591392802E+01  0.00000000000E+00 0. -1.
<mgrwt>
<rscale>  0 0.80955830E+02</rscale>
<asrwt>0</asrwt>
<pdfrwt beam="1">  1        1 0.20400642E-02 0.80955830E+02</pdfrwt>
<pdfrwt beam="2">  1       -2 0.19009283E-01 0.80955830E+02</pdfrwt>
<totfact> 0.97296611E+04</totfact>
</mgrwt>
</event>
<event>
 8    1  0.8247621E-014  0.8220054E+02  0.7818608E-02  0.1322920E+00
         -2   -1    0    0    0  501 -0.00000000000E+00  0.00000000000E+00  0.28718503134E+02  0.28718503247E+02  0.25500000000E-02 0.  1.
          1   -1    0    0  501    0  0.00000000000E+00 -0.00000000000E+00 -0.58820344897E+02  0.58820345113E+02  0.50400000000E-02 0. -1.
        -24    2    1    2    0    0  0.00000000000E+00  0.00000000000E+00 -0.30101841764E+02  0.87538848360E+02  0.82200541936E+02 0.  0.
         66    2    3    3    0    0  0.28699802966E+02 -0.14906167430E+02  0.11909844046E+02  0.34521252919E+02  0.20000000427E+01 0.  0.
         13    1    3    3    0    0 -0.28699802966E+02  0.14906167430E+02 -0.42011685810E+02  0.53017595441E+02  0.10566000000E+00 0. -1.
         13    1    4    4    0    0  0.97530914908E+01 -0.54984350389E+01  0.41984663526E+01  0.11958004234E+02  0.10566000000E+00 0.  1.
        -13    1    4    4    0    0  0.47953962524E+01 -0.24595580807E+01  0.13041335443E+01  0.55459155698E+01  0.10566000000E+00 0. -1.
         14    1    4    4    0    0  0.14151315223E+02 -0.69481743100E+01  0.64072441493E+01  0.17017333115E+02  0.00000000000E+00 0. -1.
<mgrwt>
<rscale>  0 0.82200542E+02</rscale>
<asrwt>0</asrwt>
<pdfrwt beam="1">  1        1 0.90492838E-02 0.82200542E+02</pdfrwt>
<pdfrwt beam="2">  1       -2 0.44182313E-02 0.82200542E+02</pdfrwt>
<totfact> 0.12520774E+05</totfact>
</mgrwt>
</event>
<event>
 8    1  0.8247621E-014  0.8141871E+02  0.7818608E-02  0.1325073E+00
         -2   -1    0    0    0  501 -0.00000000000E+00  0.00000000000E+00  0.10930268519E+02  0.10930268816E+02  0.25500000000E-02 0.  1.
          1   -1    0    0  501    0  0.00000000000E+00 -0.00000000000E+00 -0.15162038074E+03  0.15162038082E+03  0.50400000000E-02 0. -1.
        -24    2    1    2    0    0  0.00000000000E+00  0.00000000000E+00 -0.14069011222E+03  0.16255064964E+03  0.81418708056E+02 0.  0.
         66    2    3    3    0    0 -0.29372401721E+02  0.46244466719E+01 -0.14946987571E+02  0.33339705634E+02  0.20000111126E+01 0.  0.
         13    1    3    3    0    0  0.29372401721E+02 -0.46244466719E+01 -0.12574312465E+03  0.12921094400E+03  0.10566000000E+00 0. -1.
         13    1    4    4    0    0 -0.14184562890E+02  0.23853807925E+01 -0.76938107477E+01  0.16312502989E+02  0.10566000000E+00 0. -1.
        -13    1    4    4    0    0 -0.57729947826E+01  0.11472249113E+01 -0.33820487088E+01  0.67891834017E+01  0.10566000000E+00 0.  1.
         14    1    4    4    0    0 -0.94148440482E+01  0.10918409681E+01 -0.38711281140E+01  0.10238019243E+02  0.00000000000E+00 0. -1.
<mgrwt>
<rscale>  0 0.81418708E+02</rscale>
<asrwt>0</asrwt>
<pdfrwt beam="1">  1        1 0.23326211E-01 0.81418708E+02</pdfrwt>
<pdfrwt beam="2">  1       -2 0.16815799E-02 0.81418708E+02</pdfrwt>
<totfact> 0.15093370E+05</totfact>
</mgrwt>
</event>
<event>
 8    1  0.8247621E-014  0.8275039E+02  0.7818608E-02  0.1321423E+00
         -2   -1    0    0    0  501 -0.00000000000E+00  0.00000000000E+00  0.17814771912E+03  0.17814771914E+03  0.25500000000E-02 0.  1.
          1   -1    0    0  501    0  0.00000000000E+00 -0.00000000000E+00 -0.96094787311E+01  0.96094800528E+01  0.50400000000E-02 0. -1.
        -24    2    1    2    0    0 -0.17763568394E-14  0.00000000000E+00  0.16853824039E+03  0.18775719919E+03  0.82750391992E+02 0.  0.
         66    2    3    3    0    0 -0.99624960241E+01  0.40132717894E+02  0.84036002821E+02  0.93679966607E+02  0.20000002160E+01 0.  0.
         13    1    3    3    0    0  0.99624960241E+01 -0.40132717894E+02  0.84502237570E+02  0.94077232585E+02  0.10566000000E+00 0. -1.
         13    1    4    4    0    0 -0.30148487431E+01  0.11687401461E+02  0.22823211841E+02  0.25818497799E+02  0.10566000000E+00 0.  1.
        -13    1    4    4    0    0 -0.18774543732E+01  0.86896245709E+01  0.17864679248E+02  0.19954757297E+02  0.10566000000E+00 0.  1.
        -14    1    4    4    0    0 -0.50701929078E+01  0.19755691862E+02  0.43348111732E+02  0.47906711512E+02  0.00000000000E+00 0.  1.
<mgrwt>
<rscale>  0 0.82750392E+02</rscale>
<asrwt>0</asrwt>
<pdfrwt beam="1">  1        1 0.14783816E-02 0.82750392E+02</pdfrwt>
<pdfrwt beam="2">  1       -2 0.27407339E-01 0.82750392E+02</pdfrwt>
<totfact> 0.81560721E+04</totfact>
</mgrwt>
</event>
<event>
 8    1  0.8247621E-014  0.8034066E+02  0.7818608E-02  0.1328087E+00
         -2   -1    0    0    0  501 -0.00000000000E+00  0.00000000000E+00  0.53328479057E+02  0.53328479118E+02  0.25500000000E-02 0.  1.
          1   -1    0    0  501    0  0.00000000000E+00 -0.00000000000E+00 -0.30258793514E+02  0.30258793934E+02  0.50400000000E-02 0. -1.
        -24    2    1    2    0    0  0.35527136788E-14  0.35527136788E-14  0.23069685543E+02  0.83587273052E+02  0.80340661095E+02 0.  0.
         66    2    3    3    0    0 -0.31664379191E+02 -0.21467798589E+02  0.24205575871E+02  0.45314558271E+02  0.20000005643E+01 0.  0.
         13    1    3    3    0    0  0.31664379191E+02  0.21467798589E+02 -0.11358903282E+01  0.38272714781E+02  0.10566000000E+00 0. -1.
         13    1    4    4    0    0 -0.36268688043E+00 -0.16065690714E+00  0.35629814269E+00  0.54356675499E+00  0.10566000000E+00 0.  1.
        -13    1    4    4    0    0 -0.44123089154E+01 -0.27583172376E+01  0.27985352027E+01  0.59092932966E+01  0.10566000000E+00 0. -1.
        -14    1    4    4    0    0 -0.26889383395E+02 -0.18548824444E+02  0.21050742526E+02  0.38861698220E+02  0.00000000000E+00 0.  1.
<mgrwt>
<rscale>  0 0.80340661E+02</rscale>
<asrwt>0</asrwt>
<pdfrwt beam="1">  1        1 0.46551991E-02 0.80340661E+02</pdfrwt>
<pdfrwt beam="2">  1       -2 0.82043814E-02 0.80340661E+02</pdfrwt>
<totfact> 0.11966181E+05</totfact>
</mgrwt>
</event>
<event>
 8    1  0.8247621E-014  0.8041876E+02  0.7818608E-02  0.1327867E+00
         -2   -1    0    0    0  501 -0.00000000000E+00  0.00000000000E+00  0.16034964552E+03  0.16034964554E+03  0.25500000000E-02 0.  1.
          1   -1    0    0  501    0  0.00000000000E+00 -0.00000000000E+00 -0.10082929545E+02  0.10082930804E+02  0.50400000000E-02 0. -1.
        -24    2    1    2    0    0 -0.35527136788E-14  0.00000000000E+00  0.15026671597E+03  0.17043257634E+03  0.80418761178E+02 0.  0.
         66    2    3    3    0    0  0.16537258384E+02  0.24166643453E+02  0.13350056694E+03  0.13668909567E+03  0.19999826809E+01 0.  0.
         13    1    3    3    0    0 -0.16537258384E+02 -0.24166643453E+02  0.16766149036E+02  0.33743480676E+02  0.10566000000E+00 0. -1.
         13    1    4    4    0    0  0.31656472700E+01  0.47712903862E+01  0.24926972724E+02  0.25576388874E+02  0.10566000000E+00 0.  1.
        -13    1    4    4    0    0  0.10177712316E+02  0.15939663974E+02  0.86762266550E+02  0.88799553920E+02  0.10566000000E+00 0. -1.
        -14    1    4    4    0    0  0.31938987982E+01  0.34556890923E+01  0.21811327663E+02  0.22313152871E+02  0.00000000000E+00 0.  1.
<mgrwt>
<rscale>  0 0.80418761E+02</rscale>
<asrwt>0</asrwt>
<pdfrwt beam="1">  1        1 0.15512202E-02 0.80418761E+02</pdfrwt>
<pdfrwt beam="2">  1       -2 0.24669174E-01 0.80418761E+02</pdfrwt>
<totfact> 0.91177406E+04</totfact>
</mgrwt>
</event>
<event>
 8    1  0.8247621E-014  0.7202648E+02  0.7818608E-02  0.1353334E+00
          1   -1    0    0  501    0  0.00000000000E+00  0.00000000000E+00  0.47623570080E+01  0.47623596749E+01  0.50400000000E-02 0. -1.
         -2   -1    0    0    0  501 -0.00000000000E+00 -0.00000000000E+00 -0.27233425482E+03  0.27233425483E+03  0.25500000000E-02 0.  1.
        -24    2    1    2    0    0  0.00000000000E+00  0.88817841970E-15 -0.26757189781E+03  0.27709661450E+03  0.72026476190E+02 0.  0.
         66    2    3    3    0    0 -0.25286563989E+02 -0.56461070007E+01 -0.22996436498E+03  0.23142795422E+03  0.19999977249E+01 0.  0.
         13    1    3    3    0    0  0.25286563989E+02  0.56461070007E+01 -0.37607532829E+02  0.45668660285E+02  0.10566000000E+00 0. -1.
         13    1    4    4    0    0 -0.71074973369E+01 -0.21349618644E+01 -0.71103435621E+02  0.71489749627E+02  0.10566000000E+00 0. -1.
        -13    1    4    4    0    0 -0.87026718032E+01 -0.14735571963E+01 -0.78575662186E+02  0.79069929299E+02  0.10566000000E+00 0.  1.
         14    1    4    4    0    0 -0.94763948493E+01 -0.20375879400E+01 -0.80285267170E+02  0.80868275291E+02  0.00000000000E+00 0. -1.
<mgrwt>
<rscale>  0 0.72026476E+02</rscale>
<asrwt>0</asrwt>
<pdfrwt beam="1">  1        1 0.73267073E-03 0.72026476E+02</pdfrwt>
<pdfrwt beam="2">  1       -2 0.41897566E-01 0.72026476E+02</pdfrwt>
<totfact> 0.96851316E+04</totfact>
</mgrwt>
</event>
<event>
 8    1  0.8247621E-014  0.8193380E+02  0.7818608E-02  0.1323651E+00
          1   -1    0    0  501    0  0.00000000000E+00  0.00000000000E+00  0.61465842228E+02  0.61465842435E+02  0.50400000000E-02 0. -1.
         -2   -1    0    0    0  501 -0.00000000000E+00 -0.00000000000E+00 -0.27304384903E+02  0.27304385022E+02  0.25500000000E-02 0.  1.
        -24    2    1    2    0    0  0.00000000000E+00  0.71054273576E-14  0.34161457326E+02  0.88770227457E+02  0.81933803257E+02 0.  0.
         66    2    3    3    0    0 -0.65770639919E+01  0.36144715083E+02 -0.24886208796E+01  0.36876705745E+02  0.19999983870E+01 0.  0.
         13    1    3    3    0    0  0.65770639919E+01 -0.36144715083E+02  0.36650078205E+02  0.51893521712E+02  0.10566000000E+00 0. -1.
         13    1    4    4    0    0 -0.56782646281E+00  0.56847140024E+01 -0.91665564969E+00  0.57870391217E+01  0.10566000000E+00 0. -1.
        -13    1    4    4    0    0 -0.20152735549E+01  0.94906915593E+01 -0.59127964212E+00  0.97208708162E+01  0.10566000000E+00 0.  1.
         14    1    4    4    0    0 -0.39939639742E+01  0.20969309521E+02 -0.98068558775E+00  0.21368795807E+02  0.00000000000E+00 0. -1.
<mgrwt>
<rscale>  0 0.81933803E+02</rscale>
<asrwt>0</asrwt>
<pdfrwt beam="1">  1        1 0.94562833E-02 0.81933803E+02</pdfrwt>
<pdfrwt beam="2">  1       -2 0.42006747E-02 0.81933803E+02</pdfrwt>
<totfact> 0.12723186E+05</totfact>
</mgrwt>
</event>
<event>
 8    1  0.8247621E-014  0.7996164E+02  0.7818608E-02  0.1329160E+00
          1   -1    0    0  501    0  0.00000000000E+00  0.00000000000E+00  0.22975367972E+02  0.22975368525E+02  0.50400000000E-02 0. -1.
         -2   -1    0    0    0  501 -0.00000000000E+00 -0.00000000000E+00 -0.69573035542E+02  0.69573035588E+02  0.25500000000E-02 0.  1.
        -24    2    1    2    0    0  0.00000000000E+00  0.17763568394E-14 -0.46597667570E+02  0.92548404113E+02  0.79961643811E+02 0.  0.
         66    2    3    3    0    0  0.12158932995E+02 -0.12857273208E+02 -0.64775665311E+02  0.67179133492E+02  0.20000085587E+01 0.  0.
         13    1    3    3    0    0 -0.12158932995E+02  0.12857273208E+02  0.18177997742E+02  0.25369270621E+02  0.10566000000E+00 0. -1.
         13    1    4    4    0    0  0.34387465930E+01 -0.26909849145E+01 -0.16221133524E+02  0.16798890284E+02  0.10566000000E+00 0. -1.
        -13    1    4    4    0    0  0.26841194069E+01 -0.38329413452E+01 -0.15998097373E+02  0.16668719805E+02  0.10566000000E+00 0.  1.
        -14    1    4    4    0    0  0.60360669953E+01 -0.63333469484E+01 -0.32556434414E+02  0.33711523403E+02  0.00000000000E+00 0.  1.
<mgrwt>
<rscale>  0 0.79961644E+02</rscale>
<asrwt>0</asrwt>
<pdfrwt beam="1">  1        1 0.35346721E-02 0.79961644E+02</pdfrwt>
<pdfrwt beam="2">  1       -2 0.10703544E-01 0.79961644E+02</pdfrwt>
<totfact> 0.11519257E+05</totfact>
</mgrwt>
</event>
<event>
 8    1  0.8247621E-014  0.7904011E+02  0.7818608E-02  0.1331798E+00
          1   -1    0    0  501    0  0.00000000000E+00  0.00000000000E+00  0.29772640297E+02  0.29772640724E+02  0.50400000000E-02 0. -1.
         -2   -1    0    0    0  501 -0.00000000000E+00 -0.00000000000E+00 -0.52458718237E+02  0.52458718299E+02  0.25500000000E-02 0.  1.
        -24    2    1    2    0    0 -0.35527136788E-14 -0.35527136788E-14 -0.22686077940E+02  0.82231359023E+02  0.79040105482E+02 0.  0.
         66    2    3    3    0    0  0.28710440898E+02  0.21700321889E+02  0.55741705051E+01  0.36472794875E+02  0.20000006258E+01 0.  0.
         13    1    3    3    0    0 -0.28710440898E+02 -0.21700321889E+02 -0.28260248445E+02  0.45758564148E+02  0.10566000000E+00 0. -1.
         13    1    4    4    0    0  0.28018489867E+01  0.18407020656E+01  0.92355697121E+00  0.34788882353E+01  0.10566000000E+00 0. -1.
        -13    1    4    4    0    0  0.88818388391E+01  0.74726595902E+01  0.15300901984E+01  0.11708118660E+02  0.10566000000E+00 0.  1.
        -14    1    4    4    0    0  0.17026753073E+02  0.12386960234E+02  0.31205233355E+01  0.21285787980E+02  0.00000000000E+00 0.  1.
<mgrwt>
<rscale>  0 0.79040105E+02</rscale>
<asrwt>0</asrwt>
<pdfrwt beam="1">  1        1 0.45804062E-02 0.79040105E+02</pdfrwt>
<pdfrwt beam="2">  1       -2 0.80705721E-02 0.79040105E+02</pdfrwt>
<totfact> 0.12504594E+05</totfact>
</mgrwt>
</event>
<event>
 8    1  0.8247621E-014  0.7737364E+02  0.7818608E-02  0.1336674E+00
          1   -1    0    0  501    0  0.00000000000E+00  0.00000000000E+00  0.20661191727E+02  0.20661192342E+02  0.50400000000E-02 0. -1.
         -2   -1    0    0    0  501 -0.00000000000E+00 -0.00000000000E+00 -0.72438711024E+02  0.72438711069E+02  0.25500000000E-02 0.  1.
        -24    2    1    2    0    0  0.00000000000E+00  0.35527136788E-14 -0.51777519296E+02  0.93099903411E+02  0.77373642222E+02 0.  0.
         66    2    3    3    0    0  0.19249566975E+02  0.27831021256E+02 -0.48402412939E+02  0.59092344254E+02  0.19999995478E+01 0.  0.
         13    1    3    3    0    0 -0.19249566975E+02 -0.27831021256E+02 -0.33751063574E+01  0.34007559157E+02  0.10566000000E+00 0. -1.
         13    1    4    4    0    0  0.41027332192E+01  0.65348410799E+01 -0.11727294521E+02  0.14038417597E+02  0.10566000000E+00 0. -1.
        -13    1    4    4    0    0  0.59353671347E+01  0.86699650594E+01 -0.15841487205E+02  0.19009491263E+02  0.10566000000E+00 0.  1.
         14    1    4    4    0    0  0.92114666212E+01  0.12626215117E+02 -0.20833631212E+02  0.26044435394E+02  0.00000000000E+00 0. -1.
<mgrwt>
<rscale>  0 0.77373642E+02</rscale>
<asrwt>0</asrwt>
<pdfrwt beam="1">  1        1 0.31786450E-02 0.77373642E+02</pdfrwt>
<pdfrwt beam="2">  1       -2 0.11144417E-01 0.77373642E+02</pdfrwt>
<totfact> 0.12421922E+05</totfact>
</mgrwt>
</event>
<event>
 8    1  0.8247621E-014  0.7649997E+02  0.7818608E-02  0.1339288E+00
         -2   -1    0    0    0  501 -0.00000000000E+00  0.00000000000E+00  0.88783294541E+02  0.88783294578E+02  0.25500000000E-02 0.  1.
          1   -1    0    0  501    0  0.00000000000E+00 -0.00000000000E+00 -0.16479013870E+02  0.16479014641E+02  0.50400000000E-02 0. -1.
        -24    2    1    2    0    0  0.00000000000E+00  0.00000000000E+00  0.72304280671E+02  0.10526230922E+03  0.76499965613E+02 0.  0.
         66    2    3    3    0    0  0.63681461562E+01  0.19133502883E+02  0.80857159181E+02  0.83357809388E+02  0.19999942887E+01 0.  0.
         13    1    3    3    0    0 -0.63681461562E+01 -0.19133502883E+02 -0.85528785092E+01  0.21904499831E+02  0.10566000000E+00 0. -1.
         13    1    4    4    0    0  0.56427004121E+00  0.18364255196E+01  0.57314967241E+01  0.60458314649E+01  0.10566000000E+00 0. -1.
        -13    1    4    4    0    0  0.24340068872E+00  0.10729493884E+01  0.45921004938E+01  0.47232420292E+01  0.10566000000E+00 0.  1.
         14    1    4    4    0    0  0.55604754263E+01  0.16224127975E+02  0.70533561963E+02  0.72588735894E+02  0.00000000000E+00 0. -1.
<mgrwt>
<rscale>  0 0.76499966E+02</rscale>
<asrwt>0</asrwt>
<pdfrwt beam="1">  1        1 0.25352329E-02 0.76499966E+02</pdfrwt>
<pdfrwt beam="2">  1       -2 0.13658969E-01 0.76499966E+02</pdfrwt>
<totfact> 0.12239603E+05</totfact>
</mgrwt>
</event>
<event>
 8    1  0.8247621E-014  0.8038004E+02  0.7818608E-02  0.1327976E+00
          1   -1    0    0  501    0  0.00000000000E+00  0.00000000000E+00  0.33332947291E+02  0.33332947672E+02  0.50400000000E-02 0. -1.
         -2   -1    0    0    0  501 -0.00000000000E+00 -0.00000000000E+00 -0.48457691154E+02  0.48457691221E+02  0.25500000000E-02 0.  1.
        -24    2    1    2    0    0  0.00000000000E+00  0.00000000000E+00 -0.15124743863E+02  0.81790638894E+02  0.80380039398E+02 0.  0.
         66    2    3    3    0    0  0.82129215301E+01  0.34603762103E+02 -0.26558997004E+02  0.44432564255E+02  0.20000031533E+01 0.  0.
         13    1    3    3    0    0 -0.82129215301E+01 -0.34603762103E+02  0.11434253142E+02  0.37358074639E+02  0.10566000000E+00 0. -1.
         13    1    4    4    0    0  0.46125200453E+01  0.18144081078E+02 -0.14416434035E+02  0.23628960063E+02  0.10566000000E+00 0. -1.
        -13    1    4    4    0    0  0.34155936602E+01  0.15996595878E+02 -0.11993143524E+02  0.20283096789E+02  0.10566000000E+00 0.  1.
         14    1    4    4    0    0  0.18480782454E+00  0.46308514719E+00 -0.14941944555E+00  0.52050740270E+00  0.00000000000E+00 0. -1.
<mgrwt>
<rscale>  0 0.80380039E+02</rscale>
<asrwt>0</asrwt>
<pdfrwt beam="1">  1        1 0.51281458E-02 0.80380039E+02</pdfrwt>
<pdfrwt beam="2">  1       -2 0.74550294E-02 0.80380039E+02</pdfrwt>
<totfact> 0.12152799E+05</totfact>
</mgrwt>
</event>
<event>
 8    1  0.8247621E-014  0.8099851E+02  0.7818608E-02  0.1326241E+00
         -2   -1    0    0    0  501 -0.00000000000E+00  0.00000000000E+00  0.77635234153E+01  0.77635238341E+01  0.25500000000E-02 0.  1.
          1   -1    0    0  501    0  0.00000000000E+00 -0.00000000000E+00 -0.21126873227E+03  0.21126873233E+03  0.50400000000E-02 0. -1.
        -24    2    1    2    0    0  0.17763568394E-14  0.00000000000E+00 -0.20350520885E+03  0.21903225616E+03  0.80998513624E+02 0.  0.
         66    2    3    3    0    0 -0.82073207637E+01  0.32078817127E+02 -0.38872519126E+02  0.51102674750E+02  0.20000002591E+01 0.  0.
         13    1    3    3    0    0  0.82073207637E+01 -0.32078817127E+02 -0.16463268972E+03  0.16792958141E+03  0.10566000000E+00 0. -1.
         13    1    4    4    0    0 -0.10468344362E+01  0.26911158823E+01 -0.39530326703E+01  0.48964883699E+01  0.10566000000E+00 0.  1.
        -13    1    4    4    0    0 -0.30333891816E+01  0.13604094893E+02 -0.15603909004E+02  0.20922858028E+02  0.10566000000E+00 0.  1.
         14    1    4    4    0    0 -0.41270971459E+01  0.15783606352E+02 -0.19315577451E+02  0.25283328352E+02  0.00000000000E+00 0. -1.
<mgrwt>
<rscale>  0 0.80998514E+02</rscale>
<asrwt>0</asrwt>
<pdfrwt beam="1">  1        1 0.32502878E-01 0.80998514E+02</pdfrwt>
<pdfrwt beam="2">  1       -2 0.11943884E-02 0.80998514E+02</pdfrwt>
<totfact> 0.16306852E+05</totfact>
</mgrwt>
</event>
<event>
 8    1  0.8247621E-014  0.7993739E+02  0.7818608E-02  0.1329229E+00
          1   -1    0    0  501    0  0.00000000000E+00  0.00000000000E+00  0.20546218503E+02  0.20546219122E+02  0.50400000000E-02 0. -1.
         -2   -1    0    0    0  501 -0.00000000000E+00 -0.00000000000E+00 -0.77751360942E+02  0.77751360984E+02  0.25500000000E-02 0.  1.
        -24    2    1    2    0    0  0.00000000000E+00  0.00000000000E+00 -0.57205142439E+02  0.98297580106E+02  0.79937387580E+02 0.  0.
         66    2    3    3    0    0  0.24379697820E+02 -0.47346048046E+01 -0.67090131428E+02  0.71567254261E+02  0.19999997557E+01 0.  0.
         13    1    3    3    0    0 -0.24379697820E+02  0.47346048046E+01  0.98849889886E+01  0.26730325845E+02  0.10566000000E+00 0. -1.
         13    1    4    4    0    0  0.10189223085E+01 -0.14484391058E+00 -0.37032035740E+01  0.38450049642E+01  0.10566000000E+00 0.  1.
        -13    1    4    4    0    0  0.16643790043E+02 -0.32312115277E+01 -0.43483627466E+02  0.46672191898E+02  0.10566000000E+00 0.  1.
        -14    1    4    4    0    0  0.67169854688E+01 -0.13585493663E+01 -0.19903300388E+02  0.21050057399E+02  0.00000000000E+00 0.  1.
<mgrwt>
<rscale>  0 0.79937388E+02</rscale>
<asrwt>0</asrwt>
<pdfrwt beam="1">  1        1 0.31609568E-02 0.79937388E+02</pdfrwt>
<pdfrwt beam="2">  1       -2 0.11961748E-01 0.79937388E+02</pdfrwt>
<totfact> 0.11266944E+05</totfact>
</mgrwt>
</event>
<event>
 8    1  0.8247621E-014  0.8123975E+02  0.7818608E-02  0.1325570E+00
          1   -1    0    0  501    0  0.00000000000E+00  0.00000000000E+00  0.87950950615E+01  0.87950965056E+01  0.50400000000E-02 0. -1.
         -2   -1    0    0    0  501 -0.00000000000E+00 -0.00000000000E+00 -0.18760164034E+03  0.18760164036E+03  0.25500000000E-02 0.  1.
        -24    2    1    2    0    0  0.44408920985E-15 -0.35527136788E-14 -0.17880654528E+03  0.19639673687E+03  0.81239753914E+02 0.  0.
         66    2    3    3    0    0  0.26482669685E+01 -0.31215867401E+02 -0.15187017199E+03  0.15508060121E+03  0.20000088905E+01 0.  0.
         13    1    3    3    0    0 -0.26482669685E+01  0.31215867401E+02 -0.26936373293E+02  0.41316135658E+02  0.10566000000E+00 0. -1.
         13    1    4    4    0    0  0.20861033741E+01 -0.15431097252E+02 -0.73049009761E+02  0.74690291074E+02  0.10566000000E+00 0. -1.
        -13    1    4    4    0    0  0.40603908203E+00 -0.67209472337E+01 -0.32443278826E+02  0.33134777870E+02  0.10566000000E+00 0.  1.
         14    1    4    4    0    0  0.15612451233E+00 -0.90638229155E+01 -0.46377883401E+02  0.47255532263E+02  0.00000000000E+00 0. -1.
<mgrwt>
<rscale>  0 0.81239754E+02</rscale>
<asrwt>0</asrwt>
<pdfrwt beam="1">  1        1 0.13530918E-02 0.81239754E+02</pdfrwt>
<pdfrwt beam="2">  1       -2 0.28861788E-01 0.81239754E+02</pdfrwt>
<totfact> 0.83867969E+04</totfact>
</mgrwt>
</event>
<event>
 8    1  0.8247621E-014  0.8080290E+02  0.7818608E-02  0.1326788E+00
          1   -1    0    0  501    0  0.00000000000E+00  0.00000000000E+00  0.12124885913E+03  0.12124885924E+03  0.50400000000E-02 0. -1.
         -2   -1    0    0    0  501 -0.00000000000E+00 -0.00000000000E+00 -0.13462207818E+02  0.13462208060E+02  0.25500000000E-02 0.  1.
        -24    2    1    2    0    0  0.00000000000E+00  0.00000000000E+00  0.10778665132E+03  0.13471106730E+03  0.80802904966E+02 0.  0.
         66    2    3    3    0    0  0.27780670039E+02 -0.98597272831E+00  0.51057608151E+01  0.28333841315E+02  0.20000000246E+01 0.  0.
         13    1    3    3    0    0 -0.27780670039E+02  0.98597272831E+00  0.10268089050E+03  0.10637722598E+03  0.10566000000E+00 0. -1.
         13    1    4    4    0    0  0.10261307678E+01  0.27084162671E+00  0.16022835619E+00  0.10784881553E+01  0.10566000000E+00 0. -1.
        -13    1    4    4    0    0  0.23456248680E+02 -0.89740990406E+00  0.45940174940E+01  0.23918969615E+02  0.10566000000E+00 0.  1.
        -14    1    4    4    0    0  0.32982905919E+01 -0.35940445096E+00  0.35151496490E+00  0.33363835449E+01  0.00000000000E+00 0.  1.
<mgrwt>
<rscale>  0 0.80802905E+02</rscale>
<asrwt>0</asrwt>
<pdfrwt beam="1">  1        1 0.18653671E-01 0.80802905E+02</pdfrwt>
<pdfrwt beam="2">  1       -2 0.20711089E-02 0.80802905E+02</pdfrwt>
<totfact> 0.14791425E+05</totfact>
</mgrwt>
</event>
<event>
 8    1  0.8247621E-014  0.8120492E+02  0.7818608E-02  0.1325666E+00
          1   -1    0    0  501    0  0.00000000000E+00  0.00000000000E+00  0.42266387392E+03  0.42266387395E+03  0.50400000000E-02 0. -1.
         -2   -1    0    0    0  501 -0.00000000000E+00 -0.00000000000E+00 -0.39004034686E+01  0.39004043022E+01  0.25500000000E-02 0.  1.
        -24    2    1    2    0    0  0.00000000000E+00  0.00000000000E+00  0.41876347045E+03  0.42656427825E+03  0.81204921626E+02 0.  0.
         66    2    3    3    0    0  0.38958992487E+02  0.22478736681E+01  0.26793153019E+03  0.27076587839E+03  0.20000000943E+01 0.  0.
         13    1    3    3    0    0 -0.38958992487E+02 -0.22478736681E+01  0.15083194026E+03  0.15579839986E+03  0.10566000000E+00 0. -1.
         13    1    4    4    0    0  0.17749998831E+02  0.15033007905E+01  0.12479494590E+03  0.12605995422E+03  0.10566000000E+00 0. -1.
        -13    1    4    4    0    0  0.10110671200E+02  0.67979114690E-01  0.71569285439E+02  0.72280039261E+02  0.10566000000E+00 0.  1.
         14    1    4    4    0    0  0.11098322455E+02  0.67659376293E+00  0.71567298849E+02  0.72425884910E+02  0.00000000000E+00 0. -1.
<mgrwt>
<rscale>  0 0.81204922E+02</rscale>
<asrwt>0</asrwt>
<pdfrwt beam="1">  1        1 0.65025236E-01 0.81204922E+02</pdfrwt>
<pdfrwt beam="2">  1       -2 0.60006191E-03 0.81204922E+02</pdfrwt>
<totfact> 0.18422990E+05</totfact>
</mgrwt>
</event>
<event>
 8    1  0.8247621E-014  0.8053699E+02  0.7818608E-02  0.1327534E+00
         -2   -1    0    0    0  501 -0.00000000000E+00  0.00000000000E+00  0.53158554139E+02  0.53158554200E+02  0.25500000000E-02 0.  1.
          1   -1    0    0  501    0  0.00000000000E+00 -0.00000000000E+00 -0.30504058049E+02  0.30504058465E+02  0.50400000000E-02 0. -1.
        -24    2    1    2    0    0  0.35527136788E-14 -0.35527136788E-14  0.22654496090E+02  0.83662612665E+02  0.80536988800E+02 0.  0.
         66    2    3    3    0    0  0.24948593623E+02 -0.27369735988E+02  0.27693799469E+02  0.46286945254E+02  0.20000000228E+01 0.  0.
         13    1    3    3    0    0 -0.24948593623E+02  0.27369735988E+02 -0.50393033789E+01  0.37375667411E+02  0.10566000000E+00 0. -1.
         13    1    4    4    0    0  0.87124119565E+01 -0.10777414193E+02  0.10580225665E+02  0.17435914601E+02  0.10566000000E+00 0. -1.
        -13    1    4    4    0    0  0.48384390590E+01 -0.51836665901E+01  0.56006882842E+01  0.90365792830E+01  0.10566000000E+00 0.  1.
         14    1    4    4    0    0  0.11397742608E+02 -0.11408655205E+02  0.11512885519E+02  0.19814451371E+02  0.00000000000E+00 0. -1.
<mgrwt>
<rscale>  0 0.80536989E+02</rscale>
<asrwt>0</asrwt>
<pdfrwt beam="1">  1        1 0.46929321E-02 0.80536989E+02</pdfrwt>
<pdfrwt beam="2">  1       -2 0.81782390E-02 0.80536989E+02</pdfrwt>
<totfact> 0.11899547E+05</totfact>
</mgrwt>
</event>
<event>
 8    1  0.8247621E-014  0.7975574E+02  0.7818608E-02  0.1329746E+00
         -2   -1    0    0    0  501 -0.00000000000E+00  0.00000000000E+00  0.10687904469E+03  0.10687904472E+03  0.25500000000E-02 0.  1.
          1   -1    0    0  501    0  0.00000000000E+00 -0.00000000000E+00 -0.14878919061E+02  0.14878919914E+02  0.50400000000E-02 0. -1.
        -24    2    1    2    0    0 -0.88817841970E-15  0.00000000000E+00  0.92000125624E+02  0.12175796463E+03  0.79755744846E+02 0.  0.
         66    2    3    3    0    0 -0.73312032554E+01  0.13469673467E+02  0.10218464269E+03  0.10334834225E+03  0.19999998206E+01 0.  0.
         13    1    3    3    0    0  0.73312032554E+01 -0.13469673467E+02 -0.10184517063E+02  0.18409622384E+02  0.10566000000E+00 0. -1.
         13    1    4    4    0    0 -0.18418929072E+01  0.37289985504E+01  0.28626785184E+02  0.28927530031E+02  0.10566000000E+00 0. -1.
        -13    1    4    4    0    0 -0.16111331472E+01  0.25677048138E+01  0.15599204071E+02  0.15891355817E+02  0.10566000000E+00 0.  1.
        -14    1    4    4    0    0 -0.38781772010E+01  0.71729701030E+01  0.57958653432E+02  0.58529456397E+02  0.00000000000E+00 0.  1.
<mgrwt>
<rscale>  0 0.79755745E+02</rscale>
<asrwt>0</asrwt>
<pdfrwt beam="1">  1        1 0.22890645E-02 0.79755745E+02</pdfrwt>
<pdfrwt beam="2">  1       -2 0.16442930E-01 0.79755745E+02</pdfrwt>
<totfact> 0.10517228E+05</totfact>
</mgrwt>
</event>
<event>
 8    1  0.8247621E-014  0.8163199E+02  0.7818608E-02  0.1324483E+00
         -2   -1    0    0    0  501 -0.00000000000E+00  0.00000000000E+00  0.16056629739E+03  0.16056629741E+03  0.25500000000E-02 0.  1.
          1   -1    0    0  501    0  0.00000000000E+00 -0.00000000000E+00 -0.10375436645E+02  0.10375437869E+02  0.50400000000E-02 0. -1.
        -24    2    1    2    0    0  0.00000000000E+00  0.00000000000E+00  0.15019086075E+03  0.17094173528E+03  0.81631992558E+02 0.  0.
         66    2    3    3    0    0 -0.20221633907E+02  0.28511065896E+02  0.11917256004E+03  0.12420907541E+03  0.19999974302E+01 0.  0.
         13    1    3    3    0    0  0.20221633907E+02 -0.28511065896E+02  0.31018300703E+02  0.46732659874E+02  0.10566000000E+00 0. -1.
         13    1    4    4    0    0 -0.13914483793E+02  0.19830924672E+02  0.83542608286E+02  0.86984234179E+02  0.10566000000E+00 0. -1.
        -13    1    4    4    0    0 -0.46781269483E+01  0.59042055858E+01  0.26137840569E+02  0.27201882085E+02  0.10566000000E+00 0.  1.
         14    1    4    4    0    0 -0.16290231655E+01  0.27759356380E+01  0.94921111876E+01  0.10022959141E+02  0.00000000000E+00 0. -1.
<mgrwt>
<rscale>  0 0.81631993E+02</rscale>
<asrwt>0</asrwt>
<pdfrwt beam="1">  1        1 0.15962211E-02 0.81631993E+02</pdfrwt>
<pdfrwt beam="2">  1       -2 0.24702508E-01 0.81631993E+02</pdfrwt>
<totfact> 0.87685075E+04</totfact>
</mgrwt>
</event>
<event>
 8    1  0.8247621E-014  0.8441585E+02  0.7818608E-02  0.1316967E+00
         -2   -1    0    0    0  501 -0.00000000000E+00  0.00000000000E+00  0.14924949841E+02  0.14924950059E+02  0.25500000000E-02 0.  1.
          1   -1    0    0  501    0  0.00000000000E+00 -0.00000000000E+00 -0.11936449026E+03  0.11936449037E+03  0.50400000000E-02 0. -1.
        -24    2    1    2    0    0  0.00000000000E+00  0.44408920985E-15 -0.10443954042E+03  0.13428944043E+03  0.84415852817E+02 0.  0.
         66    2    3    3    0    0 -0.40269477546E+02  0.35428564184E+01 -0.71426085848E+02  0.82096701465E+02  0.19999996391E+01 0.  0.
         13    1    3    3    0    0  0.40269477546E+02 -0.35428564184E+01 -0.33013454572E+02  0.52192738961E+02  0.10566000000E+00 0. -1.
         13    1    4    4    0    0 -0.18297033620E+02  0.22219575703E+01 -0.31521597239E+02  0.36514939289E+02  0.10566000000E+00 0. -1.
        -13    1    4    4    0    0 -0.19433445057E+02  0.14506407525E+01 -0.35262778448E+02  0.40289426073E+02  0.10566000000E+00 0.  1.
        -14    1    4    4    0    0 -0.25389988689E+01 -0.12974190438E+00 -0.46417101602E+01  0.52923361032E+01  0.00000000000E+00 0.  1.
<mgrwt>
<rscale>  0 0.84415853E+02</rscale>
<asrwt>0</asrwt>
<pdfrwt beam="1">  1        1 0.18363767E-01 0.84415853E+02</pdfrwt>
<pdfrwt beam="2">  1       -2 0.22961462E-02 0.84415853E+02</pdfrwt>
<totfact> 0.13107970E+05</totfact>
</mgrwt>
</event>
<event>
 8    1  0.8247621E-014  0.7849066E+02  0.7818608E-02  0.1333390E+00
          1   -1    0    0  501    0  0.00000000000E+00  0.00000000000E+00  0.41156796502E+01  0.41156827362E+01  0.50400000000E-02 0. -1.
         -2   -1    0    0    0  501 -0.00000000000E+00 -0.00000000000E+00 -0.37422628925E+03  0.37422628926E+03  0.25500000000E-02 0.  1.
        -24    2    1    2    0    0  0.17763568394E-14 -0.17763568394E-14 -0.37011060960E+03  0.37834197199E+03  0.78490664633E+02 0.  0.
         66    2    3    3    0    0 -0.10838878467E+02  0.11879980055E+02 -0.35759984916E+03  0.35796685228E+03  0.19999999282E+01 0.  0.
         13    1    3    3    0    0  0.10838878467E+02 -0.11879980055E+02 -0.12510760438E+02  0.20375119713E+02  0.10566000000E+00 0. -1.
         13    1    4    4    0    0 -0.11645058615E+01  0.87624534183E+00 -0.39212150813E+02  0.39239365632E+02  0.10566000000E+00 0. -1.
        -13    1    4    4    0    0 -0.96370049023E+01  0.10829026952E+02 -0.31106517574E+03  0.31140278484E+03  0.10566000000E+00 0.  1.
        -14    1    4    4    0    0 -0.37367703276E-01  0.17470776139E+00 -0.73225226109E+01  0.73247018052E+01  0.00000000000E+00 0.  1.
<mgrwt>
<rscale>  0 0.78490665E+02</rscale>
<asrwt>0</asrwt>
<pdfrwt beam="1">  1        1 0.63318202E-03 0.78490665E+02</pdfrwt>
<pdfrwt beam="2">  1       -2 0.57573249E-01 0.78490665E+02</pdfrwt>
<totfact> 0.64810564E+04</totfact>
</mgrwt>
</event>
<event>
 8    1  0.8247621E-014  0.7926502E+02  0.7818608E-02  0.1331150E+00
          1   -1    0    0  501    0  0.00000000000E+00  0.00000000000E+00  0.20819765060E+03  0.20819765067E+03  0.50400000000E-02 0. -1.
         -2   -1    0    0    0  501 -0.00000000000E+00 -0.00000000000E+00 -0.75444456976E+01  0.75444461286E+01  0.25500000000E-02 0.  1.
        -24    2    1    2    0    0  0.00000000000E+00  0.17763568394E-14  0.20065320491E+03  0.21574209679E+03  0.79265021855E+02 0.  0.
         66    2    3    3    0    0 -0.34971152197E+02  0.15408150813E+02  0.72060433567E+02  0.81591045355E+02  0.19999996923E+01 0.  0.
         13    1    3    3    0    0  0.34971152197E+02 -0.15408150813E+02  0.12859277134E+03  0.13415105144E+03  0.10566000000E+00 0. -1.
         13    1    4    4    0    0 -0.53003171481E+00  0.16024331920E+00  0.75565972144E+00  0.94276040978E+00  0.10566000000E+00 0. -1.
        -13    1    4    4    0    0 -0.25928446312E+02  0.11672316704E+02  0.54689696358E+02  0.61640095370E+02  0.10566000000E+00 0.  1.
        -14    1    4    4    0    0 -0.85126741694E+01  0.35755907893E+01  0.16615077488E+02  0.19008189575E+02  0.00000000000E+00 0.  1.
<mgrwt>
<rscale>  0 0.79265022E+02</rscale>
<asrwt>0</asrwt>
<pdfrwt beam="1">  1        1 0.32030405E-01 0.79265022E+02</pdfrwt>
<pdfrwt beam="2">  1       -2 0.11606841E-02 0.79265022E+02</pdfrwt>
<totfact> 0.17220968E+05</totfact>
</mgrwt>
</event>
<event>
 8    1  0.8247621E-014  0.7063191E+02  0.7818608E-02  0.1357957E+00
          1   -1    0    0  501    0  0.00000000000E+00  0.00000000000E+00  0.26881824337E+03  0.26881824342E+03  0.50400000000E-02 0. -1.
         -2   -1    0    0    0  501 -0.00000000000E+00 -0.00000000000E+00 -0.46396273155E+01  0.46396280163E+01  0.25500000000E-02 0.  1.
        -24    2    1    2    0    0  0.35527136788E-14  0.35527136788E-14  0.26417861605E+03  0.27345787143E+03  0.70631906873E+02 0.  0.
         66    2    3    3    0    0  0.20369653182E+02 -0.28723991420E+02  0.14104159320E+03  0.14538473601E+03  0.20000001462E+01 0.  0.
         13    1    3    3    0    0 -0.20369653182E+02  0.28723991420E+02  0.12313702286E+03  0.12807313542E+03  0.10566000000E+00 0. -1.
         13    1    4    4    0    0  0.34953610950E+01 -0.60008145178E+01  0.29532666241E+02  0.30338372787E+02  0.10566000000E+00 0. -1.
        -13    1    4    4    0    0  0.86848533718E+01 -0.12130113653E+02  0.58315486749E+02  0.60193633335E+02  0.10566000000E+00 0.  1.
         14    1    4    4    0    0  0.81894387148E+01 -0.10593063249E+02  0.53193440206E+02  0.54852729890E+02  0.00000000000E+00 0. -1.
<mgrwt>
<rscale>  0 0.70631907E+02</rscale>
<asrwt>0</asrwt>
<pdfrwt beam="1">  1        1 0.41356659E-01 0.70631907E+02</pdfrwt>
<pdfrwt beam="2">  1       -2 0.71378877E-03 0.70631907E+02</pdfrwt>
<totfact> 0.24483651E+05</totfact>
</mgrwt>
</event>
<event>
 8    1  0.8247621E-014  0.7985434E+02  0.7818608E-02  0.1329465E+00
         -2   -1    0    0    0  501 -0.00000000000E+00  0.00000000000E+00  0.30884931380E+02  0.30884931485E+02  0.25500000000E-02 0.  1.
          1   -1    0    0  501    0  0.00000000000E+00 -0.00000000000E+00 -0.51616725987E+02  0.51616726233E+02  0.50400000000E-02 0. -1.
        -24    2    1    2    0    0 -0.29490299092E-16  0.00000000000E+00 -0.20731794607E+02  0.82501657719E+02  0.79854343769E+02 0.  0.
         66    2    3    3    0    0  0.11057264888E-01 -0.16768187490E+02  0.27035730107E+02  0.31876369420E+02  0.19999977655E+01 0.  0.
         13    1    3    3    0    0 -0.11057264888E-01  0.16768187490E+02 -0.47767524714E+02  0.50625288298E+02  0.10566000000E+00 0. -1.
         13    1    4    4    0    0 -0.62259281624E+00 -0.67854440816E+01  0.12221762703E+02  0.13993302712E+02  0.10566000000E+00 0.  1.
        -13    1    4    4    0    0  0.62430676592E+00 -0.64841076308E+01  0.98745425609E+01  0.11830095753E+02  0.10566000000E+00 0. -1.
        -14    1    4    4    0    0  0.93433151998E-02 -0.34986357778E+01  0.49394248428E+01  0.60529709549E+01  0.00000000000E+00 0.  1.
<mgrwt>
<rscale>  0 0.79854344E+02</rscale>
<asrwt>0</asrwt>
<pdfrwt beam="1">  1        1 0.79410348E-02 0.79854344E+02</pdfrwt>
<pdfrwt beam="2">  1       -2 0.47515279E-02 0.79854344E+02</pdfrwt>
<totfact> 0.13290131E+05</totfact>
</mgrwt>
</event>
<event>
 8    1  0.8247621E-014  0.7861588E+02  0.7818608E-02  0.1333026E+00
          1   -1    0    0  501    0  0.00000000000E+00  0.00000000000E+00  0.46779260827E+02  0.46779261099E+02  0.50400000000E-02 0. -1.
         -2   -1    0    0    0  501 -0.00000000000E+00 -0.00000000000E+00 -0.33029897061E+02  0.33029897159E+02  0.25500000000E-02 0.  1.
        -24    2    1    2    0    0  0.55511151231E-16  0.00000000000E+00  0.13749363766E+02  0.79809158258E+02  0.78615880952E+02 0.  0.
         66    2    3    3    0    0  0.42102758806E+00  0.26210470167E+02 -0.22821460963E+02  0.34813576297E+02  0.20000008690E+01 0.  0.
         13    1    3    3    0    0 -0.42102758806E+00 -0.26210470167E+02  0.36570824730E+02  0.44995581961E+02  0.10566000000E+00 0. -1.
         13    1    4    4    0    0  0.19201719216E+00  0.89538617363E+00 -0.63226596959E+00  0.11178154114E+01  0.10566000000E+00 0. -1.
        -13    1    4    4    0    0  0.16774114400E+00  0.19048079212E+02 -0.15841472266E+02  0.24775408500E+02  0.10566000000E+00 0.  1.
        -14    1    4    4    0    0  0.61269251900E-01  0.62670047809E+01 -0.63477227281E+01  0.89203523854E+01  0.00000000000E+00 0.  1.
<mgrwt>
<rscale>  0 0.78615881E+02</rscale>
<asrwt>0</asrwt>
<pdfrwt beam="1">  1        1 0.71968094E-02 0.78615881E+02</pdfrwt>
<pdfrwt beam="2">  1       -2 0.50815227E-02 0.78615881E+02</pdfrwt>
<totfact> 0.13668702E+05</totfact>
</mgrwt>
</event>
<event>
 8    1  0.8247621E-014  0.8000850E+02  0.7818608E-02  0.1329027E+00
         -2   -1    0    0    0  501 -0.00000000000E+00  0.00000000000E+00  0.64390955992E+01  0.64390961041E+01  0.25500000000E-02 0.  1.
          1   -1    0    0  501    0  0.00000000000E+00 -0.00000000000E+00 -0.24853490330E+03  0.24853490335E+03  0.50400000000E-02 0. -1.
        -24    2    1    2    0    0  0.00000000000E+00  0.00000000000E+00 -0.24209580770E+03  0.25497399946E+03  0.80008501373E+02 0.  0.
         66    2    3    3    0    0  0.14095181398E+02  0.37386948214E+02 -0.12548948764E+03  0.13171207071E+03  0.20000068875E+01 0.  0.
         13    1    3    3    0    0 -0.14095181398E+02 -0.37386948214E+02 -0.11660632007E+03  0.12326192875E+03  0.10566000000E+00 0. -1.
         13    1    4    4    0    0  0.24826739541E+01  0.57914939620E+01 -0.19578149191E+02  0.20567453951E+02  0.10566000000E+00 0.  1.
        -13    1    4    4    0    0  0.95579662390E+01  0.23975320878E+02 -0.80832912231E+02  0.84853648087E+02  0.10566000000E+00 0.  1.
        -14    1    4    4    0    0  0.20545412050E+01  0.76201333748E+01 -0.25078426214E+02  0.26290968669E+02  0.00000000000E+00 0.  1.
<mgrwt>
<rscale>  0 0.80008501E+02</rscale>
<asrwt>0</asrwt>
<pdfrwt beam="1">  1        1 0.38236132E-01 0.80008501E+02</pdfrwt>
<pdfrwt beam="2">  1       -2 0.99063032E-03 0.80008501E+02</pdfrwt>
<totfact> 0.17390466E+05</totfact>
</mgrwt>
</event>
<event>
 8    1  0.1007371E-013  0.7639299E+02  0.7818608E-02  0.1339611E+00
          1   -1    0    0  501    0  0.00000000000E+00  0.00000000000E+00  0.18734495508E+03  0.18734495515E+03  0.50400000000E-02 0. -1.
         -2   -1    0    0    0  501 -0.00000000000E+00 -0.00000000000E+00 -0.77876236880E+01  0.77876241055E+01  0.25500000000E-02 0.  1.
        -24    2    1    2    0    0  0.88817841970E-15  0.35527136788E-14  0.17955733139E+03  0.19513257926E+03  0.76392985473E+02 0.  0.
         66    2    3    3    0    0 -0.58214146991E+01 -0.26093000060E+02  0.20250064469E+02  0.33597598584E+02  0.19999996023E+01 0.  0.
         13    1    3    3    0    0  0.58214146991E+01  0.26093000060E+02  0.15930726693E+03  0.16153498067E+03  0.10566000000E+00 0. -1.
         13    1    4    4    0    0 -0.15893933779E+01 -0.51601103310E+01  0.44050691287E+01  0.69691253398E+01  0.10566000000E+00 0. -1.
        -13    1    4    4    0    0 -0.91243284315E+00 -0.40485894328E+01  0.24366819415E+01  0.48137504098E+01  0.10566000000E+00 0.  1.
        -14    1    4    4    0    0 -0.33195884781E+01 -0.16884300296E+02  0.13408313398E+02  0.21814722834E+02  0.00000000000E+00 0.  1.
<mgrwt>
<rscale>  0 0.76392985E+02</rscale>
<asrwt>0</asrwt>
<pdfrwt beam="1">  1        1 0.28822300E-01 0.76392985E+02</pdfrwt>
<pdfrwt beam="2">  1       -2 0.11980960E-02 0.76392985E+02</pdfrwt>
<totfact> 0.18607023E+05</totfact>
</mgrwt>
</event>
<event>
 8    1  0.8247621E-014  0.7809801E+02  0.7818608E-02  0.1334537E+00
         -2   -1    0    0    0  501 -0.00000000000E+00  0.00000000000E+00  0.97876433108E+02  0.97876433141E+02  0.25500000000E-02 0.  1.
          1   -1    0    0  501    0  0.00000000000E+00 -0.00000000000E+00 -0.15579079632E+02  0.15579080447E+02  0.50400000000E-02 0. -1.
        -24    2    1    2    0    0  0.17763568394E-14  0.88817841970E-15  0.82297353477E+02  0.11345551359E+03  0.78098010054E+02 0.  0.
         66    2    3    3    0    0 -0.13405291193E+02 -0.37382676186E+01  0.94138462674E+02  0.95182596256E+02  0.19999996692E+01 0.  0.
         13    1    3    3    0    0  0.13405291193E+02  0.37382676186E+01 -0.11841109198E+02  0.18272917332E+02  0.10566000000E+00 0. -1.
         13    1    4    4    0    0 -0.59198414610E+01 -0.20902537991E+01  0.36511641601E+02  0.37047602086E+02  0.10566000000E+00 0. -1.
        -13    1    4    4    0    0 -0.50699656628E+01 -0.12154865414E+01  0.38689199298E+02  0.39039047961E+02  0.10566000000E+00 0.  1.
         14    1    4    4    0    0 -0.24154840694E+01 -0.43252727820E+00  0.18937621775E+02  0.19095946209E+02  0.00000000000E+00 0. -1.
<mgrwt>
<rscale>  0 0.78098010E+02</rscale>
<asrwt>0</asrwt>
<pdfrwt beam="1">  1        1 0.23967816E-02 0.78098010E+02</pdfrwt>
<pdfrwt beam="2">  1       -2 0.15057913E-01 0.78098010E+02</pdfrwt>
<totfact> 0.11346244E+05</totfact>
</mgrwt>
</event>
<event>
 8    1  0.8247621E-014  0.8478501E+02  0.7818608E-02  0.1315996E+00
         -2   -1    0    0    0  501 -0.00000000000E+00  0.00000000000E+00  0.19036280950E+02  0.19036281120E+02  0.25500000000E-02 0.  1.
          1   -1    0    0  501    0  0.00000000000E+00 -0.00000000000E+00 -0.94405237697E+02  0.94405237831E+02  0.50400000000E-02 0. -1.
        -24    2    1    2    0    0 -0.35527136788E-14  0.00000000000E+00 -0.75368956747E+02  0.11344151895E+03  0.84785013893E+02 0.  0.
         66    2    3    3    0    0  0.17377045373E+02 -0.20592005680E+02  0.60435603936E+01  0.27686043820E+02  0.19999990800E+01 0.  0.
         13    1    3    3    0    0 -0.17377045373E+02  0.20592005680E+02 -0.81412517141E+02  0.85755475132E+02  0.10566000000E+00 0. -1.
         13    1    4    4    0    0  0.83122169770E+01 -0.96262534915E+01  0.25846625497E+01  0.12978803947E+02  0.10566000000E+00 0. -1.
        -13    1    4    4    0    0  0.60302300103E+01 -0.79070502119E+01  0.18953403214E+01  0.10123665147E+02  0.10566000000E+00 0.  1.
         14    1    4    4    0    0  0.30345983860E+01 -0.30587019768E+01  0.15635575225E+01  0.45835747265E+01  0.00000000000E+00 0. -1.
<mgrwt>
<rscale>  0 0.84785014E+02</rscale>
<asrwt>0</asrwt>
<pdfrwt beam="1">  1        1 0.14523882E-01 0.84785014E+02</pdfrwt>
<pdfrwt beam="2">  1       -2 0.29286587E-02 0.84785014E+02</pdfrwt>
<totfact> 0.12431659E+05</totfact>
</mgrwt>
</event>
<event>
 8    1  0.8247621E-014  0.8076125E+02  0.7818608E-02  0.1326905E+00
          1   -1    0    0  501    0  0.00000000000E+00  0.00000000000E+00  0.36041087588E+03  0.36041087591E+03  0.50400000000E-02 0. -1.
         -2   -1    0    0    0  501 -0.00000000000E+00 -0.00000000000E+00 -0.45242660104E+01  0.45242667290E+01  0.25500000000E-02 0.  1.
        -24    2    1    2    0    0  0.00000000000E+00  0.00000000000E+00  0.35588660987E+03  0.36493514264E+03  0.80761248456E+02 0.  0.
         66    2    3    3    0    0  0.39751593420E+02  0.59692333966E+01  0.16190521163E+03  0.16683260618E+03  0.20000011997E+01 0.  0.
         13    1    3    3    0    0 -0.39751593420E+02 -0.59692333966E+01  0.19398139823E+03  0.19810253646E+03  0.10566000000E+00 0. -1.
         13    1    4    4    0    0  0.21582029709E+02  0.32593698481E+01  0.91297472331E+02  0.93870374007E+02  0.10566000000E+00 0. -1.
        -13    1    4    4    0    0  0.19775962976E+01  0.50210286780E+00  0.80696579491E+01  0.83242740138E+01  0.10566000000E+00 0.  1.
         14    1    4    4    0    0  0.16191967413E+02  0.22077606807E+01  0.62538081353E+02  0.64637958162E+02  0.00000000000E+00 0. -1.
<mgrwt>
<rscale>  0 0.80761248E+02</rscale>
<asrwt>0</asrwt>
<pdfrwt beam="1">  1        1 0.55447843E-01 0.80761248E+02</pdfrwt>
<pdfrwt beam="2">  1       -2 0.69604078E-03 0.80761248E+02</pdfrwt>
<totfact> 0.18200595E+05</totfact>
</mgrwt>
</event>
<event>
 8    1  0.8247621E-014  0.7036622E+02  0.7818608E-02  0.1358852E+00
          1   -1    0    0  501    0  0.00000000000E+00  0.00000000000E+00  0.24464493065E+02  0.24464493585E+02  0.50400000000E-02 0. -1.
         -2   -1    0    0    0  501 -0.00000000000E+00 -0.00000000000E+00 -0.50597871797E+02  0.50597871861E+02  0.25500000000E-02 0.  1.
        -24    2    1    2    0    0  0.00000000000E+00 -0.88817841970E-15 -0.26133378732E+02  0.75062365446E+02  0.70366222169E+02 0.  0.
         66    2    3    3    0    0  0.25019148608E+02 -0.73870902778E+01 -0.38215146481E+02  0.46313327621E+02  0.19999987386E+01 0.  0.
         13    1    3    3    0    0 -0.25019148608E+02  0.73870902778E+01  0.12081767750E+02  0.28749037824E+02  0.10566000000E+00 0. -1.
         13    1    4    4    0    0  0.20607333616E+02 -0.59075429502E+01 -0.31772573232E+02  0.38328433784E+02  0.10566000000E+00 0. -1.
        -13    1    4    4    0    0  0.37780636412E+01 -0.12427467590E+01 -0.49857467342E+01  0.63786377007E+01  0.10566000000E+00 0.  1.
         14    1    4    4    0    0  0.63375135050E+00 -0.23680056858E+00 -0.14568265148E+01  0.16062561371E+01  0.00000000000E+00 0. -1.
<mgrwt>
<rscale>  0 0.70366222E+02</rscale>
<asrwt>0</asrwt>
<pdfrwt beam="1">  1        1 0.37637682E-02 0.70366222E+02</pdfrwt>
<pdfrwt beam="2">  1       -2 0.77842880E-02 0.70366222E+02</pdfrwt>
<totfact> 0.16845842E+05</totfact>
</mgrwt>
</event>
<event>
 8    1  0.8247621E-014  0.7914571E+02  0.7818608E-02  0.1331493E+00
         -2   -1    0    0    0  501 -0.00000000000E+00  0.00000000000E+00  0.22216015817E+03  0.22216015819E+03  0.25500000000E-02 0.  1.
          1   -1    0    0  501    0  0.00000000000E+00 -0.00000000000E+00 -0.70490165625E+01  0.70490183643E+01  0.50400000000E-02 0. -1.
        -24    2    1    2    0    0 -0.17763568394E-14  0.00000000000E+00  0.21511114161E+03  0.22920917655E+03  0.79145709743E+02 0.  0.
         66    2    3    3    0    0 -0.11517839662E+02  0.37562067969E+02  0.12071606478E+03  0.12696431715E+03  0.19999881004E+01 0.  0.
         13    1    3    3    0    0  0.11517839662E+02 -0.37562067969E+02  0.94395076834E+02  0.10224485941E+03  0.10566000000E+00 0. -1.
         13    1    4    4    0    0 -0.55068840136E+01  0.16758550756E+02  0.55038568077E+02  0.57796452616E+02  0.10566000000E+00 0. -1.
        -13    1    4    4    0    0 -0.49711997865E+01  0.18331031718E+02  0.58462201478E+02  0.61470153057E+02  0.10566000000E+00 0.  1.
         14    1    4    4    0    0 -0.10397558618E+01  0.24724854947E+01  0.72152952228E+01  0.76977114732E+01  0.00000000000E+00 0. -1.
<mgrwt>
<rscale>  0 0.79145710E+02</rscale>
<asrwt>0</asrwt>
<pdfrwt beam="1">  1        1 0.10844641E-02 0.79145710E+02</pdfrwt>
<pdfrwt beam="2">  1       -2 0.34178489E-01 0.79145710E+02</pdfrwt>
<totfact> 0.83676235E+04</totfact>
</mgrwt>
</event>
<event>
 8    1  0.8247621E-014  0.7876285E+02  0.7818608E-02  0.1332599E+00
         -2   -1    0    0    0  501 -0.00000000000E+00  0.00000000000E+00  0.49159302850E+01  0.49159309464E+01  0.25500000000E-02 0.  1.
          1   -1    0    0  501    0  0.00000000000E+00 -0.00000000000E+00 -0.31548381087E+03  0.31548381091E+03  0.50400000000E-02 0. -1.
        -24    2    1    2    0    0 -0.17763568394E-14  0.00000000000E+00 -0.31056788059E+03  0.32039974186E+03  0.78762847401E+02 0.  0.
         66    2    3    3    0    0 -0.15749481562E+02  0.32642206832E+02 -0.92979988015E+02  0.99814017038E+02  0.19999974689E+01 0.  0.
         13    1    3    3    0    0  0.15749481562E+02 -0.32642206832E+02 -0.21758789257E+03  0.22058572482E+03  0.10566000000E+00 0. -1.
         13    1    4    4    0    0 -0.70999185990E+01  0.13543727344E+02 -0.39856212053E+02  0.42689228123E+02  0.10566000000E+00 0. -1.
        -13    1    4    4    0    0 -0.54278830027E+01  0.12421601523E+02 -0.35845956715E+02  0.38323646422E+02  0.10566000000E+00 0.  1.
         14    1    4    4    0    0 -0.32216799601E+01  0.66768779646E+01 -0.17277819247E+02  0.18801142493E+02  0.00000000000E+00 0. -1.
<mgrwt>
<rscale>  0 0.78762847E+02</rscale>
<asrwt>0</asrwt>
<pdfrwt beam="1">  1        1 0.48535955E-01 0.78762847E+02</pdfrwt>
<pdfrwt beam="2">  1       -2 0.75629726E-03 0.78762847E+02</pdfrwt>
<totfact> 0.18976646E+05</totfact>
</mgrwt>
</event>
<event>
 8    1  0.8247621E-014  0.7937954E+02  0.7818608E-02  0.1330821E+00
          1   -1    0    0  501    0  0.00000000000E+00  0.00000000000E+00  0.73635550113E+02  0.73635550286E+02  0.50400000000E-02 0. -1.
         -2   -1    0    0    0  501 -0.00000000000E+00 -0.00000000000E+00 -0.21392897827E+02  0.21392897979E+02  0.25500000000E-02 0.  1.
        -24    2    1    2    0    0  0.35527136788E-14  0.35527136788E-14  0.52242652286E+02  0.95028448264E+02  0.79379539314E+02 0.  0.
         66    2    3    3    0    0 -0.24012402459E+02 -0.24463752363E+02  0.22489207937E+01  0.34411165216E+02  0.19999988141E+01 0.  0.
         13    1    3    3    0    0  0.24012402459E+02  0.24463752363E+02  0.49993731493E+02  0.60617283048E+02  0.10566000000E+00 0. -1.
         13    1    4    4    0    0 -0.16806807490E+01 -0.16949707582E+01  0.44521096153E+00  0.24304301033E+01  0.10566000000E+00 0. -1.
        -13    1    4    4    0    0 -0.10152068618E+02 -0.96203169681E+01  0.13579955589E+01  0.14052413023E+02  0.10566000000E+00 0.  1.
        -14    1    4    4    0    0 -0.12179653092E+02 -0.13148464637E+02  0.44571427330E+00  0.17928322090E+02  0.00000000000E+00 0.  1.
<mgrwt>
<rscale>  0 0.79379539E+02</rscale>
<asrwt>0</asrwt>
<pdfrwt beam="1">  1        1 0.11328546E-01 0.79379539E+02</pdfrwt>
<pdfrwt beam="2">  1       -2 0.32912150E-02 0.79379539E+02</pdfrwt>
<totfact> 0.14283048E+05</totfact>
</mgrwt>
</event>
<event>
 8    1  0.8247621E-014  0.7874065E+02  0.7818608E-02  0.1332664E+00
         -2   -1    0    0    0  501 -0.00000000000E+00  0.00000000000E+00  0.41850333565E+02  0.41850333643E+02  0.25500000000E-02 0.  1.
          1   -1    0    0  501    0  0.00000000000E+00 -0.00000000000E+00 -0.37037279185E+02  0.37037279528E+02  0.50400000000E-02 0. -1.
        -24    2    1    2    0    0  0.00000000000E+00  0.00000000000E+00  0.48130543799E+01  0.78887613171E+02  0.78740650361E+02 0.  0.
         66    2    3    3    0    0  0.40845119650E+01 -0.17661954609E+02  0.37393010893E+02  0.41603667443E+02  0.20000006010E+01 0.  0.
         13    1    3    3    0    0 -0.40845119650E+01  0.17661954609E+02 -0.32579956513E+02  0.37283945728E+02  0.10566000000E+00 0. -1.
         13    1    4    4    0    0  0.17119628197E+01 -0.99897692641E+01  0.19641383074E+02  0.22102520213E+02  0.10566000000E+00 0. -1.
        -13    1    4    4    0    0  0.63018063180E+00 -0.29172466699E+01  0.73015638510E+01  0.78886915561E+01  0.10566000000E+00 0.  1.
         14    1    4    4    0    0  0.17423685136E+01 -0.47549386755E+01  0.10450063968E+02  0.11612455674E+02  0.00000000000E+00 0. -1.
<mgrwt>
<rscale>  0 0.78740650E+02</rscale>
<asrwt>0</asrwt>
<pdfrwt beam="1">  1        1 0.56980430E-02 0.78740650E+02</pdfrwt>
<pdfrwt beam="2">  1       -2 0.64385129E-02 0.78740650E+02</pdfrwt>
<totfact> 0.13113574E+05</totfact>
</mgrwt>
</event>
<event>
 8    1  0.8247621E-014  0.7872061E+02  0.7818608E-02  0.1332722E+00
          1   -1    0    0  501    0  0.00000000000E+00  0.00000000000E+00  0.66568422965E+01  0.66568442044E+01  0.50400000000E-02 0. -1.
         -2   -1    0    0    0  501 -0.00000000000E+00 -0.00000000000E+00 -0.23272796839E+03  0.23272796840E+03  0.25500000000E-02 0.  1.
        -24    2    1    2    0    0  0.00000000000E+00  0.00000000000E+00 -0.22607112609E+03  0.23938481261E+03  0.78720610099E+02 0.  0.
         66    2    3    3    0    0 -0.32361738697E+02 -0.22323280460E+02 -0.10924063865E+03  0.11611687298E+03  0.20000185219E+01 0.  0.
         13    1    3    3    0    0  0.32361738697E+02  0.22323280460E+02 -0.11683048744E+03  0.12326793963E+03  0.10566000000E+00 0. -1.
         13    1    4    4    0    0 -0.20893354918E+01 -0.13704936792E+01 -0.82917014629E+01  0.86606612281E+01  0.10566000000E+00 0. -1.
        -13    1    4    4    0    0 -0.10949878354E+02 -0.71218991153E+01 -0.35457509079E+02  0.37787132693E+02  0.10566000000E+00 0.  1.
        -14    1    4    4    0    0 -0.19322524851E+02 -0.13830887665E+02 -0.65491428111E+02  0.69669079054E+02  0.00000000000E+00 0.  1.
<mgrwt>
<rscale>  0 0.78720610E+02</rscale>
<asrwt>0</asrwt>
<pdfrwt beam="1">  1        1 0.10241299E-02 0.78720610E+02</pdfrwt>
<pdfrwt beam="2">  1       -2 0.35804297E-01 0.78720610E+02</pdfrwt>
<totfact> 0.83109876E+04</totfact>
</mgrwt>
</event>
<event>
 8    1  0.8247621E-014  0.7959739E+02  0.7818608E-02  0.1330198E+00
         -2   -1    0    0    0  501 -0.00000000000E+00  0.00000000000E+00  0.15595677779E+03  0.15595677781E+03  0.25500000000E-02 0.  1.
          1   -1    0    0  501    0  0.00000000000E+00 -0.00000000000E+00 -0.10156251124E+02  0.10156252374E+02  0.50400000000E-02 0. -1.
        -24    2    1    2    0    0  0.00000000000E+00  0.35527136788E-14  0.14580052667E+03  0.16611303018E+03  0.79597394562E+02 0.  0.
         66    2    3    3    0    0  0.17476860228E+02 -0.20694740099E+02  0.13372588072E+03  0.13645630835E+03  0.20000008889E+01 0.  0.
         13    1    3    3    0    0 -0.17476860228E+02  0.20694740099E+02  0.12074645949E+02  0.29656721835E+02  0.10566000000E+00 0. -1.
         13    1    4    4    0    0  0.33427822384E+00 -0.43339176785E+00  0.20412598543E+01  0.21160047693E+01  0.10566000000E+00 0. -1.
        -13    1    4    4    0    0  0.59903673296E+01 -0.63421834985E+01  0.40887516383E+02  0.41807989097E+02  0.10566000000E+00 0.  1.
         14    1    4    4    0    0  0.11152214675E+02 -0.13919164833E+02  0.90797104480E+02  0.92532314483E+02  0.00000000000E+00 0. -1.
<mgrwt>
<rscale>  0 0.79597395E+02</rscale>
<asrwt>0</asrwt>
<pdfrwt beam="1">  1        1 0.15625004E-02 0.79597395E+02</pdfrwt>
<pdfrwt beam="2">  1       -2 0.23993348E-01 0.79597395E+02</pdfrwt>
<totfact> 0.94511402E+04</totfact>
</mgrwt>
</event>
<event>
 8    1  0.8247621E-014  0.8076836E+02  0.7818608E-02  0.1326885E+00
          1   -1    0    0  501    0  0.00000000000E+00  0.00000000000E+00  0.49019257276E+02  0.49019257535E+02  0.50400000000E-02 0. -1.
         -2   -1    0    0    0  501 -0.00000000000E+00 -0.00000000000E+00 -0.33270229678E+02  0.33270229775E+02  0.25500000000E-02 0.  1.
        -24    2    1    2    0    0  0.00000000000E+00  0.00000000000E+00  0.15749027598E+02  0.82289487310E+02  0.80768359223E+02 0.  0.
         66    2    3    3    0    0  0.17934374195E+02 -0.11488023815E+02 -0.27048386079E+02  0.34485238018E+02  0.19999956943E+01 0.  0.
         13    1    3    3    0    0 -0.17934374195E+02  0.11488023815E+02  0.42797413677E+02  0.47804249292E+02  0.10566000000E+00 0. -1.
         13    1    4    4    0    0  0.74578225239E+01 -0.44503724045E+01 -0.11778274321E+02  0.14634337749E+02  0.10566000000E+00 0. -1.
        -13    1    4    4    0    0  0.93380092940E+01 -0.57578542892E+01 -0.13203909013E+02  0.17166993938E+02  0.10566000000E+00 0.  1.
        -14    1    4    4    0    0  0.11385423774E+01 -0.12797971209E+01 -0.20662027445E+01  0.26839063316E+01  0.00000000000E+00 0.  1.
<mgrwt>
<rscale>  0 0.80768359E+02</rscale>
<asrwt>0</asrwt>
<pdfrwt beam="1">  1        1 0.75414242E-02 0.80768359E+02</pdfrwt>
<pdfrwt beam="2">  1       -2 0.51184969E-02 0.80768359E+02</pdfrwt>
<totfact> 0.12771378E+05</totfact>
</mgrwt>
</event>
<event>
 8    1  0.8247621E-014  0.7722691E+02  0.7818608E-02  0.1337110E+00
          1   -1    0    0  501    0  0.00000000000E+00  0.00000000000E+00  0.20415555176E+02  0.20415555798E+02  0.50400000000E-02 0. -1.
         -2   -1    0    0    0  501 -0.00000000000E+00 -0.00000000000E+00 -0.73032489195E+02  0.73032489239E+02  0.25500000000E-02 0.  1.
        -24    2    1    2    0    0  0.00000000000E+00  0.35527136788E-14 -0.52616934019E+02  0.93448045037E+02  0.77226908365E+02 0.  0.
         66    2    3    3    0    0  0.33564006293E+02 -0.12676596041E+02 -0.43513616428E+02  0.56432910824E+02  0.20000009549E+01 0.  0.
         13    1    3    3    0    0 -0.33564006293E+02  0.12676596041E+02 -0.91033175909E+01  0.37015134213E+02  0.10566000000E+00 0. -1.
         13    1    4    4    0    0  0.15935572118E+02 -0.60426958697E+01 -0.20672044281E+02  0.26791812385E+02  0.10566000000E+00 0. -1.
        -13    1    4    4    0    0  0.54131904364E+01 -0.23618761439E+01 -0.81053193148E+01  0.10029379585E+02  0.10566000000E+00 0.  1.
         14    1    4    4    0    0  0.12215243738E+02 -0.42720240270E+01 -0.14736252832E+02  0.19611718854E+02  0.00000000000E+00 0. -1.
<mgrwt>
<rscale>  0 0.77226908E+02</rscale>
<asrwt>0</asrwt>
<pdfrwt beam="1">  1        1 0.31408547E-02 0.77226908E+02</pdfrwt>
<pdfrwt beam="2">  1       -2 0.11235767E-01 0.77226908E+02</pdfrwt>
<totfact> 0.12461313E+05</totfact>
</mgrwt>
</event>
<event>
 8    1  0.8247621E-014  0.8052570E+02  0.7818608E-02  0.1327566E+00
          1   -1    0    0  501    0  0.00000000000E+00  0.00000000000E+00  0.12645697456E+02  0.12645698460E+02  0.50400000000E-02 0. -1.
         -2   -1    0    0    0  501 -0.00000000000E+00 -0.00000000000E+00 -0.12819354913E+03  0.12819354915E+03  0.25500000000E-02 0.  1.
        -24    2    1    2    0    0  0.17763568394E-14  0.00000000000E+00 -0.11554785167E+03  0.14083924761E+03  0.80525695541E+02 0.  0.
         66    2    3    3    0    0  0.92887409827E+01 -0.27345151600E+02 -0.10681430268E+03  0.11066767047E+03  0.20000015233E+01 0.  0.
         13    1    3    3    0    0 -0.92887409827E+01  0.27345151600E+02 -0.87335489926E+01  0.30171577140E+02  0.10566000000E+00 0. -1.
         13    1    4    4    0    0  0.92723621707E+00 -0.36004078447E+01 -0.15912993510E+02  0.16341885759E+02  0.10566000000E+00 0. -1.
        -13    1    4    4    0    0  0.41440029639E+01 -0.10875157780E+02 -0.42849270795E+02  0.44401722816E+02  0.10566000000E+00 0.  1.
        -14    1    4    4    0    0  0.42175018017E+01 -0.12869585975E+02 -0.48052038375E+02  0.49924061900E+02  0.00000000000E+00 0.  1.
<mgrwt>
<rscale>  0 0.80525696E+02</rscale>
<asrwt>0</asrwt>
<pdfrwt beam="1">  1        1 0.19454921E-02 0.80525696E+02</pdfrwt>
<pdfrwt beam="2">  1       -2 0.19722084E-01 0.80525696E+02</pdfrwt>
<totfact> 0.97587242E+04</totfact>
</mgrwt>
</event>
<event>
 8    1  0.8247621E-014  0.8043113E+02  0.7818608E-02  0.1327832E+00
          1   -1    0    0  501    0  0.00000000000E+00  0.00000000000E+00  0.26280297332E+01  0.26280345661E+01  0.50400000000E-02 0. -1.
         -2   -1    0    0    0  501 -0.00000000000E+00 -0.00000000000E+00 -0.61540020628E+03  0.61540020629E+03  0.25500000000E-02 0.  1.
        -24    2    1    2    0    0 -0.35527136788E-14  0.00000000000E+00 -0.61277217655E+03  0.61802824085E+03  0.80431126686E+02 0.  0.
         66    2    3    3    0    0 -0.24193045105E+02  0.25929369592E+01 -0.55237231455E+03  0.55291156674E+03  0.20000011434E+01 0.  0.
         13    1    3    3    0    0  0.24193045105E+02 -0.25929369592E+01 -0.60399861999E+02  0.65116674109E+02  0.10566000000E+00 0. -1.
         13    1    4    4    0    0 -0.30125363892E+00 -0.13100974854E+00 -0.10222522148E+02  0.10228344950E+02  0.10566000000E+00 0. -1.
        -13    1    4    4    0    0 -0.69948404761E+01  0.50669285856E+00 -0.15765154994E+03  0.15780749948E+03  0.10566000000E+00 0.  1.
         14    1    4    4    0    0 -0.16896950990E+02  0.22172538492E+01 -0.38449824246E+03  0.38487572231E+03  0.00000000000E+00 0. -1.
<mgrwt>
<rscale>  0 0.80431127E+02</rscale>
<asrwt>0</asrwt>
<pdfrwt beam="1">  1        1 0.40431313E-03 0.80431127E+02</pdfrwt>
<pdfrwt beam="2">  1       -2 0.94676840E-01 0.80431127E+02</pdfrwt>
<totfact> 0.41941684E+04</totfact>
</mgrwt>
</event>
<event>
 8    1  0.8247621E-014  0.7953410E+02  0.7818608E-02  0.1330379E+00
          1   -1    0    0  501    0  0.00000000000E+00  0.00000000000E+00  0.24005440236E+02  0.24005440765E+02  0.50400000000E-02 0. -1.
         -2   -1    0    0    0  501 -0.00000000000E+00 -0.00000000000E+00 -0.65877496031E+02  0.65877496081E+02  0.25500000000E-02 0.  1.
        -24    2    1    2    0    0  0.00000000000E+00  0.00000000000E+00 -0.41872055796E+02  0.89882936846E+02  0.79534101362E+02 0.  0.
         66    2    3    3    0    0  0.38216878461E+02 -0.62020762916E+01 -0.31083675691E+02  0.49690949349E+02  0.20000007645E+01 0.  0.
         13    1    3    3    0    0 -0.38216878461E+02  0.62020762916E+01 -0.10788380104E+02  0.40191987497E+02  0.10566000000E+00 0. -1.
         13    1    4    4    0    0  0.96348892552E+01 -0.12092511128E+01 -0.86382122062E+01  0.12997047871E+02  0.10566000000E+00 0. -1.
        -13    1    4    4    0    0  0.14645618991E+02 -0.29770644000E+01 -0.11375456764E+02  0.18782152398E+02  0.10566000000E+00 0.  1.
        -14    1    4    4    0    0  0.13936370215E+02 -0.20157607789E+01 -0.11070006721E+02  0.17911749079E+02  0.00000000000E+00 0.  1.
<mgrwt>
<rscale>  0 0.79534101E+02</rscale>
<asrwt>0</asrwt>
<pdfrwt beam="1">  1        1 0.36931447E-02 0.79534101E+02</pdfrwt>
<pdfrwt beam="2">  1       -2 0.10134999E-01 0.79534101E+02</pdfrwt>
<totfact> 0.11803478E+05</totfact>
</mgrwt>
</event>
<event>
 8    1  0.8247621E-014  0.7980825E+02  0.7818608E-02  0.1329596E+00
          1   -1    0    0  501    0  0.00000000000E+00  0.00000000000E+00  0.84173641745E+01  0.84173656834E+01  0.50400000000E-02 0. -1.
         -2   -1    0    0    0  501 -0.00000000000E+00 -0.00000000000E+00 -0.18917313577E+03  0.18917313579E+03  0.25500000000E-02 0.  1.
        -24    2    1    2    0    0  0.00000000000E+00  0.00000000000E+00 -0.18075577160E+03  0.19759050147E+03  0.79808253372E+02 0.  0.
         66    2    3    3    0    0 -0.18715886490E+02 -0.56402939366E+01 -0.17649309605E+03  0.17758353045E+03  0.20000023287E+01 0.  0.
         13    1    3    3    0    0  0.18715886490E+02  0.56402939366E+01 -0.42626755466E+01  0.20006971026E+02  0.10566000000E+00 0. -1.
         13    1    4    4    0    0 -0.18655598710E+01 -0.10078845660E+01 -0.20472213987E+02  0.20582003170E+02  0.10566000000E+00 0. -1.
        -13    1    4    4    0    0 -0.15105230566E+02 -0.38369269346E+01 -0.13662665191E+03  0.13751270186E+03  0.10566000000E+00 0.  1.
        -14    1    4    4    0    0 -0.17450960535E+01 -0.79548243597E+00 -0.19394230158E+02  0.19488825413E+02  0.00000000000E+00 0.  1.
<mgrwt>
<rscale>  0 0.79808253E+02</rscale>
<asrwt>0</asrwt>
<pdfrwt beam="1">  1        1 0.12949794E-02 0.79808253E+02</pdfrwt>
<pdfrwt beam="2">  1       -2 0.29103556E-01 0.79808253E+02</pdfrwt>
<totfact> 0.87519344E+04</totfact>
</mgrwt>
</event>
<event>
 8    1  0.8247621E-014  0.7980280E+02  0.7818608E-02  0.1329612E+00
          1   -1    0    0  501    0  0.00000000000E+00  0.00000000000E+00  0.36850404197E+02  0.36850404542E+02  0.50400000000E-02 0. -1.
         -2   -1    0    0    0  501 -0.00000000000E+00 -0.00000000000E+00 -0.43204997241E+02  0.43204997316E+02  0.25500000000E-02 0.  1.
        -24    2    1    2    0    0  0.00000000000E+00  0.00000000000E+00 -0.63545930438E+01  0.80055401858E+02  0.79802797657E+02 0.  0.
         66    2    3    3    0    0 -0.38220555796E+02  0.94286728101E+01  0.31973986426E+01  0.39546606942E+02  0.20000015551E+01 0.  0.
         13    1    3    3    0    0  0.38220555796E+02 -0.94286728101E+01 -0.95519916865E+01  0.40508794916E+02  0.10566000000E+00 0. -1.
         13    1    4    4    0    0 -0.14545411525E+02  0.34043324054E+01  0.20783388666E+01  0.15082742855E+02  0.10566000000E+00 0. -1.
        -13    1    4    4    0    0 -0.19790941918E+02  0.48547733186E+01  0.10942776783E+01  0.20407322550E+02  0.10566000000E+00 0.  1.
        -14    1    4    4    0    0 -0.38842023535E+01  0.11695670861E+01  0.24782097701E-01  0.40565415374E+01  0.00000000000E+00 0.  1.
<mgrwt>
<rscale>  0 0.79802798E+02</rscale>
<asrwt>0</asrwt>
<pdfrwt beam="1">  1        1 0.56692930E-02 0.79802798E+02</pdfrwt>
<pdfrwt beam="2">  1       -2 0.66469227E-02 0.79802798E+02</pdfrwt>
<totfact> 0.12615663E+05</totfact>
</mgrwt>
</event>
<event>
 8    1  0.8247621E-014  0.8103913E+02  0.7818608E-02  0.1326128E+00
          1   -1    0    0  501    0  0.00000000000E+00  0.00000000000E+00  0.44244104355E+01  0.44244133061E+01  0.50400000000E-02 0. -1.
         -2   -1    0    0    0  501 -0.00000000000E+00 -0.00000000000E+00 -0.37108553414E+03  0.37108553415E+03  0.25500000000E-02 0.  1.
        -24    2    1    2    0    0  0.00000000000E+00  0.00000000000E+00 -0.36666112370E+03  0.37550994745E+03  0.81039132530E+02 0.  0.
         66    2    3    3    0    0  0.35865181726E+02  0.32345332794E+01 -0.26926609636E+03  0.27167076419E+03  0.20000000585E+01 0.  0.
         13    1    3    3    0    0 -0.35865181726E+02 -0.32345332794E+01 -0.97395027341E+02  0.10383918326E+03  0.10566000000E+00 0. -1.
         13    1    4    4    0    0  0.62926704958E+01  0.88150000310E+00 -0.46024857253E+02  0.46461525948E+02  0.10566000000E+00 0. -1.
        -13    1    4    4    0    0  0.27156382639E+02  0.17832009125E+01 -0.20287702871E+03  0.20469428147E+03  0.10566000000E+00 0.  1.
        -14    1    4    4    0    0  0.24161285914E+01  0.56983236373E+00 -0.20364210398E+02  0.20514956773E+02  0.00000000000E+00 0.  1.
<mgrwt>
<rscale>  0 0.81039133E+02</rscale>
<asrwt>0</asrwt>
<pdfrwt beam="1">  1        1 0.68067905E-03 0.81039133E+02</pdfrwt>
<pdfrwt beam="2">  1       -2 0.57090058E-01 0.81039133E+02</pdfrwt>
<totfact> 0.59993963E+04</totfact>
</mgrwt>
</event>
<event>
 8    1  0.8247621E-014  0.8106654E+02  0.7818608E-02  0.1326052E+00
          1   -1    0    0  501    0  0.00000000000E+00  0.00000000000E+00  0.36287792636E+01  0.36287827637E+01  0.50400000000E-02 0. -1.
         -2   -1    0    0    0  501 -0.00000000000E+00 -0.00000000000E+00 -0.45275426573E+03  0.45275426573E+03  0.25500000000E-02 0.  1.
        -24    2    1    2    0    0 -0.17763568394E-14  0.00000000000E+00 -0.44912548646E+03  0.45638304850E+03  0.81066542823E+02 0.  0.
         66    2    3    3    0    0 -0.95559839380E+01  0.11104801443E+02 -0.43731431924E+03  0.43756422071E+03  0.19999974097E+01 0.  0.
         13    1    3    3    0    0  0.95559839380E+01 -0.11104801443E+02 -0.11811167226E+02  0.18818827790E+02  0.10566000000E+00 0. -1.
         13    1    4    4    0    0 -0.55388457859E+01  0.57644276924E+01 -0.24518275113E+03  0.24531306540E+03  0.10566000000E+00 0. -1.
        -13    1    4    4    0    0 -0.16235465492E+01  0.17330225201E+01 -0.82234254844E+02  0.82268603393E+02  0.10566000000E+00 0.  1.
         14    1    4    4    0    0 -0.23935916029E+01  0.36073512304E+01 -0.10989731326E+03  0.10998255191E+03  0.00000000000E+00 0. -1.
<mgrwt>
<rscale>  0 0.81066543E+02</rscale>
<asrwt>0</asrwt>
<pdfrwt beam="1">  1        1 0.55827436E-03 0.81066543E+02</pdfrwt>
<pdfrwt beam="2">  1       -2 0.69654458E-01 0.81066543E+02</pdfrwt>
<totfact> 0.52419908E+04</totfact>
</mgrwt>
</event>
<event>
 8    1  0.8247621E-014  0.7887438E+02  0.7818608E-02  0.1332276E+00
         -2   -1    0    0    0  501 -0.00000000000E+00  0.00000000000E+00  0.54406727917E+01  0.54406733893E+01  0.25500000000E-02 0.  1.
          1   -1    0    0  501    0  0.00000000000E+00 -0.00000000000E+00 -0.28586387103E+03  0.28586387107E+03  0.50400000000E-02 0. -1.
        -24    2    1    2    0    0  0.00000000000E+00  0.00000000000E+00 -0.28042319824E+03  0.29130454446E+03  0.78874378064E+02 0.  0.
         66    2    3    3    0    0  0.80141897809E+01 -0.38199205034E+02 -0.12011297348E+03  0.12631125421E+03  0.20000096192E+01 0.  0.
         13    1    3    3    0    0 -0.80141897809E+01  0.38199205034E+02 -0.16031022476E+03  0.16499329025E+03  0.10566000000E+00 0. -1.
         13    1    4    4    0    0  0.11639098654E+01 -0.84714263576E+01 -0.27447889774E+02  0.28749218560E+02  0.10566000000E+00 0. -1.
        -13    1    4    4    0    0  0.15520284024E+01 -0.84135381891E+01 -0.25480214919E+02  0.26878410172E+02  0.10566000000E+00 0.  1.
        -14    1    4    4    0    0  0.52982515131E+01 -0.21314240487E+02 -0.67184868787E+02  0.70683625477E+02  0.00000000000E+00 0.  1.
<mgrwt>
<rscale>  0 0.78874378E+02</rscale>
<asrwt>0</asrwt>
<pdfrwt beam="1">  1        1 0.43979046E-01 0.78874378E+02</pdfrwt>
<pdfrwt beam="2">  1       -2 0.83702685E-03 0.78874378E+02</pdfrwt>
<totfact> 0.18555928E+05</totfact>
</mgrwt>
</event>
<event>
 8    1  0.8247621E-014  0.7987066E+02  0.7818608E-02  0.1329419E+00
         -2   -1    0    0    0  501 -0.00000000000E+00  0.00000000000E+00  0.84651536433E+01  0.84651540274E+01  0.25500000000E-02 0.  1.
          1   -1    0    0  501    0  0.00000000000E+00 -0.00000000000E+00 -0.18839949587E+03  0.18839949593E+03  0.50400000000E-02 0. -1.
        -24    2    1    2    0    0  0.35527136788E-14  0.00000000000E+00 -0.17993434222E+03  0.19686464996E+03  0.79870663532E+02 0.  0.
         66    2    3    3    0    0  0.23519427891E+02  0.16838885577E+02 -0.22247704453E+02  0.36546845426E+02  0.20000003424E+01 0.  0.
         13    1    3    3    0    0 -0.23519427891E+02 -0.16838885577E+02 -0.15768663777E+03  0.16031780453E+03  0.10566000000E+00 0. -1.
         13    1    4    4    0    0  0.96333634578E+01  0.69984877541E+01 -0.84631444582E+01  0.14608781623E+02  0.10566000000E+00 0. -1.
        -13    1    4    4    0    0  0.87503898157E+01  0.65339352954E+01 -0.81369051938E+01  0.13619178483E+02  0.10566000000E+00 0.  1.
        -14    1    4    4    0    0  0.51356746172E+01  0.33064625276E+01 -0.56476548010E+01  0.83188853203E+01  0.00000000000E+00 0.  1.
<mgrwt>
<rscale>  0 0.79870664E+02</rscale>
<asrwt>0</asrwt>
<pdfrwt beam="1">  1        1 0.28984535E-01 0.79870664E+02</pdfrwt>
<pdfrwt beam="2">  1       -2 0.13023315E-02 0.79870664E+02</pdfrwt>
<totfact> 0.16553309E+05</totfact>
</mgrwt>
</event>
<event>
 8    1  0.1272230E-013  0.8049841E+02  0.7818608E-02  0.1327643E+00
          1   -1    0    0  501    0  0.00000000000E+00  0.00000000000E+00  0.58925152293E+02  0.58925152508E+02  0.50400000000E-02 0. -1.
         -2   -1    0    0    0  501 -0.00000000000E+00 -0.00000000000E+00 -0.27492480817E+02  0.27492480935E+02  0.25500000000E-02 0.  1.
        -24    2    1    2    0    0  0.00000000000E+00  0.00000000000E+00  0.31432671476E+02  0.86417633443E+02  0.80498413238E+02 0.  0.
         66    2    3    3    0    0 -0.14390622000E+02 -0.48494060743E+01 -0.24260530975E+02  0.28691116971E+02  0.20000222538E+01 0.  0.
         13    1    3    3    0    0  0.14390622000E+02  0.48494060743E+01  0.55693202451E+02  0.57726516473E+02  0.10566000000E+00 0. -1.
         13    1    4    4    0    0 -0.10163884923E+01 -0.13965793141E+00 -0.10591835269E+01  0.14783719709E+01  0.10566000000E+00 0. -1.
        -13    1    4    4    0    0 -0.41899129331E+01 -0.17619965785E+01 -0.66460767510E+01  0.80524221539E+01  0.10566000000E+00 0.  1.
        -14    1    4    4    0    0 -0.91843205748E+01 -0.29477515644E+01 -0.16555270697E+02  0.19160322846E+02  0.00000000000E+00 0.  1.
<mgrwt>
<rscale>  0 0.80498413E+02</rscale>
<asrwt>0</asrwt>
<pdfrwt beam="1">  1        1 0.90654080E-02 0.80498413E+02</pdfrwt>
<pdfrwt beam="2">  1       -2 0.42296125E-02 0.80498413E+02</pdfrwt>
<totfact> 0.13270766E+05</totfact>
</mgrwt>
</event>
<event>
 8    1  0.1088924E-013  0.7967485E+02  0.7818608E-02  0.1329977E+00
         -2   -1    0    0    0  501 -0.00000000000E+00  0.00000000000E+00  0.31079514400E+02  0.31079514504E+02  0.25500000000E-02 0.  1.
          1   -1    0    0  501    0  0.00000000000E+00 -0.00000000000E+00 -0.51063231013E+02  0.51063231262E+02  0.50400000000E-02 0. -1.
        -24    2    1    2    0    0  0.00000000000E+00  0.00000000000E+00 -0.19983716614E+02  0.82142745767E+02  0.79674850187E+02 0.  0.
         66    2    3    3    0    0 -0.11494245275E+02 -0.23905744056E+02  0.20610059534E+02  0.33650807269E+02  0.20000006363E+01 0.  0.
         13    1    3    3    0    0  0.11494245275E+02  0.23905744056E+02 -0.40593776148E+02  0.48491938498E+02  0.10566000000E+00 0. -1.
         13    1    4    4    0    0 -0.51059499571E+00 -0.65826332601E+00  0.49900281450E+00  0.97682429356E+00  0.10566000000E+00 0. -1.
        -13    1    4    4    0    0 -0.54638225305E+01 -0.11147524050E+02  0.88370172004E+01  0.15238920110E+02  0.10566000000E+00 0.  1.
        -14    1    4    4    0    0 -0.55198277486E+01 -0.12099956680E+02  0.11274039519E+02  0.17435062865E+02  0.00000000000E+00 0.  1.
<mgrwt>
<rscale>  0 0.79674850E+02</rscale>
<asrwt>0</asrwt>
<pdfrwt beam="1">  1        1 0.78558817E-02 0.79674850E+02</pdfrwt>
<pdfrwt beam="2">  1       -2 0.47814638E-02 0.79674850E+02</pdfrwt>
<totfact> 0.13350869E+05</totfact>
</mgrwt>
</event>
<event>
 8    1  0.8247621E-014  0.7941100E+02  0.7818608E-02  0.1330731E+00
         -2   -1    0    0    0  501 -0.00000000000E+00  0.00000000000E+00  0.13005997529E+02  0.13005997779E+02  0.25500000000E-02 0.  1.
          1   -1    0    0  501    0  0.00000000000E+00 -0.00000000000E+00 -0.12121536700E+03  0.12121536711E+03  0.50400000000E-02 0. -1.
        -24    2    1    2    0    0  0.00000000000E+00  0.00000000000E+00 -0.10820936948E+03  0.13422136489E+03  0.79411001444E+02 0.  0.
         66    2    3    3    0    0  0.23355022406E+02  0.16300155900E+02 -0.74398161151E+01  0.29504287951E+02  0.19999974305E+01 0.  0.
         13    1    3    3    0    0 -0.23355022406E+02 -0.16300155900E+02 -0.10076955336E+03  0.10471707694E+03  0.10566000000E+00 0. -1.
         13    1    4    4    0    0  0.64139335625E+01  0.41782886889E+01 -0.23381866810E+01  0.80046811993E+01  0.10566000000E+00 0. -1.
        -13    1    4    4    0    0  0.15072828074E+02  0.10829466809E+02 -0.40528482702E+01  0.18997479850E+02  0.10566000000E+00 0.  1.
        -14    1    4    4    0    0  0.18682607691E+01  0.12924004018E+01 -0.10487811639E+01  0.25021269012E+01  0.00000000000E+00 0.  1.
<mgrwt>
<rscale>  0 0.79411001E+02</rscale>
<asrwt>0</asrwt>
<pdfrwt beam="1">  1        1 0.18648517E-01 0.79411001E+02</pdfrwt>
<pdfrwt beam="2">  1       -2 0.20009228E-02 0.79411001E+02</pdfrwt>
<totfact> 0.15497801E+05</totfact>
</mgrwt>
</event>
<event>
 8    1  0.8247621E-014  0.7984323E+02  0.7818608E-02  0.1329497E+00
         -2   -1    0    0    0  501 -0.00000000000E+00  0.00000000000E+00  0.90951722753E+01  0.90951726327E+01  0.25500000000E-02 0.  1.
          1   -1    0    0  501    0  0.00000000000E+00 -0.00000000000E+00 -0.17522871351E+03  0.17522871358E+03  0.50400000000E-02 0. -1.
        -24    2    1    2    0    0  0.00000000000E+00  0.00000000000E+00 -0.16613354124E+03  0.18432388622E+03  0.79843230811E+02 0.  0.
         66    2    3    3    0    0  0.11853164228E+02  0.35288784904E+02 -0.11624773262E+03  0.12207920044E+03  0.19999996098E+01 0.  0.
         13    1    3    3    0    0 -0.11853164228E+02 -0.35288784904E+02 -0.49885808620E+02  0.62244685781E+02  0.10566000000E+00 0. -1.
         13    1    4    4    0    0  0.42655941116E+01  0.12537756939E+02 -0.43978398960E+02  0.45929308522E+02  0.10566000000E+00 0. -1.
        -13    1    4    4    0    0  0.59867968653E+00  0.19091624900E+01 -0.67602701331E+01  0.70509385963E+01  0.10566000000E+00 0.  1.
        -14    1    4    4    0    0  0.69888904299E+01  0.20841865475E+02 -0.65509063524E+02  0.69098953318E+02  0.00000000000E+00 0.  1.
<mgrwt>
<rscale>  0 0.79843231E+02</rscale>
<asrwt>0</asrwt>
<pdfrwt beam="1">  1        1 0.26958261E-01 0.79843231E+02</pdfrwt>
<pdfrwt beam="2">  1       -2 0.13992574E-02 0.79843231E+02</pdfrwt>
<totfact> 0.16339917E+05</totfact>
</mgrwt>
</event>
<event>
 8    1  0.8247621E-014  0.7840128E+02  0.7818608E-02  0.1333651E+00
          1   -1    0    0  501    0  0.00000000000E+00  0.00000000000E+00  0.30593219310E+03  0.30593219314E+03  0.50400000000E-02 0. -1.
         -2   -1    0    0    0  501 -0.00000000000E+00 -0.00000000000E+00 -0.50229757036E+01  0.50229763509E+01  0.25500000000E-02 0.  1.
        -24    2    1    2    0    0  0.00000000000E+00  0.00000000000E+00  0.30090921740E+03  0.31095516949E+03  0.78401277540E+02 0.  0.
         66    2    3    3    0    0 -0.23592531540E+02  0.26935485501E+02  0.87521194454E+02  0.94583758666E+02  0.20000002924E+01 0.  0.
         13    1    3    3    0    0  0.23592531540E+02 -0.26935485501E+02  0.21338802294E+03  0.21637141083E+03  0.10566000000E+00 0. -1.
         13    1    4    4    0    0 -0.14570650242E+02  0.17481263991E+02  0.55214385447E+02  0.59720498687E+02  0.10566000000E+00 0. -1.
        -13    1    4    4    0    0 -0.72205946420E+01  0.80002181453E+01  0.27140765183E+02  0.29202273475E+02  0.10566000000E+00 0.  1.
         14    1    4    4    0    0 -0.18012866560E+01  0.14540033642E+01  0.51660438242E+01  0.56609865035E+01  0.00000000000E+00 0. -1.
<mgrwt>
<rscale>  0 0.78401278E+02</rscale>
<asrwt>0</asrwt>
<pdfrwt beam="1">  1        1 0.47066485E-01 0.78401278E+02</pdfrwt>
<pdfrwt beam="2">  1       -2 0.77276564E-03 0.78401278E+02</pdfrwt>
<totfact> 0.19097251E+05</totfact>
</mgrwt>
</event>
<event>
 8    1  0.8247621E-014  0.7257797E+02  0.7818608E-02  0.1351540E+00
          1   -1    0    0  501    0  0.00000000000E+00  0.00000000000E+00  0.37474745382E+03  0.37474745386E+03  0.50400000000E-02 0. -1.
         -2   -1    0    0    0  501 -0.00000000000E+00 -0.00000000000E+00 -0.35140742704E+01  0.35140751956E+01  0.25500000000E-02 0.  1.
        -24    2    1    2    0    0 -0.35527136788E-14  0.00000000000E+00  0.37123337955E+03  0.37826152905E+03  0.72577973704E+02 0.  0.
         66    2    3    3    0    0 -0.29380835844E+02  0.15475108213E+02  0.26167313041E+03  0.26377933897E+03  0.20000003800E+01 0.  0.
         13    1    3    3    0    0  0.29380835844E+02 -0.15475108213E+02  0.10956024914E+03  0.11448219008E+03  0.10566000000E+00 0. -1.
         13    1    4    4    0    0 -0.52141478551E+01  0.24998401487E+01  0.50053273975E+02  0.50386287205E+02  0.10566000000E+00 0. -1.
        -13    1    4    4    0    0 -0.72760137631E+01  0.39962903406E+01  0.67988195133E+02  0.68493186188E+02  0.10566000000E+00 0.  1.
        -14    1    4    4    0    0 -0.16890674226E+02  0.89789777233E+01  0.14363166130E+03  0.14489986558E+03  0.00000000000E+00 0.  1.
<mgrwt>
<rscale>  0 0.72577974E+02</rscale>
<asrwt>0</asrwt>
<pdfrwt beam="1">  1        1 0.57653448E-01 0.72577974E+02</pdfrwt>
<pdfrwt beam="2">  1       -2 0.54062695E-03 0.72577974E+02</pdfrwt>
<totfact> 0.24231464E+05</totfact>
</mgrwt>
</event>
<event>
 8    1  0.8247621E-014  0.7837515E+02  0.7818608E-02  0.1333727E+00
          1   -1    0    0  501    0  0.00000000000E+00  0.00000000000E+00  0.56484271891E+02  0.56484272116E+02  0.50400000000E-02 0. -1.
         -2   -1    0    0    0  501 -0.00000000000E+00 -0.00000000000E+00 -0.27187499040E+02  0.27187499160E+02  0.25500000000E-02 0.  1.
        -24    2    1    2    0    0 -0.35527136788E-14  0.00000000000E+00  0.29296772851E+02  0.83671771276E+02  0.78375151732E+02 0.  0.
         66    2    3    3    0    0  0.17676573157E+02 -0.80099256683E+01 -0.21656173029E+02  0.29148069956E+02  0.20000010212E+01 0.  0.
         13    1    3    3    0    0 -0.17676573157E+02  0.80099256683E+01  0.50952945880E+02  0.54523701320E+02  0.10566000000E+00 0. -1.
         13    1    4    4    0    0  0.88231599863E+01 -0.40692797381E+01 -0.12212534764E+02  0.15606548598E+02  0.10566000000E+00 0.  1.
        -13    1    4    4    0    0  0.24908112488E+01 -0.98201506242E+00 -0.28719540160E+01  0.39278210455E+01  0.10566000000E+00 0.  1.
         14    1    4    4    0    0  0.63626019221E+01 -0.29586308678E+01 -0.65716842487E+01  0.96137003123E+01  0.00000000000E+00 0. -1.
<mgrwt>
<rscale>  0 0.78375152E+02</rscale>
<asrwt>0</asrwt>
<pdfrwt beam="1">  1        1 0.86898879E-02 0.78375152E+02</pdfrwt>
<pdfrwt beam="2">  1       -2 0.41826922E-02 0.78375152E+02</pdfrwt>
<totfact> 0.14192538E+05</totfact>
</mgrwt>
</event>
<event>
 8    1  0.8247621E-014  0.6987041E+02  0.7818608E-02  0.1360534E+00
         -2   -1    0    0    0  501 -0.00000000000E+00  0.00000000000E+00  0.80769449004E+01  0.80769453029E+01  0.25500000000E-02 0.  1.
          1   -1    0    0  501    0  0.00000000000E+00 -0.00000000000E+00 -0.15110520311E+03  0.15110520319E+03  0.50400000000E-02 0. -1.
        -24    2    1    2    0    0  0.00000000000E+00  0.00000000000E+00 -0.14302825821E+03  0.15918214850E+03  0.69870406852E+02 0.  0.
         66    2    3    3    0    0  0.21862304556E+02  0.19021457585E+02 -0.27238087937E+02  0.39820718776E+02  0.20000000629E+01 0.  0.
         13    1    3    3    0    0 -0.21862304556E+02 -0.19021457585E+02 -0.11579017027E+03  0.11936142972E+03  0.10566000000E+00 0. -1.
         13    1    4    4    0    0  0.71029930039E+01  0.70211492724E+01 -0.95913473610E+01  0.13847532450E+02  0.10566000000E+00 0. -1.
        -13    1    4    4    0    0  0.14491686326E+02  0.11743129958E+02 -0.17053301083E+02  0.25273233185E+02  0.10566000000E+00 0.  1.
         14    1    4    4    0    0  0.26762522569E+00  0.25717835452E+00 -0.59343949276E+00  0.69995314059E+00  0.00000000000E+00 0. -1.
<mgrwt>
<rscale>  0 0.69870407E+02</rscale>
<asrwt>0</asrwt>
<pdfrwt beam="1">  1        1 0.23246952E-01 0.69870407E+02</pdfrwt>
<pdfrwt beam="2">  1       -2 0.12426071E-02 0.69870407E+02</pdfrwt>
<totfact> 0.22625874E+05</totfact>
</mgrwt>
</event>
<event>
 8    1  0.8247621E-014  0.8004713E+02  0.7818608E-02  0.1328918E+00
          1   -1    0    0  501    0  0.00000000000E+00  0.00000000000E+00  0.58344220225E+01  0.58344241994E+01  0.50400000000E-02 0. -1.
         -2   -1    0    0    0  501 -0.00000000000E+00 -0.00000000000E+00 -0.27455768776E+03  0.27455768777E+03  0.25500000000E-02 0.  1.
        -24    2    1    2    0    0  0.00000000000E+00 -0.17763568394E-14 -0.26872326573E+03  0.28039211197E+03  0.80047129287E+02 0.  0.
         66    2    3    3    0    0  0.37795324842E+02  0.11224803706E+02 -0.15804670135E+03  0.16290255556E+03  0.20000001442E+01 0.  0.
         13    1    3    3    0    0 -0.37795324842E+02 -0.11224803706E+02 -0.11067656438E+03  0.11748955641E+03  0.10566000000E+00 0. -1.
         13    1    4    4    0    0  0.70650946758E+01  0.22728969624E+01 -0.30862012051E+02  0.31742031681E+02  0.10566000000E+00 0.  1.
        -13    1    4    4    0    0  0.21087012622E+02  0.54070147088E+01 -0.87521556816E+02  0.90188313993E+02  0.10566000000E+00 0.  1.
         14    1    4    4    0    0  0.96432175447E+01  0.35448920350E+01 -0.39663132485E+02  0.40972209883E+02  0.00000000000E+00 0. -1.
<mgrwt>
<rscale>  0 0.80047129E+02</rscale>
<asrwt>0</asrwt>
<pdfrwt beam="1">  1        1 0.89760377E-03 0.80047129E+02</pdfrwt>
<pdfrwt beam="2">  1       -2 0.42239634E-01 0.80047129E+02</pdfrwt>
<totfact> 0.73517861E+04</totfact>
</mgrwt>
</event>
<event>
 8    1  0.8247621E-014  0.8111481E+02  0.7818608E-02  0.1325917E+00
          1   -1    0    0  501    0  0.00000000000E+00  0.00000000000E+00  0.14736668118E+03  0.14736668127E+03  0.50400000000E-02 0. -1.
         -2   -1    0    0    0  501 -0.00000000000E+00 -0.00000000000E+00 -0.11161972737E+02  0.11161973029E+02  0.25500000000E-02 0.  1.
        -24    2    1    2    0    0  0.00000000000E+00  0.00000000000E+00  0.13620470844E+03  0.15852865430E+03  0.81114805249E+02 0.  0.
         66    2    3    3    0    0 -0.27529282769E+02  0.27568672023E+02  0.46292653649E+02  0.60538441273E+02  0.20000007527E+01 0.  0.
         13    1    3    3    0    0  0.27529282769E+02 -0.27568672023E+02  0.89912054795E+02  0.97990213023E+02  0.10566000000E+00 0. -1.
         13    1    4    4    0    0 -0.24793030038E+00  0.20510778160E+00  0.33354721297E+00  0.47534872967E+00  0.10566000000E+00 0.  1.
        -13    1    4    4    0    0 -0.20848285190E+02  0.21376168983E+02  0.34652705215E+02  0.45742898230E+02  0.10566000000E+00 0.  1.
        -14    1    4    4    0    0 -0.64330672787E+01  0.59873952578E+01  0.11306401221E+02  0.14320194313E+02  0.00000000000E+00 0.  1.
<mgrwt>
<rscale>  0 0.81114805E+02</rscale>
<asrwt>0</asrwt>
<pdfrwt beam="1">  1        1 0.22671795E-01 0.81114805E+02</pdfrwt>
<pdfrwt beam="2">  1       -2 0.17172268E-02 0.81114805E+02</pdfrwt>
<totfact> 0.15165020E+05</totfact>
</mgrwt>
</event>
<event>
 8    1  0.8247621E-014  0.8154078E+02  0.7818608E-02  0.1324735E+00
          1   -1    0    0  501    0  0.00000000000E+00  0.00000000000E+00  0.10397586629E+03  0.10397586641E+03  0.50400000000E-02 0. -1.
         -2   -1    0    0    0  501 -0.00000000000E+00 -0.00000000000E+00 -0.15986638619E+02  0.15986638822E+02  0.25500000000E-02 0.  1.
        -24    2    1    2    0    0  0.00000000000E+00  0.00000000000E+00  0.87989227673E+02  0.11996250524E+03  0.81540777995E+02 0.  0.
         66    2    3    3    0    0  0.45513820244E+01  0.32652188407E+02  0.87939410948E+01  0.34179143992E+02  0.19999994912E+01 0.  0.
         13    1    3    3    0    0 -0.45513820244E+01 -0.32652188407E+02  0.79195286578E+02  0.85783361244E+02  0.10566000000E+00 0. -1.
         13    1    4    4    0    0  0.14845383954E+01  0.75181841383E+01  0.27490735158E+01  0.81422058569E+01  0.10566000000E+00 0. -1.
        -13    1    4    4    0    0  0.23581385997E+01  0.18302883793E+02  0.42193638415E+01  0.18930677961E+02  0.10566000000E+00 0.  1.
         14    1    4    4    0    0  0.70870502932E+00  0.68311204755E+01  0.18255037375E+01  0.71062601743E+01  0.00000000000E+00 0. -1.
<mgrwt>
<rscale>  0 0.81540778E+02</rscale>
<asrwt>0</asrwt>
<pdfrwt beam="1">  1        1 0.15996287E-01 0.81540778E+02</pdfrwt>
<pdfrwt beam="2">  1       -2 0.24594829E-02 0.81540778E+02</pdfrwt>
<totfact> 0.14052703E+05</totfact>
</mgrwt>
</event>
<event>
 8    1  0.8247621E-014  0.7936117E+02  0.7818608E-02  0.1330874E+00
          1   -1    0    0  501    0  0.00000000000E+00  0.00000000000E+00  0.18399452223E+03  0.18399452230E+03  0.50400000000E-02 0. -1.
         -2   -1    0    0    0  501 -0.00000000000E+00 -0.00000000000E+00 -0.85575860317E+01  0.85575864117E+01  0.25500000000E-02 0.  1.
        -24    2    1    2    0    0  0.00000000000E+00  0.00000000000E+00  0.17543693620E+03  0.19255210871E+03  0.79361174300E+02 0.  0.
         66    2    3    3    0    0  0.17233120127E+02  0.21228909580E+02  0.18088901736E+02  0.32845934302E+02  0.20000007235E+01 0.  0.
         13    1    3    3    0    0 -0.17233120127E+02 -0.21228909580E+02  0.15734803446E+03  0.15970617441E+03  0.10566000000E+00 0. -1.
         13    1    4    4    0    0  0.94167236419E+01  0.11586962510E+02  0.90997484141E+01  0.17485678986E+02  0.10566000000E+00 0.  1.
        -13    1    4    4    0    0  0.33995360844E+01  0.35725802889E+01  0.31844584952E+01  0.58712958921E+01  0.10566000000E+00 0. -1.
        -14    1    4    4    0    0  0.44168604005E+01  0.60693667808E+01  0.58046948270E+01  0.94889594241E+01  0.00000000000E+00 0.  1.
<mgrwt>
<rscale>  0 0.79361174E+02</rscale>
<asrwt>0</asrwt>
<pdfrwt beam="1">  1        1 0.28306846E-01 0.79361174E+02</pdfrwt>
<pdfrwt beam="2">  1       -2 0.13165519E-02 0.79361174E+02</pdfrwt>
<totfact> 0.16760808E+05</totfact>
</mgrwt>
</event>
<event>
 8    1  0.8247621E-014  0.7987302E+02  0.7818608E-02  0.1329412E+00
         -2   -1    0    0    0  501 -0.00000000000E+00  0.00000000000E+00  0.15108374721E+02  0.15108374936E+02  0.25500000000E-02 0.  1.
          1   -1    0    0  501    0  0.00000000000E+00 -0.00000000000E+00 -0.10556561451E+03  0.10556561463E+03  0.50400000000E-02 0. -1.
        -24    2    1    2    0    0  0.00000000000E+00  0.00000000000E+00 -0.90457239785E+02  0.12067398956E+03  0.79873021274E+02 0.  0.
         66    2    3    3    0    0 -0.24053438980E+02  0.24367829418E+02 -0.14273573985E+02  0.37149615060E+02  0.19999868797E+01 0.  0.
         13    1    3    3    0    0  0.24053438980E+02 -0.24367829418E+02 -0.76183665800E+02  0.83524374503E+02  0.10566000000E+00 0. -1.
         13    1    4    4    0    0 -0.20257697699E+01  0.13863619734E+01 -0.10332611463E+01  0.26654334195E+01  0.10566000000E+00 0. -1.
        -13    1    4    4    0    0 -0.10639135094E+02  0.10676493266E+02 -0.64546605563E+01  0.16396722568E+02  0.10566000000E+00 0.  1.
        -14    1    4    4    0    0 -0.11388534115E+02  0.12304974178E+02 -0.67856522828E+01  0.18087459073E+02  0.00000000000E+00 0.  1.
<mgrwt>
<rscale>  0 0.79873021E+02</rscale>
<asrwt>0</asrwt>
<pdfrwt beam="1">  1        1 0.16240863E-01 0.79873021E+02</pdfrwt>
<pdfrwt beam="2">  1       -2 0.23243654E-02 0.79873021E+02</pdfrwt>
<totfact> 0.14898144E+05</totfact>
</mgrwt>
</event>
<event>
 8    1  0.8247621E-014  0.7969246E+02  0.7818608E-02  0.1329926E+00
         -2   -1    0    0    0  501 -0.00000000000E+00  0.00000000000E+00  0.30844528293E+03  0.30844528294E+03  0.25500000000E-02 0.  1.
          1   -1    0    0  501    0  0.00000000000E+00 -0.00000000000E+00 -0.51474990306E+01  0.51475014980E+01  0.50400000000E-02 0. -1.
        -24    2    1    2    0    0  0.35527136788E-14  0.88817841970E-15  0.30329778390E+03  0.31359278444E+03  0.79692463468E+02 0.  0.
         66    2    3    3    0    0 -0.20612565540E+02 -0.75735133094E+01  0.28246090392E+03  0.28332031025E+03  0.19999990779E+01 0.  0.
         13    1    3    3    0    0  0.20612565540E+02  0.75735133094E+01  0.20836879978E+02  0.30272474185E+02  0.10566000000E+00 0. -1.
         13    1    4    4    0    0 -0.29737672714E+01 -0.80834937937E+00  0.38309878172E+02  0.38433769658E+02  0.10566000000E+00 0.  1.
        -13    1    4    4    0    0 -0.25611617963E+01 -0.11519616395E+01  0.29581166784E+02  0.29714359453E+02  0.10566000000E+00 0. -1.
         14    1    4    4    0    0 -0.15077636473E+02 -0.56132022906E+01  0.21456985897E+03  0.21517218114E+03  0.00000000000E+00 0. -1.
<mgrwt>
<rscale>  0 0.79692463E+02</rscale>
<asrwt>0</asrwt>
<pdfrwt beam="1">  1        1 0.79192302E-03 0.79692463E+02</pdfrwt>
<pdfrwt beam="2">  1       -2 0.47453126E-01 0.79692463E+02</pdfrwt>
<totfact> 0.69898436E+04</totfact>
</mgrwt>
</event>
<event>
 8    1  0.8247621E-014  0.7923804E+02  0.7818608E-02  0.1331228E+00
          1   -1    0    0  501    0  0.00000000000E+00  0.00000000000E+00  0.10447803079E+02  0.10447804295E+02  0.50400000000E-02 0. -1.
         -2   -1    0    0    0  501 -0.00000000000E+00 -0.00000000000E+00 -0.15023893111E+03  0.15023893113E+03  0.25500000000E-02 0.  1.
        -24    2    1    2    0    0  0.35527136788E-14 -0.35527136788E-14 -0.13979112803E+03  0.16068673543E+03  0.79238043046E+02 0.  0.
         66    2    3    3    0    0  0.24307272627E+02 -0.29292780388E+02 -0.92038617212E+02  0.99619363295E+02  0.19999998968E+01 0.  0.
         13    1    3    3    0    0 -0.24307272627E+02  0.29292780388E+02 -0.47752510819E+02  0.61067372131E+02  0.10566000000E+00 0. -1.
         13    1    4    4    0    0  0.70661417823E+01 -0.79304991423E+01 -0.24308313259E+02  0.26527880312E+02  0.10566000000E+00 0. -1.
        -13    1    4    4    0    0  0.67775732131E+01 -0.77090530664E+01 -0.24374961663E+02  0.26448344333E+02  0.10566000000E+00 0.  1.
         14    1    4    4    0    0  0.10463557632E+02 -0.13653228179E+02 -0.43355342291E+02  0.46643138650E+02  0.00000000000E+00 0. -1.
<mgrwt>
<rscale>  0 0.79238043E+02</rscale>
<asrwt>0</asrwt>
<pdfrwt beam="1">  1        1 0.16073545E-02 0.79238043E+02</pdfrwt>
<pdfrwt beam="2">  1       -2 0.23113680E-01 0.79238043E+02</pdfrwt>
<totfact> 0.96815666E+04</totfact>
</mgrwt>
</event>
<event>
 8    1  0.8247621E-014  0.7805390E+02  0.7818608E-02  0.1334667E+00
         -2   -1    0    0    0  501 -0.00000000000E+00  0.00000000000E+00  0.16069601386E+02  0.16069601589E+02  0.25500000000E-02 0.  1.
          1   -1    0    0  501    0  0.00000000000E+00 -0.00000000000E+00 -0.94781611881E+02  0.94781612015E+02  0.50400000000E-02 0. -1.
        -24    2    1    2    0    0  0.00000000000E+00  0.17763568394E-14 -0.78712010494E+02  0.11085121360E+03  0.78053897797E+02 0.  0.
         66    2    3    3    0    0  0.23867293266E+02  0.13490337963E+02  0.13047822244E-01  0.27488854729E+02  0.20000144604E+01 0.  0.
         13    1    3    3    0    0 -0.23867293266E+02 -0.13490337963E+02 -0.78725058317E+02  0.83362358875E+02  0.10566000000E+00 0. -1.
         13    1    4    4    0    0  0.62031346585E+01  0.37633693075E+01 -0.15520630481E+00  0.72578978478E+01  0.10566000000E+00 0.  1.
        -13    1    4    4    0    0  0.14712578964E+02  0.74010744702E+01  0.59396244276E-02  0.16469580517E+02  0.10566000000E+00 0. -1.
         14    1    4    4    0    0  0.29515796432E+01  0.23258941857E+01  0.16231450262E+00  0.37613763639E+01  0.00000000000E+00 0. -1.
<mgrwt>
<rscale>  0 0.78053898E+02</rscale>
<asrwt>0</asrwt>
<pdfrwt beam="1">  1        1 0.14581786E-01 0.78053898E+02</pdfrwt>
<pdfrwt beam="2">  1       -2 0.24722464E-02 0.78053898E+02</pdfrwt>
<totfact> 0.15570647E+05</totfact>
</mgrwt>
</event>
<event>
 8    1  0.8247621E-014  0.8210442E+02  0.7818608E-02  0.1323183E+00
          1   -1    0    0  501    0  0.00000000000E+00  0.00000000000E+00  0.12058515697E+03  0.12058515708E+03  0.50400000000E-02 0. -1.
         -2   -1    0    0    0  501 -0.00000000000E+00 -0.00000000000E+00 -0.13975882769E+02  0.13975883001E+02  0.25500000000E-02 0.  1.
        -24    2    1    2    0    0 -0.88817841970E-15  0.00000000000E+00  0.10660927421E+03  0.13456104008E+03  0.82104422298E+02 0.  0.
         66    2    3    3    0    0 -0.53173212079E+01 -0.37225467102E+02  0.26442725597E+02  0.46013335505E+02  0.20000003735E+01 0.  0.
         13    1    3    3    0    0  0.53173212079E+01  0.37225467102E+02  0.80166548609E+02  0.88547704576E+02  0.10566000000E+00 0. -1.
         13    1    4    4    0    0 -0.97682091007E+00 -0.58128153813E+01  0.44389062862E+01  0.73795700960E+01  0.10566000000E+00 0.  1.
        -13    1    4    4    0    0 -0.22554010352E+01 -0.21718564134E+02  0.15411835497E+02  0.26726741277E+02  0.10566000000E+00 0. -1.
         14    1    4    4    0    0 -0.20850992626E+01 -0.96940875867E+01  0.65919838132E+01  0.11907024131E+02  0.00000000000E+00 0. -1.
<mgrwt>
<rscale>  0 0.82104422E+02</rscale>
<asrwt>0</asrwt>
<pdfrwt beam="1">  1        1 0.18551562E-01 0.82104422E+02</pdfrwt>
<pdfrwt beam="2">  1       -2 0.21501359E-02 0.82104422E+02</pdfrwt>
<totfact> 0.14154578E+05</totfact>
</mgrwt>
</event>
<event>
 8    1  0.8247621E-014  0.7968066E+02  0.7818608E-02  0.1329960E+00
          1   -1    0    0  501    0  0.00000000000E+00  0.00000000000E+00  0.16734205375E+02  0.16734206134E+02  0.50400000000E-02 0. -1.
         -2   -1    0    0    0  501 -0.00000000000E+00 -0.00000000000E+00 -0.94850750666E+02  0.94850750701E+02  0.25500000000E-02 0.  1.
        -24    2    1    2    0    0  0.35527136788E-14  0.00000000000E+00 -0.78116545291E+02  0.11158495683E+03  0.79680662293E+02 0.  0.
         66    2    3    3    0    0  0.19901332832E+02 -0.34331700840E+02 -0.43624585923E+02  0.59007060755E+02  0.19999977365E+01 0.  0.
         13    1    3    3    0    0 -0.19901332832E+02  0.34331700840E+02 -0.34491959368E+02  0.52577896079E+02  0.10566000000E+00 0. -1.
         13    1    4    4    0    0  0.65667814282E+01 -0.12247356911E+02 -0.15695901730E+02  0.20964085116E+02  0.10566000000E+00 0. -1.
        -13    1    4    4    0    0  0.89361086722E+00 -0.20891236554E+01 -0.22152999621E+01  0.31751686549E+01  0.10566000000E+00 0.  1.
        -14    1    4    4    0    0  0.12440940536E+02 -0.19995220274E+02 -0.25713384232E+02  0.34867806984E+02  0.00000000000E+00 0.  1.
<mgrwt>
<rscale>  0 0.79680662E+02</rscale>
<asrwt>0</asrwt>
<pdfrwt beam="1">  1        1 0.25744933E-02 0.79680662E+02</pdfrwt>
<pdfrwt beam="2">  1       -2 0.14592423E-01 0.79680662E+02</pdfrwt>
<totfact> 0.10861180E+05</totfact>
</mgrwt>
</event>
<event>
 8    1  0.8247621E-014  0.8323102E+02  0.7818608E-02  0.1320124E+00
          1   -1    0    0  501    0  0.00000000000E+00  0.00000000000E+00  0.17231294459E+03  0.17231294467E+03  0.50400000000E-02 0. -1.
         -2   -1    0    0    0  501 -0.00000000000E+00 -0.00000000000E+00 -0.10050613630E+02  0.10050613953E+02  0.25500000000E-02 0.  1.
        -24    2    1    2    0    0 -0.35527136788E-14  0.00000000000E+00  0.16226233096E+03  0.18236355862E+03  0.83231024641E+02 0.  0.
         66    2    3    3    0    0  0.24978014815E+02  0.15162377219E+02  0.16326906602E+02  0.33531579010E+02  0.20000011708E+01 0.  0.
         13    1    3    3    0    0 -0.24978014815E+02 -0.15162377219E+02  0.14593542436E+03  0.14883197961E+03  0.10566000000E+00 0. -1.
         13    1    4    4    0    0  0.42416751268E+01  0.28351367076E+01  0.35201289122E+01  0.61993773580E+01  0.10566000000E+00 0. -1.
        -13    1    4    4    0    0  0.10470857772E+01  0.51497095141E+00  0.82692404079E+00  0.14340680285E+01  0.10566000000E+00 0. -1.
        -14    1    4    4    0    0  0.19689253911E+02  0.11812269560E+02  0.11979853649E+02  0.25898133624E+02  0.00000000000E+00 0.  1.
<mgrwt>
<rscale>  0 0.83231025E+02</rscale>
<asrwt>0</asrwt>
<pdfrwt beam="1">  1        1 0.26509682E-01 0.83231025E+02</pdfrwt>
<pdfrwt beam="2">  1       -2 0.15462484E-02 0.83231025E+02</pdfrwt>
<totfact> 0.14577918E+05</totfact>
</mgrwt>
</event>
<event>
 8    1  0.8247621E-014  0.7863681E+02  0.7818608E-02  0.1332965E+00
          1   -1    0    0  501    0  0.00000000000E+00  0.00000000000E+00  0.69330373460E+02  0.69330373643E+02  0.50400000000E-02 0. -1.
         -2   -1    0    0    0  501 -0.00000000000E+00 -0.00000000000E+00 -0.22298116856E+02  0.22298117001E+02  0.25500000000E-02 0.  1.
        -24    2    1    2    0    0  0.00000000000E+00  0.00000000000E+00  0.47032256604E+02  0.91628490644E+02  0.78636805228E+02 0.  0.
         66    2    3    3    0    0 -0.20914324051E+02  0.18496322529E+02 -0.86844011125E+01  0.29307707524E+02  0.20000000116E+01 0.  0.
         13    1    3    3    0    0  0.20914324051E+02 -0.18496322529E+02  0.55716657717E+02  0.62320783120E+02  0.10566000000E+00 0. -1.
         13    1    4    4    0    0 -0.11472846849E+02  0.96296989941E+01 -0.45713046904E+01  0.15660948507E+02  0.10566000000E+00 0. -1.
        -13    1    4    4    0    0 -0.88974708301E+01  0.84208072938E+01 -0.41697522878E+01  0.12941135222E+02  0.10566000000E+00 0.  1.
        -14    1    4    4    0    0 -0.54400637134E+00  0.44581624059E+00  0.56655865768E-01  0.70562379464E+00  0.00000000000E+00 0.  1.
<mgrwt>
<rscale>  0 0.78636805E+02</rscale>
<asrwt>0</asrwt>
<pdfrwt beam="1">  1        1 0.10666211E-01 0.78636805E+02</pdfrwt>
<pdfrwt beam="2">  1       -2 0.34304796E-02 0.78636805E+02</pdfrwt>
<totfact> 0.14516272E+05</totfact>
</mgrwt>
</event>
<event>
 8    1  0.8247621E-014  0.8078866E+02  0.7818608E-02  0.1326828E+00
          1   -1    0    0  501    0  0.00000000000E+00  0.00000000000E+00  0.15908026816E+03  0.15908026824E+03  0.50400000000E-02 0. -1.
         -2   -1    0    0    0  501 -0.00000000000E+00 -0.00000000000E+00 -0.10257097766E+02  0.10257098083E+02  0.25500000000E-02 0.  1.
        -24    2    1    2    0    0  0.00000000000E+00 -0.17763568394E-14  0.14882317039E+03  0.16933736632E+03  0.80788660015E+02 0.  0.
         66    2    3    3    0    0 -0.21532670023E+02  0.13832741009E+02  0.90180005085E+01  0.27208912828E+02  0.20000004845E+01 0.  0.
         13    1    3    3    0    0  0.21532670023E+02 -0.13832741009E+02  0.13980516988E+03  0.14212845349E+03  0.10566000000E+00 0. -1.
         13    1    4    4    0    0 -0.15169559398E+02  0.96702796720E+01  0.63252891568E+01  0.19069616887E+02  0.10566000000E+00 0. -1.
        -13    1    4    4    0    0 -0.63655777825E+01  0.41992140590E+01  0.27159160407E+01  0.80957608163E+01  0.10566000000E+00 0.  1.
         14    1    4    4    0    0  0.24671575619E-02 -0.36752721943E-01 -0.23204689093E-01  0.43535124125E-01  0.00000000000E+00 0. -1.
<mgrwt>
<rscale>  0 0.80788660E+02</rscale>
<asrwt>0</asrwt>
<pdfrwt beam="1">  1        1 0.24473886E-01 0.80788660E+02</pdfrwt>
<pdfrwt beam="2">  1       -2 0.15780151E-02 0.80788660E+02</pdfrwt>
<totfact> 0.15548974E+05</totfact>
</mgrwt>
</event>
<event>
 8    1  0.8247621E-014  0.7960356E+02  0.7818608E-02  0.1330180E+00
         -2   -1    0    0    0  501 -0.00000000000E+00  0.00000000000E+00  0.20311553415E+02  0.20311553575E+02  0.25500000000E-02 0.  1.
          1   -1    0    0  501    0  0.00000000000E+00 -0.00000000000E+00 -0.77994115081E+02  0.77994115244E+02  0.50400000000E-02 0. -1.
        -24    2    1    2    0    0 -0.35527136788E-14  0.88817841970E-15 -0.57682561666E+02  0.98305668819E+02  0.79603558976E+02 0.  0.
         66    2    3    3    0    0  0.27437469570E+02 -0.52229496319E+01  0.61153987758E+01  0.28661682289E+02  0.19999975441E+01 0.  0.
         13    1    3    3    0    0 -0.27437469570E+02  0.52229496319E+01 -0.63797960441E+02  0.69643986530E+02  0.10566000000E+00 0. -1.
         13    1    4    4    0    0  0.98803484117E+01 -0.26267976978E+01  0.23304365032E+01  0.10486345847E+02  0.10566000000E+00 0. -1.
        -13    1    4    4    0    0  0.11013247353E+02 -0.14894965516E+01  0.28444333517E+01  0.11472235282E+02  0.10566000000E+00 0.  1.
         14    1    4    4    0    0  0.65438738054E+01 -0.11066553825E+01  0.94052892085E+00  0.67031011605E+01  0.00000000000E+00 0. -1.
<mgrwt>
<rscale>  0 0.79603559E+02</rscale>
<asrwt>0</asrwt>
<pdfrwt beam="1">  1        1 0.11999095E-01 0.79603559E+02</pdfrwt>
<pdfrwt beam="2">  1       -2 0.31248544E-02 0.79603559E+02</pdfrwt>
<totfact> 0.14304025E+05</totfact>
</mgrwt>
</event>
<event>
 8    1  0.8247621E-014  0.7831257E+02  0.7818608E-02  0.1333909E+00
         -2   -1    0    0    0  501 -0.00000000000E+00  0.00000000000E+00  0.55908736289E+02  0.55908736347E+02  0.25500000000E-02 0.  1.
          1   -1    0    0  501    0  0.00000000000E+00 -0.00000000000E+00 -0.27423523491E+02  0.27423523954E+02  0.50400000000E-02 0. -1.
        -24    2    1    2    0    0  0.00000000000E+00 -0.17763568394E-14  0.28485212798E+02  0.83332260302E+02  0.78312567694E+02 0.  0.
         66    2    3    3    0    0 -0.82880625602E+01  0.14497487507E+02  0.51908626500E+02  0.54565324446E+02  0.20000004467E+01 0.  0.
         13    1    3    3    0    0  0.82880625602E+01 -0.14497487507E+02 -0.23423413702E+02  0.28766935856E+02  0.10566000000E+00 0. -1.
         13    1    4    4    0    0 -0.40473411308E+01  0.63906998294E+01  0.22209951717E+02  0.23463058920E+02  0.10566000000E+00 0. -1.
        -13    1    4    4    0    0 -0.16153367916E+01  0.43226957693E+01  0.15792965847E+02  0.16453690952E+02  0.10566000000E+00 0.  1.
        -14    1    4    4    0    0 -0.26253846378E+01  0.37840919087E+01  0.13905708935E+02  0.14648574574E+02  0.00000000000E+00 0.  1.
<mgrwt>
<rscale>  0 0.78312568E+02</rscale>
<asrwt>0</asrwt>
<pdfrwt beam="1">  1        1 0.42190037E-02 0.78312568E+02</pdfrwt>
<pdfrwt beam="2">  1       -2 0.86013440E-02 0.78312568E+02</pdfrwt>
<totfact> 0.12656181E+05</totfact>
</mgrwt>
</event>
<event>
 8    1  0.8247621E-014  0.8501279E+02  0.7818608E-02  0.1315399E+00
          1   -1    0    0  501    0  0.00000000000E+00  0.00000000000E+00  0.12162325391E+02  0.12162326435E+02  0.50400000000E-02 0. -1.
         -2   -1    0    0    0  501 -0.00000000000E+00 -0.00000000000E+00 -0.14855659423E+03  0.14855659425E+03  0.25500000000E-02 0.  1.
        -24    2    1    2    0    0  0.00000000000E+00  0.00000000000E+00 -0.13639426884E+03  0.16071892069E+03  0.85012792536E+02 0.  0.
         66    2    3    3    0    0 -0.22113238241E+02  0.16622886277E+02 -0.12918696741E+03  0.13213095099E+03  0.20000016060E+01 0.  0.
         13    1    3    3    0    0  0.22113238241E+02 -0.16622886277E+02 -0.72073014291E+01  0.28587969700E+02  0.10566000000E+00 0. -1.
         13    1    4    4    0    0 -0.13893419927E+01  0.13744129622E+01 -0.77341363566E+01  0.79779265089E+01  0.10566000000E+00 0. -1.
        -13    1    4    4    0    0 -0.13176078319E+02  0.90782572769E+01 -0.76281791615E+02  0.77941944363E+02  0.10566000000E+00 0.  1.
        -14    1    4    4    0    0 -0.75478179285E+01  0.61702160376E+01 -0.45171039440E+02  0.46211080116E+02  0.00000000000E+00 0.  1.
<mgrwt>
<rscale>  0 0.85012793E+02</rscale>
<asrwt>0</asrwt>
<pdfrwt beam="1">  1        1 0.18711272E-02 0.85012793E+02</pdfrwt>
<pdfrwt beam="2">  1       -2 0.22854859E-01 0.85012793E+02</pdfrwt>
<totfact> 0.81063679E+04</totfact>
</mgrwt>
</event>
<event>
 8    1  0.8247621E-014  0.7791565E+02  0.7818608E-02  0.1335073E+00
          1   -1    0    0  501    0  0.00000000000E+00  0.00000000000E+00  0.56372470037E+01  0.56372492568E+01  0.50400000000E-02 0. -1.
         -2   -1    0    0    0  501 -0.00000000000E+00 -0.00000000000E+00 -0.26922926806E+03  0.26922926807E+03  0.25500000000E-02 0.  1.
        -24    2    1    2    0    0  0.00000000000E+00  0.00000000000E+00 -0.26359202105E+03  0.27486651733E+03  0.77915651726E+02 0.  0.
         66    2    3    3    0    0  0.10865365604E+02 -0.80414405012E+01 -0.26068086220E+03  0.26103875739E+03  0.20000014439E+01 0.  0.
         13    1    3    3    0    0 -0.10865365604E+02  0.80414405012E+01 -0.29111588545E+01  0.13827759940E+02  0.10566000000E+00 0. -1.
         13    1    4    4    0    0  0.27736760331E+01 -0.14074354216E+01 -0.59118640086E+02  0.59200497657E+02  0.10566000000E+00 0. -1.
        -13    1    4    4    0    0  0.58788988325E+01 -0.51806077184E+01 -0.16001275925E+03  0.16020453937E+03  0.10566000000E+00 0.  1.
        -14    1    4    4    0    0  0.22127907387E+01 -0.14533973612E+01 -0.41549462861E+02  0.41633720357E+02  0.00000000000E+00 0.  1.
<mgrwt>
<rscale>  0 0.77915652E+02</rscale>
<asrwt>0</asrwt>
<pdfrwt beam="1">  1        1 0.86726915E-03 0.77915652E+02</pdfrwt>
<pdfrwt beam="2">  1       -2 0.41419878E-01 0.77915652E+02</pdfrwt>
<totfact> 0.79607756E+04</totfact>
</mgrwt>
</event>
<event>
 8    1  0.8247621E-014  0.8111692E+02  0.7818608E-02  0.1325911E+00
          1   -1    0    0  501    0  0.00000000000E+00  0.00000000000E+00  0.46915543155E+02  0.46915543426E+02  0.50400000000E-02 0. -1.
         -2   -1    0    0    0  501 -0.00000000000E+00 -0.00000000000E+00 -0.35062762384E+02  0.35062762477E+02  0.25500000000E-02 0.  1.
        -24    2    1    2    0    0  0.00000000000E+00  0.00000000000E+00  0.11852780771E+02  0.81978305903E+02  0.81116917019E+02 0.  0.
         66    2    3    3    0    0 -0.29025578214E+02 -0.10121496552E+02 -0.20771306200E+02  0.37153412173E+02  0.19999979255E+01 0.  0.
         13    1    3    3    0    0  0.29025578214E+02  0.10121496552E+02  0.32624086971E+02  0.44824893730E+02  0.10566000000E+00 0. -1.
         13    1    4    4    0    0 -0.64466148839E+01 -0.22375913928E+01 -0.39027731184E+01  0.78618357113E+01  0.10566000000E+00 0. -1.
        -13    1    4    4    0    0 -0.17148162162E+02 -0.61593284991E+01 -0.13439736671E+02  0.22641432793E+02  0.10566000000E+00 0.  1.
        -14    1    4    4    0    0 -0.54308011686E+01 -0.17245766605E+01 -0.34287964104E+01  0.66501436687E+01  0.00000000000E+00 0.  1.
<mgrwt>
<rscale>  0 0.81116917E+02</rscale>
<asrwt>0</asrwt>
<pdfrwt beam="1">  1        1 0.72177759E-02 0.81116917E+02</pdfrwt>
<pdfrwt beam="2">  1       -2 0.53942711E-02 0.81116917E+02</pdfrwt>
<totfact> 0.12530638E+05</totfact>
</mgrwt>
</event>
<event>
 8    1  0.8247621E-014  0.7842809E+02  0.7818608E-02  0.1333572E+00
         -2   -1    0    0    0  501 -0.00000000000E+00  0.00000000000E+00  0.47570101340E+02  0.47570101408E+02  0.25500000000E-02 0.  1.
          1   -1    0    0  501    0  0.00000000000E+00 -0.00000000000E+00 -0.32325790626E+02  0.32325791019E+02  0.50400000000E-02 0. -1.
        -24    2    1    2    0    0 -0.11102230246E-15 -0.35527136788E-14  0.15244310714E+02  0.79895892427E+02  0.78428085643E+02 0.  0.
         66    2    3    3    0    0 -0.71799241060E+00 -0.23584256319E+02  0.39501715112E+02  0.46055598525E+02  0.19999998752E+01 0.  0.
         13    1    3    3    0    0  0.71799241060E+00  0.23584256319E+02 -0.24257404397E+02  0.33840293902E+02  0.10566000000E+00 0. -1.
         13    1    4    4    0    0  0.13974187640E+00 -0.50478550239E+01  0.74358296066E+01  0.89890541276E+01  0.10566000000E+00 0. -1.
        -13    1    4    4    0    0  0.84612214256E-01 -0.26803435257E+00  0.49246673545E+00  0.57679213074E+00  0.10566000000E+00 0. -1.
        -14    1    4    4    0    0 -0.94234650126E+00 -0.18268366943E+02  0.31573418770E+02  0.36489752267E+02  0.00000000000E+00 0.  1.
<mgrwt>
<rscale>  0 0.78428086E+02</rscale>
<asrwt>0</asrwt>
<pdfrwt beam="1">  1        1 0.49731987E-02 0.78428086E+02</pdfrwt>
<pdfrwt beam="2">  1       -2 0.73184771E-02 0.78428086E+02</pdfrwt>
<totfact> 0.12967199E+05</totfact>
</mgrwt>
</event>
<event>
 8    1  0.8247621E-014  0.7827167E+02  0.7818608E-02  0.1334029E+00
         -2   -1    0    0    0  501 -0.00000000000E+00  0.00000000000E+00  0.91668655445E+01  0.91668658992E+01  0.25500000000E-02 0.  1.
          1   -1    0    0  501    0  0.00000000000E+00 -0.00000000000E+00 -0.16708148561E+03  0.16708148568E+03  0.50400000000E-02 0. -1.
        -24    2    1    2    0    0 -0.35527136788E-14  0.00000000000E+00 -0.15791462006E+03  0.17624835158E+03  0.78271669242E+02 0.  0.
         66    2    3    3    0    0 -0.24193854887E+02  0.85530328116E+01 -0.12549171367E+02  0.28635270106E+02  0.20000018655E+01 0.  0.
         13    1    3    3    0    0  0.24193854887E+02 -0.85530328116E+01 -0.14536544869E+03  0.14761308148E+03  0.10566000000E+00 0. -1.
         13    1    4    4    0    0 -0.32673641856E+01  0.96587242649E+00 -0.10277154673E+01  0.35603288307E+01  0.10566000000E+00 0. -1.
        -13    1    4    4    0    0 -0.67566113860E+01  0.25281356852E+01 -0.40960122318E+01  0.82964900834E+01  0.10566000000E+00 0.  1.
         14    1    4    4    0    0 -0.14169879315E+02  0.50590246999E+01 -0.74254436680E+01  0.16778451192E+02  0.00000000000E+00 0. -1.
<mgrwt>
<rscale>  0 0.78271669E+02</rscale>
<asrwt>0</asrwt>
<pdfrwt beam="1">  1        1 0.25704842E-01 0.78271669E+02</pdfrwt>
<pdfrwt beam="2">  1       -2 0.14102872E-02 0.78271669E+02</pdfrwt>
<totfact> 0.17073507E+05</totfact>
</mgrwt>
</event>
<event>
 8    1  0.8247621E-014  0.7974778E+02  0.7818608E-02  0.1329769E+00
          1   -1    0    0  501    0  0.00000000000E+00  0.00000000000E+00  0.97637891350E+01  0.97637904358E+01  0.50400000000E-02 0. -1.
         -2   -1    0    0    0  501 -0.00000000000E+00 -0.00000000000E+00 -0.16283913209E+03  0.16283913211E+03  0.25500000000E-02 0.  1.
        -24    2    1    2    0    0  0.00000000000E+00  0.17763568394E-14 -0.15307534295E+03  0.17260292254E+03  0.79747778969E+02 0.  0.
         66    2    3    3    0    0  0.37872797840E+02 -0.12253739377E+02 -0.80587788399E+02  0.89904919701E+02  0.20000006106E+01 0.  0.
         13    1    3    3    0    0 -0.37872797840E+02  0.12253739377E+02 -0.72487554555E+02  0.82698002844E+02  0.10566000000E+00 0. -1.
         13    1    4    4    0    0  0.56183719530E+01 -0.16641470278E+01 -0.12450147409E+02  0.13760553161E+02  0.10566000000E+00 0.  1.
        -13    1    4    4    0    0  0.23087136812E+02 -0.70913570141E+01 -0.47117853651E+02  0.52947205093E+02  0.10566000000E+00 0.  1.
         14    1    4    4    0    0  0.91672890752E+01 -0.34982353349E+01 -0.21019787339E+02  0.23197161448E+02  0.00000000000E+00 0. -1.
<mgrwt>
<rscale>  0 0.79747779E+02</rscale>
<asrwt>0</asrwt>
<pdfrwt beam="1">  1        1 0.15021216E-02 0.79747779E+02</pdfrwt>
<pdfrwt beam="2">  1       -2 0.25052172E-01 0.79747779E+02</pdfrwt>
<totfact> 0.92670339E+04</totfact>
</mgrwt>
</event>
<event>
 8    1  0.8247621E-014  0.7957813E+02  0.7818608E-02  0.1330253E+00
          1   -1    0    0  501    0  0.00000000000E+00  0.00000000000E+00  0.12876943701E+03  0.12876943710E+03  0.50400000000E-02 0. -1.
         -2   -1    0    0    0  501 -0.00000000000E+00 -0.00000000000E+00 -0.12294607450E+02  0.12294607714E+02  0.25500000000E-02 0.  1.
        -24    2    1    2    0    0 -0.71054273576E-14  0.00000000000E+00  0.11647482956E+03  0.14106404482E+03  0.79578130290E+02 0.  0.
         66    2    3    3    0    0  0.38149890849E+02 -0.10984910875E+02  0.54277839744E+02  0.67276788843E+02  0.19999977669E+01 0.  0.
         13    1    3    3    0    0 -0.38149890849E+02  0.10984910875E+02  0.62196989812E+02  0.73787255976E+02  0.10566000000E+00 0. -1.
         13    1    4    4    0    0  0.21166799907E+02 -0.62949819432E+01  0.29328736820E+02  0.36713024711E+02  0.10566000000E+00 0. -1.
        -13    1    4    4    0    0  0.52457457144E+01 -0.99176620879E+00  0.71126744685E+01  0.88939727031E+01  0.10566000000E+00 0. -1.
        -14    1    4    4    0    0  0.11737345227E+02 -0.36981627228E+01  0.17836428456E+02  0.21669791429E+02  0.00000000000E+00 0.  1.
<mgrwt>
<rscale>  0 0.79578130E+02</rscale>
<asrwt>0</asrwt>
<pdfrwt beam="1">  1        1 0.19810684E-01 0.79578130E+02</pdfrwt>
<pdfrwt beam="2">  1       -2 0.18914780E-02 0.79578130E+02</pdfrwt>
<totfact> 0.15576236E+05</totfact>
</mgrwt>
</event>
<event>
 8    1  0.8247621E-014  0.7817163E+02  0.7818608E-02  0.1334322E+00
          1   -1    0    0  501    0  0.00000000000E+00  0.00000000000E+00  0.11555440542E+02  0.11555441641E+02  0.50400000000E-02 0. -1.
         -2   -1    0    0    0  501 -0.00000000000E+00 -0.00000000000E+00 -0.13220620445E+03  0.13220620448E+03  0.25500000000E-02 0.  1.
        -24    2    1    2    0    0 -0.17763568394E-14  0.00000000000E+00 -0.12065076391E+03  0.14376164612E+03  0.78171632082E+02 0.  0.
         66    2    3    3    0    0  0.94179620112E+01  0.78967127487E+01 -0.12854968122E+03  0.12915137099E+03  0.20000020654E+01 0.  0.
         13    1    3    3    0    0 -0.94179620112E+01 -0.78967127487E+01  0.78989173025E+01  0.14610275126E+02  0.10566000000E+00 0. -1.
         13    1    4    4    0    0  0.87940943971E+00  0.92281601178E+00 -0.96406948744E+01  0.97251792812E+01  0.10566000000E+00 0. -1.
        -13    1    4    4    0    0  0.67910186984E+01  0.53240337999E+01 -0.87067883398E+02  0.87494518424E+02  0.10566000000E+00 0.  1.
         14    1    4    4    0    0  0.17475338731E+01  0.16498629370E+01 -0.31841102943E+02  0.31931673288E+02  0.00000000000E+00 0. -1.
<mgrwt>
<rscale>  0 0.78171632E+02</rscale>
<asrwt>0</asrwt>
<pdfrwt beam="1">  1        1 0.17777603E-02 0.78171632E+02</pdfrwt>
<pdfrwt beam="2">  1       -2 0.20339415E-01 0.78171632E+02</pdfrwt>
<totfact> 0.10435382E+05</totfact>
</mgrwt>
</event>
<event>
 8    1  0.8247621E-014  0.8006827E+02  0.7818608E-02  0.1328858E+00
          1   -1    0    0  501    0  0.00000000000E+00  0.00000000000E+00  0.11098209756E+02  0.11098210900E+02  0.50400000000E-02 0. -1.
         -2   -1    0    0    0  501 -0.00000000000E+00 -0.00000000000E+00 -0.14441356563E+03  0.14441356565E+03  0.25500000000E-02 0.  1.
        -24    2    1    2    0    0  0.00000000000E+00 -0.71054273576E-14 -0.13331535587E+03  0.15551177655E+03  0.80068274209E+02 0.  0.
         66    2    3    3    0    0  0.30845510098E+01 -0.38273881913E+02 -0.88528636443E+02  0.96517998126E+02  0.20000000529E+01 0.  0.
         13    1    3    3    0    0 -0.30845510098E+01  0.38273881913E+02 -0.44786719432E+02  0.58993778428E+02  0.10566000000E+00 0. -1.
         13    1    4    4    0    0  0.90254363956E+00 -0.17038623854E+02 -0.38447229000E+02  0.42063402973E+02  0.10566000000E+00 0.  1.
        -13    1    4    4    0    0  0.58064130238E+00 -0.22992083748E+01 -0.52449061843E+01  0.57570572683E+01  0.10566000000E+00 0. -1.
        -14    1    4    4    0    0  0.16013660679E+01 -0.18936049684E+02 -0.44836501259E+02  0.48697537885E+02  0.00000000000E+00 0.  1.
<mgrwt>
<rscale>  0 0.80068274E+02</rscale>
<asrwt>0</asrwt>
<pdfrwt beam="1">  1        1 0.17074171E-02 0.80068274E+02</pdfrwt>
<pdfrwt beam="2">  1       -2 0.22217470E-01 0.80068274E+02</pdfrwt>
<totfact> 0.95470695E+04</totfact>
</mgrwt>
</event>
<event>
 8    1  0.8247621E-014  0.8086120E+02  0.7818608E-02  0.1326625E+00
          1   -1    0    0  501    0  0.00000000000E+00  0.00000000000E+00  0.15430595106E+02  0.15430595929E+02  0.50400000000E-02 0. -1.
         -2   -1    0    0    0  501 -0.00000000000E+00 -0.00000000000E+00 -0.10593456314E+03  0.10593456317E+03  0.25500000000E-02 0.  1.
        -24    2    1    2    0    0 -0.17763568394E-14  0.00000000000E+00 -0.90503968036E+02  0.12136515910E+03  0.80861199680E+02 0.  0.
         66    2    3    3    0    0  0.12750282932E+02 -0.93406996409E+01 -0.10109255718E+03  0.10234023417E+03  0.20000066105E+01 0.  0.
         13    1    3    3    0    0 -0.12750282932E+02  0.93406996409E+01  0.10588589149E+02  0.19024924936E+02  0.10566000000E+00 0. -1.
         13    1    4    4    0    0  0.53973706309E+01 -0.32972958717E+01 -0.42066871027E+02  0.42539823364E+02  0.10566000000E+00 0. -1.
        -13    1    4    4    0    0  0.68998587694E+01 -0.57105602730E+01 -0.53321260958E+02  0.54068351037E+02  0.10566000000E+00 0.  1.
         14    1    4    4    0    0  0.45305353138E+00 -0.33284349628E+00 -0.57044251992E+01  0.57320597649E+01  0.00000000000E+00 0. -1.
<mgrwt>
<rscale>  0 0.80861200E+02</rscale>
<asrwt>0</asrwt>
<pdfrwt beam="1">  1        1 0.23739378E-02 0.80861200E+02</pdfrwt>
<pdfrwt beam="2">  1       -2 0.16297625E-01 0.80861200E+02</pdfrwt>
<totfact> 0.10176035E+05</totfact>
</mgrwt>
</event>
<event>
 8    1  0.8247621E-014  0.7992187E+02  0.7818608E-02  0.1329273E+00
          1   -1    0    0  501    0  0.00000000000E+00  0.00000000000E+00  0.85700996617E+02  0.85700996766E+02  0.50400000000E-02 0. -1.
         -2   -1    0    0    0  501 -0.00000000000E+00 -0.00000000000E+00 -0.18633110157E+02  0.18633110331E+02  0.25500000000E-02 0.  1.
        -24    2    1    2    0    0 -0.35527136788E-14 -0.35527136788E-14  0.67067886461E+02  0.10433410710E+03  0.79921865027E+02 0.  0.
         66    2    3    3    0    0 -0.26501332904E+02 -0.16789877190E+02  0.12954260838E+01  0.31462656378E+02  0.19999989747E+01 0.  0.
         13    1    3    3    0    0  0.26501332904E+02  0.16789877190E+02  0.65772460377E+02  0.72871450718E+02  0.10566000000E+00 0. -1.
         13    1    4    4    0    0 -0.11477957486E+02 -0.67280047783E+01  0.36343929546E+00  0.13309876352E+02  0.10566000000E+00 0. -1.
        -13    1    4    4    0    0 -0.12953499527E+02 -0.86097663657E+01  0.34943850388E+00  0.15558100725E+02  0.10566000000E+00 0.  1.
         14    1    4    4    0    0 -0.20698758913E+01 -0.14521060465E+01  0.58254828445E+00  0.25946793018E+01  0.00000000000E+00 0. -1.
<mgrwt>
<rscale>  0 0.79921865E+02</rscale>
<asrwt>0</asrwt>
<pdfrwt beam="1">  1        1 0.13184768E-01 0.79921865E+02</pdfrwt>
<pdfrwt beam="2">  1       -2 0.28666324E-02 0.79921865E+02</pdfrwt>
<totfact> 0.14366461E+05</totfact>
</mgrwt>
</event>
<event>
 8    1  0.8247621E-014  0.7862589E+02  0.7818608E-02  0.1332997E+00
          1   -1    0    0  501    0  0.00000000000E+00  0.00000000000E+00  0.60702887496E+02  0.60702887705E+02  0.50400000000E-02 0. -1.
         -2   -1    0    0    0  501 -0.00000000000E+00 -0.00000000000E+00 -0.25460201507E+02  0.25460201635E+02  0.25500000000E-02 0.  1.
        -24    2    1    2    0    0  0.00000000000E+00  0.00000000000E+00  0.35242685989E+02  0.86163089340E+02  0.78625892993E+02 0.  0.
         66    2    3    3    0    0  0.34012926632E+02 -0.19538444289E+02  0.20051766076E+02  0.44098790997E+02  0.20000153267E+01 0.  0.
         13    1    3    3    0    0 -0.34012926632E+02  0.19538444289E+02  0.15190919912E+02  0.42064298343E+02  0.10566000000E+00 0. -1.
         13    1    4    4    0    0  0.92013762698E+01 -0.53592924371E+01  0.60093295340E+01  0.12227450518E+02  0.10566000000E+00 0. -1.
        -13    1    4    4    0    0  0.24410031057E+02 -0.14035478393E+02  0.13990177850E+02  0.31441700181E+02  0.10566000000E+00 0.  1.
        -14    1    4    4    0    0  0.40151930482E+00 -0.14367345814E+00  0.52258692235E-01  0.42964029796E+00  0.00000000000E+00 0.  1.
<mgrwt>
<rscale>  0 0.78625893E+02</rscale>
<asrwt>0</asrwt>
<pdfrwt beam="1">  1        1 0.93389057E-02 0.78625893E+02</pdfrwt>
<pdfrwt beam="2">  1       -2 0.39169541E-02 0.78625893E+02</pdfrwt>
<totfact> 0.14225325E+05</totfact>
</mgrwt>
</event>
<event>
 8    1  0.8247621E-014  0.7861326E+02  0.7818608E-02  0.1333033E+00
         -2   -1    0    0    0  501 -0.00000000000E+00  0.00000000000E+00  0.15031657461E+02  0.15031657677E+02  0.25500000000E-02 0.  1.
          1   -1    0    0  501    0  0.00000000000E+00 -0.00000000000E+00 -0.10278382672E+03  0.10278382684E+03  0.50400000000E-02 0. -1.
        -24    2    1    2    0    0  0.00000000000E+00  0.00000000000E+00 -0.87752169260E+02  0.11781548452E+03  0.78613263405E+02 0.  0.
         66    2    3    3    0    0  0.32405791675E+02  0.19864156151E+02 -0.29046652207E+02  0.47879306972E+02  0.19999995016E+01 0.  0.
         13    1    3    3    0    0 -0.32405791675E+02 -0.19864156151E+02 -0.58705517053E+02  0.69936177549E+02  0.10566000000E+00 0. -1.
         13    1    4    4    0    0  0.48700227367E+01  0.28920569475E+01 -0.39472877178E+01  0.69045897203E+01  0.10566000000E+00 0. -1.
        -13    1    4    4    0    0  0.39636394620E+01  0.24960981467E+01 -0.43742179026E+01  0.64098276137E+01  0.10566000000E+00 0.  1.
        -14    1    4    4    0    0  0.23572129476E+02  0.14476001057E+02 -0.20725146587E+02  0.34564889638E+02  0.00000000000E+00 0.  1.
<mgrwt>
<rscale>  0 0.78613263E+02</rscale>
<asrwt>0</asrwt>
<pdfrwt beam="1">  1        1 0.15812896E-01 0.78613263E+02</pdfrwt>
<pdfrwt beam="2">  1       -2 0.23125628E-02 0.78613263E+02</pdfrwt>
<totfact> 0.15480536E+05</totfact>
</mgrwt>
</event>
<event>
 8    1  0.8247621E-014  0.7977169E+02  0.7818608E-02  0.1329701E+00
          1   -1    0    0  501    0  0.00000000000E+00  0.00000000000E+00  0.86326110582E+01  0.86326125295E+01  0.50400000000E-02 0. -1.
         -2   -1    0    0    0  501 -0.00000000000E+00 -0.00000000000E+00 -0.18428729853E+03  0.18428729855E+03  0.25500000000E-02 0.  1.
        -24    2    1    2    0    0  0.00000000000E+00  0.00000000000E+00 -0.17565468747E+03  0.19291991108E+03  0.79771692092E+02 0.  0.
         66    2    3    3    0    0 -0.33569718022E+02 -0.20472284427E+02 -0.72054266199E+02  0.82108815741E+02  0.19999867737E+01 0.  0.
         13    1    3    3    0    0  0.33569718022E+02  0.20472284427E+02 -0.10360042127E+03  0.11081109534E+03  0.10566000000E+00 0. -1.
         13    1    4    4    0    0 -0.29484572581E+01 -0.14959742859E+01 -0.70989074041E+01  0.78317935132E+01  0.10566000000E+00 0. -1.
        -13    1    4    4    0    0 -0.13637396827E+02 -0.85936265180E+01 -0.28882977449E+02  0.33076676969E+02  0.10566000000E+00 0.  1.
         14    1    4    4    0    0 -0.16983863937E+02 -0.10382683623E+02 -0.36072381346E+02  0.41200345259E+02  0.00000000000E+00 0. -1.
<mgrwt>
<rscale>  0 0.79771692E+02</rscale>
<asrwt>0</asrwt>
<pdfrwt beam="1">  1        1 0.13280943E-02 0.79771692E+02</pdfrwt>
<pdfrwt beam="2">  1       -2 0.28351889E-01 0.79771692E+02</pdfrwt>
<totfact> 0.88511937E+04</totfact>
</mgrwt>
</event>
<event>
 8    1  0.8247621E-014  0.7943213E+02  0.7818608E-02  0.1330671E+00
         -2   -1    0    0    0  501 -0.00000000000E+00  0.00000000000E+00  0.12592159394E+02  0.12592159652E+02  0.25500000000E-02 0.  1.
          1   -1    0    0  501    0  0.00000000000E+00 -0.00000000000E+00 -0.12526571736E+03  0.12526571746E+03  0.50400000000E-02 0. -1.
        -24    2    1    2    0    0  0.00000000000E+00  0.00000000000E+00 -0.11267355797E+03  0.13785787712E+03  0.79432132148E+02 0.  0.
         66    2    3    3    0    0  0.30926706766E+02  0.23553354468E+02 -0.42472954083E+02  0.57612268837E+02  0.19999984967E+01 0.  0.
         13    1    3    3    0    0 -0.30926706766E+02 -0.23553354468E+02 -0.70200603886E+02  0.80245608279E+02  0.10566000000E+00 0. -1.
         13    1    4    4    0    0  0.71325410573E+01  0.61726860507E+01 -0.96513955112E+01  0.13495769499E+02  0.10566000000E+00 0. -1.
        -13    1    4    4    0    0  0.17322591163E+02  0.13118139171E+02 -0.24283885600E+02  0.32586438955E+02  0.10566000000E+00 0.  1.
         14    1    4    4    0    0  0.64715745450E+01  0.42625292459E+01 -0.85376729714E+01  0.11530060383E+02  0.00000000000E+00 0. -1.
<mgrwt>
<rscale>  0 0.79432132E+02</rscale>
<asrwt>0</asrwt>
<pdfrwt beam="1">  1        1 0.19271648E-01 0.79432132E+02</pdfrwt>
<pdfrwt beam="2">  1       -2 0.19372554E-02 0.79432132E+02</pdfrwt>
<totfact> 0.15576649E+05</totfact>
</mgrwt>
</event>
<event>
 8    1  0.8247621E-014  0.8035239E+02  0.7818608E-02  0.1328054E+00
          1   -1    0    0  501    0  0.00000000000E+00  0.00000000000E+00  0.84806967194E+01  0.84806982170E+01  0.50400000000E-02 0. -1.
         -2   -1    0    0    0  501 -0.00000000000E+00 -0.00000000000E+00 -0.19032947740E+03  0.19032947742E+03  0.25500000000E-02 0.  1.
        -24    2    1    2    0    0  0.00000000000E+00 -0.88817841970E-15 -0.18184878069E+03  0.19881017564E+03  0.80352392004E+02 0.  0.
         66    2    3    3    0    0 -0.38788181009E+02  0.45433609045E+01 -0.11405287921E+03  0.12057041251E+03  0.20000003135E+01 0.  0.
         13    1    3    3    0    0  0.38788181009E+02 -0.45433609045E+01 -0.67795901471E+02  0.78239763130E+02  0.10566000000E+00 0. -1.
         13    1    4    4    0    0 -0.90401751597E+01  0.92973084718E+00 -0.25176101811E+02  0.26766330207E+02  0.10566000000E+00 0. -1.
        -13    1    4    4    0    0 -0.26275986722E+02  0.33224250242E+01 -0.79870582292E+02  0.84147412712E+02  0.10566000000E+00 0.  1.
        -14    1    4    4    0    0 -0.34720191270E+01  0.29120503318E+00 -0.90061951111E+01  0.96566695899E+01  0.00000000000E+00 0.  1.
<mgrwt>
<rscale>  0 0.80352392E+02</rscale>
<asrwt>0</asrwt>
<pdfrwt beam="1">  1        1 0.13047228E-02 0.80352392E+02</pdfrwt>
<pdfrwt beam="2">  1       -2 0.29281455E-01 0.80352392E+02</pdfrwt>
<totfact> 0.85794762E+04</totfact>
</mgrwt>
</event>
<event>
 8    1  0.8247621E-014  0.7931518E+02  0.7818608E-02  0.1331006E+00
          1   -1    0    0  501    0  0.00000000000E+00  0.00000000000E+00  0.32596765114E+01  0.32596804078E+01  0.50400000000E-02 0. -1.
         -2   -1    0    0    0  501 -0.00000000000E+00 -0.00000000000E+00 -0.48247844300E+03  0.48247844300E+03  0.25500000000E-02 0.  1.
        -24    2    1    2    0    0  0.35527136788E-14  0.00000000000E+00 -0.47921876648E+03  0.48573812341E+03  0.79315183813E+02 0.  0.
         66    2    3    3    0    0  0.17361939803E+02  0.16520575352E+02 -0.43307051551E+03  0.43373775230E+03  0.20000005452E+01 0.  0.
         13    1    3    3    0    0 -0.17361939803E+02 -0.16520575352E+02 -0.46148250978E+02  0.52000371115E+02  0.10566000000E+00 0. -1.
         13    1    4    4    0    0  0.97240126572E+00  0.12734213393E+01 -0.24217301722E+02  0.24270476569E+02  0.10566000000E+00 0. -1.
        -13    1    4    4    0    0  0.35997605631E+01  0.27379959983E+01 -0.80138435348E+02  0.80266025704E+02  0.10566000000E+00 0.  1.
         14    1    4    4    0    0  0.12789777974E+02  0.12509158014E+02 -0.32871477844E+03  0.32920125002E+03  0.00000000000E+00 0. -1.
<mgrwt>
<rscale>  0 0.79315184E+02</rscale>
<asrwt>0</asrwt>
<pdfrwt beam="1">  1        1 0.50148938E-03 0.79315184E+02</pdfrwt>
<pdfrwt beam="2">  1       -2 0.74227396E-01 0.79315184E+02</pdfrwt>
<totfact> 0.52932099E+04</totfact>
</mgrwt>
</event>
<event>
 8    1  0.8247621E-014  0.7990450E+02  0.7818608E-02  0.1329323E+00
         -2   -1    0    0    0  501 -0.00000000000E+00  0.00000000000E+00  0.12159181597E+02  0.12159181865E+02  0.25500000000E-02 0.  1.
          1   -1    0    0  501    0  0.00000000000E+00 -0.00000000000E+00 -0.13127382794E+03  0.13127382803E+03  0.50400000000E-02 0. -1.
        -24    2    1    2    0    0  0.00000000000E+00  0.00000000000E+00 -0.11911464634E+03  0.14343300990E+03  0.79904501474E+02 0.  0.
         66    2    3    3    0    0  0.32300825509E+02 -0.22189328250E+02 -0.73320281793E+02  0.83159926311E+02  0.20000013039E+01 0.  0.
         13    1    3    3    0    0 -0.32300825509E+02  0.22189328250E+02 -0.45794364547E+02  0.60273083587E+02  0.10566000000E+00 0. -1.
         13    1    4    4    0    0  0.22204291460E+02 -0.15139287156E+02 -0.51934495310E+02  0.58475905653E+02  0.10566000000E+00 0. -1.
        -13    1    4    4    0    0  0.71623408304E+01 -0.47965681291E+01 -0.15322064965E+02  0.17580757402E+02  0.10566000000E+00 0.  1.
         14    1    4    4    0    0  0.29341932189E+01 -0.22534729645E+01 -0.60637215181E+01  0.71032632569E+01  0.00000000000E+00 0. -1.
<mgrwt>
<rscale>  0 0.79904501E+02</rscale>
<asrwt>0</asrwt>
<pdfrwt beam="1">  1        1 0.20195973E-01 0.79904501E+02</pdfrwt>
<pdfrwt beam="2">  1       -2 0.18706434E-02 0.79904501E+02</pdfrwt>
<totfact> 0.15459394E+05</totfact>
</mgrwt>
</event>
<event>
 8    1  0.8247621E-014  0.7860931E+02  0.7818608E-02  0.1333045E+00
         -2   -1    0    0    0  501 -0.00000000000E+00  0.00000000000E+00  0.34246926813E+02  0.34246926908E+02  0.25500000000E-02 0.  1.
          1   -1    0    0  501    0  0.00000000000E+00 -0.00000000000E+00 -0.45109326107E+02  0.45109326389E+02  0.50400000000E-02 0. -1.
        -24    2    1    2    0    0 -0.35527136788E-14 -0.35527136788E-14 -0.10862399295E+02  0.79356253296E+02  0.78609307457E+02 0.  0.
         66    2    3    3    0    0 -0.25567745656E+02 -0.24704745733E+02  0.11421764950E+02  0.37396400821E+02  0.20000000204E+01 0.  0.
         13    1    3    3    0    0  0.25567745656E+02  0.24704745733E+02 -0.22284164244E+02  0.41959852476E+02  0.10566000000E+00 0. -1.
         13    1    4    4    0    0 -0.44220851313E+01 -0.46778135263E+01  0.17608014311E+01  0.66744559337E+01  0.10566000000E+00 0. -1.
        -13    1    4    4    0    0 -0.50067835695E+01 -0.38997908748E+01  0.20189821861E+01  0.66606083568E+01  0.10566000000E+00 0.  1.
        -14    1    4    4    0    0 -0.16138876955E+02 -0.16127141332E+02  0.76419813323E+01  0.24061336530E+02  0.00000000000E+00 0.  1.
<mgrwt>
<rscale>  0 0.78609307E+02</rscale>
<asrwt>0</asrwt>
<pdfrwt beam="1">  1        1 0.69398964E-02 0.78609307E+02</pdfrwt>
<pdfrwt beam="2">  1       -2 0.52687580E-02 0.78609307E+02</pdfrwt>
<totfact> 0.13594641E+05</totfact>
</mgrwt>
</event>
<event>
 8    1  0.8247621E-014  0.8127426E+02  0.7818608E-02  0.1325474E+00
         -2   -1    0    0    0  501 -0.00000000000E+00  0.00000000000E+00  0.26492131727E+02  0.26492131850E+02  0.25500000000E-02 0.  1.
          1   -1    0    0  501    0  0.00000000000E+00 -0.00000000000E+00 -0.62334594236E+02  0.62334594440E+02  0.50400000000E-02 0. -1.
        -24    2    1    2    0    0  0.00000000000E+00  0.00000000000E+00 -0.35842462509E+02  0.88826726290E+02  0.81274259054E+02 0.  0.
         66    2    3    3    0    0 -0.22304831555E+02 -0.69654214406E+01  0.18371324520E+02  0.29791410803E+02  0.19999966157E+01 0.  0.
         13    1    3    3    0    0  0.22304831555E+02  0.69654214406E+01 -0.54213787029E+02  0.59035315487E+02  0.10566000000E+00 0. -1.
         13    1    4    4    0    0 -0.80731223070E+00 -0.35041820307E-01  0.44325081223E+00  0.92769406873E+00  0.10566000000E+00 0. -1.
        -13    1    4    4    0    0 -0.71168174306E+01 -0.23797715187E+01  0.66917974499E+01  0.10055034558E+02  0.10566000000E+00 0.  1.
         14    1    4    4    0    0 -0.14380701894E+02 -0.45506081016E+01  0.11236276258E+02  0.18808682176E+02  0.00000000000E+00 0. -1.
<mgrwt>
<rscale>  0 0.81274259E+02</rscale>
<asrwt>0</asrwt>
<pdfrwt beam="1">  1        1 0.95899376E-02 0.81274259E+02</pdfrwt>
<pdfrwt beam="2">  1       -2 0.40757126E-02 0.81274259E+02</pdfrwt>
<totfact> 0.13039419E+05</totfact>
</mgrwt>
</event>
<event>
 8    1  0.8247621E-014  0.7897103E+02  0.7818608E-02  0.1331997E+00
          1   -1    0    0  501    0  0.00000000000E+00  0.00000000000E+00  0.22921402125E+03  0.22921402130E+03  0.50400000000E-02 0. -1.
         -2   -1    0    0    0  501 -0.00000000000E+00 -0.00000000000E+00 -0.68019645040E+01  0.68019649820E+01  0.25500000000E-02 0.  1.
        -24    2    1    2    0    0  0.00000000000E+00 -0.35527136788E-14  0.22241205675E+03  0.23601598629E+03  0.78971025048E+02 0.  0.
         66    2    3    3    0    0  0.15269452420E+02  0.30483887672E+02  0.51903383152E+02  0.62131994731E+02  0.20000004498E+01 0.  0.
         13    1    3    3    0    0 -0.15269452420E+02 -0.30483887672E+02  0.17050867359E+03  0.17388399156E+03  0.10566000000E+00 0. -1.
         13    1    4    4    0    0  0.91981964040E+01  0.19778415606E+02  0.33539927274E+02  0.40009129290E+02  0.10566000000E+00 0.  1.
        -13    1    4    4    0    0  0.11958430669E+01  0.17263380647E+01  0.27131161337E+01  0.34325569106E+01  0.10566000000E+00 0. -1.
        -14    1    4    4    0    0  0.48754129488E+01  0.89791340021E+01  0.15650339745E+02  0.18690308531E+02  0.00000000000E+00 0.  1.
<mgrwt>
<rscale>  0 0.78971025E+02</rscale>
<asrwt>0</asrwt>
<pdfrwt beam="1">  1        1 0.35263690E-01 0.78971025E+02</pdfrwt>
<pdfrwt beam="2">  1       -2 0.10464563E-02 0.78971025E+02</pdfrwt>
<totfact> 0.17719621E+05</totfact>
</mgrwt>
</event>
<event>
 8    1  0.8247621E-014  0.8242945E+02  0.7818608E-02  0.1322295E+00
          1   -1    0    0  501    0  0.00000000000E+00  0.00000000000E+00  0.20068501644E+02  0.20068502277E+02  0.50400000000E-02 0. -1.
         -2   -1    0    0    0  501 -0.00000000000E+00 -0.00000000000E+00 -0.84642767088E+02  0.84642767127E+02  0.25500000000E-02 0.  1.
        -24    2    1    2    0    0  0.00000000000E+00  0.00000000000E+00 -0.64574265444E+02  0.10471126940E+03  0.82429449729E+02 0.  0.
         66    2    3    3    0    0 -0.40693612362E+01 -0.32650209434E+02 -0.63784572821E+02  0.71798799801E+02  0.20000114945E+01 0.  0.
         13    1    3    3    0    0  0.40693612362E+01  0.32650209434E+02 -0.78969262365E+00  0.32912469603E+02  0.10566000000E+00 0. -1.
         13    1    4    4    0    0  0.62974366821E-01 -0.11201108771E+01 -0.22718356231E+01  0.25359446527E+01  0.10566000000E+00 0. -1.
        -13    1    4    4    0    0 -0.17549315940E+00 -0.13902975199E+01 -0.34179060943E+01  0.36955339463E+01  0.10566000000E+00 0.  1.
         14    1    4    4    0    0 -0.39568424436E+01 -0.30139801036E+02 -0.58094831103E+02  0.65567321202E+02  0.00000000000E+00 0. -1.
<mgrwt>
<rscale>  0 0.82429450E+02</rscale>
<asrwt>0</asrwt>
<pdfrwt beam="1">  1        1 0.30874619E-02 0.82429450E+02</pdfrwt>
<pdfrwt beam="2">  1       -2 0.13021964E-01 0.82429450E+02</pdfrwt>
<totfact> 0.10226789E+05</totfact>
</mgrwt>
</event>
<event>
 8    1  0.8247621E-014  0.7910315E+02  0.7818608E-02  0.1331616E+00
          1   -1    0    0  501    0  0.00000000000E+00  0.00000000000E+00  0.10113552142E+02  0.10113553397E+02  0.50400000000E-02 0. -1.
         -2   -1    0    0    0  501 -0.00000000000E+00 -0.00000000000E+00 -0.15467632354E+03  0.15467632357E+03  0.25500000000E-02 0.  1.
        -24    2    1    2    0    0  0.00000000000E+00  0.00000000000E+00 -0.14456277140E+03  0.16478987696E+03  0.79103152110E+02 0.  0.
         66    2    3    3    0    0 -0.11405209900E+02 -0.29545156097E+02 -0.12159600302E+03  0.12566854422E+03  0.19999984101E+01 0.  0.
         13    1    3    3    0    0  0.11405209900E+02  0.29545156097E+02 -0.22966768380E+02  0.39121332743E+02  0.10566000000E+00 0. -1.
         13    1    4    4    0    0 -0.71359445625E+01 -0.17053109857E+02 -0.73228256494E+02  0.75525617997E+02  0.10566000000E+00 0. -1.
        -13    1    4    4    0    0 -0.40643592718E+01 -0.12209527952E+02 -0.46819119679E+02  0.48555460255E+02  0.10566000000E+00 0.  1.
         14    1    4    4    0    0 -0.20490606597E+00 -0.28251828876E+00 -0.15486268494E+01  0.15874659675E+01  0.00000000000E+00 0. -1.
<mgrwt>
<rscale>  0 0.79103152E+02</rscale>
<asrwt>0</asrwt>
<pdfrwt beam="1">  1        1 0.15559313E-02 0.79103152E+02</pdfrwt>
<pdfrwt beam="2">  1       -2 0.23796356E-01 0.79103152E+02</pdfrwt>
<totfact> 0.96305397E+04</totfact>
</mgrwt>
</event>
<event>
 8    1  0.8247621E-014  0.7835536E+02  0.7818608E-02  0.1333785E+00
         -2   -1    0    0    0  501 -0.00000000000E+00  0.00000000000E+00  0.17880873186E+02  0.17880873368E+02  0.25500000000E-02 0.  1.
          1   -1    0    0  501    0  0.00000000000E+00 -0.00000000000E+00 -0.85839790891E+02  0.85839791039E+02  0.50400000000E-02 0. -1.
        -24    2    1    2    0    0  0.00000000000E+00  0.71054273576E-14 -0.67958917704E+02  0.10372066441E+03  0.78355355461E+02 0.  0.
         66    2    3    3    0    0  0.23161840171E+01 -0.38892004261E+02 -0.28886281974E+02  0.48542455566E+02  0.20000005739E+01 0.  0.
         13    1    3    3    0    0 -0.23161840171E+01  0.38892004261E+02 -0.39072635731E+02  0.55178208841E+02  0.10566000000E+00 0. -1.
         13    1    4    4    0    0  0.76842475249E+00 -0.93425548820E+01 -0.61243641863E+01  0.11197893063E+02  0.10566000000E+00 0. -1.
        -13    1    4    4    0    0  0.16153377827E+01 -0.25040875667E+02 -0.19080306935E+02  0.31523388890E+02  0.10566000000E+00 0.  1.
        -14    1    4    4    0    0 -0.67578518179E-01 -0.45085737121E+01 -0.36816108525E+01  0.58211736138E+01  0.00000000000E+00 0.  1.
<mgrwt>
<rscale>  0 0.78355355E+02</rscale>
<asrwt>0</asrwt>
<pdfrwt beam="1">  1        1 0.13206122E-01 0.78355355E+02</pdfrwt>
<pdfrwt beam="2">  1       -2 0.27509036E-02 0.78355355E+02</pdfrwt>
<totfact> 0.15162910E+05</totfact>
</mgrwt>
</event>
<event>
 8    1  0.8247621E-014  0.8105084E+02  0.7818608E-02  0.1326095E+00
         -2   -1    0    0    0  501 -0.00000000000E+00  0.00000000000E+00  0.31073989057E+03  0.31073989058E+03  0.25500000000E-02 0.  1.
          1   -1    0    0  501    0  0.00000000000E+00 -0.00000000000E+00 -0.52851572456E+01  0.52851596487E+01  0.50400000000E-02 0. -1.
        -24    2    1    2    0    0  0.00000000000E+00  0.00000000000E+00  0.30545473333E+03  0.31602505023E+03  0.81050837517E+02 0.  0.
         66    2    3    3    0    0 -0.18794948513E+02  0.33866018166E+02  0.19897910245E+03  0.20272355682E+03  0.19999998401E+01 0.  0.
         13    1    3    3    0    0  0.18794948513E+02 -0.33866018166E+02  0.10647563087E+03  0.11330149342E+03  0.10566000000E+00 0. -1.
         13    1    4    4    0    0 -0.10526026989E+02  0.17773745635E+02  0.10866639763E+03  0.11061238817E+03  0.10566000000E+00 0. -1.
        -13    1    4    4    0    0 -0.65399127031E+01  0.11986149482E+02  0.68821153550E+02  0.70162672252E+02  0.10566000000E+00 0.  1.
         14    1    4    4    0    0 -0.17290088207E+01  0.41061230488E+01  0.21491551275E+02  0.21948496399E+02  0.00000000000E+00 0. -1.
<mgrwt>
<rscale>  0 0.81050838E+02</rscale>
<asrwt>0</asrwt>
<pdfrwt beam="1">  1        1 0.81310145E-03 0.81050838E+02</pdfrwt>
<pdfrwt beam="2">  1       -2 0.47806129E-01 0.81050838E+02</pdfrwt>
<totfact> 0.66635451E+04</totfact>
</mgrwt>
</event>
<event>
 8    1  0.8247621E-014  0.8999456E+02  0.7818608E-02  0.1302865E+00
          1   -1    0    0  501    0  0.00000000000E+00  0.00000000000E+00  0.10193075551E+02  0.10193076797E+02  0.50400000000E-02 0. -1.
         -2   -1    0    0    0  501 -0.00000000000E+00 -0.00000000000E+00 -0.19864026996E+03  0.19864026997E+03  0.25500000000E-02 0.  1.
        -24    2    1    2    0    0  0.00000000000E+00  0.00000000000E+00 -0.18844719441E+03  0.20883334677E+03  0.89994564522E+02 0.  0.
         66    2    3    3    0    0 -0.31097889442E+02 -0.13490243648E+01 -0.16960093228E+03  0.17244528067E+03  0.20000000932E+01 0.  0.
         13    1    3    3    0    0  0.31097889442E+02  0.13490243648E+01 -0.18846262129E+02  0.36388066104E+02  0.10566000000E+00 0. -1.
         13    1    4    4    0    0 -0.78679137790E+01 -0.10716945831E+01 -0.41081402101E+02  0.41841909124E+02  0.10566000000E+00 0. -1.
        -13    1    4    4    0    0 -0.68508573452E+01 -0.28339348484E+00 -0.38367229702E+02  0.38975249034E+02  0.10566000000E+00 0.  1.
         14    1    4    4    0    0 -0.16379118318E+02  0.60637031612E-02 -0.90152300472E+02  0.91628122506E+02  0.00000000000E+00 0. -1.
<mgrwt>
<rscale>  0 0.89994565E+02</rscale>
<asrwt>0</asrwt>
<pdfrwt beam="1">  1        1 0.15681657E-02 0.89994565E+02</pdfrwt>
<pdfrwt beam="2">  1       -2 0.30560039E-01 0.89994565E+02</pdfrwt>
<totfact> 0.62902389E+04</totfact>
</mgrwt>
</event>
<event>
 8    1  0.8247621E-014  0.7935099E+02  0.7818608E-02  0.1330903E+00
          1   -1    0    0  501    0  0.00000000000E+00  0.00000000000E+00  0.30552475899E+02  0.30552476315E+02  0.50400000000E-02 0. -1.
         -2   -1    0    0    0  501 -0.00000000000E+00 -0.00000000000E+00 -0.51522655984E+02  0.51522656048E+02  0.25500000000E-02 0.  1.
        -24    2    1    2    0    0  0.00000000000E+00  0.00000000000E+00 -0.20970180086E+02  0.82075132362E+02  0.79350985498E+02 0.  0.
         66    2    3    3    0    0  0.14587111405E+02 -0.36502230451E+02 -0.51228576158E+01  0.39691816770E+02  0.20000003378E+01 0.  0.
         13    1    3    3    0    0 -0.14587111405E+02  0.36502230451E+02 -0.15847322470E+02  0.42383315592E+02  0.10566000000E+00 0. -1.
         13    1    4    4    0    0  0.38349144471E+01 -0.10579135460E+02 -0.16190320697E+01  0.11369129464E+02  0.10566000000E+00 0. -1.
        -13    1    4    4    0    0  0.10563243083E+02 -0.25312241434E+02 -0.31981370441E+01  0.27613962328E+02  0.10566000000E+00 0.  1.
         14    1    4    4    0    0  0.18895387429E+00 -0.61085355747E+00 -0.30568850199E+00  0.70872497877E+00  0.00000000000E+00 0. -1.
<mgrwt>
<rscale>  0 0.79350985E+02</rscale>
<asrwt>0</asrwt>
<pdfrwt beam="1">  1        1 0.47003810E-02 0.79350985E+02</pdfrwt>
<pdfrwt beam="2">  1       -2 0.79265625E-02 0.79350985E+02</pdfrwt>
<totfact> 0.12420594E+05</totfact>
</mgrwt>
</event>
<event>
 8    1  0.8247621E-014  0.8095858E+02  0.7818608E-02  0.1326353E+00
          1   -1    0    0  501    0  0.00000000000E+00  0.00000000000E+00  0.94788754647E+01  0.94788768046E+01  0.50400000000E-02 0. -1.
         -2   -1    0    0    0  501 -0.00000000000E+00 -0.00000000000E+00 -0.17286575428E+03  0.17286575430E+03  0.25500000000E-02 0.  1.
        -24    2    1    2    0    0  0.00000000000E+00  0.00000000000E+00 -0.16338687882E+03  0.18234463111E+03  0.80958584001E+02 0.  0.
         66    2    3    3    0    0  0.55945180370E+01 -0.39309746542E+02 -0.99191486237E+02  0.10686208744E+03  0.19999963737E+01 0.  0.
         13    1    3    3    0    0 -0.55945180370E+01  0.39309746542E+02 -0.64195392582E+02  0.75482543665E+02  0.10566000000E+00 0. -1.
         13    1    4    4    0    0  0.28581163194E+01 -0.22582841635E+02 -0.55150772801E+02  0.59663828823E+02  0.10566000000E+00 0. -1.
        -13    1    4    4    0    0  0.20180114580E+01 -0.11844770786E+02 -0.30087772729E+02  0.32398398063E+02  0.10566000000E+00 0.  1.
         14    1    4    4    0    0  0.71839025957E+00 -0.48821341205E+01 -0.13952940707E+02  0.14799860557E+02  0.00000000000E+00 0. -1.
<mgrwt>
<rscale>  0 0.80958584E+02</rscale>
<asrwt>0</asrwt>
<pdfrwt beam="1">  1        1 0.14582888E-02 0.80958584E+02</pdfrwt>
<pdfrwt beam="2">  1       -2 0.26594729E-01 0.80958584E+02</pdfrwt>
<totfact> 0.87263750E+04</totfact>
</mgrwt>
</event>
<event>
 8    1  0.8247621E-014  0.8099477E+02  0.7818608E-02  0.1326252E+00
          1   -1    0    0  501    0  0.00000000000E+00  0.00000000000E+00  0.17055827293E+03  0.17055827300E+03  0.50400000000E-02 0. -1.
         -2   -1    0    0    0  501 -0.00000000000E+00 -0.00000000000E+00 -0.96157050743E+01  0.96157054124E+01  0.25500000000E-02 0.  1.
        -24    2    1    2    0    0  0.00000000000E+00  0.00000000000E+00  0.16094256785E+03  0.18017397842E+03  0.80994767427E+02 0.  0.
         66    2    3    3    0    0  0.23603828185E+02 -0.13757902825E+02  0.14096495396E+02  0.30807982434E+02  0.20000010216E+01 0.  0.
         13    1    3    3    0    0 -0.23603828185E+02  0.13757902825E+02  0.14684607246E+03  0.14936599598E+03  0.10566000000E+00 0. -1.
         13    1    4    4    0    0  0.38714109807E+01 -0.26448828749E+01  0.28892927838E+01  0.55083940699E+01  0.10566000000E+00 0. -1.
        -13    1    4    4    0    0  0.11756154863E+02 -0.63659325138E+01  0.72558692067E+01  0.15211544166E+02  0.10566000000E+00 0.  1.
         14    1    4    4    0    0  0.79762623405E+01 -0.47470874360E+01  0.39513334051E+01  0.10088044197E+02  0.00000000000E+00 0. -1.
<mgrwt>
<rscale>  0 0.80994767E+02</rscale>
<asrwt>0</asrwt>
<pdfrwt beam="1">  1        1 0.26239732E-01 0.80994767E+02</pdfrwt>
<pdfrwt beam="2">  1       -2 0.14793394E-02 0.80994767E+02</pdfrwt>
<totfact> 0.15647719E+05</totfact>
</mgrwt>
</event>
<event>
 8    1  0.8247621E-014  0.7947502E+02  0.7818608E-02  0.1330548E+00
          1   -1    0    0  501    0  0.00000000000E+00  0.00000000000E+00  0.72589246152E+01  0.72589263649E+01  0.50400000000E-02 0. -1.
         -2   -1    0    0    0  501 -0.00000000000E+00 -0.00000000000E+00 -0.21753490191E+03  0.21753490193E+03  0.25500000000E-02 0.  1.
        -24    2    1    2    0    0  0.44408920985E-15 -0.35527136788E-14 -0.21027597730E+03  0.22479382829E+03  0.79475018780E+02 0.  0.
         66    2    3    3    0    0  0.38790273339E+01 -0.22365986371E+02 -0.19737046517E+03  0.19868161646E+03  0.19999996970E+01 0.  0.
         13    1    3    3    0    0 -0.38790273339E+01  0.22365986371E+02 -0.12905512126E+02  0.26112211830E+02  0.10566000000E+00 0. -1.
         13    1    4    4    0    0  0.24509990914E-01 -0.20680095076E+01 -0.15118328135E+02  0.15259497819E+02  0.10566000000E+00 0. -1.
        -13    1    4    4    0    0  0.37270660604E+01 -0.18763992514E+02 -0.16680208332E+03  0.16789557648E+03  0.10566000000E+00 0.  1.
        -14    1    4    4    0    0  0.12745128259E+00 -0.15339843494E+01 -0.15450053715E+02  0.15526542166E+02  0.00000000000E+00 0.  1.
<mgrwt>
<rscale>  0 0.79475019E+02</rscale>
<asrwt>0</asrwt>
<pdfrwt beam="1">  1        1 0.11167579E-02 0.79475019E+02</pdfrwt>
<pdfrwt beam="2">  1       -2 0.33466903E-01 0.79475019E+02</pdfrwt>
<totfact> 0.83544746E+04</totfact>
</mgrwt>
</event>
<event>
 8    1  0.8247621E-014  0.7991728E+02  0.7818608E-02  0.1329286E+00
         -2   -1    0    0    0  501 -0.00000000000E+00  0.00000000000E+00  0.34234188201E+02  0.34234188296E+02  0.25500000000E-02 0.  1.
          1   -1    0    0  501    0  0.00000000000E+00 -0.00000000000E+00 -0.46640298096E+02  0.46640298368E+02  0.50400000000E-02 0. -1.
        -24    2    1    2    0    0  0.00000000000E+00  0.00000000000E+00 -0.12406109895E+02  0.80874486664E+02  0.79917276170E+02 0.  0.
         66    2    3    3    0    0 -0.16865570590E+02 -0.36003114991E+02 -0.24182876466E+01  0.39881322385E+02  0.19999999106E+01 0.  0.
         13    1    3    3    0    0  0.16865570590E+02  0.36003114991E+02 -0.99878222486E+01  0.40993164280E+02  0.10566000000E+00 0. -1.
         13    1    4    4    0    0 -0.34886658448E+01 -0.89171902897E+01 -0.75073964465E+00  0.96053030191E+01  0.10566000000E+00 0. -1.
        -13    1    4    4    0    0 -0.66120981133E+01 -0.14644400050E+02 -0.85320372040E+00  0.16090910941E+02  0.10566000000E+00 0.  1.
         14    1    4    4    0    0 -0.67648066315E+01 -0.12441524651E+02 -0.81434428160E+00  0.14185108424E+02  0.00000000000E+00 0. -1.
<mgrwt>
<rscale>  0 0.79917276E+02</rscale>
<asrwt>0</asrwt>
<pdfrwt beam="1">  1        1 0.71754305E-02 0.79917276E+02</pdfrwt>
<pdfrwt beam="2">  1       -2 0.52667982E-02 0.79917276E+02</pdfrwt>
<totfact> 0.13051200E+05</totfact>
</mgrwt>
</event>
<event>
 8    1  0.8247621E-014  0.8057787E+02  0.7818608E-02  0.1327419E+00
         -2   -1    0    0    0  501 -0.00000000000E+00  0.00000000000E+00  0.25575967161E+02  0.25575967289E+02  0.25500000000E-02 0.  1.
          1   -1    0    0  501    0  0.00000000000E+00 -0.00000000000E+00 -0.63465769764E+02  0.63465769964E+02  0.50400000000E-02 0. -1.
        -24    2    1    2    0    0  0.00000000000E+00  0.35527136788E-14 -0.37889802602E+02  0.89041737252E+02  0.80577874331E+02 0.  0.
         66    2    3    3    0    0 -0.13805282334E+02  0.31419496083E+02  0.43129524771E+01  0.34646385845E+02  0.19999846519E+01 0.  0.
         13    1    3    3    0    0  0.13805282334E+02 -0.31419496083E+02 -0.42202755079E+02  0.54395351407E+02  0.10566000000E+00 0. -1.
         13    1    4    4    0    0 -0.57014530300E+01  0.11802749770E+02  0.19297287641E+01  0.13249395682E+02  0.10566000000E+00 0.  1.
        -13    1    4    4    0    0 -0.66637347275E+01  0.16248395890E+02  0.14821932071E+01  0.17624522412E+02  0.10566000000E+00 0. -1.
         14    1    4    4    0    0 -0.14400945769E+01  0.33683504230E+01  0.90103050585E+00  0.37724677513E+01  0.00000000000E+00 0. -1.
<mgrwt>
<rscale>  0 0.80577874E+02</rscale>
<asrwt>0</asrwt>
<pdfrwt beam="1">  1        1 0.97639646E-02 0.80577874E+02</pdfrwt>
<pdfrwt beam="2">  1       -2 0.39347642E-02 0.80577874E+02</pdfrwt>
<totfact> 0.13390364E+05</totfact>
</mgrwt>
</event>
<event>
 8    1  0.8247621E-014  0.7956926E+02  0.7818608E-02  0.1330278E+00
          1   -1    0    0  501    0  0.00000000000E+00  0.00000000000E+00  0.22328613242E+03  0.22328613247E+03  0.50400000000E-02 0. -1.
         -2   -1    0    0    0  501 -0.00000000000E+00 -0.00000000000E+00 -0.70887378536E+01  0.70887383123E+01  0.25500000000E-02 0.  1.
        -24    2    1    2    0    0  0.17763568394E-14  0.00000000000E+00  0.21619739456E+03  0.23037487078E+03  0.79569263373E+02 0.  0.
         66    2    3    3    0    0 -0.10430439265E+02  0.31562276293E+02  0.45009942219E+02  0.55989876156E+02  0.19999963331E+01 0.  0.
         13    1    3    3    0    0  0.10430439265E+02 -0.31562276293E+02  0.17118745234E+03  0.17438499463E+03  0.10566000000E+00 0. -1.
         13    1    4    4    0    0 -0.36832015320E+00  0.95253265335E+00  0.11039748924E+01  0.15076149341E+01  0.10566000000E+00 0. -1.
        -13    1    4    4    0    0 -0.89505992036E+01  0.27353741094E+02  0.39980169537E+02  0.49262211666E+02  0.10566000000E+00 0.  1.
        -14    1    4    4    0    0 -0.11115199086E+01  0.32560025455E+01  0.39257977895E+01  0.52200495560E+01  0.00000000000E+00 0.  1.
<mgrwt>
<rscale>  0 0.79569263E+02</rscale>
<asrwt>0</asrwt>
<pdfrwt beam="1">  1        1 0.34351715E-01 0.79569263E+02</pdfrwt>
<pdfrwt beam="2">  1       -2 0.10905750E-02 0.79569263E+02</pdfrwt>
<totfact> 0.17280825E+05</totfact>
</mgrwt>
</event>
<event>
 8    1  0.8247621E-014  0.7951535E+02  0.7818608E-02  0.1330432E+00
          1   -1    0    0  501    0  0.00000000000E+00  0.00000000000E+00  0.58085562647E+02  0.58085562865E+02  0.50400000000E-02 0. -1.
         -2   -1    0    0    0  501 -0.00000000000E+00 -0.00000000000E+00 -0.27212832814E+02  0.27212832934E+02  0.25500000000E-02 0.  1.
        -24    2    1    2    0    0  0.00000000000E+00  0.35527136788E-14  0.30872729832E+02  0.85298395799E+02  0.79515349956E+02 0.  0.
         66    2    3    3    0    0 -0.16552917726E+02 -0.23300732746E+02 -0.14160907392E+02  0.31960202378E+02  0.20000015326E+01 0.  0.
         13    1    3    3    0    0  0.16552917726E+02  0.23300732746E+02  0.45033637224E+02  0.53338193421E+02  0.10566000000E+00 0. -1.
         13    1    4    4    0    0 -0.74904223095E+01 -0.94445816351E+01 -0.59550266405E+01  0.13445447369E+02  0.10566000000E+00 0. -1.
        -13    1    4    4    0    0 -0.48909892657E+01 -0.69364689288E+01 -0.36561165034E+01  0.92420089331E+01  0.10566000000E+00 0.  1.
         14    1    4    4    0    0 -0.41715061505E+01 -0.69196821822E+01 -0.45497642480E+01  0.92727460754E+01  0.00000000000E+00 0. -1.
<mgrwt>
<rscale>  0 0.79515350E+02</rscale>
<asrwt>0</asrwt>
<pdfrwt beam="1">  1        1 0.89362403E-02 0.79515350E+02</pdfrwt>
<pdfrwt beam="2">  1       -2 0.41865897E-02 0.79515350E+02</pdfrwt>
<totfact> 0.13697691E+05</totfact>
</mgrwt>
</event>
<event>
 8    1  0.8247621E-014  0.7811262E+02  0.7818608E-02  0.1334494E+00
         -2   -1    0    0    0  501 -0.00000000000E+00  0.00000000000E+00  0.79872800373E+01  0.79872804444E+01  0.25500000000E-02 0.  1.
          1   -1    0    0  501    0  0.00000000000E+00 -0.00000000000E+00 -0.19097807336E+03  0.19097807342E+03  0.50400000000E-02 0. -1.
        -24    2    1    2    0    0 -0.71054273576E-14 -0.44408920985E-15 -0.18299079332E+03  0.19896535387E+03  0.78112621259E+02 0.  0.
         66    2    3    3    0    0 -0.38807176279E+02 -0.39405886098E+01 -0.95034018135E+02  0.10274721299E+03  0.20000011679E+01 0.  0.
         13    1    3    3    0    0  0.38807176279E+02  0.39405886098E+01 -0.87956775183E+02  0.96218140878E+02  0.10566000000E+00 0. -1.
         13    1    4    4    0    0 -0.95752885499E+00 -0.36875829736E-01 -0.31040709735E+01  0.32503295186E+01  0.10566000000E+00 0. -1.
        -13    1    4    4    0    0 -0.96628149084E+00 -0.17259613263E+00 -0.24673955554E+01  0.26575729919E+01  0.10566000000E+00 0.  1.
        -14    1    4    4    0    0 -0.36883365933E+02 -0.37311166474E+01 -0.89462551606E+02  0.96839310478E+02  0.00000000000E+00 0.  1.
<mgrwt>
<rscale>  0 0.78112621E+02</rscale>
<asrwt>0</asrwt>
<pdfrwt beam="1">  1        1 0.29381239E-01 0.78112621E+02</pdfrwt>
<pdfrwt beam="2">  1       -2 0.12288125E-02 0.78112621E+02</pdfrwt>
<totfact> 0.17606552E+05</totfact>
</mgrwt>
</event>
<event>
 8    1  0.8247621E-014  0.8276898E+02  0.7818608E-02  0.1321372E+00
          1   -1    0    0  501    0  0.00000000000E+00  0.00000000000E+00  0.89112265174E+01  0.89112279427E+01  0.50400000000E-02 0. -1.
         -2   -1    0    0    0  501 -0.00000000000E+00 -0.00000000000E+00 -0.19219307854E+03  0.19219307856E+03  0.25500000000E-02 0.  1.
        -24    2    1    2    0    0  0.00000000000E+00  0.71054273576E-14 -0.18328185203E+03  0.20110430650E+03  0.82768984602E+02 0.  0.
         66    2    3    3    0    0 -0.10313470013E+01 -0.38595977931E+02 -0.12772921029E+03  0.13345210508E+03  0.20000001739E+01 0.  0.
         13    1    3    3    0    0  0.10313470013E+01  0.38595977931E+02 -0.55552641737E+02  0.67652201421E+02  0.10566000000E+00 0. -1.
         13    1    4    4    0    0 -0.10288797532E+01 -0.14122506813E+02 -0.45023495431E+02  0.47197776400E+02  0.10566000000E+00 0. -1.
        -13    1    4    4    0    0 -0.20479949990E+00 -0.32900566869E+01 -0.10638623668E+02  0.11138127914E+02  0.10566000000E+00 0.  1.
        -14    1    4    4    0    0  0.20233225178E+00 -0.21183414431E+02 -0.72067091190E+02  0.75116200769E+02  0.00000000000E+00 0.  1.
<mgrwt>
<rscale>  0 0.82768985E+02</rscale>
<asrwt>0</asrwt>
<pdfrwt beam="1">  1        1 0.13709582E-02 0.82768985E+02</pdfrwt>
<pdfrwt beam="2">  1       -2 0.29568163E-01 0.82768985E+02</pdfrwt>
<totfact> 0.79172433E+04</totfact>
</mgrwt>
</event>
<event>
 8    1  0.8247621E-014  0.8176897E+02  0.7818608E-02  0.1324105E+00
         -2   -1    0    0    0  501 -0.00000000000E+00  0.00000000000E+00  0.79100059933E+02  0.79100059974E+02  0.25500000000E-02 0.  1.
          1   -1    0    0  501    0  0.00000000000E+00 -0.00000000000E+00 -0.21131980920E+02  0.21131981521E+02  0.50400000000E-02 0. -1.
        -24    2    1    2    0    0  0.00000000000E+00  0.00000000000E+00  0.57968079012E+02  0.10023204150E+03  0.81768966961E+02 0.  0.
         66    2    3    3    0    0 -0.35552152607E+02  0.17404089384E+02  0.41422343971E+02  0.57329472873E+02  0.19999993774E+01 0.  0.
         13    1    3    3    0    0  0.35552152607E+02 -0.17404089384E+02  0.16545735041E+02  0.42902568622E+02  0.10566000000E+00 0. -1.
         13    1    4    4    0    0 -0.53773460427E+01  0.24536235483E+01  0.58377246057E+01  0.83082074834E+01  0.10566000000E+00 0. -1.
        -13    1    4    4    0    0 -0.19604753181E+01  0.58255571616E+00  0.24030285976E+01  0.31573002885E+01  0.10566000000E+00 0.  1.
        -14    1    4    4    0    0 -0.28214331247E+02  0.14367910120E+02  0.33181590768E+02  0.45863965101E+02  0.00000000000E+00 0.  1.
<mgrwt>
<rscale>  0 0.81768967E+02</rscale>
<asrwt>0</asrwt>
<pdfrwt beam="1">  1        1 0.32510741E-02 0.81768967E+02</pdfrwt>
<pdfrwt beam="2">  1       -2 0.12169240E-01 0.81768967E+02</pdfrwt>
<totfact> 0.10595906E+05</totfact>
</mgrwt>
</event>
<event>
 8    1  0.8247621E-014  0.8018192E+02  0.7818608E-02  0.1328536E+00
         -2   -1    0    0    0  501 -0.00000000000E+00  0.00000000000E+00  0.82485480918E+02  0.82485480958E+02  0.25500000000E-02 0.  1.
          1   -1    0    0  501    0  0.00000000000E+00 -0.00000000000E+00 -0.19485671041E+02  0.19485671693E+02  0.50400000000E-02 0. -1.
        -24    2    1    2    0    0  0.00000000000E+00  0.00000000000E+00  0.62999809877E+02  0.10197115265E+03  0.80181917715E+02 0.  0.
         66    2    3    3    0    0  0.24020379330E+01 -0.36678615057E+02  0.51795324819E+02  0.63544049739E+02  0.19999988681E+01 0.  0.
         13    1    3    3    0    0 -0.24020379330E+01  0.36678615057E+02  0.11204485058E+02  0.38427102911E+02  0.10566000000E+00 0. -1.
         13    1    4    4    0    0  0.15164919390E+01 -0.11070661464E+02  0.15620057319E+02  0.19205641039E+02  0.10566000000E+00 0. -1.
        -13    1    4    4    0    0  0.35759052564E+00 -0.89863457544E+01  0.12036550354E+02  0.15025710947E+02  0.10566000000E+00 0.  1.
         14    1    4    4    0    0  0.52795546844E+00 -0.16621607839E+02  0.24138717145E+02  0.29312697753E+02  0.00000000000E+00 0. -1.
<mgrwt>
<rscale>  0 0.80181918E+02</rscale>
<asrwt>0</asrwt>
<pdfrwt beam="1">  1        1 0.29977956E-02 0.80181918E+02</pdfrwt>
<pdfrwt beam="2">  1       -2 0.12690074E-01 0.80181918E+02</pdfrwt>
<totfact> 0.11037619E+05</totfact>
</mgrwt>
</event>
<event>
 8    1  0.8247621E-014  0.7984305E+02  0.7818608E-02  0.1329497E+00
          1   -1    0    0  501    0  0.00000000000E+00  0.00000000000E+00  0.45725141317E+02  0.45725141595E+02  0.50400000000E-02 0. -1.
         -2   -1    0    0    0  501 -0.00000000000E+00 -0.00000000000E+00 -0.34854525653E+02  0.34854525747E+02  0.25500000000E-02 0.  1.
        -24    2    1    2    0    0 -0.71054273576E-14  0.44408920985E-15  0.10870615664E+02  0.80579667342E+02  0.79843049190E+02 0.  0.
         66    2    3    3    0    0  0.32430798451E+02 -0.31611102270E+01 -0.17794841669E+02  0.37180716730E+02  0.20000001130E+01 0.  0.
         13    1    3    3    0    0 -0.32430798451E+02  0.31611102270E+01  0.28665457333E+02  0.43398950612E+02  0.10566000000E+00 0. -1.
         13    1    4    4    0    0  0.20603495814E+02 -0.10853190647E+01 -0.11132366790E+02  0.23444033604E+02  0.10566000000E+00 0. -1.
        -13    1    4    4    0    0  0.62077169830E+01 -0.12390324954E+01 -0.34682487071E+01  0.72187855486E+01  0.10566000000E+00 0.  1.
         14    1    4    4    0    0  0.56195856541E+01 -0.83675866692E+00 -0.31942261720E+01  0.65178975773E+01  0.00000000000E+00 0. -1.
<mgrwt>
<rscale>  0 0.79843049E+02</rscale>
<asrwt>0</asrwt>
<pdfrwt beam="1">  1        1 0.70346372E-02 0.79843049E+02</pdfrwt>
<pdfrwt beam="2">  1       -2 0.53622347E-02 0.79843049E+02</pdfrwt>
<totfact> 0.13044153E+05</totfact>
</mgrwt>
</event>
<event>
 8    1  0.8247621E-014  0.8207092E+02  0.7818608E-02  0.1323275E+00
         -2   -1    0    0    0  501 -0.00000000000E+00  0.00000000000E+00  0.17331974480E+02  0.17331974668E+02  0.25500000000E-02 0.  1.
          1   -1    0    0  501    0  0.00000000000E+00 -0.00000000000E+00 -0.97156210475E+02  0.97156210605E+02  0.50400000000E-02 0. -1.
        -24    2    1    2    0    0 -0.22204460493E-15  0.00000000000E+00 -0.79824235994E+02  0.11448818527E+03  0.82070920033E+02 0.  0.
         66    2    3    3    0    0 -0.15694471095E+01  0.33663020921E+02 -0.73322818643E+01  0.34545976651E+02  0.20000009238E+01 0.  0.
         13    1    3    3    0    0  0.15694471095E+01 -0.33663020921E+02 -0.72491954130E+02  0.79942208622E+02  0.10566000000E+00 0. -1.
         13    1    4    4    0    0  0.40161029123E-01  0.34381137559E+01 -0.72929736354E+00  0.35164296931E+01  0.10566000000E+00 0.  1.
        -13    1    4    4    0    0  0.29283264985E+00  0.92989278427E+01 -0.18449290159E+01  0.94852905645E+01  0.10566000000E+00 0.  1.
        -14    1    4    4    0    0 -0.19024407885E+01  0.20925979322E+02 -0.47580554849E+01  0.21544256394E+02  0.00000000000E+00 0.  1.
<mgrwt>
<rscale>  0 0.82070920E+02</rscale>
<asrwt>0</asrwt>
<pdfrwt beam="1">  1        1 0.14947109E-01 0.82070920E+02</pdfrwt>
<pdfrwt beam="2">  1       -2 0.26664577E-02 0.82070920E+02</pdfrwt>
<totfact> 0.13649418E+05</totfact>
</mgrwt>
</event>
<event>
 8    1  0.8247621E-014  0.8328203E+02  0.7818608E-02  0.1319987E+00
         -2   -1    0    0    0  501 -0.00000000000E+00  0.00000000000E+00  0.12242552976E+03  0.12242552978E+03  0.25500000000E-02 0.  1.
          1   -1    0    0  501    0  0.00000000000E+00 -0.00000000000E+00 -0.14163500775E+02  0.14163501671E+02  0.50400000000E-02 0. -1.
        -24    2    1    2    0    0  0.35527136788E-14  0.00000000000E+00  0.10826202898E+03  0.13658903145E+03  0.83282030441E+02 0.  0.
         66    2    3    3    0    0  0.26015411514E+02 -0.32328873018E+02  0.48972788864E+02  0.64220648685E+02  0.20000003879E+01 0.  0.
         13    1    3    3    0    0 -0.26015411514E+02  0.32328873018E+02  0.59289240119E+02  0.72368382770E+02  0.10566000000E+00 0. -1.
         13    1    4    4    0    0  0.50282007660E+01 -0.73131145233E+01  0.10152875173E+02  0.13485417505E+02  0.10566000000E+00 0. -1.
        -13    1    4    4    0    0  0.35434734167E+01 -0.38922755820E+01  0.66339592003E+01  0.84691553161E+01  0.10566000000E+00 0.  1.
         14    1    4    4    0    0  0.17443737331E+02 -0.21123482913E+02  0.32185954490E+02  0.42266075863E+02  0.00000000000E+00 0. -1.
<mgrwt>
<rscale>  0 0.83282030E+02</rscale>
<asrwt>0</asrwt>
<pdfrwt beam="1">  1        1 0.21790001E-02 0.83282030E+02</pdfrwt>
<pdfrwt beam="2">  1       -2 0.18834698E-01 0.83282030E+02</pdfrwt>
<totfact> 0.90702130E+04</totfact>
</mgrwt>
</event>
<event>
 8    1  0.8247621E-014  0.8464493E+02  0.7818608E-02  0.1316364E+00
         -2   -1    0    0    0  501 -0.00000000000E+00  0.00000000000E+00  0.19494513795E+02  0.19494513962E+02  0.25500000000E-02 0.  1.
          1   -1    0    0  501    0  0.00000000000E+00 -0.00000000000E+00 -0.91881793866E+02  0.91881794004E+02  0.50400000000E-02 0. -1.
        -24    2    1    2    0    0  0.00000000000E+00  0.00000000000E+00 -0.72387280071E+02  0.11137630797E+03  0.84644926960E+02 0.  0.
         66    2    3    3    0    0  0.80571425891E+01 -0.41521293903E+02 -0.35555235462E+02  0.55291139979E+02  0.19999993090E+01 0.  0.
         13    1    3    3    0    0 -0.80571425891E+01  0.41521293903E+02 -0.36832044608E+02  0.56085167987E+02  0.10566000000E+00 0. -1.
         13    1    4    4    0    0  0.28630264869E+01 -0.12868635359E+02 -0.11743302542E+02  0.17655452849E+02  0.10566000000E+00 0. -1.
        -13    1    4    4    0    0  0.32596388115E+01 -0.14595181072E+02 -0.12197268427E+02  0.19298421615E+02  0.10566000000E+00 0.  1.
        -14    1    4    4    0    0  0.19344772907E+01 -0.14057477472E+02 -0.11614664493E+02  0.18337265515E+02  0.00000000000E+00 0.  1.
<mgrwt>
<rscale>  0 0.84644927E+02</rscale>
<asrwt>0</asrwt>
<pdfrwt beam="1">  1        1 0.14135660E-01 0.84644927E+02</pdfrwt>
<pdfrwt beam="2">  1       -2 0.29991560E-02 0.84644927E+02</pdfrwt>
<totfact> 0.12430090E+05</totfact>
</mgrwt>
</event>
<event>
 8    1  0.8247621E-014  0.7798083E+02  0.7818608E-02  0.1334881E+00
         -2   -1    0    0    0  501 -0.00000000000E+00  0.00000000000E+00  0.10189525469E+03  0.10189525472E+03  0.25500000000E-02 0.  1.
          1   -1    0    0  501    0  0.00000000000E+00 -0.00000000000E+00 -0.14919755452E+02  0.14919756304E+02  0.50400000000E-02 0. -1.
        -24    2    1    2    0    0  0.00000000000E+00  0.35527136788E-14  0.86975499235E+02  0.11681501102E+03  0.77980826702E+02 0.  0.
         66    2    3    3    0    0 -0.22866047193E+02 -0.31219378509E+02  0.36693941505E+02  0.53366197634E+02  0.19999994956E+01 0.  0.
         13    1    3    3    0    0  0.22866047193E+02  0.31219378509E+02  0.50281557730E+02  0.63448813389E+02  0.10566000000E+00 0. -1.
         13    1    4    4    0    0 -0.51363647854E+01 -0.71543497368E+01  0.91973380079E+01  0.12734565318E+02  0.10566000000E+00 0. -1.
        -13    1    4    4    0    0 -0.92381188136E+01 -0.13236758762E+02  0.14280280639E+02  0.21552081127E+02  0.10566000000E+00 0.  1.
        -14    1    4    4    0    0 -0.84915635936E+01 -0.10828270011E+02  0.13216322858E+02  0.19079551189E+02  0.00000000000E+00 0.  1.
<mgrwt>
<rscale>  0 0.77980827E+02</rscale>
<asrwt>0</asrwt>
<pdfrwt beam="1">  1        1 0.22953469E-02 0.77980827E+02</pdfrwt>
<pdfrwt beam="2">  1       -2 0.15676194E-01 0.77980827E+02</pdfrwt>
<totfact> 0.11277236E+05</totfact>
</mgrwt>
</event>
<event>
 8    1  0.8247621E-014  0.7983699E+02  0.7818608E-02  0.1329515E+00
          1   -1    0    0  501    0  0.00000000000E+00  0.00000000000E+00  0.53807125677E+01  0.53807149282E+01  0.50400000000E-02 0. -1.
         -2   -1    0    0    0  501 -0.00000000000E+00 -0.00000000000E+00 -0.29614773331E+03  0.29614773332E+03  0.25500000000E-02 0.  1.
        -24    2    1    2    0    0 -0.35527136788E-14  0.17763568394E-14 -0.29076702075E+03  0.30152844825E+03  0.79836988622E+02 0.  0.
         66    2    3    3    0    0 -0.25615398159E+02  0.15080842800E+02 -0.24596159897E+03  0.24775933605E+03  0.19999975255E+01 0.  0.
         13    1    3    3    0    0  0.25615398159E+02 -0.15080842800E+02 -0.44805421774E+02  0.53769112200E+02  0.10566000000E+00 0. -1.
         13    1    4    4    0    0 -0.34392573982E+01  0.19647958467E+01 -0.34048452423E+02  0.34278232023E+02  0.10566000000E+00 0.  1.
        -13    1    4    4    0    0 -0.43566871557E+01  0.22066146399E+01 -0.45493810621E+02  0.45755303955E+02  0.10566000000E+00 0.  1.
        -14    1    4    4    0    0 -0.17819453605E+02  0.10909432314E+02 -0.16641933593E+03  0.16772580007E+03  0.00000000000E+00 0.  1.
<mgrwt>
<rscale>  0 0.79836989E+02</rscale>
<asrwt>0</asrwt>
<pdfrwt beam="1">  1        1 0.82780235E-03 0.79836989E+02</pdfrwt>
<pdfrwt beam="2">  1       -2 0.45561177E-01 0.79836989E+02</pdfrwt>
<totfact> 0.71136979E+04</totfact>
</mgrwt>
</event>
<event>
 8    1  0.8247621E-014  0.8053357E+02  0.7818608E-02  0.1327544E+00
          1   -1    0    0  501    0  0.00000000000E+00  0.00000000000E+00  0.97033660564E+02  0.97033660694E+02  0.50400000000E-02 0. -1.
         -2   -1    0    0    0  501 -0.00000000000E+00 -0.00000000000E+00 -0.16709808404E+02  0.16709808598E+02  0.25500000000E-02 0.  1.
        -24    2    1    2    0    0  0.35527136788E-14  0.35527136788E-14  0.80323852160E+02  0.11374346929E+03  0.80533568039E+02 0.  0.
         66    2    3    3    0    0  0.31401332204E+02  0.18848792891E+02  0.16633917427E+02  0.40274158639E+02  0.19999968764E+01 0.  0.
         13    1    3    3    0    0 -0.31401332204E+02 -0.18848792891E+02  0.63689934733E+02  0.73469310654E+02  0.10566000000E+00 0. -1.
         13    1    4    4    0    0  0.27553656545E+01  0.14462306684E+01  0.18011985878E+01  0.35970965270E+01  0.10566000000E+00 0. -1.
        -13    1    4    4    0    0  0.39302787276E+01  0.21376206460E+01  0.24068735203E+01  0.50814089661E+01  0.10566000000E+00 0.  1.
        -14    1    4    4    0    0  0.24715687822E+02  0.15264941576E+02  0.12425845319E+02  0.31595653146E+02  0.00000000000E+00 0.  1.
<mgrwt>
<rscale>  0 0.80533568E+02</rscale>
<asrwt>0</asrwt>
<pdfrwt beam="1">  1        1 0.14928255E-01 0.80533568E+02</pdfrwt>
<pdfrwt beam="2">  1       -2 0.25707398E-02 0.80533568E+02</pdfrwt>
<totfact> 0.14364334E+05</totfact>
</mgrwt>
</event>
<event>
 8    1  0.8247621E-014  0.8041477E+02  0.7818608E-02  0.1327878E+00
          1   -1    0    0  501    0  0.00000000000E+00  0.00000000000E+00  0.33506988236E+02  0.33506988615E+02  0.50400000000E-02 0. -1.
         -2   -1    0    0    0  501 -0.00000000000E+00 -0.00000000000E+00 -0.48247660943E+02  0.48247661010E+02  0.25500000000E-02 0.  1.
        -24    2    1    2    0    0  0.44408920985E-15  0.35527136788E-14 -0.14740672707E+02  0.81754649625E+02  0.80414770431E+02 0.  0.
         66    2    3    3    0    0  0.33512866535E+01 -0.31231694926E+02 -0.32851935308E+02  0.45496148729E+02  0.20000013874E+01 0.  0.
         13    1    3    3    0    0 -0.33512866535E+01  0.31231694926E+02  0.18111262601E+02  0.36258500896E+02  0.10566000000E+00 0. -1.
         13    1    4    4    0    0  0.25947953848E+00 -0.26176560878E+01 -0.32057060224E+01  0.41481523793E+01  0.10566000000E+00 0. -1.
        -13    1    4    4    0    0  0.10017829346E+01 -0.61111998414E+01 -0.71634783200E+01  0.94697897668E+01  0.10566000000E+00 0.  1.
         14    1    4    4    0    0  0.20900241804E+01 -0.22502838997E+02 -0.22482750966E+02  0.31878206583E+02  0.00000000000E+00 0. -1.
<mgrwt>
<rscale>  0 0.80414770E+02</rscale>
<asrwt>0</asrwt>
<pdfrwt beam="1">  1        1 0.51549213E-02 0.80414770E+02</pdfrwt>
<pdfrwt beam="2">  1       -2 0.74227171E-02 0.80414770E+02</pdfrwt>
<totfact> 0.12148670E+05</totfact>
</mgrwt>
</event>
<event>
 8    1  0.8247621E-014  0.7933225E+02  0.7818608E-02  0.1330957E+00
         -2   -1    0    0    0  501 -0.00000000000E+00  0.00000000000E+00  0.69199247712E+02  0.69199247759E+02  0.25500000000E-02 0.  1.
          1   -1    0    0  501    0  0.00000000000E+00 -0.00000000000E+00 -0.22737264057E+02  0.22737264615E+02  0.50400000000E-02 0. -1.
        -24    2    1    2    0    0  0.71054273576E-14  0.00000000000E+00  0.46461983656E+02  0.91936512375E+02  0.79332253103E+02 0.  0.
         66    2    3    3    0    0 -0.33282281550E+02 -0.13323740356E+02  0.42849773406E+02  0.55904699359E+02  0.20000018235E+01 0.  0.
         13    1    3    3    0    0  0.33282281550E+02  0.13323740356E+02  0.36122102498E+01  0.36031813015E+02  0.10566000000E+00 0. -1.
         13    1    4    4    0    0 -0.13186997800E+02 -0.47095393685E+01  0.17563208524E+02  0.22462282381E+02  0.10566000000E+00 0. -1.
        -13    1    4    4    0    0 -0.11291802032E+02 -0.43904383206E+01  0.14379336052E+02  0.18803117058E+02  0.10566000000E+00 0.  1.
        -14    1    4    4    0    0 -0.88034817174E+01 -0.42237626669E+01  0.10907228830E+02  0.14639299921E+02  0.00000000000E+00 0.  1.
<mgrwt>
<rscale>  0 0.79332253E+02</rscale>
<asrwt>0</asrwt>
<pdfrwt beam="1">  1        1 0.34980407E-02 0.79332253E+02</pdfrwt>
<pdfrwt beam="2">  1       -2 0.10646038E-01 0.79332253E+02</pdfrwt>
<totfact> 0.11765390E+05</totfact>
</mgrwt>
</event>
<event>
 8    1  0.8247621E-014  0.7292629E+02  0.7818608E-02  0.1350416E+00
         -2   -1    0    0    0  501 -0.00000000000E+00  0.00000000000E+00  0.38908890943E+03  0.38908890944E+03  0.25500000000E-02 0.  1.
          1   -1    0    0  501    0  0.00000000000E+00 -0.00000000000E+00 -0.34171118082E+01  0.34171155250E+01  0.50400000000E-02 0. -1.
        -24    2    1    2    0    0  0.00000000000E+00 -0.22204460493E-15  0.38567179762E+03  0.39250602496E+03  0.72926292595E+02 0.  0.
         66    2    3    3    0    0 -0.36372671872E+02 -0.19707573779E+01  0.18847403057E+03  0.19197217336E+03  0.20000005980E+01 0.  0.
         13    1    3    3    0    0  0.36372671872E+02  0.19707573779E+01  0.19719776706E+03  0.20053385160E+03  0.10566000000E+00 0. -1.
         13    1    4    4    0    0 -0.11421573873E+02 -0.15048346018E+00  0.61263676631E+02  0.62319533321E+02  0.10566000000E+00 0. -1.
        -13    1    4    4    0    0 -0.23724378302E+02 -0.19741512105E+01  0.12139474413E+03  0.12370706716E+03  0.10566000000E+00 0.  1.
        -14    1    4    4    0    0 -0.12267196965E+01  0.15387729276E+00  0.58156098062E+01  0.59455728785E+01  0.00000000000E+00 0.  1.
<mgrwt>
<rscale>  0 0.72926293E+02</rscale>
<asrwt>0</asrwt>
<pdfrwt beam="1">  1        1 0.52570985E-03 0.72926293E+02</pdfrwt>
<pdfrwt beam="2">  1       -2 0.59859826E-01 0.72926293E+02</pdfrwt>
<totfact> 0.76365109E+04</totfact>
</mgrwt>
</event>
<event>
 8    1  0.8247621E-014  0.7810345E+02  0.7818608E-02  0.1334521E+00
         -2   -1    0    0    0  501 -0.00000000000E+00  0.00000000000E+00  0.10467553167E+03  0.10467553171E+03  0.25500000000E-02 0.  1.
          1   -1    0    0  501    0  0.00000000000E+00 -0.00000000000E+00 -0.14569184364E+02  0.14569185236E+02  0.50400000000E-02 0. -1.
        -24    2    1    2    0    0  0.00000000000E+00  0.00000000000E+00  0.90106347310E+02  0.11924471694E+03  0.78103448662E+02 0.  0.
         66    2    3    3    0    0  0.85919941527E+00 -0.21091892122E+02  0.95197050660E+02  0.97529916423E+02  0.20000015668E+01 0.  0.
         13    1    3    3    0    0 -0.85919941527E+00  0.21091892122E+02 -0.50907033494E+01  0.21714800518E+02  0.10566000000E+00 0. -1.
         13    1    4    4    0    0 -0.39374800396E-01 -0.45754528327E+01  0.20904009444E+02  0.21399184421E+02  0.10566000000E+00 0. -1.
        -13    1    4    4    0    0  0.37073447606E+00 -0.15213421110E+02  0.67667279653E+02  0.69357461932E+02  0.10566000000E+00 0.  1.
        -14    1    4    4    0    0  0.52783973960E+00 -0.13030181790E+01  0.66257615623E+01  0.67732700704E+01  0.00000000000E+00 0.  1.
<mgrwt>
<rscale>  0 0.78103449E+02</rscale>
<asrwt>0</asrwt>
<pdfrwt beam="1">  1        1 0.22414131E-02 0.78103449E+02</pdfrwt>
<pdfrwt beam="2">  1       -2 0.16103927E-01 0.78103449E+02</pdfrwt>
<totfact> 0.11155916E+05</totfact>
</mgrwt>
</event>
<event>
 8    1  0.8247621E-014  0.8039450E+02  0.7818608E-02  0.1327936E+00
         -2   -1    0    0    0  501 -0.00000000000E+00  0.00000000000E+00  0.23670294152E+02  0.23670294290E+02  0.25500000000E-02 0.  1.
          1   -1    0    0  501    0  0.00000000000E+00 -0.00000000000E+00 -0.68263568275E+02  0.68263568461E+02  0.50400000000E-02 0. -1.
        -24    2    1    2    0    0  0.00000000000E+00 -0.88817841970E-15 -0.44593274123E+02  0.91933862751E+02  0.80394496225E+02 0.  0.
         66    2    3    3    0    0  0.29872097068E+02  0.44903856480E+01  0.79729303959E+01  0.31306123489E+02  0.20000005764E+01 0.  0.
         13    1    3    3    0    0 -0.29872097068E+02 -0.44903856480E+01 -0.52566204519E+02  0.60627739262E+02  0.10566000000E+00 0. -1.
         13    1    4    4    0    0  0.97653670147E+01  0.10721760993E+01  0.32993529730E+01  0.10363824033E+02  0.10566000000E+00 0. -1.
        -13    1    4    4    0    0  0.19669850223E+01  0.52314684864E+00  0.30667056645E+00  0.20610491443E+01  0.10566000000E+00 0.  1.
         14    1    4    4    0    0  0.18139745031E+02  0.28950627001E+01  0.43669068565E+01  0.18881250311E+02  0.00000000000E+00 0. -1.
<mgrwt>
<rscale>  0 0.80394496E+02</rscale>
<asrwt>0</asrwt>
<pdfrwt beam="1">  1        1 0.10502087E-01 0.80394496E+02</pdfrwt>
<pdfrwt beam="2">  1       -2 0.36415838E-02 0.80394496E+02</pdfrwt>
<totfact> 0.13630581E+05</totfact>
</mgrwt>
</event>
<event>
 8    1  0.8247621E-014  0.7703497E+02  0.7818608E-02  0.1337683E+00
          1   -1    0    0  501    0  0.00000000000E+00  0.00000000000E+00  0.59274878484E+02  0.59274878698E+02  0.50400000000E-02 0. -1.
         -2   -1    0    0    0  501 -0.00000000000E+00 -0.00000000000E+00 -0.25029097908E+02  0.25029098038E+02  0.25500000000E-02 0.  1.
        -24    2    1    2    0    0  0.00000000000E+00  0.00000000000E+00  0.34245780576E+02  0.84303976736E+02  0.77034972618E+02 0.  0.
         66    2    3    3    0    0  0.20576551653E+01  0.15525839900E+02 -0.21344544980E+02  0.26549486792E+02  0.19999997876E+01 0.  0.
         13    1    3    3    0    0 -0.20576551653E+01 -0.15525839900E+02  0.55590325555E+02  0.57754489945E+02  0.10566000000E+00 0. -1.
         13    1    4    4    0    0  0.11702035702E+01  0.57455276602E+01 -0.69279395877E+01  0.90767822193E+01  0.10566000000E+00 0. -1.
        -13    1    4    4    0    0  0.55050374311E+00  0.79210074911E+01 -0.10974962118E+02  0.13546452361E+02  0.10566000000E+00 0.  1.
        -14    1    4    4    0    0  0.33694785195E+00  0.18593047483E+01 -0.34416432739E+01  0.39262522113E+01  0.00000000000E+00 0.  1.
<mgrwt>
<rscale>  0 0.77034973E+02</rscale>
<asrwt>0</asrwt>
<pdfrwt beam="1">  1        1 0.91192119E-02 0.77034973E+02</pdfrwt>
<pdfrwt beam="2">  1       -2 0.38506305E-02 0.77034973E+02</pdfrwt>
<totfact> 0.14991449E+05</totfact>
</mgrwt>
</event>
<event>
 8    1  0.8247621E-014  0.8265140E+02  0.7818608E-02  0.1321691E+00
          1   -1    0    0  501    0  0.00000000000E+00  0.00000000000E+00  0.12830703214E+02  0.12830704204E+02  0.50400000000E-02 0. -1.
         -2   -1    0    0    0  501 -0.00000000000E+00 -0.00000000000E+00 -0.13310364913E+03  0.13310364916E+03  0.25500000000E-02 0.  1.
        -24    2    1    2    0    0  0.00000000000E+00  0.00000000000E+00 -0.12027294592E+03  0.14593435336E+03  0.82651400298E+02 0.  0.
         66    2    3    3    0    0 -0.85772457338E+01  0.64448336593E+01 -0.13059254640E+03  0.13104777070E+03  0.20000010532E+01 0.  0.
         13    1    3    3    0    0  0.85772457338E+01 -0.64448336593E+01  0.10319600482E+02  0.14886582664E+02  0.10566000000E+00 0. -1.
         13    1    4    4    0    0 -0.53342619618E+00  0.54462996744E+00 -0.11811253660E+02  0.11836301887E+02  0.10566000000E+00 0. -1.
        -13    1    4    4    0    0 -0.15388088827E+01  0.19376769529E+01 -0.32880785342E+02  0.32973925054E+02  0.10566000000E+00 0.  1.
        -14    1    4    4    0    0 -0.65050106549E+01  0.39625267389E+01 -0.85900507400E+02  0.86237543758E+02  0.00000000000E+00 0.  1.
<mgrwt>
<rscale>  0 0.82651400E+02</rscale>
<asrwt>0</asrwt>
<pdfrwt beam="1">  1        1 0.19739545E-02 0.82651400E+02</pdfrwt>
<pdfrwt beam="2">  1       -2 0.20477484E-01 0.82651400E+02</pdfrwt>
<totfact> 0.90242713E+04</totfact>
</mgrwt>
</event>
<event>
 8    1  0.8247621E-014  0.8105980E+02  0.7818608E-02  0.1326070E+00
         -2   -1    0    0    0  501 -0.00000000000E+00  0.00000000000E+00  0.25452647580E+02  0.25452647707E+02  0.25500000000E-02 0.  1.
          1   -1    0    0  501    0  0.00000000000E+00 -0.00000000000E+00 -0.64538385414E+02  0.64538385610E+02  0.50400000000E-02 0. -1.
        -24    2    1    2    0    0  0.00000000000E+00  0.00000000000E+00 -0.39085737834E+02  0.89991033318E+02  0.81059799997E+02 0.  0.
         66    2    3    3    0    0 -0.17594442500E+02  0.12928048912E+02  0.18321293700E+02  0.28572165784E+02  0.19999997925E+01 0.  0.
         13    1    3    3    0    0  0.17594442500E+02 -0.12928048912E+02 -0.57407031534E+02  0.61418867534E+02  0.10566000000E+00 0. -1.
         13    1    4    4    0    0 -0.27533370539E+01  0.16921114649E+01  0.25796040214E+01  0.41363784988E+01  0.10566000000E+00 0. -1.
        -13    1    4    4    0    0 -0.34802390895E+01  0.34974556297E+01  0.38351463064E+01  0.62501016975E+01  0.10566000000E+00 0.  1.
        -14    1    4    4    0    0 -0.11360866356E+02  0.77384818175E+01  0.11906543372E+02  0.18185685587E+02  0.00000000000E+00 0.  1.
<mgrwt>
<rscale>  0 0.81059800E+02</rscale>
<asrwt>0</asrwt>
<pdfrwt beam="1">  1        1 0.99289823E-02 0.81059800E+02</pdfrwt>
<pdfrwt beam="2">  1       -2 0.39157920E-02 0.81059800E+02</pdfrwt>
<totfact> 0.13207338E+05</totfact>
</mgrwt>
</event>
<event>
 8    1  0.8247621E-014  0.8501190E+02  0.7818608E-02  0.1315401E+00
          1   -1    0    0  501    0  0.00000000000E+00  0.00000000000E+00  0.68536147962E+01  0.68536166494E+01  0.50400000000E-02 0. -1.
         -2   -1    0    0    0  501 -0.00000000000E+00 -0.00000000000E+00 -0.26362084033E+03  0.26362084034E+03  0.25500000000E-02 0.  1.
        -24    2    1    2    0    0  0.00000000000E+00 -0.35527136788E-14 -0.25676722553E+03  0.27047445699E+03  0.85011903734E+02 0.  0.
         66    2    3    3    0    0 -0.23694312054E+01  0.26670235084E+02 -0.23339133647E+03  0.23493069527E+03  0.19999992702E+01 0.  0.
         13    1    3    3    0    0  0.23694312054E+01 -0.26670235084E+02 -0.23375889058E+02  0.35543761716E+02  0.10566000000E+00 0. -1.
         13    1    4    4    0    0 -0.75307539939E+00  0.10478256140E+02 -0.94500205023E+02  0.95082389997E+02  0.10566000000E+00 0. -1.
        -13    1    4    4    0    0 -0.14344627444E+01  0.12244959840E+02 -0.10981218982E+03  0.11050214895E+03  0.10566000000E+00 0.  1.
         14    1    4    4    0    0 -0.18189306152E+00  0.39470191035E+01 -0.29078941624E+02  0.29346156322E+02  0.00000000000E+00 0. -1.
<mgrwt>
<rscale>  0 0.85011904E+02</rscale>
<asrwt>0</asrwt>
<pdfrwt beam="1">  1        1 0.10544026E-02 0.85011904E+02</pdfrwt>
<pdfrwt beam="2">  1       -2 0.40557045E-01 0.85011904E+02</pdfrwt>
<totfact> 0.64214618E+04</totfact>
</mgrwt>
</event>
<event>
 8    1  0.8247621E-014  0.7990061E+02  0.7818608E-02  0.1329334E+00
          1   -1    0    0  501    0  0.00000000000E+00  0.00000000000E+00  0.17749531849E+02  0.17749532564E+02  0.50400000000E-02 0. -1.
         -2   -1    0    0    0  501 -0.00000000000E+00 -0.00000000000E+00 -0.89919380506E+02  0.89919380542E+02  0.25500000000E-02 0.  1.
        -24    2    1    2    0    0  0.88817841970E-15 -0.35527136788E-14 -0.72169848657E+02  0.10766891311E+03  0.79900611977E+02 0.  0.
         66    2    3    3    0    0 -0.61604552533E+01  0.23150993084E+02 -0.79146461975E+02  0.82716879380E+02  0.20000003754E+01 0.  0.
         13    1    3    3    0    0  0.61604552533E+01 -0.23150993084E+02  0.69766133172E+01  0.24952033727E+02  0.10566000000E+00 0. -1.
         13    1    4    4    0    0 -0.11513614718E+00  0.62076730216E+00 -0.31510682536E+01  0.32154320938E+01  0.10566000000E+00 0. -1.
        -13    1    4    4    0    0 -0.17780663307E+01  0.63322118612E+01 -0.19959941254E+02  0.21015918868E+02  0.10566000000E+00 0.  1.
         14    1    4    4    0    0 -0.42672527754E+01  0.16198013920E+02 -0.56035452467E+02  0.58485528418E+02  0.00000000000E+00 0. -1.
<mgrwt>
<rscale>  0 0.79900612E+02</rscale>
<asrwt>0</asrwt>
<pdfrwt beam="1">  1        1 0.27306973E-02 0.79900612E+02</pdfrwt>
<pdfrwt beam="2">  1       -2 0.13833751E-01 0.79900612E+02</pdfrwt>
<totfact> 0.10921740E+05</totfact>
</mgrwt>
</event>
<event>
 8    1  0.8247621E-014  0.8151415E+02  0.7818608E-02  0.1324809E+00
         -2   -1    0    0    0  501 -0.00000000000E+00  0.00000000000E+00  0.31317552897E+02  0.31317553001E+02  0.25500000000E-02 0.  1.
          1   -1    0    0  501    0  0.00000000000E+00 -0.00000000000E+00 -0.53041797916E+02  0.53041798155E+02  0.50400000000E-02 0. -1.
        -24    2    1    2    0    0  0.00000000000E+00  0.17763568394E-14 -0.21724245018E+02  0.84359351156E+02  0.81514154022E+02 0.  0.
         66    2    3    3    0    0  0.38705660295E+02  0.11782951576E+02 -0.15741301724E+02  0.43459805178E+02  0.19999998522E+01 0.  0.
         13    1    3    3    0    0 -0.38705660295E+02 -0.11782951576E+02 -0.59829432945E+01  0.40899545978E+02  0.10566000000E+00 0. -1.
         13    1    4    4    0    0  0.59240407839E+01  0.12217666831E+01 -0.19788496520E+01  0.63650595456E+01  0.10566000000E+00 0. -1.
        -13    1    4    4    0    0  0.20228450787E+02  0.63807646644E+01 -0.81640683945E+01  0.22728122574E+02  0.10566000000E+00 0.  1.
         14    1    4    4    0    0  0.12553168724E+02  0.41804202287E+01 -0.55983836774E+01  0.14366623059E+02  0.00000000000E+00 0. -1.
<mgrwt>
<rscale>  0 0.81514154E+02</rscale>
<asrwt>0</asrwt>
<pdfrwt beam="1">  1        1 0.81602766E-02 0.81514154E+02</pdfrwt>
<pdfrwt beam="2">  1       -2 0.48180851E-02 0.81514154E+02</pdfrwt>
<totfact> 0.12605755E+05</totfact>
</mgrwt>
</event>
<event>
 8    1  0.8247621E-014  0.7967861E+02  0.7818608E-02  0.1329966E+00
         -2   -1    0    0    0  501 -0.00000000000E+00  0.00000000000E+00  0.46475040203E+01  0.46475047199E+01  0.25500000000E-02 0.  1.
          1   -1    0    0  501    0  0.00000000000E+00 -0.00000000000E+00 -0.34151021130E+03  0.34151021134E+03  0.50400000000E-02 0. -1.
        -24    2    1    2    0    0  0.00000000000E+00  0.00000000000E+00 -0.33686270728E+03  0.34615771606E+03  0.79678609614E+02 0.  0.
         66    2    3    3    0    0 -0.37844030526E+02 -0.36967089374E+01 -0.11725659649E+03  0.12328400436E+03  0.20000020732E+01 0.  0.
         13    1    3    3    0    0  0.37844030526E+02  0.36967089374E+01 -0.21960611079E+03  0.22287371170E+03  0.10566000000E+00 0. -1.
         13    1    4    4    0    0 -0.14270795434E+01 -0.27334494834E+00 -0.56388339186E+01  0.58239922288E+01  0.10566000000E+00 0. -1.
        -13    1    4    4    0    0 -0.19442099403E+02 -0.16044342599E+01 -0.60235412693E+02  0.63315760636E+02  0.10566000000E+00 0.  1.
         14    1    4    4    0    0 -0.16974851579E+02 -0.18189297291E+01 -0.51382349874E+02  0.54144251496E+02  0.00000000000E+00 0. -1.
<mgrwt>
<rscale>  0 0.79678610E+02</rscale>
<asrwt>0</asrwt>
<pdfrwt beam="1">  1        1 0.52540013E-01 0.79678610E+02</pdfrwt>
<pdfrwt beam="2">  1       -2 0.71500094E-03 0.79678610E+02</pdfrwt>
<totfact> 0.18678452E+05</totfact>
</mgrwt>
</event>
<event>
 8    1  0.8247621E-014  0.8005288E+02  0.7818608E-02  0.1328901E+00
          1   -1    0    0  501    0  0.00000000000E+00  0.00000000000E+00  0.38437872345E+01  0.38437905388E+01  0.50400000000E-02 0. -1.
         -2   -1    0    0    0  501 -0.00000000000E+00 -0.00000000000E+00 -0.41680638481E+03  0.41680638482E+03  0.25500000000E-02 0.  1.
        -24    2    1    2    0    0  0.00000000000E+00 -0.17763568394E-14 -0.41296259757E+03  0.42065017536E+03  0.80052876471E+02 0.  0.
         66    2    3    3    0    0  0.33904235752E+02 -0.94093333053E+01 -0.30659720828E+03  0.30861607359E+03  0.19999990703E+01 0.  0.
         13    1    3    3    0    0 -0.33904235752E+02  0.94093333053E+01 -0.10636538929E+03  0.11203410177E+03  0.10566000000E+00 0. -1.
         13    1    4    4    0    0  0.50835638059E+01 -0.75337088163E+00 -0.45623567714E+02  0.45912212794E+02  0.10566000000E+00 0. -1.
        -13    1    4    4    0    0  0.71163500649E+01 -0.24386364466E+01 -0.64558405571E+02  0.64995294290E+02  0.10566000000E+00 0.  1.
        -14    1    4    4    0    0  0.21704321881E+02 -0.62173259770E+01 -0.19641523500E+03  0.19770856651E+03  0.00000000000E+00 0.  1.
<mgrwt>
<rscale>  0 0.80052876E+02</rscale>
<asrwt>0</asrwt>
<pdfrwt beam="1">  1        1 0.59135247E-03 0.80052876E+02</pdfrwt>
<pdfrwt beam="2">  1       -2 0.64124023E-01 0.80052876E+02</pdfrwt>
<totfact> 0.57383416E+04</totfact>
</mgrwt>
</event>
<event>
 8    1  0.8247621E-014  0.8009956E+02  0.7818608E-02  0.1328769E+00
          1   -1    0    0  501    0  0.00000000000E+00  0.00000000000E+00  0.23543563920E+03  0.23543563926E+03  0.50400000000E-02 0. -1.
         -2   -1    0    0    0  501 -0.00000000000E+00 -0.00000000000E+00 -0.68128377530E+01  0.68128382302E+01  0.25500000000E-02 0.  1.
        -24    2    1    2    0    0 -0.35527136788E-14 -0.71054273576E-14  0.22862280145E+03  0.24224847749E+03  0.80099559936E+02 0.  0.
         66    2    3    3    0    0 -0.17429283616E+02 -0.30540305528E+02  0.56563743405E+02  0.66632929176E+02  0.19999983929E+01 0.  0.
         13    1    3    3    0    0  0.17429283616E+02  0.30540305528E+02  0.17205905805E+03  0.17561554831E+03  0.10566000000E+00 0. -1.
         13    1    4    4    0    0 -0.87822335783E-01 -0.45058902029E+00  0.73547807477E+00  0.87340440916E+00  0.10566000000E+00 0.  1.
        -13    1    4    4    0    0 -0.14442984324E+02 -0.24256001352E+02  0.45780223817E+02  0.53784695356E+02  0.10566000000E+00 0.  1.
        -14    1    4    4    0    0 -0.28984769564E+01 -0.58337151554E+01  0.10048041513E+02  0.11974829411E+02  0.00000000000E+00 0.  1.
<mgrwt>
<rscale>  0 0.80099560E+02</rscale>
<asrwt>0</asrwt>
<pdfrwt beam="1">  1        1 0.36220864E-01 0.80099560E+02</pdfrwt>
<pdfrwt beam="2">  1       -2 0.10481290E-02 0.80099560E+02</pdfrwt>
<totfact> 0.17156050E+05</totfact>
</mgrwt>
</event>
<event>
 8    1  0.8247621E-014  0.8082269E+02  0.7818608E-02  0.1326733E+00
          1   -1    0    0  501    0  0.00000000000E+00  0.00000000000E+00  0.30976882373E+02  0.30976882783E+02  0.50400000000E-02 0. -1.
         -2   -1    0    0    0  501 -0.00000000000E+00 -0.00000000000E+00 -0.52719210718E+02  0.52719210780E+02  0.25500000000E-02 0.  1.
        -24    2    1    2    0    0  0.00000000000E+00  0.00000000000E+00 -0.21742328345E+02  0.83696093564E+02  0.80822690106E+02 0.  0.
         66    2    3    3    0    0  0.33138666912E+02  0.16823846562E+02 -0.27246691158E+02  0.46125862903E+02  0.19999979117E+01 0.  0.
         13    1    3    3    0    0 -0.33138666912E+02 -0.16823846562E+02  0.55043628130E+01  0.37570230660E+02  0.10566000000E+00 0. -1.
         13    1    4    4    0    0  0.98953243360E+01  0.59712329283E+01 -0.80554881814E+01  0.14088119827E+02  0.10566000000E+00 0. -1.
        -13    1    4    4    0    0  0.12981954265E+02  0.60915726116E+01 -0.10577024548E+02  0.17819175226E+02  0.10566000000E+00 0.  1.
         14    1    4    4    0    0  0.10261388312E+02  0.47610410218E+01 -0.86141784288E+01  0.14218567850E+02  0.00000000000E+00 0. -1.
<mgrwt>
<rscale>  0 0.80822690E+02</rscale>
<asrwt>0</asrwt>
<pdfrwt beam="1">  1        1 0.47656743E-02 0.80822690E+02</pdfrwt>
<pdfrwt beam="2">  1       -2 0.81106478E-02 0.80822690E+02</pdfrwt>
<totfact> 0.11811221E+05</totfact>
</mgrwt>
</event>
<event>
 8    1  0.8247621E-014  0.8114541E+02  0.7818608E-02  0.1325832E+00
         -2   -1    0    0    0  501 -0.00000000000E+00  0.00000000000E+00  0.14951760148E+03  0.14951760150E+03  0.25500000000E-02 0.  1.
          1   -1    0    0  501    0  0.00000000000E+00 -0.00000000000E+00 -0.11009702472E+02  0.11009703626E+02  0.50400000000E-02 0. -1.
        -24    2    1    2    0    0  0.00000000000E+00  0.00000000000E+00  0.13850789901E+03  0.16052730513E+03  0.81145410246E+02 0.  0.
         66    2    3    3    0    0  0.38050168939E+02 -0.12677698023E+02  0.81099386094E+02  0.90496683951E+02  0.19999994567E+01 0.  0.
         13    1    3    3    0    0 -0.38050168939E+02  0.12677698023E+02  0.57408512917E+02  0.70030621179E+02  0.10566000000E+00 0. -1.
         13    1    4    4    0    0  0.27851115072E+01 -0.14658466954E+01  0.65496378774E+01  0.72673566724E+01  0.10566000000E+00 0. -1.
        -13    1    4    4    0    0  0.26297861547E+02 -0.84596685740E+01  0.55900231791E+02  0.62353753637E+02  0.10566000000E+00 0.  1.
         14    1    4    4    0    0  0.89671958845E+01 -0.27521827540E+01  0.18649516426E+02  0.20875573642E+02  0.00000000000E+00 0. -1.
<mgrwt>
<rscale>  0 0.81145410E+02</rscale>
<asrwt>0</asrwt>
<pdfrwt beam="1">  1        1 0.16938003E-02 0.81145410E+02</pdfrwt>
<pdfrwt beam="2">  1       -2 0.23002710E-01 0.81145410E+02</pdfrwt>
<totfact> 0.91210171E+04</totfact>
</mgrwt>
</event>
<event>
 8    1  0.8247621E-014  0.8576521E+02  0.7818608E-02  0.1313443E+00
          1   -1    0    0  501    0  0.00000000000E+00  0.00000000000E+00  0.42291620108E+01  0.42291650139E+01  0.50400000000E-02 0. -1.
         -2   -1    0    0    0  501 -0.00000000000E+00 -0.00000000000E+00 -0.43481835071E+03  0.43481835072E+03  0.25500000000E-02 0.  1.
        -24    2    1    2    0    0 -0.17763568394E-14 -0.35527136788E-14 -0.43058918870E+03  0.43904751573E+03  0.85765212326E+02 0.  0.
         66    2    3    3    0    0  0.14628904530E+02  0.30416963439E+02 -0.35063099499E+03  0.35225742173E+03  0.19999997884E+01 0.  0.
         13    1    3    3    0    0 -0.14628904530E+02 -0.30416963439E+02 -0.79958193709E+02  0.86790094007E+02  0.10566000000E+00 0. -1.
         13    1    4    4    0    0  0.13528232781E+01  0.17528806254E+01 -0.23958950975E+02  0.24061280456E+02  0.10566000000E+00 0.  1.
        -13    1    4    4    0    0  0.43521650765E+01  0.94963054687E+01 -0.10997494364E+03  0.11046999842E+03  0.10566000000E+00 0.  1.
         14    1    4    4    0    0  0.89239161757E+01  0.19167777345E+02 -0.21669710037E+03  0.21772614285E+03  0.00000000000E+00 0. -1.
<mgrwt>
<rscale>  0 0.85765212E+02</rscale>
<asrwt>0</asrwt>
<pdfrwt beam="1">  1        1 0.65064089E-03 0.85765212E+02</pdfrwt>
<pdfrwt beam="2">  1       -2 0.66895096E-01 0.85765212E+02</pdfrwt>
<totfact> 0.46615805E+04</totfact>
</mgrwt>
</event>
<event>
 8    1  0.8247621E-014  0.7995355E+02  0.7818608E-02  0.1329183E+00
         -2   -1    0    0    0  501 -0.00000000000E+00  0.00000000000E+00  0.45503768375E+02  0.45503768447E+02  0.25500000000E-02 0.  1.
          1   -1    0    0  501    0  0.00000000000E+00 -0.00000000000E+00 -0.35121101137E+02  0.35121101499E+02  0.50400000000E-02 0. -1.
        -24    2    1    2    0    0  0.35527136788E-14  0.00000000000E+00  0.10382667238E+02  0.80624869946E+02  0.79953548231E+02 0.  0.
         66    2    3    3    0    0 -0.20842849478E+02 -0.33537456059E+02  0.11324443312E+02  0.41126978363E+02  0.19999999138E+01 0.  0.
         13    1    3    3    0    0  0.20842849478E+02  0.33537456059E+02 -0.94177607362E+00  0.39497891583E+02  0.10566000000E+00 0. -1.
         13    1    4    4    0    0 -0.29998998345E+01 -0.44761368108E+01  0.11663535920E+01  0.55142310891E+01  0.10566000000E+00 0. -1.
        -13    1    4    4    0    0 -0.21532135419E+01 -0.37103563399E+01  0.79979566002E+00  0.43650784483E+01  0.10566000000E+00 0.  1.
        -14    1    4    4    0    0 -0.15689736102E+02 -0.25350962908E+02  0.93582940599E+01  0.31247668826E+02  0.00000000000E+00 0.  1.
<mgrwt>
<rscale>  0 0.79953548E+02</rscale>
<asrwt>0</asrwt>
<pdfrwt beam="1">  1        1 0.54032464E-02 0.79953548E+02</pdfrwt>
<pdfrwt beam="2">  1       -2 0.70005797E-02 0.79953548E+02</pdfrwt>
<totfact> 0.12448249E+05</totfact>
</mgrwt>
</event>
<event>
 8    1  0.8247621E-014  0.8073176E+02  0.7818608E-02  0.1326988E+00
         -2   -1    0    0    0  501 -0.00000000000E+00  0.00000000000E+00  0.17705904404E+03  0.17705904406E+03  0.25500000000E-02 0.  1.
          1   -1    0    0  501    0  0.00000000000E+00 -0.00000000000E+00 -0.92026040866E+01  0.92026054668E+01  0.50400000000E-02 0. -1.
        -24    2    1    2    0    0 -0.35527136788E-14  0.00000000000E+00  0.16785643995E+03  0.18626164953E+03  0.80731763576E+02 0.  0.
         66    2    3    3    0    0  0.28676016434E+02 -0.26716960233E+02  0.10602354174E+03  0.11305353284E+03  0.20000006451E+01 0.  0.
         13    1    3    3    0    0 -0.28676016434E+02  0.26716960233E+02  0.61832898216E+02  0.73208116685E+02  0.10566000000E+00 0. -1.
         13    1    4    4    0    0  0.10008836472E+01 -0.70741834289E+00  0.26800583095E+01  0.29489125733E+01  0.10566000000E+00 0. -1.
        -13    1    4    4    0    0  0.21161265248E+02 -0.20205665129E+02  0.80392692372E+02  0.85551529507E+02  0.10566000000E+00 0.  1.
        -14    1    4    4    0    0  0.65138675389E+01 -0.58038767614E+01  0.22950791057E+02  0.24553090761E+02  0.00000000000E+00 0.  1.
<mgrwt>
<rscale>  0 0.80731764E+02</rscale>
<asrwt>0</asrwt>
<pdfrwt beam="1">  1        1 0.14157855E-02 0.80731764E+02</pdfrwt>
<pdfrwt beam="2">  1       -2 0.27239850E-01 0.80731764E+02</pdfrwt>
<totfact> 0.87127076E+04</totfact>
</mgrwt>
</event>
<event>
 8    1  0.8247621E-014  0.8010797E+02  0.7818608E-02  0.1328745E+00
         -2   -1    0    0    0  501 -0.00000000000E+00  0.00000000000E+00  0.17905679730E+02  0.17905679912E+02  0.25500000000E-02 0.  1.
          1   -1    0    0  501    0  0.00000000000E+00 -0.00000000000E+00 -0.89598476247E+02  0.89598476389E+02  0.50400000000E-02 0. -1.
        -24    2    1    2    0    0  0.00000000000E+00 -0.35527136788E-14 -0.71692796517E+02  0.10750415630E+03  0.80107968078E+02 0.  0.
         66    2    3    3    0    0 -0.27313121082E+01 -0.31865097225E+02 -0.35639702173E+01  0.32241996991E+02  0.19999998173E+01 0.  0.
         13    1    3    3    0    0  0.27313121082E+01  0.31865097225E+02 -0.68128826300E+02  0.75262159310E+02  0.10566000000E+00 0. -1.
         13    1    4    4    0    0 -0.13278462766E+01 -0.64389047202E+01 -0.61235644528E+00  0.66036970086E+01  0.10566000000E+00 0. -1.
        -13    1    4    4    0    0 -0.11394831307E+01 -0.17855272529E+02 -0.20077014784E+01  0.18004199737E+02  0.10566000000E+00 0.  1.
         14    1    4    4    0    0 -0.26398270089E+00 -0.75709199757E+01 -0.94391229359E+00  0.76341002458E+01  0.00000000000E+00 0. -1.
<mgrwt>
<rscale>  0 0.80107968E+02</rscale>
<asrwt>0</asrwt>
<pdfrwt beam="1">  1        1 0.13784381E-01 0.80107968E+02</pdfrwt>
<pdfrwt beam="2">  1       -2 0.27547200E-02 0.80107968E+02</pdfrwt>
<totfact> 0.14380401E+05</totfact>
</mgrwt>
</event>
<event>
 8    1  0.8247621E-014  0.7848984E+02  0.7818608E-02  0.1333393E+00
          1   -1    0    0  501    0  0.00000000000E+00  0.00000000000E+00  0.43386923477E+02  0.43386923769E+02  0.50400000000E-02 0. -1.
         -2   -1    0    0    0  501 -0.00000000000E+00 -0.00000000000E+00 -0.35498337580E+02  0.35498337671E+02  0.25500000000E-02 0.  1.
        -24    2    1    2    0    0  0.00000000000E+00  0.00000000000E+00  0.78885858968E+01  0.78885261441E+02  0.78489838101E+02 0.  0.
         66    2    3    3    0    0 -0.12617508954E+02 -0.36854627622E+02  0.85187891304E+01  0.39925366298E+02  0.19999991036E+01 0.  0.
         13    1    3    3    0    0  0.12617508954E+02  0.36854627622E+02 -0.63020323365E+00  0.38959895143E+02  0.10566000000E+00 0. -1.
         13    1    4    4    0    0 -0.40415860731E+01 -0.12043661724E+02  0.22965390255E+01  0.12910052720E+02  0.10566000000E+00 0. -1.
        -13    1    4    4    0    0 -0.86301396981E+01 -0.24679775441E+02  0.62104201052E+01  0.26872869384E+02  0.10566000000E+00 0.  1.
        -14    1    4    4    0    0  0.54216817507E-01 -0.13119045808E+00  0.11829999750E-01  0.14244419428E+00  0.00000000000E+00 0.  1.
<mgrwt>
<rscale>  0 0.78489838E+02</rscale>
<asrwt>0</asrwt>
<pdfrwt beam="1">  1        1 0.66749114E-02 0.78489838E+02</pdfrwt>
<pdfrwt beam="2">  1       -2 0.54612827E-02 0.78489838E+02</pdfrwt>
<totfact> 0.13569567E+05</totfact>
</mgrwt>
</event>
<event>
 8    1  0.8247621E-014  0.7975705E+02  0.7818608E-02  0.1329742E+00
         -2   -1    0    0    0  501 -0.00000000000E+00  0.00000000000E+00  0.29013899774E+03  0.29013899775E+03  0.25500000000E-02 0.  1.
          1   -1    0    0  501    0  0.00000000000E+00 -0.00000000000E+00 -0.54811539907E+01  0.54811563079E+01  0.50400000000E-02 0. -1.
        -24    2    1    2    0    0  0.00000000000E+00  0.44408920985E-15  0.28465784374E+03  0.29562015405E+03  0.79757052841E+02 0.  0.
         66    2    3    3    0    0  0.22874674324E+02 -0.20788511533E+01  0.26313428014E+03  0.26414242698E+03  0.19999995491E+01 0.  0.
         13    1    3    3    0    0 -0.22874674324E+02  0.20788511533E+01  0.21523563605E+02  0.31477727076E+02  0.10566000000E+00 0. -1.
         13    1    4    4    0    0  0.17446514523E+02 -0.13284214955E+01  0.20578709590E+03  0.20652962396E+03  0.10566000000E+00 0. -1.
        -13    1    4    4    0    0  0.27356857175E+01 -0.26505425698E+00  0.32187048149E+02  0.32304356714E+02  0.10566000000E+00 0.  1.
         14    1    4    4    0    0  0.26924740832E+01 -0.48537540091E+00  0.25160136095E+02  0.25308446303E+02  0.00000000000E+00 0. -1.
<mgrwt>
<rscale>  0 0.79757053E+02</rscale>
<asrwt>0</asrwt>
<pdfrwt beam="1">  1        1 0.84325479E-03 0.79757053E+02</pdfrwt>
<pdfrwt beam="2">  1       -2 0.44636761E-01 0.79757053E+02</pdfrwt>
<totfact> 0.72107693E+04</totfact>
</mgrwt>
</event>
<event>
 8    1  0.8247621E-014  0.8104629E+02  0.7818608E-02  0.1326108E+00
          1   -1    0    0  501    0  0.00000000000E+00  0.00000000000E+00  0.14097471662E+03  0.14097471671E+03  0.50400000000E-02 0. -1.
         -2   -1    0    0    0  501 -0.00000000000E+00 -0.00000000000E+00 -0.11648368151E+02  0.11648368430E+02  0.25500000000E-02 0.  1.
        -24    2    1    2    0    0  0.00000000000E+00  0.00000000000E+00  0.12932634847E+03  0.15262308514E+03  0.81046293618E+02 0.  0.
         66    2    3    3    0    0 -0.26440913725E+02 -0.78514202262E+00  0.69541369597E+01  0.27424412302E+02  0.20000006596E+01 0.  0.
         13    1    3    3    0    0  0.26440913725E+02  0.78514202262E+00  0.12237221151E+03  0.12519867284E+03  0.10566000000E+00 0. -1.
         13    1    4    4    0    0 -0.10417825346E+02  0.10316424761E+00  0.30591806405E+01  0.10858705173E+02  0.10566000000E+00 0. -1.
        -13    1    4    4    0    0 -0.15981073236E+02 -0.91952908176E+00  0.39518090016E+01  0.16488426060E+02  0.10566000000E+00 0.  1.
         14    1    4    4    0    0 -0.42015143361E-01  0.31222811519E-01 -0.56852682455E-01  0.77281069695E-01  0.00000000000E+00 0. -1.
<mgrwt>
<rscale>  0 0.81046294E+02</rscale>
<asrwt>0</asrwt>
<pdfrwt beam="1">  1        1 0.21688418E-01 0.81046294E+02</pdfrwt>
<pdfrwt beam="2">  1       -2 0.17920566E-02 0.81046294E+02</pdfrwt>
<totfact> 0.15075943E+05</totfact>
</mgrwt>
</event>
<event>
 8    1  0.8247621E-014  0.8429541E+02  0.7818608E-02  0.1317285E+00
         -2   -1    0    0    0  501 -0.00000000000E+00  0.00000000000E+00  0.75896282805E+02  0.75896282848E+02  0.25500000000E-02 0.  1.
          1   -1    0    0  501    0  0.00000000000E+00 -0.00000000000E+00 -0.23406007158E+02  0.23406007701E+02  0.50400000000E-02 0. -1.
        -24    2    1    2    0    0 -0.71054273576E-14  0.00000000000E+00  0.52490275647E+02  0.99302290549E+02  0.84295408361E+02 0.  0.
         66    2    3    3    0    0  0.36859154616E+02 -0.18055223076E+02  0.37425405878E+02  0.55581016270E+02  0.20000012809E+01 0.  0.
         13    1    3    3    0    0 -0.36859154616E+02  0.18055223076E+02  0.15064869769E+02  0.43721274279E+02  0.10566000000E+00 0. -1.
         13    1    4    4    0    0  0.54939811049E+01 -0.22181625382E+01  0.53322931836E+01  0.79717368282E+01  0.10566000000E+00 0. -1.
        -13    1    4    4    0    0  0.12648751353E+02 -0.56557806074E+01  0.12995998319E+02  0.18996997168E+02  0.10566000000E+00 0.  1.
        -14    1    4    4    0    0  0.18716422158E+02 -0.10181279931E+02  0.19097114376E+02  0.28612282274E+02  0.00000000000E+00 0.  1.
<mgrwt>
<rscale>  0 0.84295408E+02</rscale>
<asrwt>0</asrwt>
<pdfrwt beam="1">  1        1 0.36009243E-02 0.84295408E+02</pdfrwt>
<pdfrwt beam="2">  1       -2 0.11676351E-01 0.84295408E+02</pdfrwt>
<totfact> 0.98924790E+04</totfact>
</mgrwt>
</event>
<event>
 8    1  0.8247621E-014  0.8559512E+02  0.7818608E-02  0.1313884E+00
          1   -1    0    0  501    0  0.00000000000E+00  0.00000000000E+00  0.14623157202E+03  0.14623157211E+03  0.50400000000E-02 0. -1.
         -2   -1    0    0    0  501 -0.00000000000E+00 -0.00000000000E+00 -0.12525551327E+02  0.12525551586E+02  0.25500000000E-02 0.  1.
        -24    2    1    2    0    0  0.22204460493E-15  0.35527136788E-14  0.13370602069E+03  0.15875712369E+03  0.85595118749E+02 0.  0.
         66    2    3    3    0    0 -0.13020219748E+01 -0.31832993038E+02  0.13953042703E+02  0.34838514886E+02  0.20000029561E+01 0.  0.
         13    1    3    3    0    0  0.13020219748E+01  0.31832993038E+02  0.11975297799E+03  0.12391860881E+03  0.10566000000E+00 0. -1.
         13    1    4    4    0    0  0.72291124071E-01 -0.13305352423E+01  0.32029292904E+00  0.13745186916E+01  0.10566000000E+00 0. -1.
        -13    1    4    4    0    0 -0.11542214138E+01 -0.29357892390E+02  0.12905661577E+02  0.32090268578E+02  0.10566000000E+00 0.  1.
        -14    1    4    4    0    0 -0.22009168513E+00 -0.11445654063E+01  0.72708819644E+00  0.13737276166E+01  0.00000000000E+00 0.  1.
<mgrwt>
<rscale>  0 0.85595119E+02</rscale>
<asrwt>0</asrwt>
<pdfrwt beam="1">  1        1 0.22497164E-01 0.85595119E+02</pdfrwt>
<pdfrwt beam="2">  1       -2 0.19270080E-02 0.85595119E+02</pdfrwt>
<totfact> 0.13106599E+05</totfact>
</mgrwt>
</event>
<event>
 8    1  0.8247621E-014  0.7894037E+02  0.7818608E-02  0.1332086E+00
         -2   -1    0    0    0  501 -0.00000000000E+00  0.00000000000E+00  0.27948251447E+03  0.27948251448E+03  0.25500000000E-02 0.  1.
          1   -1    0    0  501    0  0.00000000000E+00 -0.00000000000E+00 -0.55742130644E+01  0.55742153429E+01  0.50400000000E-02 0. -1.
        -24    2    1    2    0    0  0.88817841970E-15  0.35527136788E-14  0.27390830140E+03  0.28505672982E+03  0.78940367616E+02 0.  0.
         66    2    3    3    0    0 -0.64093433111E+01  0.22627525813E+02  0.25139297793E+03  0.25249854251E+03  0.20000023682E+01 0.  0.
         13    1    3    3    0    0  0.64093433111E+01 -0.22627525813E+02  0.22515323473E+02  0.32558187315E+02  0.10566000000E+00 0. -1.
         13    1    4    4    0    0 -0.20069055749E+01  0.52105221765E+01  0.61981957177E+02  0.62233040990E+02  0.10566000000E+00 0.  1.
        -13    1    4    4    0    0 -0.16858833142E+01  0.68293835578E+01  0.67636471778E+02  0.68001368817E+02  0.10566000000E+00 0. -1.
         14    1    4    4    0    0 -0.27165544220E+01  0.10587620079E+02  0.12177454898E+03  0.12226413270E+03  0.00000000000E+00 0. -1.
<mgrwt>
<rscale>  0 0.78940368E+02</rscale>
<asrwt>0</asrwt>
<pdfrwt beam="1">  1        1 0.85757153E-03 0.78940368E+02</pdfrwt>
<pdfrwt beam="2">  1       -2 0.42997304E-01 0.78940368E+02</pdfrwt>
<totfact> 0.75515879E+04</totfact>
</mgrwt>
</event>
<event>
 8    1  0.8247621E-014  0.7957408E+02  0.7818608E-02  0.1330265E+00
          1   -1    0    0  501    0  0.00000000000E+00  0.00000000000E+00  0.36107691403E+02  0.36107691755E+02  0.50400000000E-02 0. -1.
         -2   -1    0    0    0  501 -0.00000000000E+00 -0.00000000000E+00 -0.43841307493E+02  0.43841307567E+02  0.25500000000E-02 0.  1.
        -24    2    1    2    0    0 -0.35527136788E-14  0.00000000000E+00 -0.77336160896E+01  0.79948999322E+02  0.79574076651E+02 0.  0.
         66    2    3    3    0    0 -0.19350395582E+02 -0.14674461832E+02 -0.35501322357E+02  0.43059511462E+02  0.19999997364E+01 0.  0.
         13    1    3    3    0    0  0.19350395582E+02  0.14674461832E+02  0.27767706268E+02  0.36889487861E+02  0.10566000000E+00 0. -1.
         13    1    4    4    0    0 -0.56466243281E+01 -0.43249997304E+01 -0.91142975445E+01  0.11561642303E+02  0.10566000000E+00 0. -1.
        -13    1    4    4    0    0 -0.10349365770E+02 -0.80112175809E+01 -0.19394770616E+02  0.23397804817E+02  0.10566000000E+00 0.  1.
        -14    1    4    4    0    0 -0.33544054844E+01 -0.23382445207E+01 -0.69922541966E+01  0.81000643419E+01  0.00000000000E+00 0.  1.
<mgrwt>
<rscale>  0 0.79574077E+02</rscale>
<asrwt>0</asrwt>
<pdfrwt beam="1">  1        1 0.55550295E-02 0.79574077E+02</pdfrwt>
<pdfrwt beam="2">  1       -2 0.67448166E-02 0.79574077E+02</pdfrwt>
<totfact> 0.12675850E+05</totfact>
</mgrwt>
</event>
<event>
 8    1  0.8247621E-014  0.8088876E+02  0.7818608E-02  0.1326548E+00
          1   -1    0    0  501    0  0.00000000000E+00  0.00000000000E+00  0.79409903413E+02  0.79409903573E+02  0.50400000000E-02 0. -1.
         -2   -1    0    0    0  501 -0.00000000000E+00 -0.00000000000E+00 -0.20598787106E+02  0.20598787264E+02  0.25500000000E-02 0.  1.
        -24    2    1    2    0    0 -0.35527136788E-14  0.00000000000E+00  0.58811116307E+02  0.10000869084E+03  0.80888755966E+02 0.  0.
         66    2    3    3    0    0 -0.21842115962E+02  0.31834814072E+02  0.14627794822E+02  0.41334075558E+02  0.20000010501E+01 0.  0.
         13    1    3    3    0    0  0.21842115962E+02 -0.31834814072E+02  0.44183321485E+02  0.58674615279E+02  0.10566000000E+00 0. -1.
         13    1    4    4    0    0 -0.88650104071E+01  0.11344482607E+02  0.55360947165E+01  0.15425472566E+02  0.10566000000E+00 0. -1.
        -13    1    4    4    0    0 -0.59384593181E+01  0.96943548958E+01  0.44983735545E+01  0.12226706204E+02  0.10566000000E+00 0.  1.
         14    1    4    4    0    0 -0.70386462366E+01  0.10795976569E+02  0.45933265508E+01  0.13681896788E+02  0.00000000000E+00 0. -1.
<mgrwt>
<rscale>  0 0.80888756E+02</rscale>
<asrwt>0</asrwt>
<pdfrwt beam="1">  1        1 0.12216908E-01 0.80888756E+02</pdfrwt>
<pdfrwt beam="2">  1       -2 0.31690442E-02 0.80888756E+02</pdfrwt>
<totfact> 0.13732519E+05</totfact>
</mgrwt>
</event>
<event>
 8    1  0.8247621E-014  0.8041055E+02  0.7818608E-02  0.1327890E+00
          1   -1    0    0  501    0  0.00000000000E+00  0.00000000000E+00  0.46536423466E+01  0.46536450758E+01  0.50400000000E-02 0. -1.
         -2   -1    0    0    0  501 -0.00000000000E+00 -0.00000000000E+00 -0.34735452440E+03  0.34735452441E+03  0.25500000000E-02 0.  1.
        -24    2    1    2    0    0 -0.17763568394E-14  0.71054273576E-14 -0.34270088206E+03  0.35200816949E+03  0.80410551697E+02 0.  0.
         66    2    3    3    0    0 -0.13836065729E+02  0.35842842966E+02 -0.22294004454E+03  0.22623529693E+03  0.20000018445E+01 0.  0.
         13    1    3    3    0    0  0.13836065729E+02 -0.35842842966E+02 -0.11976083751E+03  0.12577287256E+03  0.10566000000E+00 0. -1.
         13    1    4    4    0    0 -0.59456810744E+01  0.17466142709E+02 -0.10945601888E+03  0.11100021845E+03  0.10566000000E+00 0. -1.
        -13    1    4    4    0    0 -0.16143389888E+01  0.44823218910E+01 -0.26519248086E+02  0.26943997161E+02  0.10566000000E+00 0.  1.
         14    1    4    4    0    0 -0.62760456654E+01  0.13894378366E+02 -0.86964777580E+02  0.88291081310E+02  0.00000000000E+00 0. -1.
<mgrwt>
<rscale>  0 0.80410552E+02</rscale>
<asrwt>0</asrwt>
<pdfrwt beam="1">  1        1 0.71594546E-03 0.80410552E+02</pdfrwt>
<pdfrwt beam="2">  1       -2 0.53439138E-01 0.80410552E+02</pdfrwt>
<totfact> 0.63760910E+04</totfact>
</mgrwt>
</event>
<event>
 8    1  0.8247621E-014  0.7937323E+02  0.7818608E-02  0.1330840E+00
          1   -1    0    0  501    0  0.00000000000E+00  0.00000000000E+00  0.16213355005E+02  0.16213355788E+02  0.50400000000E-02 0. -1.
         -2   -1    0    0    0  501 -0.00000000000E+00 -0.00000000000E+00 -0.97143833726E+02  0.97143833760E+02  0.25500000000E-02 0.  1.
        -24    2    1    2    0    0  0.00000000000E+00  0.71054273576E-14 -0.80930478721E+02  0.11335718955E+03  0.79373232492E+02 0.  0.
         66    2    3    3    0    0  0.24606083211E+02 -0.18839225879E+02 -0.75840099750E+02  0.81951793756E+02  0.20000017951E+01 0.  0.
         13    1    3    3    0    0 -0.24606083211E+02  0.18839225879E+02 -0.50903789717E+01  0.31405395791E+02  0.10566000000E+00 0. -1.
         13    1    4    4    0    0  0.13353070263E+02 -0.11086633253E+02 -0.42360386222E+02  0.45778066880E+02  0.10566000000E+00 0. -1.
        -13    1    4    4    0    0  0.77743453207E+01 -0.50263032385E+01 -0.23568784973E+02  0.25321985675E+02  0.10566000000E+00 0.  1.
        -14    1    4    4    0    0  0.34786676275E+01 -0.27262893873E+01 -0.99109285548E+01  0.10851741201E+02  0.00000000000E+00 0.  1.
<mgrwt>
<rscale>  0 0.79373232E+02</rscale>
<asrwt>0</asrwt>
<pdfrwt beam="1">  1        1 0.24943624E-02 0.79373232E+02</pdfrwt>
<pdfrwt beam="2">  1       -2 0.14945205E-01 0.79373232E+02</pdfrwt>
<totfact> 0.10905928E+05</totfact>
</mgrwt>
</event>
<event>
 8    1  0.8247621E-014  0.7705698E+02  0.7818608E-02  0.1337617E+00
         -2   -1    0    0    0  501 -0.00000000000E+00  0.00000000000E+00  0.10099452275E+02  0.10099452597E+02  0.25500000000E-02 0.  1.
          1   -1    0    0  501    0  0.00000000000E+00 -0.00000000000E+00 -0.14698266332E+03  0.14698266340E+03  0.50400000000E-02 0. -1.
        -24    2    1    2    0    0  0.35527136788E-14  0.17763568394E-14 -0.13688321104E+03  0.15708211600E+03  0.77056976984E+02 0.  0.
         66    2    3    3    0    0 -0.18829016247E+02 -0.15497020555E+02 -0.77496345876E+01  0.25666054460E+02  0.20000040920E+01 0.  0.
         13    1    3    3    0    0  0.18829016247E+02  0.15497020555E+02 -0.12913357645E+03  0.13141606154E+03  0.10566000000E+00 0. -1.
         13    1    4    4    0    0 -0.38710234598E+01 -0.34478214543E+01 -0.24318374332E+01  0.57268920668E+01  0.10566000000E+00 0. -1.
        -13    1    4    4    0    0 -0.30728559101E+01 -0.23028912123E+01 -0.87951969767E+00  0.39408717709E+01  0.10566000000E+00 0.  1.
         14    1    4    4    0    0 -0.11885136877E+02 -0.97463078884E+01 -0.44382774568E+01  0.15998290622E+02  0.00000000000E+00 0. -1.
<mgrwt>
<rscale>  0 0.77056977E+02</rscale>
<asrwt>0</asrwt>
<pdfrwt beam="1">  1        1 0.22612716E-01 0.77056977E+02</pdfrwt>
<pdfrwt beam="2">  1       -2 0.15537620E-02 0.77056977E+02</pdfrwt>
<totfact> 0.17383426E+05</totfact>
</mgrwt>
</event>
<event>
 8    1  0.8247621E-014  0.7872792E+02  0.7818608E-02  0.1332701E+00
         -2   -1    0    0    0  501 -0.00000000000E+00  0.00000000000E+00  0.31403732335E+02  0.31403732439E+02  0.25500000000E-02 0.  1.
          1   -1    0    0  501    0  0.00000000000E+00 -0.00000000000E+00 -0.49341945417E+02  0.49341945675E+02  0.50400000000E-02 0. -1.
        -24    2    1    2    0    0  0.35527136788E-14 -0.35527136788E-14 -0.17938213082E+02  0.80745678114E+02  0.78727917827E+02 0.  0.
         66    2    3    3    0    0  0.28053395433E+02 -0.26746822108E+02 -0.20847515023E+01  0.38868131668E+02  0.19999955730E+01 0.  0.
         13    1    3    3    0    0 -0.28053395433E+02  0.26746822108E+02 -0.15853461580E+02  0.41877546446E+02  0.10566000000E+00 0. -1.
         13    1    4    4    0    0  0.10892733769E+02 -0.10509741762E+02 -0.16116468368E+01  0.15222184154E+02  0.10566000000E+00 0. -1.
        -13    1    4    4    0    0  0.11649208392E+02 -0.11064195240E+02 -0.72711368234E+00  0.16082920469E+02  0.10566000000E+00 0.  1.
         14    1    4    4    0    0  0.55114532723E+01 -0.51728851062E+01  0.25400901678E+00  0.75630270445E+01  0.00000000000E+00 0. -1.
<mgrwt>
<rscale>  0 0.78727918E+02</rscale>
<asrwt>0</asrwt>
<pdfrwt beam="1">  1        1 0.75910686E-02 0.78727918E+02</pdfrwt>
<pdfrwt beam="2">  1       -2 0.48313435E-02 0.78727918E+02</pdfrwt>
<totfact> 0.13727949E+05</totfact>
</mgrwt>
</event>
<event>
 8    1  0.8247621E-014  0.8010063E+02  0.7818608E-02  0.1328766E+00
         -2   -1    0    0    0  501 -0.00000000000E+00  0.00000000000E+00  0.27406751897E+02  0.27406752016E+02  0.25500000000E-02 0.  1.
          1   -1    0    0  501    0  0.00000000000E+00 -0.00000000000E+00 -0.58526735773E+02  0.58526735990E+02  0.50400000000E-02 0. -1.
        -24    2    1    2    0    0 -0.88817841970E-15  0.00000000000E+00 -0.31119983876E+02  0.85933488005E+02  0.80100630237E+02 0.  0.
         66    2    3    3    0    0  0.43910583640E+01  0.38365473296E+02 -0.26863951590E+02  0.47083572823E+02  0.19999999832E+01 0.  0.
         13    1    3    3    0    0 -0.43910583640E+01 -0.38365473296E+02 -0.42560322858E+01  0.38849915182E+02  0.10566000000E+00 0. -1.
         13    1    4    4    0    0  0.29385820136E+01  0.25844737566E+02 -0.17703986634E+02  0.31464710882E+02  0.10566000000E+00 0. -1.
        -13    1    4    4    0    0  0.15972210752E+01  0.11633417069E+02 -0.86528571182E+01  0.14586658569E+02  0.10566000000E+00 0.  1.
         14    1    4    4    0    0 -0.14474472485E+00  0.88731866140E+00 -0.50710783741E+00  0.10322033719E+01  0.00000000000E+00 0. -1.
<mgrwt>
<rscale>  0 0.80100630E+02</rscale>
<asrwt>0</asrwt>
<pdfrwt beam="1">  1        1 0.90041132E-02 0.80100630E+02</pdfrwt>
<pdfrwt beam="2">  1       -2 0.42164234E-02 0.80100630E+02</pdfrwt>
<totfact> 0.13439191E+05</totfact>
</mgrwt>
</event>
<event>
 8    1  0.8247621E-014  0.7975836E+02  0.7818608E-02  0.1329739E+00
         -2   -1    0    0    0  501 -0.00000000000E+00  0.00000000000E+00  0.15660672671E+03  0.15660672673E+03  0.25500000000E-02 0.  1.
          1   -1    0    0  501    0  0.00000000000E+00 -0.00000000000E+00 -0.10155048374E+02  0.10155049624E+02  0.50400000000E-02 0. -1.
        -24    2    1    2    0    0  0.00000000000E+00  0.71054273576E-14  0.14645167833E+03  0.16676177635E+03  0.79758359846E+02 0.  0.
         66    2    3    3    0    0  0.10313118670E+02  0.24050043385E+02  0.13612147783E+03  0.13862835832E+03  0.20000000178E+01 0.  0.
         13    1    3    3    0    0 -0.10313118670E+02 -0.24050043385E+02  0.10330200497E+02  0.28133418027E+02  0.10566000000E+00 0. -1.
         13    1    4    4    0    0  0.14724803438E+01  0.26990053357E+01  0.18266130826E+02  0.18523377866E+02  0.10566000000E+00 0. -1.
        -13    1    4    4    0    0  0.22142512445E+01  0.42963855734E+01  0.25740217506E+02  0.26190299710E+02  0.10566000000E+00 0.  1.
        -14    1    4    4    0    0  0.66263870813E+01  0.17054652476E+02  0.92115129502E+02  0.93914680748E+02  0.00000000000E+00 0.  1.
<mgrwt>
<rscale>  0 0.79758360E+02</rscale>
<asrwt>0</asrwt>
<pdfrwt beam="1">  1        1 0.15623154E-02 0.79758360E+02</pdfrwt>
<pdfrwt beam="2">  1       -2 0.24093341E-01 0.79758360E+02</pdfrwt>
<totfact> 0.93889034E+04</totfact>
</mgrwt>
</event>
<event>
 8    1  0.8247621E-014  0.7901486E+02  0.7818608E-02  0.1331871E+00
          1   -1    0    0  501    0  0.00000000000E+00  0.00000000000E+00  0.69445483471E+01  0.69445501760E+01  0.50400000000E-02 0. -1.
         -2   -1    0    0    0  501 -0.00000000000E+00 -0.00000000000E+00 -0.22475715184E+03  0.22475715186E+03  0.25500000000E-02 0.  1.
        -24    2    1    2    0    0  0.00000000000E+00 -0.17763568394E-14 -0.21781260350E+03  0.23170170203E+03  0.79014862422E+02 0.  0.
         66    2    3    3    0    0 -0.33560624113E+01  0.15125457354E+02 -0.21546572415E+03  0.21603129611E+03  0.20000002884E+01 0.  0.
         13    1    3    3    0    0  0.33560624113E+01 -0.15125457354E+02 -0.23468793462E+01  0.15670405922E+02  0.10566000000E+00 0. -1.
         13    1    4    4    0    0 -0.27214031102E+00  0.24941464236E+01 -0.41232750545E+02  0.41309147998E+02  0.10566000000E+00 0. -1.
        -13    1    4    4    0    0 -0.72555662929E+00  0.55575712890E+01 -0.72934388563E+02  0.73149499180E+02  0.10566000000E+00 0.  1.
        -14    1    4    4    0    0 -0.23583654710E+01  0.70737396408E+01 -0.10129858504E+03  0.10157264893E+03  0.00000000000E+00 0.  1.
<mgrwt>
<rscale>  0 0.79014862E+02</rscale>
<asrwt>0</asrwt>
<pdfrwt beam="1">  1        1 0.10683924E-02 0.79014862E+02</pdfrwt>
<pdfrwt beam="2">  1       -2 0.34578018E-01 0.79014862E+02</pdfrwt>
<totfact> 0.83606012E+04</totfact>
</mgrwt>
</event>
<event>
 8    1  0.8247621E-014  0.7910937E+02  0.7818608E-02  0.1331598E+00
          1   -1    0    0  501    0  0.00000000000E+00  0.00000000000E+00  0.16241697249E+03  0.16241697257E+03  0.50400000000E-02 0. -1.
         -2   -1    0    0    0  501 -0.00000000000E+00 -0.00000000000E+00 -0.96330630236E+01  0.96330633611E+01  0.25500000000E-02 0.  1.
        -24    2    1    2    0    0 -0.35527136788E-14  0.00000000000E+00  0.15278390947E+03  0.17205003593E+03  0.79109366521E+02 0.  0.
         66    2    3    3    0    0  0.29366333234E+02 -0.22706608652E+02  0.46891936584E+02  0.59839997657E+02  0.19999997265E+01 0.  0.
         13    1    3    3    0    0 -0.29366333234E+02  0.22706608652E+02  0.10589197288E+03  0.11221003827E+03  0.10566000000E+00 0. -1.
         13    1    4    4    0    0  0.12404071722E+02 -0.10454988478E+02  0.19820140408E+02  0.25612827044E+02  0.10566000000E+00 0. -1.
        -13    1    4    4    0    0  0.73266054058E+01 -0.57980778574E+01  0.12323642197E+02  0.15465451000E+02  0.10566000000E+00 0.  1.
         14    1    4    4    0    0  0.96356561064E+01 -0.64535423168E+01  0.14748153980E+02  0.18761719613E+02  0.00000000000E+00 0. -1.
<mgrwt>
<rscale>  0 0.79109367E+02</rscale>
<asrwt>0</asrwt>
<pdfrwt beam="1">  1        1 0.24987226E-01 0.79109367E+02</pdfrwt>
<pdfrwt beam="2">  1       -2 0.14820097E-02 0.79109367E+02</pdfrwt>
<totfact> 0.16509035E+05</totfact>
</mgrwt>
</event>
<event>
 8    1  0.8247621E-014  0.7764205E+02  0.7818608E-02  0.1335879E+00
         -2   -1    0    0    0  501 -0.00000000000E+00  0.00000000000E+00  0.82815527122E+02  0.82815527161E+02  0.25500000000E-02 0.  1.
          1   -1    0    0  501    0  0.00000000000E+00 -0.00000000000E+00 -0.18197937232E+02  0.18197937929E+02  0.50400000000E-02 0. -1.
        -24    2    1    2    0    0 -0.71054273576E-14 -0.35527136788E-14  0.64617589891E+02  0.10101346509E+03  0.77642045352E+02 0.  0.
         66    2    3    3    0    0 -0.37005764435E+02 -0.11633350414E+02  0.33049196225E+02  0.51000106016E+02  0.19999998197E+01 0.  0.
         13    1    3    3    0    0  0.37005764435E+02  0.11633350414E+02  0.31568393665E+02  0.50013359075E+02  0.10566000000E+00 0. -1.
         13    1    4    4    0    0 -0.15454853874E+02 -0.45076481716E+01  0.13197241715E+02  0.20817054384E+02  0.10566000000E+00 0. -1.
        -13    1    4    4    0    0 -0.19177408831E+02 -0.60814543278E+01  0.17128796810E+02  0.26422792063E+02  0.10566000000E+00 0.  1.
         14    1    4    4    0    0 -0.23735017305E+01 -0.10442479151E+01  0.27231576999E+01  0.37602595697E+01  0.00000000000E+00 0. -1.
<mgrwt>
<rscale>  0 0.77642045E+02</rscale>
<asrwt>0</asrwt>
<pdfrwt beam="1">  1        1 0.27996828E-02 0.77642045E+02</pdfrwt>
<pdfrwt beam="2">  1       -2 0.12740850E-01 0.77642045E+02</pdfrwt>
<totfact> 0.11970907E+05</totfact>
</mgrwt>
</event>
<event>
 8    1  0.8247621E-014  0.7987753E+02  0.7818608E-02  0.1329399E+00
          1   -1    0    0  501    0  0.00000000000E+00  0.00000000000E+00  0.43008493133E+01  0.43008522664E+01  0.50400000000E-02 0. -1.
         -2   -1    0    0    0  501 -0.00000000000E+00 -0.00000000000E+00 -0.37088122359E+03  0.37088122360E+03  0.25500000000E-02 0.  1.
        -24    2    1    2    0    0  0.88817841970E-15  0.35527136788E-14 -0.36658037427E+03  0.37518207586E+03  0.79877526537E+02 0.  0.
         66    2    3    3    0    0 -0.69846926356E+01 -0.19421496037E+02 -0.34386785301E+03  0.34449249741E+03  0.19999993467E+01 0.  0.
         13    1    3    3    0    0  0.69846926356E+01  0.19421496037E+02 -0.22712521267E+02  0.30689578457E+02  0.10566000000E+00 0. -1.
         13    1    4    4    0    0 -0.82874308565E+00 -0.24719498269E+01 -0.39981084047E+02  0.40066140276E+02  0.10566000000E+00 0. -1.
        -13    1    4    4    0    0 -0.25042485502E+01 -0.67797006531E+01 -0.10776337455E+03  0.10800551680E+03  0.10566000000E+00 0.  1.
         14    1    4    4    0    0 -0.36517009998E+01 -0.10169845557E+02 -0.19612339442E+03  0.19642084033E+03  0.00000000000E+00 0. -1.
<mgrwt>
<rscale>  0 0.79877527E+02</rscale>
<asrwt>0</asrwt>
<pdfrwt beam="1">  1        1 0.66166964E-03 0.79877527E+02</pdfrwt>
<pdfrwt beam="2">  1       -2 0.57058625E-01 0.79877527E+02</pdfrwt>
<totfact> 0.62297286E+04</totfact>
</mgrwt>
</event>
<event>
 8    1  0.8657206E-014  0.8039300E+02  0.7818608E-02  0.1327940E+00
          1   -1    0    0  501    0  0.00000000000E+00  0.00000000000E+00  0.84249088517E+02  0.84249088667E+02  0.50400000000E-02 0. -1.
         -2   -1    0    0    0  501 -0.00000000000E+00 -0.00000000000E+00 -0.19178353188E+02  0.19178353357E+02  0.25500000000E-02 0.  1.
        -24    2    1    2    0    0  0.00000000000E+00 -0.17763568394E-14  0.65070735329E+02  0.10342744202E+03  0.80393004469E+02 0.  0.
         66    2    3    3    0    0  0.10083282029E+02  0.11962718364E+02 -0.15045458656E+02  0.21797821729E+02  0.19999997024E+01 0.  0.
         13    1    3    3    0    0 -0.10083282029E+02 -0.11962718364E+02  0.80116193984E+02  0.81629620296E+02  0.10566000000E+00 0. -1.
         13    1    4    4    0    0  0.50105986422E+00  0.31637502303E+00 -0.29108838211E+00  0.66861844465E+00  0.10566000000E+00 0. -1.
        -13    1    4    4    0    0  0.78581390562E+01  0.91694131807E+01 -0.11251982757E+02  0.16505961575E+02  0.10566000000E+00 0.  1.
        -14    1    4    4    0    0  0.17240831085E+01  0.24769301607E+01 -0.35023875166E+01  0.46232417093E+01  0.00000000000E+00 0.  1.
<mgrwt>
<rscale>  0 0.80393004E+02</rscale>
<asrwt>0</asrwt>
<pdfrwt beam="1">  1        1 0.12961399E-01 0.80393004E+02</pdfrwt>
<pdfrwt beam="2">  1       -2 0.29505158E-02 0.80393004E+02</pdfrwt>
<totfact> 0.14099394E+05</totfact>
</mgrwt>
</event>
<event>
 8    1  0.8247621E-014  0.8139334E+02  0.7818608E-02  0.1325143E+00
          1   -1    0    0  501    0  0.00000000000E+00  0.00000000000E+00  0.24580843220E+03  0.24580843225E+03  0.50400000000E-02 0. -1.
         -2   -1    0    0    0  501 -0.00000000000E+00 -0.00000000000E+00 -0.67378445491E+01  0.67378450317E+01  0.25500000000E-02 0.  1.
        -24    2    1    2    0    0  0.00000000000E+00  0.17763568394E-14  0.23907058765E+03  0.25254627728E+03  0.81393343032E+02 0.  0.
         66    2    3    3    0    0 -0.25551951996E+02  0.10640414234E+02  0.21207312575E+03  0.21388111494E+03  0.19999992747E+01 0.  0.
         13    1    3    3    0    0  0.25551951996E+02 -0.10640414234E+02  0.26997461903E+02  0.38665162345E+02  0.10566000000E+00 0. -1.
         13    1    4    4    0    0 -0.33173372861E+01  0.11127760459E+01  0.24381944083E+02  0.24631958073E+02  0.10566000000E+00 0. -1.
        -13    1    4    4    0    0 -0.13525397718E+02  0.50553510157E+01  0.11341651300E+03  0.11433201451E+03  0.10566000000E+00 0.  1.
        -14    1    4    4    0    0 -0.87092169922E+01  0.44722871729E+01  0.74274668664E+02  0.74917142353E+02  0.00000000000E+00 0.  1.
<mgrwt>
<rscale>  0 0.81393343E+02</rscale>
<asrwt>0</asrwt>
<pdfrwt beam="1">  1        1 0.37816682E-01 0.81393343E+02</pdfrwt>
<pdfrwt beam="2">  1       -2 0.10365915E-02 0.81393343E+02</pdfrwt>
<totfact> 0.16582397E+05</totfact>
</mgrwt>
</event>
<event>
 8    1  0.8247621E-014  0.7984903E+02  0.7818608E-02  0.1329480E+00
         -2   -1    0    0    0  501 -0.00000000000E+00  0.00000000000E+00  0.37607373504E+02  0.37607373591E+02  0.25500000000E-02 0.  1.
          1   -1    0    0  501    0  0.00000000000E+00 -0.00000000000E+00 -0.42384424287E+02  0.42384424587E+02  0.50400000000E-02 0. -1.
        -24    2    1    2    0    0  0.17763568394E-14  0.17763568394E-14 -0.47770507829E+01  0.79991798177E+02  0.79849029809E+02 0.  0.
         66    2    3    3    0    0 -0.14611047388E+02 -0.91217054515E+01  0.33664240887E+02  0.37867787383E+02  0.19999976493E+01 0.  0.
         13    1    3    3    0    0  0.14611047388E+02  0.91217054515E+01 -0.38441291670E+02  0.42124010795E+02  0.10566000000E+00 0. -1.
         13    1    4    4    0    0 -0.24307940396E+01 -0.13113451700E+01  0.64517470667E+01  0.70188738460E+01  0.10566000000E+00 0. -1.
        -13    1    4    4    0    0 -0.50021419243E+01 -0.29410131716E+01  0.96379168434E+01  0.11250403878E+02  0.10566000000E+00 0.  1.
         14    1    4    4    0    0 -0.71781114246E+01 -0.48693471099E+01  0.17574576977E+02  0.19598509658E+02  0.00000000000E+00 0. -1.
<mgrwt>
<rscale>  0 0.79849030E+02</rscale>
<asrwt>0</asrwt>
<pdfrwt beam="1">  1        1 0.65206807E-02 0.79849030E+02</pdfrwt>
<pdfrwt beam="2">  1       -2 0.57857498E-02 0.79849030E+02</pdfrwt>
<totfact> 0.12884871E+05</totfact>
</mgrwt>
</event>
<event>
 8    1  0.8247621E-014  0.7992140E+02  0.7818608E-02  0.1329275E+00
          1   -1    0    0  501    0  0.00000000000E+00  0.00000000000E+00  0.13208487198E+03  0.13208487208E+03  0.50400000000E-02 0. -1.
         -2   -1    0    0    0  501 -0.00000000000E+00 -0.00000000000E+00 -0.12089631685E+02  0.12089631954E+02  0.25500000000E-02 0.  1.
        -24    2    1    2    0    0  0.00000000000E+00  0.71054273576E-14  0.11999524030E+03  0.14417450403E+03  0.79921398380E+02 0.  0.
         66    2    3    3    0    0 -0.17753131723E+02  0.29111020655E+02  0.22530749662E+02  0.40917720680E+02  0.19999939372E+01 0.  0.
         13    1    3    3    0    0  0.17753131723E+02 -0.29111020655E+02  0.97464490633E+02  0.10325678335E+03  0.10566000000E+00 0. -1.
         13    1    4    4    0    0 -0.63073394865E+00  0.95473742201E+00  0.84608005431E+00  0.14270123871E+01  0.10566000000E+00 0. -1.
        -13    1    4    4    0    0 -0.14366960450E+02  0.24765070762E+02  0.19019085915E+02  0.34372300992E+02  0.10566000000E+00 0.  1.
        -14    1    4    4    0    0 -0.27554373245E+01  0.33912124713E+01  0.26655836929E+01  0.51184073010E+01  0.00000000000E+00 0.  1.
<mgrwt>
<rscale>  0 0.79921398E+02</rscale>
<asrwt>0</asrwt>
<pdfrwt beam="1">  1        1 0.20320750E-01 0.79921398E+02</pdfrwt>
<pdfrwt beam="2">  1       -2 0.18599433E-02 0.79921398E+02</pdfrwt>
<totfact> 0.15467714E+05</totfact>
</mgrwt>
</event>
<event>
 8    1  0.8247621E-014  0.7647593E+02  0.7818608E-02  0.1339361E+00
         -2   -1    0    0    0  501 -0.00000000000E+00  0.00000000000E+00  0.18783098013E+02  0.18783098186E+02  0.25500000000E-02 0.  1.
          1   -1    0    0  501    0  0.00000000000E+00 -0.00000000000E+00 -0.77843491789E+02  0.77843491952E+02  0.50400000000E-02 0. -1.
        -24    2    1    2    0    0 -0.35527136788E-14  0.35527136788E-14 -0.59060393776E+02  0.96626590138E+02  0.76475929604E+02 0.  0.
         66    2    3    3    0    0  0.18443580470E+02 -0.22053509211E+02  0.22538505010E+01  0.28906795068E+02  0.20000074898E+01 0.  0.
         13    1    3    3    0    0 -0.18443580470E+02  0.22053509211E+02 -0.61314244277E+02  0.67719795070E+02  0.10566000000E+00 0. -1.
         13    1    4    4    0    0  0.80779154649E+01 -0.87783690715E+01  0.12919284112E+01  0.11999696866E+02  0.10566000000E+00 0. -1.
        -13    1    4    4    0    0  0.70219616829E+01 -0.89278023055E+01  0.11675134689E+01  0.11418750002E+02  0.10566000000E+00 0.  1.
         14    1    4    4    0    0  0.33437033224E+01 -0.43473378339E+01 -0.20559137908E+00  0.54883482001E+01  0.00000000000E+00 0. -1.
<mgrwt>
<rscale>  0 0.76475930E+02</rscale>
<asrwt>0</asrwt>
<pdfrwt beam="1">  1        1 0.11975922E-01 0.76475930E+02</pdfrwt>
<pdfrwt beam="2">  1       -2 0.28897075E-02 0.76475930E+02</pdfrwt>
<totfact> 0.15944784E+05</totfact>
</mgrwt>
</event>
<event>
 8    1  0.8247621E-014  0.8376930E+02  0.7818608E-02  0.1318683E+00
         -2   -1    0    0    0  501 -0.00000000000E+00  0.00000000000E+00  0.49872718793E+01  0.49872725312E+01  0.25500000000E-02 0.  1.
          1   -1    0    0  501    0  0.00000000000E+00 -0.00000000000E+00 -0.35176019867E+03  0.35176019871E+03  0.50400000000E-02 0. -1.
        -24    2    1    2    0    0  0.00000000000E+00  0.00000000000E+00 -0.34677292679E+03  0.35674747124E+03  0.83769299145E+02 0.  0.
         66    2    3    3    0    0  0.28247980998E+02 -0.14439778456E+02 -0.28979195821E+03  0.29153016083E+03  0.19999995791E+01 0.  0.
         13    1    3    3    0    0 -0.28247980998E+02  0.14439778456E+02 -0.56980968585E+02  0.65217310411E+02  0.10566000000E+00 0. -1.
         13    1    4    4    0    0  0.10438141058E+02 -0.46744392325E+01 -0.10150234209E+03  0.10214471002E+03  0.10566000000E+00 0. -1.
        -13    1    4    4    0    0  0.12972070690E+02 -0.73060853950E+01 -0.13343963610E+03  0.13426764743E+03  0.10566000000E+00 0.  1.
        -14    1    4    4    0    0  0.48377692500E+01 -0.24592538288E+01 -0.54849980019E+02  0.55117803374E+02  0.00000000000E+00 0.  1.
<mgrwt>
<rscale>  0 0.83769299E+02</rscale>
<asrwt>0</asrwt>
<pdfrwt beam="1">  1        1 0.54116934E-01 0.83769299E+02</pdfrwt>
<pdfrwt beam="2">  1       -2 0.76727292E-03 0.83769299E+02</pdfrwt>
<totfact> 0.16455882E+05</totfact>
</mgrwt>
</event>
<event>
 8    1  0.8247621E-014  0.7577549E+02  0.7818608E-02  0.1341486E+00
         -2   -1    0    0    0  501 -0.00000000000E+00  0.00000000000E+00  0.16445140701E+02  0.16445140898E+02  0.25500000000E-02 0.  1.
          1   -1    0    0  501    0  0.00000000000E+00 -0.00000000000E+00 -0.87289074481E+02  0.87289074626E+02  0.50400000000E-02 0. -1.
        -24    2    1    2    0    0 -0.71054273576E-14  0.00000000000E+00 -0.70843933780E+02  0.10373421552E+03  0.75775487574E+02 0.  0.
         66    2    3    3    0    0 -0.36565401439E+02 -0.82350055941E+01 -0.42771809293E+02  0.56905813493E+02  0.20000098975E+01 0.  0.
         13    1    3    3    0    0  0.36565401439E+02  0.82350055941E+01 -0.28072124488E+02  0.46828402032E+02  0.10566000000E+00 0. -1.
         13    1    4    4    0    0 -0.28315840498E+01 -0.73068954435E+00 -0.30512930065E+01  0.42276859496E+01  0.10566000000E+00 0. -1.
        -13    1    4    4    0    0 -0.18714516810E+02 -0.32928034116E+01 -0.21973872113E+02  0.29050609519E+02  0.10566000000E+00 0.  1.
        -14    1    4    4    0    0 -0.15019300579E+02 -0.42115126382E+01 -0.17746644174E+02  0.23627518025E+02  0.00000000000E+00 0.  1.
<mgrwt>
<rscale>  0 0.75775488E+02</rscale>
<asrwt>0</asrwt>
<pdfrwt beam="1">  1        1 0.13429088E-01 0.75775488E+02</pdfrwt>
<pdfrwt beam="2">  1       -2 0.25300217E-02 0.75775488E+02</pdfrwt>
<totfact> 0.16642876E+05</totfact>
</mgrwt>
</event>
<event>
 8    1  0.8247621E-014  0.8060866E+02  0.7818608E-02  0.1327333E+00
         -2   -1    0    0    0  501 -0.00000000000E+00  0.00000000000E+00  0.41315688848E+02  0.41315688927E+02  0.25500000000E-02 0.  1.
          1   -1    0    0  501    0  0.00000000000E+00 -0.00000000000E+00 -0.39317724844E+02  0.39317725167E+02  0.50400000000E-02 0. -1.
        -24    2    1    2    0    0  0.00000000000E+00 -0.35527136788E-14  0.19979640036E+01  0.80633414094E+02  0.80608657155E+02 0.  0.
         66    2    3    3    0    0 -0.10267026171E+02 -0.27113021484E+02  0.28970768459E+02  0.41034536527E+02  0.20000006237E+01 0.  0.
         13    1    3    3    0    0  0.10267026171E+02  0.27113021484E+02 -0.26972804455E+02  0.39598877567E+02  0.10566000000E+00 0. -1.
         13    1    4    4    0    0 -0.40054412580E+01 -0.96161391292E+01  0.11318840702E+02  0.15383140457E+02  0.10566000000E+00 0. -1.
        -13    1    4    4    0    0 -0.18666565091E+01 -0.55616157711E+01  0.62083453704E+01  0.85422884980E+01  0.10566000000E+00 0.  1.
        -14    1    4    4    0    0 -0.43949284040E+01 -0.11935266583E+02  0.11443582386E+02  0.17109107572E+02  0.00000000000E+00 0.  1.
<mgrwt>
<rscale>  0 0.80608657E+02</rscale>
<asrwt>0</asrwt>
<pdfrwt beam="1">  1        1 0.60488808E-02 0.80608657E+02</pdfrwt>
<pdfrwt beam="2">  1       -2 0.63562599E-02 0.80608657E+02</pdfrwt>
<totfact> 0.12394006E+05</totfact>
</mgrwt>
</event>
<event>
 8    1  0.8247621E-014  0.7667578E+02  0.7818608E-02  0.1338759E+00
         -2   -1    0    0    0  501 -0.00000000000E+00  0.00000000000E+00  0.13030984055E+02  0.13030984304E+02  0.25500000000E-02 0.  1.
          1   -1    0    0  501    0  0.00000000000E+00 -0.00000000000E+00 -0.11279222507E+03  0.11279222518E+03  0.50400000000E-02 0. -1.
        -24    2    1    2    0    0 -0.35527136788E-14  0.00000000000E+00 -0.99761241017E+02  0.12582320949E+03  0.76675777379E+02 0.  0.
         66    2    3    3    0    0 -0.25363602615E+02  0.11972707778E+02 -0.70874466324E+01  0.28998102213E+02  0.19999907636E+01 0.  0.
         13    1    3    3    0    0  0.25363602615E+02 -0.11972707778E+02 -0.92673794385E+02  0.96825107275E+02  0.10566000000E+00 0. -1.
         13    1    4    4    0    0 -0.86769908522E+01  0.37778654763E+01 -0.32701392730E+01  0.10013361709E+02  0.10566000000E+00 0. -1.
        -13    1    4    4    0    0 -0.97182738582E+01  0.48317888004E+01 -0.24640677576E+01  0.11129861803E+02  0.10566000000E+00 0.  1.
         14    1    4    4    0    0 -0.69683379045E+01  0.33630535015E+01 -0.13532396019E+01  0.78548787022E+01  0.00000000000E+00 0. -1.
<mgrwt>
<rscale>  0 0.76675777E+02</rscale>
<asrwt>0</asrwt>
<pdfrwt beam="1">  1        1 0.17352649E-01 0.76675777E+02</pdfrwt>
<pdfrwt beam="2">  1       -2 0.20047669E-02 0.76675777E+02</pdfrwt>
<totfact> 0.16815119E+05</totfact>
</mgrwt>
</event>
<event>
 8    1  0.8247621E-014  0.8145905E+02  0.7818608E-02  0.1324961E+00
          1   -1    0    0  501    0  0.00000000000E+00  0.00000000000E+00  0.39828692815E+02  0.39828693134E+02  0.50400000000E-02 0. -1.
         -2   -1    0    0    0  501 -0.00000000000E+00 -0.00000000000E+00 -0.41650729519E+02  0.41650729597E+02  0.25500000000E-02 0.  1.
        -24    2    1    2    0    0  0.00000000000E+00  0.00000000000E+00 -0.18220367033E+01  0.81479422731E+02  0.81459048060E+02 0.  0.
         66    2    3    3    0    0  0.24684932096E+02 -0.15100668950E+02 -0.29545864904E+02  0.41404519245E+02  0.20000014154E+01 0.  0.
         13    1    3    3    0    0 -0.24684932096E+02  0.15100668950E+02  0.27723828201E+02  0.40074903486E+02  0.10566000000E+00 0. -1.
         13    1    4    4    0    0  0.29878642566E+01 -0.23369309944E+01 -0.41892316347E+01  0.56523804732E+01  0.10566000000E+00 0. -1.
        -13    1    4    4    0    0  0.10529352282E+02 -0.60410384764E+01 -0.13093073850E+02  0.17855003563E+02  0.10566000000E+00 0.  1.
        -14    1    4    4    0    0  0.11167715557E+02 -0.67226994789E+01 -0.12263559419E+02  0.17897135209E+02  0.00000000000E+00 0.  1.
<mgrwt>
<rscale>  0 0.81459048E+02</rscale>
<asrwt>0</asrwt>
<pdfrwt beam="1">  1        1 0.61274913E-02 0.81459048E+02</pdfrwt>
<pdfrwt beam="2">  1       -2 0.64078046E-02 0.81459048E+02</pdfrwt>
<totfact> 0.12057458E+05</totfact>
</mgrwt>
</event>
<event>
 8    1  0.8247621E-014  0.7995310E+02  0.7818608E-02  0.1329185E+00
         -2   -1    0    0    0  501 -0.00000000000E+00  0.00000000000E+00  0.10417858662E+02  0.10417858974E+02  0.25500000000E-02 0.  1.
          1   -1    0    0  501    0  0.00000000000E+00 -0.00000000000E+00 -0.15340238110E+03  0.15340238119E+03  0.50400000000E-02 0. -1.
        -24    2    1    2    0    0  0.35527136788E-14 -0.35527136788E-14 -0.14298452244E+03  0.16382024016E+03  0.79953095178E+02 0.  0.
         66    2    3    3    0    0 -0.28217488795E+02  0.21419441983E+02 -0.33694940850E+02  0.48932281796E+02  0.19999985223E+01 0.  0.
         13    1    3    3    0    0  0.28217488795E+02 -0.21419441983E+02 -0.10928958159E+03  0.11488795836E+03  0.10566000000E+00 0. -1.
         13    1    4    4    0    0 -0.47148855110E+01  0.31257181567E+01 -0.58598572894E+01  0.81455110867E+01  0.10566000000E+00 0. -1.
        -13    1    4    4    0    0 -0.16676763182E+02  0.12329103913E+02 -0.18934684601E+02  0.28082996252E+02  0.10566000000E+00 0.  1.
        -14    1    4    4    0    0 -0.68258401029E+01  0.59646199137E+01 -0.89003989598E+01  0.12703774458E+02  0.00000000000E+00 0.  1.
<mgrwt>
<rscale>  0 0.79953095E+02</rscale>
<asrwt>0</asrwt>
<pdfrwt beam="1">  1        1 0.23600365E-01 0.79953095E+02</pdfrwt>
<pdfrwt beam="2">  1       -2 0.16027476E-02 0.79953095E+02</pdfrwt>
<totfact> 0.15878920E+05</totfact>
</mgrwt>
</event>
<event>
 8    1  0.8247621E-014  0.7965244E+02  0.7818608E-02  0.1330041E+00
          1   -1    0    0  501    0  0.00000000000E+00  0.00000000000E+00  0.23638123376E+03  0.23638123382E+03  0.50400000000E-02 0. -1.
         -2   -1    0    0    0  501 -0.00000000000E+00 -0.00000000000E+00 -0.67100404370E+01  0.67100409216E+01  0.25500000000E-02 0.  1.
        -24    2    1    2    0    0  0.00000000000E+00  0.00000000000E+00  0.22967119333E+03  0.24309127474E+03  0.79652437566E+02 0.  0.
         66    2    3    3    0    0 -0.32847442854E+02  0.17090332797E+02  0.70357501183E+02  0.79531201232E+02  0.20000048855E+01 0.  0.
         13    1    3    3    0    0  0.32847442854E+02 -0.17090332797E+02  0.15931369214E+03  0.16356007351E+03  0.10566000000E+00 0. -1.
         13    1    4    4    0    0 -0.19100758746E+02  0.98679366861E+01  0.39618684935E+02  0.45076230090E+02  0.10566000000E+00 0. -1.
        -13    1    4    4    0    0 -0.13617686551E+02  0.72444821080E+01  0.30571572541E+02  0.34242606789E+02  0.10566000000E+00 0.  1.
         14    1    4    4    0    0 -0.12899755764E+00 -0.22085997336E-01  0.16724370659E+00  0.21236435329E+00  0.00000000000E+00 0. -1.
<mgrwt>
<rscale>  0 0.79652438E+02</rscale>
<asrwt>0</asrwt>
<pdfrwt beam="1">  1        1 0.36366342E-01 0.79652438E+02</pdfrwt>
<pdfrwt beam="2">  1       -2 0.10323140E-02 0.79652438E+02</pdfrwt>
<totfact> 0.17425712E+05</totfact>
</mgrwt>
</event>
<event>
 8    1  0.8247621E-014  0.8291213E+02  0.7818608E-02  0.1320985E+00
         -2   -1    0    0    0  501 -0.00000000000E+00  0.00000000000E+00  0.82154830603E+02  0.82154830643E+02  0.25500000000E-02 0.  1.
          1   -1    0    0  501    0  0.00000000000E+00 -0.00000000000E+00 -0.20919101087E+02  0.20919101694E+02  0.50400000000E-02 0. -1.
        -24    2    1    2    0    0  0.00000000000E+00  0.00000000000E+00  0.61235729516E+02  0.10307393234E+03  0.82912127931E+02 0.  0.
         66    2    3    3    0    0 -0.19742693633E+02 -0.25739437214E+02  0.62677320420E+02  0.70602684619E+02  0.20000000997E+01 0.  0.
         13    1    3    3    0    0  0.19742693633E+02  0.25739437214E+02 -0.14415909041E+01  0.32471247718E+02  0.10566000000E+00 0. -1.
         13    1    4    4    0    0 -0.52601852692E+01 -0.79137114060E+01  0.18875459177E+02  0.21132687961E+02  0.10566000000E+00 0. -1.
        -13    1    4    4    0    0 -0.13623609355E+02 -0.16371166405E+02  0.40299899174E+02  0.45581913725E+02  0.10566000000E+00 0.  1.
        -14    1    4    4    0    0 -0.85889900884E+00 -0.14545594033E+01  0.35019620690E+01  0.38880829335E+01  0.00000000000E+00 0.  1.
<mgrwt>
<rscale>  0 0.82912128E+02</rscale>
<asrwt>0</asrwt>
<pdfrwt beam="1">  1        1 0.32183234E-02 0.82912128E+02</pdfrwt>
<pdfrwt beam="2">  1       -2 0.12639204E-01 0.82912128E+02</pdfrwt>
<totfact> 0.10142830E+05</totfact>
</mgrwt>
</event>
<event>
 8    1  0.8247621E-014  0.7785325E+02  0.7818608E-02  0.1335256E+00
          1   -1    0    0  501    0  0.00000000000E+00  0.00000000000E+00  0.16828528082E+01  0.16828603554E+01  0.50400000000E-02 0. -1.
         -2   -1    0    0    0  501 -0.00000000000E+00 -0.00000000000E+00 -0.90042261862E+03  0.90042261863E+03  0.25500000000E-02 0.  1.
        -24    2    1    2    0    0 -0.35527136788E-14 -0.17763568394E-14 -0.89873976582E+03  0.90210547898E+03  0.77853250109E+02 0.  0.
         66    2    3    3    0    0 -0.19240313790E+02 -0.11232736475E+02 -0.81917247630E+03  0.81947782763E+03  0.20000008767E+01 0.  0.
         13    1    3    3    0    0  0.19240313790E+02  0.11232736475E+02 -0.79567289517E+02  0.82627651356E+02  0.10566000000E+00 0. -1.
         13    1    4    4    0    0 -0.40618865395E+01 -0.17597783384E+01 -0.17382074310E+03  0.17387713374E+03  0.10566000000E+00 0. -1.
        -13    1    4    4    0    0 -0.85148316928E+01 -0.57531645610E+01 -0.35546301591E+03  0.35561154102E+03  0.10566000000E+00 0.  1.
         14    1    4    4    0    0 -0.66635955578E+01 -0.37197935759E+01 -0.28988871729E+03  0.28998915287E+03  0.00000000000E+00 0. -1.
<mgrwt>
<rscale>  0 0.77853250E+02</rscale>
<asrwt>0</asrwt>
<pdfrwt beam="1">  1        1 0.25890173E-03 0.77853250E+02</pdfrwt>
<pdfrwt beam="2">  1       -2 0.13852617E+00 0.77853250E+02</pdfrwt>
<totfact> 0.31480875E+04</totfact>
</mgrwt>
</event>
<event>
 8    1  0.8247621E-014  0.7975744E+02  0.7818608E-02  0.1329741E+00
          1   -1    0    0  501    0  0.00000000000E+00  0.00000000000E+00  0.20740941651E+01  0.20741002887E+01  0.50400000000E-02 0. -1.
         -2   -1    0    0    0  501 -0.00000000000E+00 -0.00000000000E+00 -0.76674908098E+03  0.76674908098E+03  0.25500000000E-02 0.  1.
        -24    2    1    2    0    0  0.00000000000E+00  0.00000000000E+00 -0.76467498681E+03  0.76882318127E+03  0.79757436031E+02 0.  0.
         66    2    3    3    0    0  0.10154930848E+01 -0.22287075593E+02 -0.70090939555E+03  0.70126722847E+03  0.20000003349E+01 0.  0.
         13    1    3    3    0    0 -0.10154930848E+01  0.22287075593E+02 -0.63765591264E+02  0.67555952794E+02  0.10566000000E+00 0. -1.
         13    1    4    4    0    0 -0.32609784012E+00 -0.50093380520E+01 -0.13924411597E+03  0.13933461452E+03  0.10566000000E+00 0. -1.
        -13    1    4    4    0    0  0.49919669942E+00 -0.75016946332E+01 -0.24446857938E+03  0.24458418200E+03  0.10566000000E+00 0.  1.
         14    1    4    4    0    0  0.84239422547E+00 -0.97760429082E+01 -0.31719670020E+03  0.31734843195E+03  0.00000000000E+00 0. -1.
<mgrwt>
<rscale>  0 0.79757436E+02</rscale>
<asrwt>0</asrwt>
<pdfrwt beam="1">  1        1 0.31909249E-03 0.79757436E+02</pdfrwt>
<pdfrwt beam="2">  1       -2 0.11796117E+00 0.79757436E+02</pdfrwt>
<totfact> 0.34948974E+04</totfact>
</mgrwt>
</event>
<event>
 8    1  0.8247621E-014  0.7749403E+02  0.7818608E-02  0.1336317E+00
          1   -1    0    0  501    0  0.00000000000E+00  0.00000000000E+00  0.27733473488E+01  0.27733519284E+01  0.50400000000E-02 0. -1.
         -2   -1    0    0    0  501 -0.00000000000E+00 -0.00000000000E+00 -0.54134214233E+03  0.54134214234E+03  0.25500000000E-02 0.  1.
        -24    2    1    2    0    0  0.00000000000E+00  0.00000000000E+00 -0.53856879498E+03  0.54411549427E+03  0.77494026680E+02 0.  0.
         66    2    3    3    0    0 -0.34459613900E+02  0.44298958369E+01 -0.38949347177E+03  0.39104507870E+03  0.20000136914E+01 0.  0.
         13    1    3    3    0    0  0.34459613900E+02 -0.44298958369E+01 -0.14907532321E+03  0.15307041557E+03  0.10566000000E+00 0. -1.
         13    1    4    4    0    0 -0.64320508210E+01  0.60442125498E+00 -0.70862853922E+02  0.71156811570E+02  0.10566000000E+00 0. -1.
        -13    1    4    4    0    0 -0.18537841803E+02  0.28886280065E+01 -0.20306460521E+03  0.20392949959E+03  0.10566000000E+00 0.  1.
        -14    1    4    4    0    0 -0.94897212766E+01  0.93684657543E+00 -0.11556601264E+03  0.11595876754E+03  0.00000000000E+00 0.  1.
<mgrwt>
<rscale>  0 0.77494027E+02</rscale>
<asrwt>0</asrwt>
<pdfrwt beam="1">  1        1 0.42666961E-03 0.77494027E+02</pdfrwt>
<pdfrwt beam="2">  1       -2 0.83283323E-01 0.77494027E+02</pdfrwt>
<totfact> 0.51386940E+04</totfact>
</mgrwt>
</event>
<event>
 8    1  0.8247621E-014  0.7915317E+02  0.7818608E-02  0.1331472E+00
         -2   -1    0    0    0  501 -0.00000000000E+00  0.00000000000E+00  0.30973100024E+01  0.30973110521E+01  0.25500000000E-02 0.  1.
          1   -1    0    0  501    0  0.00000000000E+00 -0.00000000000E+00 -0.50569879442E+03  0.50569879445E+03  0.50400000000E-02 0. -1.
        -24    2    1    2    0    0  0.71054273576E-14  0.17763568394E-14 -0.50260148442E+03  0.50879610550E+03  0.79153173217E+02 0.  0.
         66    2    3    3    0    0  0.37951452524E+02  0.10740690283E+02 -0.27033988334E+03  0.27320931114E+03  0.19999981801E+01 0.  0.
         13    1    3    3    0    0 -0.37951452524E+02 -0.10740690283E+02 -0.23226160108E+03  0.23558679436E+03  0.10566000000E+00 0. -1.
         13    1    4    4    0    0  0.12070661592E+02  0.25864839772E+01 -0.85767366840E+02  0.86651273213E+02  0.10566000000E+00 0. -1.
        -13    1    4    4    0    0  0.16586926090E+02  0.48514213411E+01 -0.11786825614E+03  0.11912849942E+03  0.10566000000E+00 0.  1.
         14    1    4    4    0    0  0.92938648420E+01  0.33027849645E+01 -0.66704260366E+02  0.67429538506E+02  0.00000000000E+00 0. -1.
<mgrwt>
<rscale>  0 0.79153173E+02</rscale>
<asrwt>0</asrwt>
<pdfrwt beam="1">  1        1 0.77799749E-01 0.79153173E+02</pdfrwt>
<pdfrwt beam="2">  1       -2 0.47650971E-03 0.79153173E+02</pdfrwt>
<totfact> 0.20189240E+05</totfact>
</mgrwt>
</event>
<event>
 8    1  0.8247621E-014  0.8377911E+02  0.7818608E-02  0.1318657E+00
         -2   -1    0    0    0  501 -0.00000000000E+00  0.00000000000E+00  0.59542334124E+01  0.59542339584E+01  0.25500000000E-02 0.  1.
          1   -1    0    0  501    0  0.00000000000E+00 -0.00000000000E+00 -0.29470370309E+03  0.29470370314E+03  0.50400000000E-02 0. -1.
        -24    2    1    2    0    0  0.00000000000E+00  0.00000000000E+00 -0.28874946968E+03  0.30065793710E+03  0.83779107760E+02 0.  0.
         66    2    3    3    0    0  0.63359986736E+00  0.40588790637E+02 -0.10770487918E+03  0.11511816700E+03  0.19999998720E+01 0.  0.
         13    1    3    3    0    0 -0.63359986736E+00 -0.40588790637E+02 -0.18104459050E+03  0.18553977010E+03  0.10566000000E+00 0. -1.
         13    1    4    4    0    0  0.94569671401E+00  0.24465433846E+02 -0.62952969352E+02  0.67546571414E+02  0.10566000000E+00 0. -1.
        -13    1    4    4    0    0 -0.82472789563E-01  0.13323691178E+02 -0.36746839449E+02  0.39087963901E+02  0.10566000000E+00 0.  1.
         14    1    4    4    0    0 -0.22962405709E+00  0.27996656133E+01 -0.80050703795E+01  0.84836316831E+01  0.00000000000E+00 0. -1.
<mgrwt>
<rscale>  0 0.83779108E+02</rscale>
<asrwt>0</asrwt>
<pdfrwt beam="1">  1        1 0.45339020E-01 0.83779108E+02</pdfrwt>
<pdfrwt beam="2">  1       -2 0.91603618E-03 0.83779108E+02</pdfrwt>
<totfact> 0.15915092E+05</totfact>
</mgrwt>
</event>
<event>
 8    1  0.8247621E-014  0.8250791E+02  0.7818608E-02  0.1322081E+00
         -2   -1    0    0    0  501 -0.00000000000E+00  0.00000000000E+00  0.53130930830E+02  0.53130930892E+02  0.25500000000E-02 0.  1.
          1   -1    0    0  501    0  0.00000000000E+00 -0.00000000000E+00 -0.32031979782E+02  0.32031980179E+02  0.50400000000E-02 0. -1.
        -24    2    1    2    0    0  0.00000000000E+00  0.00000000000E+00  0.21098951048E+02  0.85162911070E+02  0.82507912873E+02 0.  0.
         66    2    3    3    0    0 -0.11292822686E+02  0.36942476121E+02  0.25427971016E+02  0.46290993648E+02  0.19999991914E+01 0.  0.
         13    1    3    3    0    0  0.11292822686E+02 -0.36942476121E+02 -0.43290199679E+01  0.38871917422E+02  0.10566000000E+00 0. -1.
         13    1    4    4    0    0 -0.70641544863E+00  0.22275563964E+01  0.16467415113E+01  0.28607607250E+01  0.10566000000E+00 0.  1.
        -13    1    4    4    0    0 -0.10265463391E+02  0.34335292599E+02  0.23546055367E+02  0.42880297852E+02  0.10566000000E+00 0.  1.
        -14    1    4    4    0    0 -0.32094384733E+00  0.37962712561E+00  0.23517413783E+00  0.54993507138E+00  0.00000000000E+00 0.  1.
<mgrwt>
<rscale>  0 0.82507913E+02</rscale>
<asrwt>0</asrwt>
<pdfrwt beam="1">  1        1 0.49279969E-02 0.82507913E+02</pdfrwt>
<pdfrwt beam="2">  1       -2 0.81739894E-02 0.82507913E+02</pdfrwt>
<totfact> 0.11197239E+05</totfact>
</mgrwt>
</event>
<event>
 8    1  0.8247621E-014  0.7967727E+02  0.7818608E-02  0.1329970E+00
         -2   -1    0    0    0  501 -0.00000000000E+00  0.00000000000E+00  0.15061413630E+02  0.15061413846E+02  0.25500000000E-02 0.  1.
          1   -1    0    0  501    0  0.00000000000E+00 -0.00000000000E+00 -0.10537636252E+03  0.10537636264E+03  0.50400000000E-02 0. -1.
        -24    2    1    2    0    0  0.00000000000E+00  0.17763568394E-14 -0.90314948890E+02  0.12043777649E+03  0.79677274126E+02 0.  0.
         66    2    3    3    0    0 -0.37653220509E+02  0.12862506236E+02 -0.43100666748E+02  0.58693070774E+02  0.20000003525E+01 0.  0.
         13    1    3    3    0    0  0.37653220509E+02 -0.12862506236E+02 -0.47214282141E+02  0.61744705712E+02  0.10566000000E+00 0. -1.
         13    1    4    4    0    0 -0.43129390605E+01  0.16570546439E+01 -0.50386800624E+01  0.68371583453E+01  0.10566000000E+00 0.  1.
        -13    1    4    4    0    0 -0.31723322342E+02  0.11040002773E+02 -0.36448240993E+02  0.49565474649E+02  0.10566000000E+00 0.  1.
         14    1    4    4    0    0 -0.16169591066E+01  0.16544881925E+00 -0.16137456924E+01  0.22904377800E+01  0.00000000000E+00 0. -1.
<mgrwt>
<rscale>  0 0.79677274E+02</rscale>
<asrwt>0</asrwt>
<pdfrwt beam="1">  1        1 0.16211748E-01 0.79677274E+02</pdfrwt>
<pdfrwt beam="2">  1       -2 0.23171406E-02 0.79677274E+02</pdfrwt>
<totfact> 0.14992496E+05</totfact>
</mgrwt>
</event>
<event>
 8    1  0.8247621E-014  0.7836098E+02  0.7818608E-02  0.1333768E+00
         -2   -1    0    0    0  501 -0.00000000000E+00  0.00000000000E+00  0.12811070994E+02  0.12811071248E+02  0.25500000000E-02 0.  1.
          1   -1    0    0  501    0  0.00000000000E+00 -0.00000000000E+00 -0.11982689451E+03  0.11982689461E+03  0.50400000000E-02 0. -1.
        -24    2    1    2    0    0  0.00000000000E+00  0.35527136788E-14 -0.10701582351E+03  0.13263796586E+03  0.78360982036E+02 0.  0.
         66    2    3    3    0    0 -0.85317690600E+01 -0.28542252295E+02 -0.10532799551E+02  0.31660560834E+02  0.19999991400E+01 0.  0.
         13    1    3    3    0    0  0.85317690600E+01  0.28542252295E+02 -0.96483023961E+02  0.10097740503E+03  0.10566000000E+00 0. -1.
         13    1    4    4    0    0 -0.49471427007E+01 -0.14013485954E+02 -0.55737411524E+01  0.15872295484E+02  0.10566000000E+00 0. -1.
        -13    1    4    4    0    0 -0.26387411493E+01 -0.91510582890E+01 -0.29659338710E+01  0.99756077722E+01  0.10566000000E+00 0.  1.
         14    1    4    4    0    0 -0.94588521004E+00 -0.53777080521E+01 -0.19931245279E+01  0.58126575770E+01  0.00000000000E+00 0. -1.
<mgrwt>
<rscale>  0 0.78360982E+02</rscale>
<asrwt>0</asrwt>
<pdfrwt beam="1">  1        1 0.18434906E-01 0.78360982E+02</pdfrwt>
<pdfrwt beam="2">  1       -2 0.19709341E-02 0.78360982E+02</pdfrwt>
<totfact> 0.16028980E+05</totfact>
</mgrwt>
</event>
<event>
 8    1  0.8247621E-014  0.7923407E+02  0.7818608E-02  0.1331239E+00
          1   -1    0    0  501    0  0.00000000000E+00  0.00000000000E+00  0.17714457305E+02  0.17714458022E+02  0.50400000000E-02 0. -1.
         -2   -1    0    0    0  501 -0.00000000000E+00 -0.00000000000E+00 -0.88600475383E+02  0.88600475420E+02  0.25500000000E-02 0.  1.
        -24    2    1    2    0    0  0.00000000000E+00  0.17763568394E-14 -0.70886018078E+02  0.10631493344E+03  0.79234067886E+02 0.  0.
         66    2    3    3    0    0 -0.15037383953E+02 -0.90866005150E+01 -0.83071705366E+02  0.84932899773E+02  0.20000015807E+01 0.  0.
         13    1    3    3    0    0  0.15037383953E+02  0.90866005150E+01  0.12185687289E+02  0.21382033669E+02  0.10566000000E+00 0. -1.
         13    1    4    4    0    0 -0.11849261888E+01 -0.30712983105E+00 -0.45549622033E+01  0.47177561950E+01  0.10566000000E+00 0. -1.
        -13    1    4    4    0    0 -0.60593035940E+01 -0.35868618563E+01 -0.35253268890E+02  0.35949754790E+02  0.10566000000E+00 0.  1.
         14    1    4    4    0    0 -0.77931541704E+01 -0.51926088277E+01 -0.43263474273E+02  0.44265388788E+02  0.00000000000E+00 0. -1.
<mgrwt>
<rscale>  0 0.79234068E+02</rscale>
<asrwt>0</asrwt>
<pdfrwt beam="1">  1        1 0.27253012E-02 0.79234068E+02</pdfrwt>
<pdfrwt beam="2">  1       -2 0.13630842E-01 0.79234068E+02</pdfrwt>
<totfact> 0.11196041E+05</totfact>
</mgrwt>
</event>
<event>
 8    1  0.8247621E-014  0.7877334E+02  0.7818608E-02  0.1332569E+00
          1   -1    0    0  501    0  0.00000000000E+00  0.00000000000E+00  0.18208416271E+02  0.18208416969E+02  0.50400000000E-02 0. -1.
         -2   -1    0    0    0  501 -0.00000000000E+00 -0.00000000000E+00 -0.85197410951E+02  0.85197410989E+02  0.25500000000E-02 0.  1.
        -24    2    1    2    0    0 -0.35527136788E-14  0.00000000000E+00 -0.66988994680E+02  0.10340582796E+03  0.78773344778E+02 0.  0.
         66    2    3    3    0    0 -0.27348386369E+02 -0.22251277888E+01 -0.70561633587E+02  0.75735259777E+02  0.20000021055E+01 0.  0.
         13    1    3    3    0    0  0.27348386369E+02  0.22251277888E+01  0.35726389070E+01  0.27670568181E+02  0.10566000000E+00 0. -1.
         13    1    4    4    0    0 -0.12334360040E+02 -0.45364803750E+00 -0.29999120301E+02  0.32439183359E+02  0.10566000000E+00 0. -1.
        -13    1    4    4    0    0 -0.12144567868E+02 -0.17278688763E+01 -0.33222376725E+02  0.35414877365E+02  0.10566000000E+00 0.  1.
        -14    1    4    4    0    0 -0.28694584618E+01 -0.43610875040E-01 -0.73401365613E+01  0.78811990528E+01  0.00000000000E+00 0.  1.
<mgrwt>
<rscale>  0 0.78773345E+02</rscale>
<asrwt>0</asrwt>
<pdfrwt beam="1">  1        1 0.28012949E-02 0.78773345E+02</pdfrwt>
<pdfrwt beam="2">  1       -2 0.13107294E-01 0.78773345E+02</pdfrwt>
<totfact> 0.11465322E+05</totfact>
</mgrwt>
</event>
<event>
 8    1  0.9341866E-014  0.7898525E+02  0.7818608E-02  0.1331956E+00
         -2   -1    0    0    0  501 -0.00000000000E+00  0.00000000000E+00  0.13685626768E+02  0.13685627006E+02  0.25500000000E-02 0.  1.
          1   -1    0    0  501    0  0.00000000000E+00 -0.00000000000E+00 -0.11396391477E+03  0.11396391488E+03  0.50400000000E-02 0. -1.
        -24    2    1    2    0    0  0.35527136788E-14  0.00000000000E+00 -0.10027828800E+03  0.12764954189E+03  0.78985254950E+02 0.  0.
         66    2    3    3    0    0 -0.22912215283E+02  0.23325254320E+02 -0.14447098452E+02  0.35801616696E+02  0.20000015362E+01 0.  0.
         13    1    3    3    0    0  0.22912215283E+02 -0.23325254320E+02 -0.85831189550E+02  0.91847925191E+02  0.10566000000E+00 0. -1.
         13    1    4    4    0    0 -0.71027965397E+00  0.10339957277E+01 -0.43359888813E+00  0.13314715105E+01  0.10566000000E+00 0.  1.
        -13    1    4    4    0    0 -0.22524349514E+01  0.17525415609E+01 -0.14429583670E+01  0.31997121772E+01  0.10566000000E+00 0.  1.
        -14    1    4    4    0    0 -0.19949500678E+02  0.20538717031E+02 -0.12570541197E+02  0.31270433009E+02  0.00000000000E+00 0.  1.
<mgrwt>
<rscale>  0 0.78985255E+02</rscale>
<asrwt>0</asrwt>
<pdfrwt beam="1">  1        1 0.17532909E-01 0.78985255E+02</pdfrwt>
<pdfrwt beam="2">  1       -2 0.21054811E-02 0.78985255E+02</pdfrwt>
<totfact> 0.15555713E+05</totfact>
</mgrwt>
</event>
<event>
 8    1  0.8247621E-014  0.8006201E+02  0.7818608E-02  0.1328876E+00
         -2   -1    0    0    0  501 -0.00000000000E+00  0.00000000000E+00  0.88965507059E+01  0.88965510714E+01  0.25500000000E-02 0.  1.
          1   -1    0    0  501    0  0.00000000000E+00 -0.00000000000E+00 -0.18012391141E+03  0.18012391148E+03  0.50400000000E-02 0. -1.
        -24    2    1    2    0    0  0.35527136788E-14 -0.35527136788E-14 -0.17122736071E+03  0.18902046255E+03  0.80062014775E+02 0.  0.
         66    2    3    3    0    0  0.28088907155E+02 -0.22615100084E+02 -0.44771313219E+02  0.57523038370E+02  0.19999997523E+01 0.  0.
         13    1    3    3    0    0 -0.28088907155E+02  0.22615100084E+02 -0.12645604749E+03  0.13149742419E+03  0.10566000000E+00 0. -1.
         13    1    4    4    0    0  0.50824317054E+01 -0.36242071019E+01 -0.75379761870E+01  0.97876574413E+01  0.10566000000E+00 0. -1.
        -13    1    4    4    0    0  0.12548567309E+02 -0.93936987602E+01 -0.19851764516E+02  0.25294502098E+02  0.10566000000E+00 0.  1.
         14    1    4    4    0    0  0.10457908140E+02 -0.95971942218E+01 -0.17381572516E+02  0.22440878831E+02  0.00000000000E+00 0. -1.
<mgrwt>
<rscale>  0 0.80062015E+02</rscale>
<asrwt>0</asrwt>
<pdfrwt beam="1">  1        1 0.27711368E-01 0.80062015E+02</pdfrwt>
<pdfrwt beam="2">  1       -2 0.13687003E-02 0.80062015E+02</pdfrwt>
<totfact> 0.16306899E+05</totfact>
</mgrwt>
</event>
<event>
 8    1  0.8247621E-014  0.7329955E+02  0.7818608E-02  0.1349219E+00
         -2   -1    0    0    0  501 -0.00000000000E+00  0.00000000000E+00  0.23720248456E+02  0.23720248593E+02  0.25500000000E-02 0.  1.
          1   -1    0    0  501    0  0.00000000000E+00 -0.00000000000E+00 -0.56626979433E+02  0.56626979657E+02  0.50400000000E-02 0. -1.
        -24    2    1    2    0    0 -0.11102230246E-15  0.00000000000E+00 -0.32906730977E+02  0.80347228250E+02  0.73299550776E+02 0.  0.
         66    2    3    3    0    0 -0.41365566830E+00  0.16903266798E+02  0.19143400093E+02  0.25619549258E+02  0.19999994109E+01 0.  0.
         13    1    3    3    0    0  0.41365566830E+00 -0.16903266798E+02 -0.52050131070E+02  0.54727678992E+02  0.10566000000E+00 0. -1.
         13    1    4    4    0    0  0.20234502362E+00  0.11514235899E+02  0.12659077572E+02  0.17113795045E+02  0.10566000000E+00 0. -1.
        -13    1    4    4    0    0 -0.78120584594E+00  0.34559430448E+01  0.45287853374E+01  0.57510769053E+01  0.10566000000E+00 0.  1.
        -14    1    4    4    0    0  0.16520515402E+00  0.19330878543E+01  0.19555371833E+01  0.27546773078E+01  0.00000000000E+00 0.  1.
<mgrwt>
<rscale>  0 0.73299551E+02</rscale>
<asrwt>0</asrwt>
<pdfrwt beam="1">  1        1 0.87118430E-02 0.73299551E+02</pdfrwt>
<pdfrwt beam="2">  1       -2 0.36492690E-02 0.73299551E+02</pdfrwt>
<totfact> 0.17054049E+05</totfact>
</mgrwt>
</event>
<event>
 8    1  0.8247621E-014  0.8207355E+02  0.7818608E-02  0.1323268E+00
         -2   -1    0    0    0  501 -0.00000000000E+00  0.00000000000E+00  0.22601238497E+03  0.22601238499E+03  0.25500000000E-02 0.  1.
          1   -1    0    0  501    0  0.00000000000E+00 -0.00000000000E+00 -0.74509928722E+01  0.74509945767E+01  0.50400000000E-02 0. -1.
        -24    2    1    2    0    0 -0.35527136788E-14 -0.44408920985E-15  0.21856139210E+03  0.23346337956E+03  0.82073549213E+02 0.  0.
         66    2    3    3    0    0 -0.22620954348E+02  0.20343624461E+01  0.20648486679E+03  0.20773985271E+03  0.19999962573E+01 0.  0.
         13    1    3    3    0    0  0.22620954348E+02 -0.20343624461E+01  0.12076525313E+02  0.25723526855E+02  0.10566000000E+00 0. -1.
         13    1    4    4    0    0 -0.11375422308E+02  0.15307761704E+01  0.10131319755E+03  0.10196135872E+03  0.10566000000E+00 0. -1.
        -13    1    4    4    0    0 -0.46447588540E+00 -0.18441904421E+00  0.49261486201E+01  0.49525601960E+01  0.10566000000E+00 0.  1.
        -14    1    4    4    0    0 -0.10781056154E+02  0.68800531991E+00  0.10024552061E+03  0.10082593380E+03  0.00000000000E+00 0.  1.
<mgrwt>
<rscale>  0 0.82073549E+02</rscale>
<asrwt>0</asrwt>
<pdfrwt beam="1">  1        1 0.11463065E-02 0.82073549E+02</pdfrwt>
<pdfrwt beam="2">  1       -2 0.34771143E-01 0.82073549E+02</pdfrwt>
<totfact> 0.75608763E+04</totfact>
</mgrwt>
</event>
<event>
 8    1  0.8247621E-014  0.8255190E+02  0.7818608E-02  0.1321962E+00
          1   -1    0    0  501    0  0.00000000000E+00  0.00000000000E+00  0.11886520059E+03  0.11886520070E+03  0.50400000000E-02 0. -1.
         -2   -1    0    0    0  501 -0.00000000000E+00 -0.00000000000E+00 -0.14333075131E+02  0.14333075358E+02  0.25500000000E-02 0.  1.
        -24    2    1    2    0    0  0.00000000000E+00  0.00000000000E+00  0.10453212546E+03  0.13319827606E+03  0.82551895745E+02 0.  0.
         66    2    3    3    0    0 -0.35718849503E+02 -0.20589337033E+02  0.50048214294E+02  0.64873575183E+02  0.19999984420E+01 0.  0.
         13    1    3    3    0    0  0.35718849503E+02  0.20589337033E+02  0.54483911168E+02  0.68324700874E+02  0.10566000000E+00 0. -1.
         13    1    4    4    0    0 -0.23110430375E+02 -0.14178538366E+02  0.31986520925E+02  0.41931749633E+02  0.10566000000E+00 0. -1.
        -13    1    4    4    0    0 -0.75188147106E+01 -0.38841145404E+01  0.10831527686E+02  0.13745984013E+02  0.10566000000E+00 0.  1.
         14    1    4    4    0    0 -0.50896044174E+01 -0.25266841267E+01  0.72301656822E+01  0.91958415381E+01  0.00000000000E+00 0. -1.
<mgrwt>
<rscale>  0 0.82551896E+02</rscale>
<asrwt>0</asrwt>
<pdfrwt beam="1">  1        1 0.18286954E-01 0.82551896E+02</pdfrwt>
<pdfrwt beam="2">  1       -2 0.22050885E-02 0.82551896E+02</pdfrwt>
<totfact> 0.13913041E+05</totfact>
</mgrwt>
</event>
<event>
 8    1  0.8247621E-014  0.8020312E+02  0.7818608E-02  0.1328476E+00
         -2   -1    0    0    0  501 -0.00000000000E+00  0.00000000000E+00  0.19878398567E+03  0.19878398568E+03  0.25500000000E-02 0.  1.
          1   -1    0    0  501    0  0.00000000000E+00 -0.00000000000E+00 -0.80898625035E+01  0.80898640734E+01  0.50400000000E-02 0. -1.
        -24    2    1    2    0    0  0.71054273576E-14 -0.17763568394E-14  0.19069412316E+03  0.20687384976E+03  0.80203124029E+02 0.  0.
         66    2    3    3    0    0 -0.30130227611E+02  0.14918401397E+02  0.15166616994E+03  0.15536092310E+03  0.20000013540E+01 0.  0.
         13    1    3    3    0    0  0.30130227611E+02 -0.14918401397E+02  0.39027953226E+02  0.51512926661E+02  0.10566000000E+00 0. -1.
         13    1    4    4    0    0 -0.37952152872E+00  0.12607145387E+00  0.16708303324E+01  0.17212694843E+01  0.10566000000E+00 0.  1.
        -13    1    4    4    0    0 -0.26234558859E+02  0.13064794089E+02  0.13458371664E+03  0.13773789918E+03  0.10566000000E+00 0.  1.
        -14    1    4    4    0    0 -0.35161472242E+01  0.17275358539E+01  0.15411622966E+02  0.15901754428E+02  0.00000000000E+00 0.  1.
<mgrwt>
<rscale>  0 0.80203124E+02</rscale>
<asrwt>0</asrwt>
<pdfrwt beam="1">  1        1 0.12445944E-02 0.80203124E+02</pdfrwt>
<pdfrwt beam="2">  1       -2 0.30582150E-01 0.80203124E+02</pdfrwt>
<totfact> 0.84730303E+04</totfact>
</mgrwt>
</event>
<event>
 8    1  0.8247621E-014  0.8357575E+02  0.7818608E-02  0.1319200E+00
         -2   -1    0    0    0  501 -0.00000000000E+00  0.00000000000E+00  0.14807107965E+03  0.14807107967E+03  0.25500000000E-02 0.  1.
          1   -1    0    0  501    0  0.00000000000E+00 -0.00000000000E+00 -0.11793163024E+02  0.11793164101E+02  0.50400000000E-02 0. -1.
        -24    2    1    2    0    0  0.00000000000E+00  0.00000000000E+00  0.13627791662E+03  0.15986424377E+03  0.83575749335E+02 0.  0.
         66    2    3    3    0    0 -0.28096502229E+02 -0.11989888053E+02  0.12265259350E+03  0.12641530586E+03  0.20000025724E+01 0.  0.
         13    1    3    3    0    0  0.28096502229E+02  0.11989888053E+02  0.13625323123E+02  0.33448937909E+02  0.10566000000E+00 0. -1.
         13    1    4    4    0    0 -0.13664695960E+02 -0.48531400236E+01  0.59442735687E+02  0.61186002270E+02  0.10566000000E+00 0. -1.
        -13    1    4    4    0    0 -0.13326834554E+02 -0.64744757948E+01  0.58243951709E+02  0.60099021878E+02  0.10566000000E+00 0.  1.
         14    1    4    4    0    0 -0.11049717153E+01 -0.66227223423E+00  0.49659061050E+01  0.51302817123E+01  0.00000000000E+00 0. -1.
<mgrwt>
<rscale>  0 0.83575749E+02</rscale>
<asrwt>0</asrwt>
<pdfrwt beam="1">  1        1 0.18143329E-02 0.83575749E+02</pdfrwt>
<pdfrwt beam="2">  1       -2 0.22780166E-01 0.83575749E+02</pdfrwt>
<totfact> 0.84799897E+04</totfact>
</mgrwt>
</event>
<event>
 8    1  0.8247621E-014  0.7718569E+02  0.7818608E-02  0.1337233E+00
         -2   -1    0    0    0  501 -0.00000000000E+00  0.00000000000E+00  0.13898193788E+02  0.13898194022E+02  0.25500000000E-02 0.  1.
          1   -1    0    0  501    0  0.00000000000E+00 -0.00000000000E+00 -0.10716556681E+03  0.10716556693E+03  0.50400000000E-02 0. -1.
        -24    2    1    2    0    0  0.44408920985E-15  0.00000000000E+00 -0.93267373025E+02  0.12106376095E+03  0.77185693914E+02 0.  0.
         66    2    3    3    0    0 -0.36348536553E+01 -0.36864843841E+02 -0.63497643577E+02  0.73540326439E+02  0.20000001155E+01 0.  0.
         13    1    3    3    0    0  0.36348536553E+01  0.36864843841E+02 -0.29769729448E+02  0.47523434513E+02  0.10566000000E+00 0. -1.
         13    1    4    4    0    0 -0.23721680788E+01 -0.27152725852E+02 -0.47764694511E+02  0.54994317056E+02  0.10566000000E+00 0.  1.
        -13    1    4    4    0    0 -0.97417738635E-01 -0.28203914020E+00 -0.56616449095E+00  0.64864671341E+00  0.10566000000E+00 0. -1.
        -14    1    4    4    0    0 -0.11652678378E+01 -0.94300788482E+01 -0.15166784575E+02  0.17897362670E+02  0.00000000000E+00 0.  1.
<mgrwt>
<rscale>  0 0.77185694E+02</rscale>
<asrwt>0</asrwt>
<pdfrwt beam="1">  1        1 0.16487010E-01 0.77185694E+02</pdfrwt>
<pdfrwt beam="2">  1       -2 0.21381838E-02 0.77185694E+02</pdfrwt>
<totfact> 0.16376928E+05</totfact>
</mgrwt>
</event>
<event>
 8    1  0.8247621E-014  0.7830302E+02  0.7818608E-02  0.1333937E+00
         -2   -1    0    0    0  501 -0.00000000000E+00  0.00000000000E+00  0.11607412352E+03  0.11607412355E+03  0.25500000000E-02 0.  1.
          1   -1    0    0  501    0  0.00000000000E+00 -0.00000000000E+00 -0.13205704377E+02  0.13205705339E+02  0.50400000000E-02 0. -1.
        -24    2    1    2    0    0  0.17763568394E-14 -0.35527136788E-14  0.10286841914E+03  0.12927982889E+03  0.78303017184E+02 0.  0.
         66    2    3    3    0    0 -0.12953100862E+02  0.25321028345E+02  0.95827545339E+02  0.99979276565E+02  0.19999996269E+01 0.  0.
         13    1    3    3    0    0  0.12953100862E+02 -0.25321028345E+02  0.70408738040E+01  0.29300552322E+02  0.10566000000E+00 0. -1.
         13    1    4    4    0    0 -0.44605959433E+01  0.10009218801E+02  0.39585369522E+02  0.41074250102E+02  0.10566000000E+00 0. -1.
        -13    1    4    4    0    0 -0.26545367633E+01  0.48172186365E+01  0.17818494616E+02  0.18648379963E+02  0.10566000000E+00 0.  1.
         14    1    4    4    0    0 -0.58379681551E+01  0.10494590908E+02  0.38423681200E+02  0.40256646500E+02  0.00000000000E+00 0. -1.
<mgrwt>
<rscale>  0 0.78303017E+02</rscale>
<asrwt>0</asrwt>
<pdfrwt beam="1">  1        1 0.20316469E-02 0.78303017E+02</pdfrwt>
<pdfrwt beam="2">  1       -2 0.17857557E-01 0.78303017E+02</pdfrwt>
<totfact> 0.10785148E+05</totfact>
</mgrwt>
</event>
<event>
 8    1  0.8247621E-014  0.8017119E+02  0.7818608E-02  0.1328566E+00
          1   -1    0    0  501    0  0.00000000000E+00  0.00000000000E+00  0.20105587160E+02  0.20105587792E+02  0.50400000000E-02 0. -1.
         -2   -1    0    0    0  501 -0.00000000000E+00 -0.00000000000E+00 -0.79920816965E+02  0.79920817006E+02  0.25500000000E-02 0.  1.
        -24    2    1    2    0    0  0.88817841970E-15 -0.71054273576E-14 -0.59815229805E+02  0.10002640480E+03  0.80171191461E+02 0.  0.
         66    2    3    3    0    0 -0.72577248566E+01  0.39211192993E+02 -0.25149446259E+02  0.47187783138E+02  0.20000010675E+01 0.  0.
         13    1    3    3    0    0  0.72577248566E+01 -0.39211192993E+02 -0.34665783546E+02  0.52838621660E+02  0.10566000000E+00 0. -1.
         13    1    4    4    0    0 -0.10493097808E+01  0.67207633422E+01 -0.47741647799E+01  0.83110483273E+01  0.10566000000E+00 0. -1.
        -13    1    4    4    0    0 -0.39429414667E+01  0.19649699614E+02 -0.13134373057E+02  0.23962061721E+02  0.10566000000E+00 0.  1.
         14    1    4    4    0    0 -0.22654736090E+01  0.12840730038E+02 -0.72409084223E+01  0.14914673089E+02  0.00000000000E+00 0. -1.
<mgrwt>
<rscale>  0 0.80171191E+02</rscale>
<asrwt>0</asrwt>
<pdfrwt beam="1">  1        1 0.30931674E-02 0.80171191E+02</pdfrwt>
<pdfrwt beam="2">  1       -2 0.12295510E-01 0.80171191E+02</pdfrwt>
<totfact> 0.11117676E+05</totfact>
</mgrwt>
</event>
<event>
 8    1  0.8247621E-014  0.8258213E+02  0.7818608E-02  0.1321879E+00
         -2   -1    0    0    0  501 -0.00000000000E+00  0.00000000000E+00  0.23449759822E+02  0.23449759961E+02  0.25500000000E-02 0.  1.
          1   -1    0    0  501    0  0.00000000000E+00 -0.00000000000E+00 -0.72706588097E+02  0.72706588271E+02  0.50400000000E-02 0. -1.
        -24    2    1    2    0    0  0.35527136788E-14  0.00000000000E+00 -0.49256828274E+02  0.96156348232E+02  0.82582129869E+02 0.  0.
         66    2    3    3    0    0  0.31441007226E+02  0.18425452301E+02 -0.20974659449E+01  0.36557263950E+02  0.19999890659E+01 0.  0.
         13    1    3    3    0    0 -0.31441007226E+02 -0.18425452301E+02 -0.47159362330E+02  0.59599084282E+02  0.10566000000E+00 0. -1.
         13    1    4    4    0    0  0.15998865251E+01  0.84597705940E+00 -0.36333413027E+00  0.18489158456E+01  0.10566000000E+00 0. -1.
        -13    1    4    4    0    0  0.21384179959E+02  0.11910587205E+02 -0.15226861952E+01  0.24524986797E+02  0.10566000000E+00 0.  1.
         14    1    4    4    0    0  0.84569407414E+01  0.56688880363E+01 -0.21144561940E+00  0.10183361308E+02  0.00000000000E+00 0. -1.
<mgrwt>
<rscale>  0 0.82582130E+02</rscale>
<asrwt>0</asrwt>
<pdfrwt beam="1">  1        1 0.11185629E-01 0.82582130E+02</pdfrwt>
<pdfrwt beam="2">  1       -2 0.36076554E-02 0.82582130E+02</pdfrwt>
<totfact> 0.12790964E+05</totfact>
</mgrwt>
</event>
<event>
 8    1  0.8247621E-014  0.7972155E+02  0.7818608E-02  0.1329844E+00
         -2   -1    0    0    0  501 -0.00000000000E+00  0.00000000000E+00  0.63796738694E+01  0.63796743791E+01  0.25500000000E-02 0.  1.
          1   -1    0    0  501    0  0.00000000000E+00 -0.00000000000E+00 -0.24905367112E+03  0.24905367117E+03  0.50400000000E-02 0. -1.
        -24    2    1    2    0    0  0.71054273576E-14  0.00000000000E+00 -0.24267399725E+03  0.25543334555E+03  0.79721547134E+02 0.  0.
         66    2    3    3    0    0 -0.38807502670E+02  0.87427974931E+01 -0.12814741184E+03  0.13419470195E+03  0.20000248716E+01 0.  0.
         13    1    3    3    0    0  0.38807502670E+02 -0.87427974931E+01 -0.11452658542E+03  0.12123864360E+03  0.10566000000E+00 0. -1.
         13    1    4    4    0    0 -0.77695287796E+01  0.20493565835E+01 -0.23637085150E+02  0.24965744497E+02  0.10566000000E+00 0. -1.
        -13    1    4    4    0    0 -0.12223046397E+02  0.25995271164E+01 -0.40121530050E+02  0.42022716976E+02  0.10566000000E+00 0.  1.
        -14    1    4    4    0    0 -0.18814927493E+02  0.40939137933E+01 -0.64388796635E+02  0.67206240475E+02  0.00000000000E+00 0.  1.
<mgrwt>
<rscale>  0 0.79721547E+02</rscale>
<asrwt>0</asrwt>
<pdfrwt beam="1">  1        1 0.38315942E-01 0.79721547E+02</pdfrwt>
<pdfrwt beam="2">  1       -2 0.98148852E-03 0.79721547E+02</pdfrwt>
<totfact> 0.17563583E+05</totfact>
</mgrwt>
</event>
<event>
 8    1  0.8247621E-014  0.7798398E+02  0.7818608E-02  0.1334872E+00
         -2   -1    0    0    0  501 -0.00000000000E+00  0.00000000000E+00  0.24216561824E+02  0.24216561958E+02  0.25500000000E-02 0.  1.
          1   -1    0    0  501    0  0.00000000000E+00 -0.00000000000E+00 -0.62782453473E+02  0.62782453675E+02  0.50400000000E-02 0. -1.
        -24    2    1    2    0    0  0.71054273576E-14 -0.17763568394E-14 -0.38565891648E+02  0.86999015633E+02  0.77983977345E+02 0.  0.
         66    2    3    3    0    0  0.33431779243E+02  0.12833211637E+02 -0.21575823326E+01  0.35930910758E+02  0.20000005252E+01 0.  0.
         13    1    3    3    0    0 -0.33431779243E+02 -0.12833211637E+02 -0.36408309316E+02  0.51068104875E+02  0.10566000000E+00 0. -1.
         13    1    4    4    0    0  0.14654200798E+02  0.46391433557E+01 -0.76252721856E+00  0.15390252236E+02  0.10566000000E+00 0. -1.
        -13    1    4    4    0    0  0.12782336814E+01  0.62083677274E+00 -0.61195902203E-01  0.14262638664E+01  0.10566000000E+00 0.  1.
         14    1    4    4    0    0  0.17499344764E+02  0.75732315088E+01 -0.13338592118E+01  0.19114394656E+02  0.00000000000E+00 0. -1.
<mgrwt>
<rscale>  0 0.77983977E+02</rscale>
<asrwt>0</asrwt>
<pdfrwt beam="1">  1        1 0.96588390E-02 0.77983977E+02</pdfrwt>
<pdfrwt beam="2">  1       -2 0.37256249E-02 0.77983977E+02</pdfrwt>
<totfact> 0.14624627E+05</totfact>
</mgrwt>
</event>
<event>
 8    1  0.8247621E-014  0.8068025E+02  0.7818608E-02  0.1327132E+00
          1   -1    0    0  501    0  0.00000000000E+00  0.00000000000E+00  0.20129773892E+02  0.20129774523E+02  0.50400000000E-02 0. -1.
         -2   -1    0    0    0  501 -0.00000000000E+00 -0.00000000000E+00 -0.80841726092E+02  0.80841726132E+02  0.25500000000E-02 0.  1.
        -24    2    1    2    0    0  0.00000000000E+00  0.35527136788E-14 -0.60711952200E+02  0.10097150066E+03  0.80680250400E+02 0.  0.
         66    2    3    3    0    0 -0.68808072709E+01 -0.28872448658E+02 -0.64519190691E+02  0.71047095412E+02  0.19999997143E+01 0.  0.
         13    1    3    3    0    0  0.68808072709E+01  0.28872448658E+02  0.38072384906E+01  0.29924405243E+02  0.10566000000E+00 0. -1.
         13    1    4    4    0    0 -0.35338270978E+01 -0.11729382991E+02 -0.27413561607E+02  0.30026336496E+02  0.10566000000E+00 0. -1.
        -13    1    4    4    0    0 -0.12938853661E+01 -0.88942983524E+01 -0.18948843128E+02  0.20972660834E+02  0.10566000000E+00 0.  1.
         14    1    4    4    0    0 -0.20530948070E+01 -0.82487673148E+01 -0.18156785956E+02  0.20048098083E+02  0.00000000000E+00 0. -1.
<mgrwt>
<rscale>  0 0.80680250E+02</rscale>
<asrwt>0</asrwt>
<pdfrwt beam="1">  1        1 0.30968884E-02 0.80680250E+02</pdfrwt>
<pdfrwt beam="2">  1       -2 0.12437188E-01 0.80680250E+02</pdfrwt>
<totfact> 0.10912587E+05</totfact>
</mgrwt>
</event>
<event>
 8    1  0.8247621E-014  0.7879805E+02  0.7818608E-02  0.1332497E+00
         -2   -1    0    0    0  501 -0.00000000000E+00  0.00000000000E+00  0.82354777394E+01  0.82354781342E+01  0.25500000000E-02 0.  1.
          1   -1    0    0  501    0  0.00000000000E+00 -0.00000000000E+00 -0.18848729821E+03  0.18848729828E+03  0.50400000000E-02 0. -1.
        -24    2    1    2    0    0 -0.71054273576E-14  0.00000000000E+00 -0.18025182047E+03  0.19672277641E+03  0.78798045510E+02 0.  0.
         66    2    3    3    0    0  0.38114178622E+02  0.93360640674E+01 -0.82122887381E+02  0.91038570507E+02  0.19999959669E+01 0.  0.
         13    1    3    3    0    0 -0.38114178622E+02 -0.93360640674E+01 -0.98128933091E+02  0.10568420591E+03  0.10566000000E+00 0. -1.
         13    1    4    4    0    0  0.47270339726E+01  0.80114893507E+00 -0.11040056945E+02  0.12036640361E+02  0.10566000000E+00 0. -1.
        -13    1    4    4    0    0  0.23431989011E+02  0.59456087201E+01 -0.50883830554E+02  0.56334569741E+02  0.10566000000E+00 0.  1.
        -14    1    4    4    0    0  0.99551556389E+01  0.25893064123E+01 -0.20198999881E+02  0.22667360404E+02  0.00000000000E+00 0.  1.
<mgrwt>
<rscale>  0 0.78798046E+02</rscale>
<asrwt>0</asrwt>
<pdfrwt beam="1">  1        1 0.28998043E-01 0.78798046E+02</pdfrwt>
<pdfrwt beam="2">  1       -2 0.12669967E-02 0.78798046E+02</pdfrwt>
<totfact> 0.17160013E+05</totfact>
</mgrwt>
</event>
<event>
 8    1  0.8247621E-014  0.8271751E+02  0.7818608E-02  0.1321512E+00
          1   -1    0    0  501    0  0.00000000000E+00  0.00000000000E+00  0.44236887757E+01  0.44236916468E+01  0.50400000000E-02 0. -1.
         -2   -1    0    0    0  501 -0.00000000000E+00 -0.00000000000E+00 -0.38667863410E+03  0.38667863411E+03  0.25500000000E-02 0.  1.
        -24    2    1    2    0    0  0.00000000000E+00  0.00000000000E+00 -0.38225494532E+03  0.39110232575E+03  0.82717507133E+02 0.  0.
         66    2    3    3    0    0  0.26699986090E+02  0.76803182267E+01 -0.33594441461E+03  0.33709720596E+03  0.20000027936E+01 0.  0.
         13    1    3    3    0    0 -0.26699986090E+02 -0.76803182267E+01 -0.46310530710E+02  0.54005119794E+02  0.10566000000E+00 0. -1.
         13    1    4    4    0    0  0.17922276008E+01  0.66482573250E+00 -0.19813397192E+02  0.19905676210E+02  0.10566000000E+00 0. -1.
        -13    1    4    4    0    0  0.13178413063E+02  0.36598910387E+01 -0.17570855289E+03  0.17624009786E+03  0.10566000000E+00 0.  1.
        -14    1    4    4    0    0  0.11729345426E+02  0.33556014556E+01 -0.14042246453E+03  0.14095143189E+03  0.00000000000E+00 0.  1.
<mgrwt>
<rscale>  0 0.82717507E+02</rscale>
<asrwt>0</asrwt>
<pdfrwt beam="1">  1        1 0.68056803E-03 0.82717507E+02</pdfrwt>
<pdfrwt beam="2">  1       -2 0.59488994E-01 0.82717507E+02</pdfrwt>
<totfact> 0.55416772E+04</totfact>
</mgrwt>
</event>
<event>
 8    1  0.1036461E-013  0.8088042E+02  0.7818608E-02  0.1326571E+00
          1   -1    0    0  501    0  0.00000000000E+00  0.00000000000E+00  0.13238417947E+03  0.13238417956E+03  0.50400000000E-02 0. -1.
         -2   -1    0    0    0  501 -0.00000000000E+00 -0.00000000000E+00 -0.12353520034E+02  0.12353520297E+02  0.25500000000E-02 0.  1.
        -24    2    1    2    0    0  0.00000000000E+00  0.00000000000E+00  0.12003065943E+03  0.14473769986E+03  0.80880421344E+02 0.  0.
         66    2    3    3    0    0 -0.23629300036E+01  0.22428568607E+02  0.35191735205E-01  0.22641231606E+02  0.20000005617E+01 0.  0.
         13    1    3    3    0    0  0.23629300036E+01 -0.22428568607E+02  0.11999546770E+03  0.12209646825E+03  0.10566000000E+00 0. -1.
         13    1    4    4    0    0  0.50774262619E-01  0.10673588450E+00 -0.40945590779E-01  0.16374111209E+00  0.10566000000E+00 0. -1.
        -13    1    4    4    0    0 -0.73366885270E+00  0.10978934950E+02 -0.23892461587E+00  0.11006522231E+02  0.10566000000E+00 0.  1.
        -14    1    4    4    0    0 -0.16800354135E+01  0.11342897773E+02  0.31506194185E+00  0.11470968263E+02  0.00000000000E+00 0.  1.
<mgrwt>
<rscale>  0 0.80880421E+02</rscale>
<asrwt>0</asrwt>
<pdfrwt beam="1">  1        1 0.20366798E-01 0.80880421E+02</pdfrwt>
<pdfrwt beam="2">  1       -2 0.19005415E-02 0.80880421E+02</pdfrwt>
<totfact> 0.14986788E+05</totfact>
</mgrwt>
</event>
<event>
 8    1  0.8247621E-014  0.7914296E+02  0.7818608E-02  0.1331501E+00
          1   -1    0    0  501    0  0.00000000000E+00  0.00000000000E+00  0.10700667281E+03  0.10700667293E+03  0.50400000000E-02 0. -1.
         -2   -1    0    0    0  501 -0.00000000000E+00 -0.00000000000E+00 -0.14633686806E+02  0.14633687028E+02  0.25500000000E-02 0.  1.
        -24    2    1    2    0    0  0.00000000000E+00 -0.35527136788E-14  0.92372986006E+02  0.12164035996E+03  0.79142963220E+02 0.  0.
         66    2    3    3    0    0 -0.15928488085E+02  0.21952236478E+02  0.19821384825E+01  0.27268044637E+02  0.19999915709E+01 0.  0.
         13    1    3    3    0    0  0.15928488085E+02 -0.21952236478E+02  0.90390847524E+02  0.94372315322E+02  0.10566000000E+00 0. -1.
         13    1    4    4    0    0 -0.60269396541E+01  0.70973407938E+01  0.20454983982E+00  0.93139278830E+01  0.10566000000E+00 0. -1.
        -13    1    4    4    0    0 -0.16227133900E+01  0.25280661450E+01  0.53683401128E+00  0.30534688423E+01  0.10566000000E+00 0.  1.
        -14    1    4    4    0    0 -0.82788350413E+01  0.12326829540E+02  0.12407546314E+01  0.14900647912E+02  0.00000000000E+00 0.  1.
<mgrwt>
<rscale>  0 0.79142963E+02</rscale>
<asrwt>0</asrwt>
<pdfrwt beam="1">  1        1 0.16462565E-01 0.79142963E+02</pdfrwt>
<pdfrwt beam="2">  1       -2 0.22513365E-02 0.79142963E+02</pdfrwt>
<totfact> 0.15306695E+05</totfact>
</mgrwt>
</event>
<event>
 8    1  0.8251530E-014  0.8014033E+02  0.7818608E-02  0.1328654E+00
          1   -1    0    0  501    0  0.00000000000E+00  0.00000000000E+00  0.95533547145E+01  0.95533560440E+01  0.50400000000E-02 0. -1.
         -2   -1    0    0    0  501 -0.00000000000E+00 -0.00000000000E+00 -0.16806850982E+03  0.16806850984E+03  0.25500000000E-02 0.  1.
        -24    2    1    2    0    0  0.00000000000E+00  0.00000000000E+00 -0.15851515510E+03  0.17762186588E+03  0.80140332178E+02 0.  0.
         66    2    3    3    0    0  0.23310809550E+02  0.54761862202E+01 -0.15044658810E+03  0.15235339947E+03  0.20000001195E+01 0.  0.
         13    1    3    3    0    0 -0.23310809550E+02 -0.54761862202E+01 -0.80685670016E+01  0.25268466414E+02  0.10566000000E+00 0. -1.
         13    1    4    4    0    0  0.74991620354E-01  0.30920321979E-01 -0.83175136310E+00  0.84235038735E+00  0.10566000000E+00 0.  1.
        -13    1    4    4    0    0  0.15197324542E+02  0.41419623574E+01 -0.98843879425E+02  0.10009114941E+03  0.10566000000E+00 0.  1.
        -14    1    4    4    0    0  0.80384933876E+01  0.13033035409E+01 -0.50770957311E+02  0.51419899673E+02  0.00000000000E+00 0.  1.
<mgrwt>
<rscale>  0 0.80140332E+02</rscale>
<asrwt>0</asrwt>
<pdfrwt beam="1">  1        1 0.14697471E-02 0.80140332E+02</pdfrwt>
<pdfrwt beam="2">  1       -2 0.25856692E-01 0.80140332E+02</pdfrwt>
<totfact> 0.90491871E+04</totfact>
</mgrwt>
</event>
<event>
 8    1  0.8247621E-014  0.7858936E+02  0.7818608E-02  0.1333103E+00
         -2   -1    0    0    0  501 -0.00000000000E+00  0.00000000000E+00  0.13214743794E+03  0.13214743796E+03  0.25500000000E-02 0.  1.
          1   -1    0    0  501    0  0.00000000000E+00 -0.00000000000E+00 -0.11684463375E+02  0.11684464462E+02  0.50400000000E-02 0. -1.
        -24    2    1    2    0    0  0.88817841970E-15  0.71054273576E-14  0.12046297456E+03  0.14383190242E+03  0.78589362603E+02 0.  0.
         66    2    3    3    0    0 -0.42254999590E+01 -0.35412454298E+02  0.90352631257E+02  0.97157062228E+02  0.19999990746E+01 0.  0.
         13    1    3    3    0    0  0.42254999590E+01  0.35412454298E+02  0.30110343305E+02  0.46674840195E+02  0.10566000000E+00 0. -1.
         13    1    4    4    0    0 -0.92545656886E+00 -0.50932603645E+01  0.14652627320E+02  0.15540541253E+02  0.10566000000E+00 0.  1.
        -13    1    4    4    0    0 -0.19684742034E+01 -0.14887697435E+02  0.37729580508E+02  0.40608506928E+02  0.10566000000E+00 0.  1.
        -14    1    4    4    0    0 -0.13315691868E+01 -0.15431496498E+02  0.37970423429E+02  0.41008014047E+02  0.00000000000E+00 0.  1.
<mgrwt>
<rscale>  0 0.78589363E+02</rscale>
<asrwt>0</asrwt>
<pdfrwt beam="1">  1        1 0.17976098E-02 0.78589363E+02</pdfrwt>
<pdfrwt beam="2">  1       -2 0.20330375E-01 0.78589363E+02</pdfrwt>
<totfact> 0.10294949E+05</totfact>
</mgrwt>
</event>
<event>
 8    1  0.8247621E-014  0.7568515E+02  0.7818608E-02  0.1341762E+00
         -2   -1    0    0    0  501 -0.00000000000E+00  0.00000000000E+00  0.29289376037E+02  0.29289376148E+02  0.25500000000E-02 0.  1.
          1   -1    0    0  501    0  0.00000000000E+00 -0.00000000000E+00 -0.48893511383E+02  0.48893511643E+02  0.50400000000E-02 0. -1.
        -24    2    1    2    0    0  0.71054273576E-14  0.00000000000E+00 -0.19604135346E+02  0.78182887790E+02  0.75685149273E+02 0.  0.
         66    2    3    3    0    0  0.37068049029E+02  0.44967026327E+01 -0.15989229062E+02  0.40668366537E+02  0.19999993366E+01 0.  0.
         13    1    3    3    0    0 -0.37068049029E+02 -0.44967026327E+01 -0.36149062838E+01  0.37514521253E+02  0.10566000000E+00 0. -1.
         13    1    4    4    0    0  0.35098145022E+01  0.39967472068E+00 -0.10924580296E+01  0.36990764123E+01  0.10566000000E+00 0. -1.
        -13    1    4    4    0    0  0.13986084514E+02  0.10682317388E+01 -0.59433246727E+01  0.15234367439E+02  0.10566000000E+00 0.  1.
        -14    1    4    4    0    0  0.19572150013E+02  0.30287961732E+01 -0.89534463601E+01  0.21734922685E+02  0.00000000000E+00 0.  1.
<mgrwt>
<rscale>  0 0.75685149E+02</rscale>
<asrwt>0</asrwt>
<pdfrwt beam="1">  1        1 0.75220787E-02 0.75685149E+02</pdfrwt>
<pdfrwt beam="2">  1       -2 0.45060579E-02 0.75685149E+02</pdfrwt>
<totfact> 0.15288775E+05</totfact>
</mgrwt>
</event>
<event>
 8    1  0.8247621E-014  0.7735098E+02  0.7818608E-02  0.1336742E+00
          1   -1    0    0  501    0  0.00000000000E+00  0.00000000000E+00  0.87377251988E+01  0.87377266523E+01  0.50400000000E-02 0. -1.
         -2   -1    0    0    0  501 -0.00000000000E+00 -0.00000000000E+00 -0.17118796003E+03  0.17118796005E+03  0.25500000000E-02 0.  1.
        -24    2    1    2    0    0  0.00000000000E+00  0.00000000000E+00 -0.16245023483E+03  0.17992568670E+03  0.77350978910E+02 0.  0.
         66    2    3    3    0    0 -0.18231312024E+02 -0.18744254002E+02 -0.14748356168E+03  0.14979695846E+03  0.20000004654E+01 0.  0.
         13    1    3    3    0    0  0.18231312024E+02  0.18744254002E+02 -0.14966673152E+02  0.30128728242E+02  0.10566000000E+00 0. -1.
         13    1    4    4    0    0 -0.27150401519E+01 -0.28592677285E+01 -0.25495621409E+02  0.25798928854E+02  0.10566000000E+00 0. -1.
        -13    1    4    4    0    0 -0.32456623622E+01 -0.26973392588E+01 -0.22614301676E+02  0.23004950936E+02  0.10566000000E+00 0.  1.
         14    1    4    4    0    0 -0.12270609510E+02 -0.13187647015E+02 -0.99373638597E+02  0.10099307867E+03  0.00000000000E+00 0. -1.
<mgrwt>
<rscale>  0 0.77350979E+02</rscale>
<asrwt>0</asrwt>
<pdfrwt beam="1">  1        1 0.13442657E-02 0.77350979E+02</pdfrwt>
<pdfrwt beam="2">  1       -2 0.26336607E-01 0.77350979E+02</pdfrwt>
<totfact> 0.98480312E+04</totfact>
</mgrwt>
</event>
<event>
 8    1  0.8247621E-014  0.8082430E+02  0.7818608E-02  0.1326728E+00
         -2   -1    0    0    0  501 -0.00000000000E+00  0.00000000000E+00  0.19893321758E+02  0.19893321921E+02  0.25500000000E-02 0.  1.
          1   -1    0    0  501    0  0.00000000000E+00 -0.00000000000E+00 -0.82094971180E+02  0.82094971335E+02  0.50400000000E-02 0. -1.
        -24    2    1    2    0    0  0.00000000000E+00  0.71054273576E-14 -0.62201649422E+02  0.10198829326E+03  0.80824295669E+02 0.  0.
         66    2    3    3    0    0  0.54560032090E+01  0.34598703487E+02 -0.57475381252E+01  0.35550983705E+02  0.19999984787E+01 0.  0.
         13    1    3    3    0    0 -0.54560032090E+01 -0.34598703487E+02 -0.56454111297E+02  0.66437309551E+02  0.10566000000E+00 0. -1.
         13    1    4    4    0    0  0.17999544826E+00  0.18087624611E+01 -0.70033930304E+00  0.19508098772E+01  0.10566000000E+00 0. -1.
        -13    1    4    4    0    0  0.13281016277E+01  0.10102130215E+02 -0.14558722265E+01  0.10293085873E+02  0.10566000000E+00 0.  1.
         14    1    4    4    0    0  0.39479061331E+01  0.22687810811E+02 -0.35913265957E+01  0.23307087955E+02  0.00000000000E+00 0. -1.
<mgrwt>
<rscale>  0 0.80824296E+02</rscale>
<asrwt>0</asrwt>
<pdfrwt beam="1">  1        1 0.12629995E-01 0.80824296E+02</pdfrwt>
<pdfrwt beam="2">  1       -2 0.30605111E-02 0.80824296E+02</pdfrwt>
<totfact> 0.13836952E+05</totfact>
</mgrwt>
</event>
<event>
 8    1  0.8247621E-014  0.8047928E+02  0.7818608E-02  0.1327697E+00
         -2   -1    0    0    0  501 -0.00000000000E+00  0.00000000000E+00  0.27179605705E+02  0.27179605825E+02  0.25500000000E-02 0.  1.
          1   -1    0    0  501    0  0.00000000000E+00 -0.00000000000E+00 -0.59575139170E+02  0.59575139383E+02  0.50400000000E-02 0. -1.
        -24    2    1    2    0    0 -0.88817841970E-15  0.17763568394E-14 -0.32395533465E+02  0.86754745208E+02  0.80479284463E+02 0.  0.
         66    2    3    3    0    0 -0.76875184129E+01 -0.14832418734E+02  0.23225048870E+02  0.28679286293E+02  0.19999956079E+01 0.  0.
         13    1    3    3    0    0  0.76875184129E+01  0.14832418734E+02 -0.55620582335E+02  0.58075458915E+02  0.10566000000E+00 0. -1.
         13    1    4    4    0    0 -0.20878731887E+01 -0.33908085417E+01  0.42884435360E+01  0.58530939694E+01  0.10566000000E+00 0. -1.
        -13    1    4    4    0    0 -0.51816730879E+01 -0.10354139332E+02  0.17299428033E+02  0.20816803588E+02  0.10566000000E+00 0.  1.
         14    1    4    4    0    0 -0.41797213621E+00 -0.10874708609E+01  0.16371773005E+01  0.20093887362E+01  0.00000000000E+00 0. -1.
<mgrwt>
<rscale>  0 0.80479284E+02</rscale>
<asrwt>0</asrwt>
<pdfrwt beam="1">  1        1 0.91654061E-02 0.80479284E+02</pdfrwt>
<pdfrwt beam="2">  1       -2 0.41814778E-02 0.80479284E+02</pdfrwt>
<totfact> 0.13302405E+05</totfact>
</mgrwt>
</event>
<event>
 8    1  0.8247621E-014  0.7934398E+02  0.7818608E-02  0.1330923E+00
         -2   -1    0    0    0  501 -0.00000000000E+00  0.00000000000E+00  0.42314432067E+03  0.42314432067E+03  0.25500000000E-02 0.  1.
          1   -1    0    0  501    0  0.00000000000E+00 -0.00000000000E+00 -0.37194548094E+01  0.37194582241E+01  0.50400000000E-02 0. -1.
        -24    2    1    2    0    0  0.00000000000E+00 -0.71054273576E-14  0.41942486586E+03  0.42686377890E+03  0.79343982986E+02 0.  0.
         66    2    3    3    0    0 -0.24289844731E+02 -0.31249178981E+02  0.22229398146E+03  0.22579885284E+03  0.20000014994E+01 0.  0.
         13    1    3    3    0    0  0.24289844731E+02  0.31249178981E+02  0.19713088440E+03  0.20106492606E+03  0.10566000000E+00 0. -1.
         13    1    4    4    0    0 -0.92323096673E+01 -0.12355379982E+02  0.82289115056E+02  0.83722162998E+02  0.10566000000E+00 0.  1.
        -13    1    4    4    0    0 -0.24073176750E+01 -0.27308310457E+01  0.22443134627E+02  0.22736711999E+02  0.10566000000E+00 0. -1.
        -14    1    4    4    0    0 -0.12650217388E+02 -0.16162967954E+02  0.11756173178E+03  0.11933997784E+03  0.00000000000E+00 0.  1.
<mgrwt>
<rscale>  0 0.79343983E+02</rscale>
<asrwt>0</asrwt>
<pdfrwt beam="1">  1        1 0.57222413E-03 0.79343983E+02</pdfrwt>
<pdfrwt beam="2">  1       -2 0.65099121E-01 0.79343983E+02</pdfrwt>
<totfact> 0.58113493E+04</totfact>
</mgrwt>
</event>
<event>
 8    1  0.8247621E-014  0.7974957E+02  0.7818608E-02  0.1329764E+00
          1   -1    0    0  501    0  0.00000000000E+00  0.00000000000E+00  0.57314267180E+01  0.57314289340E+01  0.50400000000E-02 0. -1.
         -2   -1    0    0    0  501 -0.00000000000E+00 -0.00000000000E+00 -0.27741754164E+03  0.27741754165E+03  0.25500000000E-02 0.  1.
        -24    2    1    2    0    0  0.00000000000E+00  0.00000000000E+00 -0.27168611492E+03  0.28314897058E+03  0.79749573681E+02 0.  0.
         66    2    3    3    0    0 -0.25602432978E+02 -0.20458077273E+02 -0.21642125395E+03  0.21889763969E+03  0.19999995655E+01 0.  0.
         13    1    3    3    0    0  0.25602432978E+02  0.20458077273E+02 -0.55264860965E+02  0.64251330894E+02  0.10566000000E+00 0. -1.
         13    1    4    4    0    0 -0.12116044803E+02 -0.87444665587E+01 -0.95223969632E+02  0.96389209944E+02  0.10566000000E+00 0. -1.
        -13    1    4    4    0    0 -0.67083622795E+01 -0.55434628004E+01 -0.57364447098E+02  0.58020884681E+02  0.10566000000E+00 0.  1.
         14    1    4    4    0    0 -0.67780258961E+01 -0.61701479135E+01 -0.63832837223E+02  0.64487545063E+02  0.00000000000E+00 0. -1.
<mgrwt>
<rscale>  0 0.79749574E+02</rscale>
<asrwt>0</asrwt>
<pdfrwt beam="1">  1        1 0.88175835E-03 0.79749574E+02</pdfrwt>
<pdfrwt beam="2">  1       -2 0.42679611E-01 0.79749574E+02</pdfrwt>
<totfact> 0.73835334E+04</totfact>
</mgrwt>
</event>
<event>
 8    1  0.8247621E-014  0.7772799E+02  0.7818608E-02  0.1335626E+00
          1   -1    0    0  501    0  0.00000000000E+00  0.00000000000E+00  0.49493768483E+02  0.49493768739E+02  0.50400000000E-02 0. -1.
         -2   -1    0    0    0  501 -0.00000000000E+00 -0.00000000000E+00 -0.30517173337E+02  0.30517173443E+02  0.25500000000E-02 0.  1.
        -24    2    1    2    0    0  0.00000000000E+00  0.00000000000E+00  0.18976595146E+02  0.80010942183E+02  0.77727985344E+02 0.  0.
         66    2    3    3    0    0 -0.29676812060E+01 -0.27961587278E+02 -0.18083123892E+02  0.33491146030E+02  0.19999994693E+01 0.  0.
         13    1    3    3    0    0  0.29676812060E+01  0.27961587278E+02  0.37059719038E+02  0.46519796152E+02  0.10566000000E+00 0. -1.
         13    1    4    4    0    0 -0.17436908650E+00 -0.40644592818E+00 -0.40910178788E+00  0.61166263521E+00  0.10566000000E+00 0. -1.
        -13    1    4    4    0    0 -0.25531641438E+00 -0.81687602769E+01 -0.52215001394E+01  0.96989204901E+01  0.10566000000E+00 0.  1.
         14    1    4    4    0    0 -0.25379957051E+01 -0.19386381073E+02 -0.12452521964E+02  0.23180562905E+02  0.00000000000E+00 0. -1.
<mgrwt>
<rscale>  0 0.77727985E+02</rscale>
<asrwt>0</asrwt>
<pdfrwt beam="1">  1        1 0.76144259E-02 0.77727985E+02</pdfrwt>
<pdfrwt beam="2">  1       -2 0.46949498E-02 0.77727985E+02</pdfrwt>
<totfact> 0.14229954E+05</totfact>
</mgrwt>
</event>
<event>
 8    1  0.8247621E-014  0.8089305E+02  0.7818608E-02  0.1326536E+00
         -2   -1    0    0    0  501 -0.00000000000E+00  0.00000000000E+00  0.52407629293E+02  0.52407629355E+02  0.25500000000E-02 0.  1.
          1   -1    0    0  501    0  0.00000000000E+00 -0.00000000000E+00 -0.31215330912E+02  0.31215331319E+02  0.50400000000E-02 0. -1.
        -24    2    1    2    0    0 -0.71054273576E-14 -0.17763568394E-14  0.21192298381E+02  0.83622960673E+02  0.80893053108E+02 0.  0.
         66    2    3    3    0    0  0.36029582826E+02  0.93330590749E+01  0.26904368376E+02  0.45968269890E+02  0.19999921519E+01 0.  0.
         13    1    3    3    0    0 -0.36029582826E+02 -0.93330590749E+01 -0.57120699954E+01  0.37654690784E+02  0.10566000000E+00 0. -1.
         13    1    4    4    0    0  0.12195947681E+02  0.24583146145E+01  0.83893822393E+01  0.15005910468E+02  0.10566000000E+00 0. -1.
        -13    1    4    4    0    0  0.13182308510E+02  0.35190679515E+01  0.10484738164E+02  0.17207498229E+02  0.10566000000E+00 0.  1.
         14    1    4    4    0    0  0.10651326635E+02  0.33556765089E+01  0.80302479723E+01  0.13754861192E+02  0.00000000000E+00 0. -1.
<mgrwt>
<rscale>  0 0.80893053E+02</rscale>
<asrwt>0</asrwt>
<pdfrwt beam="1">  1        1 0.48023587E-02 0.80893053E+02</pdfrwt>
<pdfrwt beam="2">  1       -2 0.80627122E-02 0.80893053E+02</pdfrwt>
<totfact> 0.11797735E+05</totfact>
</mgrwt>
</event>
<event>
 8    1  0.8247621E-014  0.7986072E+02  0.7818608E-02  0.1329447E+00
         -2   -1    0    0    0  501 -0.00000000000E+00  0.00000000000E+00  0.72894514459E+02  0.72894514504E+02  0.25500000000E-02 0.  1.
          1   -1    0    0  501    0  0.00000000000E+00 -0.00000000000E+00 -0.21873162912E+02  0.21873163493E+02  0.50400000000E-02 0. -1.
        -24    2    1    2    0    0  0.35527136788E-14  0.00000000000E+00  0.51021351547E+02  0.94767677997E+02  0.79860719251E+02 0.  0.
         66    2    3    3    0    0  0.29722334568E+02  0.24003968135E+02  0.39202672288E+02  0.54776428931E+02  0.19999983693E+01 0.  0.
         13    1    3    3    0    0 -0.29722334568E+02 -0.24003968135E+02  0.11818679259E+02  0.39991249066E+02  0.10566000000E+00 0. -1.
         13    1    4    4    0    0  0.67826010367E+01  0.51425451554E+01  0.79221126789E+01  0.11628434152E+02  0.10566000000E+00 0. -1.
        -13    1    4    4    0    0  0.12534738209E+02  0.10423279320E+02  0.16364735266E+02  0.23099353629E+02  0.10566000000E+00 0.  1.
        -14    1    4    4    0    0  0.10404995323E+02  0.84381436601E+01  0.14915824343E+02  0.20048641149E+02  0.00000000000E+00 0.  1.
<mgrwt>
<rscale>  0 0.79860719E+02</rscale>
<asrwt>0</asrwt>
<pdfrwt beam="1">  1        1 0.33651020E-02 0.79860719E+02</pdfrwt>
<pdfrwt beam="2">  1       -2 0.11214541E-01 0.79860719E+02</pdfrwt>
<totfact> 0.11447597E+05</totfact>
</mgrwt>
</event>
<event>
 8    1  0.8247621E-014  0.8167840E+02  0.7818608E-02  0.1324355E+00
          1   -1    0    0  501    0  0.00000000000E+00  0.00000000000E+00  0.27046677846E+02  0.27046678316E+02  0.50400000000E-02 0. -1.
         -2   -1    0    0    0  501 -0.00000000000E+00 -0.00000000000E+00 -0.61665258733E+02  0.61665258785E+02  0.25500000000E-02 0.  1.
        -24    2    1    2    0    0 -0.35527136788E-14 -0.44408920985E-15 -0.34618580887E+02  0.88711937101E+02  0.81678403765E+02 0.  0.
         66    2    3    3    0    0  0.16431213413E+02  0.32510950247E+01 -0.57744056707E+02  0.60157547087E+02  0.19999983530E+01 0.  0.
         13    1    3    3    0    0 -0.16431213413E+02 -0.32510950247E+01  0.23125475821E+02  0.28554390014E+02  0.10566000000E+00 0. -1.
         13    1    4    4    0    0  0.21828422574E+01  0.16744207911E+00 -0.94108398544E+01  0.96627070727E+01  0.10566000000E+00 0. -1.
        -13    1    4    4    0    0  0.93745094771E+01  0.19979257560E+01 -0.33446968896E+02  0.34793448056E+02  0.10566000000E+00 0.  1.
         14    1    4    4    0    0  0.48738616786E+01  0.10857271896E+01 -0.14886247957E+02  0.15701391958E+02  0.00000000000E+00 0. -1.
<mgrwt>
<rscale>  0 0.81678404E+02</rscale>
<asrwt>0</asrwt>
<pdfrwt beam="1">  1        1 0.41610274E-02 0.81678404E+02</pdfrwt>
<pdfrwt beam="2">  1       -2 0.94869629E-02 0.81678404E+02</pdfrwt>
<totfact> 0.11175151E+05</totfact>
</mgrwt>
</event>
<event>
 8    1  0.8247621E-014  0.7687739E+02  0.7818608E-02  0.1338154E+00
          1   -1    0    0  501    0  0.00000000000E+00  0.00000000000E+00  0.35599235290E+02  0.35599235647E+02  0.50400000000E-02 0. -1.
         -2   -1    0    0    0  501 -0.00000000000E+00 -0.00000000000E+00 -0.41504639901E+02  0.41504639980E+02  0.25500000000E-02 0.  1.
        -24    2    1    2    0    0 -0.44408920985E-15  0.00000000000E+00 -0.59054046110E+01  0.77103875627E+02  0.76877394812E+02 0.  0.
         66    2    3    3    0    0 -0.28516691485E+01  0.20652428904E+02 -0.35312315179E+02  0.41056235069E+02  0.19999995560E+01 0.  0.
         13    1    3    3    0    0  0.28516691485E+01 -0.20652428904E+02  0.29406910568E+02  0.36047640557E+02  0.10566000000E+00 0. -1.
         13    1    4    4    0    0 -0.15263933175E+00  0.41568602314E+00 -0.93725279033E+00  0.10419695120E+01  0.10566000000E+00 0.  1.
        -13    1    4    4    0    0  0.62783237288E-02  0.45492903943E+01 -0.70814989520E+01  0.84175337214E+01  0.10566000000E+00 0. -1.
        -14    1    4    4    0    0 -0.27053081405E+01  0.15687452486E+02 -0.27293563437E+02  0.31596731836E+02  0.00000000000E+00 0.  1.
<mgrwt>
<rscale>  0 0.76877395E+02</rscale>
<asrwt>0</asrwt>
<pdfrwt beam="1">  1        1 0.54768055E-02 0.76877395E+02</pdfrwt>
<pdfrwt beam="2">  1       -2 0.63853292E-02 0.76877395E+02</pdfrwt>
<totfact> 0.13940368E+05</totfact>
</mgrwt>
</event>
<event>
 8    1  0.8247621E-014  0.8123593E+02  0.7818608E-02  0.1325580E+00
         -2   -1    0    0    0  501 -0.00000000000E+00  0.00000000000E+00  0.30448243080E+03  0.30448243082E+03  0.25500000000E-02 0.  1.
          1   -1    0    0  501    0  0.00000000000E+00 -0.00000000000E+00 -0.54184364701E+01  0.54184388141E+01  0.50400000000E-02 0. -1.
        -24    2    1    2    0    0  0.71054273576E-14 -0.35527136788E-14  0.29906399433E+03  0.30990086963E+03  0.81235929795E+02 0.  0.
         66    2    3    3    0    0 -0.35096920047E+02 -0.20390888368E+02  0.14778503995E+03  0.15327100233E+03  0.19999995570E+01 0.  0.
         13    1    3    3    0    0  0.35096920047E+02  0.20390888368E+02  0.15127895438E+03  0.15662986729E+03  0.10566000000E+00 0. -1.
         13    1    4    4    0    0 -0.54259388393E+01 -0.36594203910E+01  0.22409540348E+02  0.23345895410E+02  0.10566000000E+00 0. -1.
        -13    1    4    4    0    0 -0.29312789682E+02 -0.16512086259E+02  0.12422865188E+03  0.12870375963E+03  0.10566000000E+00 0.  1.
         14    1    4    4    0    0 -0.35819152551E+00 -0.21938171879E+00  0.11468477222E+01  0.12213472911E+01  0.00000000000E+00 0. -1.
<mgrwt>
<rscale>  0 0.81235930E+02</rscale>
<asrwt>0</asrwt>
<pdfrwt beam="1">  1        1 0.83360589E-03 0.81235930E+02</pdfrwt>
<pdfrwt beam="2">  1       -2 0.46843446E-01 0.81235930E+02</pdfrwt>
<totfact> 0.66993785E+04</totfact>
</mgrwt>
</event>
<event>
 8    1  0.8247621E-014  0.7903527E+02  0.7818608E-02  0.1331812E+00
         -2   -1    0    0    0  501 -0.00000000000E+00  0.00000000000E+00  0.18304289370E+02  0.18304289548E+02  0.25500000000E-02 0.  1.
          1   -1    0    0  501    0  0.00000000000E+00 -0.00000000000E+00 -0.85315713359E+02  0.85315713508E+02  0.50400000000E-02 0. -1.
        -24    2    1    2    0    0 -0.71054273576E-14  0.00000000000E+00 -0.67011423989E+02  0.10362000306E+03  0.79035271166E+02 0.  0.
         66    2    3    3    0    0 -0.37319145556E+02  0.34866558789E+01 -0.17217013017E+02  0.41295289480E+02  0.20000004227E+01 0.  0.
         13    1    3    3    0    0  0.37319145556E+02 -0.34866558789E+01 -0.49794410972E+02  0.62324713576E+02  0.10566000000E+00 0. -1.
         13    1    4    4    0    0 -0.32789564938E+01  0.16193521247E+00 -0.17674724122E+01  0.37300001963E+01  0.10566000000E+00 0. -1.
        -13    1    4    4    0    0 -0.10356245009E+02  0.26638558647E+00 -0.45869638224E+01  0.11330232703E+02  0.10566000000E+00 0.  1.
        -14    1    4    4    0    0 -0.23683944054E+02  0.30583350800E+01 -0.10862576783E+02  0.26235056580E+02  0.00000000000E+00 0.  1.
<mgrwt>
<rscale>  0 0.79035271E+02</rscale>
<asrwt>0</asrwt>
<pdfrwt beam="1">  1        1 0.13125494E-01 0.79035271E+02</pdfrwt>
<pdfrwt beam="2">  1       -2 0.28160446E-02 0.79035271E+02</pdfrwt>
<totfact> 0.14797294E+05</totfact>
</mgrwt>
</event>
<event>
 8    1  0.8247621E-014  0.8537184E+02  0.7818608E-02  0.1314463E+00
         -2   -1    0    0    0  501 -0.00000000000E+00  0.00000000000E+00  0.93852933721E+01  0.93852937185E+01  0.25500000000E-02 0.  1.
          1   -1    0    0  501    0  0.00000000000E+00 -0.00000000000E+00 -0.19414286347E+03  0.19414286353E+03  0.50400000000E-02 0. -1.
        -24    2    1    2    0    0  0.71054273576E-14  0.35527136788E-14 -0.18475757010E+03  0.20352815725E+03  0.85371840127E+02 0.  0.
         66    2    3    3    0    0 -0.35515130067E+02 -0.23512956524E+02 -0.98219686948E+02  0.10707609677E+03  0.20000015856E+01 0.  0.
         13    1    3    3    0    0  0.35515130067E+02  0.23512956524E+02 -0.86537883147E+02  0.96452060485E+02  0.10566000000E+00 0. -1.
         13    1    4    4    0    0 -0.10077505580E+02 -0.76089513137E+01 -0.28201674283E+02  0.30899803482E+02  0.10566000000E+00 0.  1.
        -13    1    4    4    0    0 -0.63209178877E+01 -0.37833656836E+01 -0.16787860112E+02  0.18333337667E+02  0.10566000000E+00 0. -1.
        -14    1    4    4    0    0 -0.19116706599E+02 -0.12120639526E+02 -0.53230152553E+02  0.57842955618E+02  0.00000000000E+00 0.  1.
<mgrwt>
<rscale>  0 0.85371840E+02</rscale>
<asrwt>0</asrwt>
<pdfrwt beam="1">  1        1 0.29868130E-01 0.85371840E+02</pdfrwt>
<pdfrwt beam="2">  1       -2 0.14438915E-02 0.85371840E+02</pdfrwt>
<totfact> 0.13940500E+05</totfact>
</mgrwt>
</event>
<event>
 8    1  0.8247621E-014  0.7974512E+02  0.7818608E-02  0.1329776E+00
         -2   -1    0    0    0  501 -0.00000000000E+00  0.00000000000E+00  0.19558197266E+02  0.19558197432E+02  0.25500000000E-02 0.  1.
          1   -1    0    0  501    0  0.00000000000E+00 -0.00000000000E+00 -0.81286678115E+02  0.81286678271E+02  0.50400000000E-02 0. -1.
        -24    2    1    2    0    0  0.35527136788E-14  0.00000000000E+00 -0.61728480849E+02  0.10084487570E+03  0.79745116512E+02 0.  0.
         66    2    3    3    0    0  0.20122134792E+02 -0.31297338338E+02 -0.12848567112E+02  0.39414583284E+02  0.20000007659E+01 0.  0.
         13    1    3    3    0    0 -0.20122134792E+02  0.31297338338E+02 -0.48879913738E+02  0.61430292419E+02  0.10566000000E+00 0. -1.
         13    1    4    4    0    0  0.51249495751E+01 -0.85377395865E+01 -0.27784539133E+01  0.10338717308E+02  0.10566000000E+00 0. -1.
        -13    1    4    4    0    0  0.79931172919E+01 -0.11549062341E+02 -0.56180776246E+01  0.15127614658E+02  0.10566000000E+00 0.  1.
        -14    1    4    4    0    0  0.70040679246E+01 -0.11210536410E+02 -0.44520355738E+01  0.13948251319E+02  0.00000000000E+00 0.  1.
<mgrwt>
<rscale>  0 0.79745117E+02</rscale>
<asrwt>0</asrwt>
<pdfrwt beam="1">  1        1 0.12505643E-01 0.79745117E+02</pdfrwt>
<pdfrwt beam="2">  1       -2 0.30089535E-02 0.79745117E+02</pdfrwt>
<totfact> 0.14329835E+05</totfact>
</mgrwt>
</event>
<event>
 8    1  0.8247621E-014  0.8308368E+02  0.7818608E-02  0.1320521E+00
         -2   -1    0    0    0  501 -0.00000000000E+00  0.00000000000E+00  0.54192867381E+02  0.54192867441E+02  0.25500000000E-02 0.  1.
          1   -1    0    0  501    0  0.00000000000E+00 -0.00000000000E+00 -0.31844121517E+02  0.31844121916E+02  0.50400000000E-02 0. -1.
        -24    2    1    2    0    0  0.71054273576E-14  0.35527136788E-14  0.22348745864E+02  0.86036989358E+02  0.83083675268E+02 0.  0.
         66    2    3    3    0    0 -0.27731440252E+02 -0.16356541890E+02  0.38326170445E+02  0.50094556199E+02  0.19999946955E+01 0.  0.
         13    1    3    3    0    0  0.27731440252E+02  0.16356541890E+02 -0.15977424581E+02  0.35942433158E+02  0.10566000000E+00 0. -1.
         13    1    4    4    0    0 -0.94682197729E+01 -0.50890795594E+01  0.13608129302E+02  0.17341806814E+02  0.10566000000E+00 0. -1.
        -13    1    4    4    0    0 -0.16900839872E+02 -0.10127190941E+02  0.22926198411E+02  0.30229457857E+02  0.10566000000E+00 0.  1.
         14    1    4    4    0    0 -0.13623806071E+01 -0.11402713893E+01  0.17918427325E+01  0.25232915285E+01  0.00000000000E+00 0. -1.
<mgrwt>
<rscale>  0 0.83083675E+02</rscale>
<asrwt>0</asrwt>
<pdfrwt beam="1">  1        1 0.48990957E-02 0.83083675E+02</pdfrwt>
<pdfrwt beam="2">  1       -2 0.83373642E-02 0.83083675E+02</pdfrwt>
<totfact> 0.10963427E+05</totfact>
</mgrwt>
</event>
<event>
 8    1  0.8247621E-014  0.9005820E+02  0.7818608E-02  0.1302711E+00
         -2   -1    0    0    0  501 -0.00000000000E+00  0.00000000000E+00  0.26830429247E+02  0.26830429368E+02  0.25500000000E-02 0.  1.
          1   -1    0    0  501    0  0.00000000000E+00 -0.00000000000E+00 -0.75571643262E+02  0.75571643430E+02  0.50400000000E-02 0. -1.
        -24    2    1    2    0    0  0.00000000000E+00  0.00000000000E+00 -0.48741214016E+02  0.10240207280E+03  0.90058195461E+02 0.  0.
         66    2    3    3    0    0 -0.11284203585E+02 -0.15833706773E+02  0.21771275477E+02  0.29257955747E+02  0.20000044677E+01 0.  0.
         13    1    3    3    0    0  0.11284203585E+02  0.15833706773E+02 -0.70512489493E+02  0.73144117051E+02  0.10566000000E+00 0. -1.
         13    1    4    4    0    0 -0.30235976267E+01 -0.31421612554E+01  0.47587378569E+01  0.64553907697E+01  0.10566000000E+00 0. -1.
        -13    1    4    4    0    0 -0.55352391269E+01 -0.75773163105E+01  0.10764938172E+02  0.14281094235E+02  0.10566000000E+00 0.  1.
         14    1    4    4    0    0 -0.27253668309E+01 -0.51142292073E+01  0.62475994477E+01  0.85214707420E+01  0.00000000000E+00 0. -1.
<mgrwt>
<rscale>  0 0.90058195E+02</rscale>
<asrwt>0</asrwt>
<pdfrwt beam="1">  1        1 0.11626407E-01 0.90058195E+02</pdfrwt>
<pdfrwt beam="2">  1       -2 0.41277584E-02 0.90058195E+02</pdfrwt>
<totfact> 0.10133080E+05</totfact>
</mgrwt>
</event>
<event>
 8    1  0.8247621E-014  0.7509150E+02  0.7818608E-02  0.1343588E+00
          1   -1    0    0  501    0  0.00000000000E+00  0.00000000000E+00  0.60337421265E+02  0.60337421475E+02  0.50400000000E-02 0. -1.
         -2   -1    0    0    0  501 -0.00000000000E+00 -0.00000000000E+00 -0.23363332018E+02  0.23363332157E+02  0.25500000000E-02 0.  1.
        -24    2    1    2    0    0 -0.44408920985E-15  0.00000000000E+00  0.36974089247E+02  0.83700753633E+02  0.75091496743E+02 0.  0.
         66    2    3    3    0    0  0.32149988033E+01  0.36269433684E+02  0.84145203363E+01  0.37424753617E+02  0.19999984384E+01 0.  0.
         13    1    3    3    0    0 -0.32149988033E+01 -0.36269433684E+02  0.28559568910E+02  0.46276000015E+02  0.10566000000E+00 0. -1.
         13    1    4    4    0    0  0.11873172515E+01  0.21617814075E+02  0.44746241866E+01  0.22108211897E+02  0.10566000000E+00 0. -1.
        -13    1    4    4    0    0  0.14389992556E+01  0.11540755471E+02  0.29419582308E+01  0.11996917853E+02  0.10566000000E+00 0.  1.
         14    1    4    4    0    0  0.58868229622E+00  0.31108641384E+01  0.99793791883E+00  0.33196238677E+01  0.00000000000E+00 0. -1.
<mgrwt>
<rscale>  0 0.75091497E+02</rscale>
<asrwt>0</asrwt>
<pdfrwt beam="1">  1        1 0.92826801E-02 0.75091497E+02</pdfrwt>
<pdfrwt beam="2">  1       -2 0.35943588E-02 0.75091497E+02</pdfrwt>
<totfact> 0.16119210E+05</totfact>
</mgrwt>
</event>
<event>
 8    1  0.8247621E-014  0.7935441E+02  0.7818608E-02  0.1330894E+00
         -2   -1    0    0    0  501 -0.00000000000E+00  0.00000000000E+00  0.25853457414E+02  0.25853457540E+02  0.25500000000E-02 0.  1.
          1   -1    0    0  501    0  0.00000000000E+00 -0.00000000000E+00 -0.60892459878E+02  0.60892460087E+02  0.50400000000E-02 0. -1.
        -24    2    1    2    0    0 -0.35527136788E-14  0.88817841970E-15 -0.35039002464E+02  0.86745917626E+02  0.79354410911E+02 0.  0.
         66    2    3    3    0    0 -0.20433204863E+02  0.71990605041E+01  0.18773244825E+02  0.28736336905E+02  0.20000010930E+01 0.  0.
         13    1    3    3    0    0  0.20433204863E+02 -0.71990605041E+01 -0.53812247289E+02  0.58009580721E+02  0.10566000000E+00 0. -1.
         13    1    4    4    0    0 -0.66651967396E+01  0.24761572267E+01  0.58306007812E+01  0.91958290379E+01  0.10566000000E+00 0. -1.
        -13    1    4    4    0    0 -0.93078331641E+01  0.27079889161E+01  0.93565485796E+01  0.13473126123E+02  0.10566000000E+00 0.  1.
        -14    1    4    4    0    0 -0.44601749588E+01  0.20149143613E+01  0.35860954641E+01  0.60673817437E+01  0.00000000000E+00 0.  1.
<mgrwt>
<rscale>  0 0.79354411E+02</rscale>
<asrwt>0</asrwt>
<pdfrwt beam="1">  1        1 0.93680707E-02 0.79354411E+02</pdfrwt>
<pdfrwt beam="2">  1       -2 0.39774550E-02 0.79354411E+02</pdfrwt>
<totfact> 0.13875868E+05</totfact>
</mgrwt>
</event>
<event>
 8    1  0.8247621E-014  0.8007363E+02  0.7818608E-02  0.1328843E+00
          1   -1    0    0  501    0  0.00000000000E+00  0.00000000000E+00  0.15071954482E+02  0.15071955325E+02  0.50400000000E-02 0. -1.
         -2   -1    0    0    0  501 -0.00000000000E+00 -0.00000000000E+00 -0.10635292962E+03  0.10635292965E+03  0.25500000000E-02 0.  1.
        -24    2    1    2    0    0  0.88817841970E-15  0.00000000000E+00 -0.91280975134E+02  0.12142488497E+03  0.80073630298E+02 0.  0.
         66    2    3    3    0    0  0.53510895866E+01 -0.32518101248E+02 -0.80077830901E+02  0.86617088816E+02  0.20000011382E+01 0.  0.
         13    1    3    3    0    0 -0.53510895866E+01  0.32518101248E+02 -0.11203144232E+02  0.34807796156E+02  0.10566000000E+00 0. -1.
         13    1    4    4    0    0  0.24080923641E+01 -0.18989147012E+02 -0.46439971891E+02  0.50230157937E+02  0.10566000000E+00 0. -1.
        -13    1    4    4    0    0  0.21968441444E+01 -0.90024790429E+01 -0.21570336007E+02  0.23476825011E+02  0.10566000000E+00 0.  1.
         14    1    4    4    0    0  0.74615307810E+00 -0.45264751930E+01 -0.12067523003E+02  0.12910105868E+02  0.00000000000E+00 0. -1.
<mgrwt>
<rscale>  0 0.80073630E+02</rscale>
<asrwt>0</asrwt>
<pdfrwt beam="1">  1        1 0.23187624E-02 0.80073630E+02</pdfrwt>
<pdfrwt beam="2">  1       -2 0.16361989E-01 0.80073630E+02</pdfrwt>
<totfact> 0.10423885E+05</totfact>
</mgrwt>
</event>
<event>
 8    1  0.8247621E-014  0.8015171E+02  0.7818608E-02  0.1328621E+00
         -2   -1    0    0    0  501 -0.00000000000E+00  0.00000000000E+00  0.37066259160E+03  0.37066259161E+03  0.25500000000E-02 0.  1.
          1   -1    0    0  501    0  0.00000000000E+00 -0.00000000000E+00 -0.43329798665E+01  0.43329827977E+01  0.50400000000E-02 0. -1.
        -24    2    1    2    0    0  0.00000000000E+00  0.00000000000E+00  0.36632961174E+03  0.37499557441E+03  0.80151708601E+02 0.  0.
         66    2    3    3    0    0 -0.42551911907E+00 -0.13713983910E+02  0.35932064387E+03  0.35958806923E+03  0.20000008314E+01 0.  0.
         13    1    3    3    0    0  0.42551911907E+00  0.13713983910E+02  0.70089678704E+01  0.15407505179E+02  0.10566000000E+00 0. -1.
         13    1    4    4    0    0 -0.71556900959E+00 -0.51718411210E+01  0.12385449052E+03  0.12396453511E+03  0.10566000000E+00 0. -1.
        -13    1    4    4    0    0  0.37790557239E+00 -0.45139298591E+01  0.13725565170E+03  0.13733041711E+03  0.10566000000E+00 0.  1.
        -14    1    4    4    0    0 -0.87855681871E-01 -0.40282129298E+01  0.98210501649E+02  0.98293117013E+02  0.00000000000E+00 0.  1.
<mgrwt>
<rscale>  0 0.80151709E+02</rscale>
<asrwt>0</asrwt>
<pdfrwt beam="1">  1        1 0.66661249E-03 0.80151709E+02</pdfrwt>
<pdfrwt beam="2">  1       -2 0.57025016E-01 0.80151709E+02</pdfrwt>
<totfact> 0.61770993E+04</totfact>
</mgrwt>
</event>
<event>
 8    1  0.8247621E-014  0.7976515E+02  0.7818608E-02  0.1329719E+00
          1   -1    0    0  501    0  0.00000000000E+00  0.00000000000E+00  0.22093256211E+03  0.22093256217E+03  0.50400000000E-02 0. -1.
         -2   -1    0    0    0  501 -0.00000000000E+00 -0.00000000000E+00 -0.71995715759E+01  0.71995720275E+01  0.25500000000E-02 0.  1.
        -24    2    1    2    0    0  0.33306690739E-15 -0.35527136788E-14  0.21373299053E+03  0.22813213419E+03  0.79765151599E+02 0.  0.
         66    2    3    3    0    0 -0.95520972885E+00  0.30205001571E+02  0.32607444031E+02  0.44502808363E+02  0.20000001110E+01 0.  0.
         13    1    3    3    0    0  0.95520972885E+00 -0.30205001571E+02  0.18112554650E+03  0.18362932583E+03  0.10566000000E+00 0. -1.
         13    1    4    4    0    0 -0.31356587963E+00  0.10622638475E+02  0.12302124464E+02  0.16257066220E+02  0.10566000000E+00 0. -1.
        -13    1    4    4    0    0  0.15208000374E+00  0.12537167663E+01  0.10059663723E+01  0.16180440153E+01  0.10566000000E+00 0.  1.
        -14    1    4    4    0    0 -0.79372385295E+00  0.18328646330E+02  0.19299353195E+02  0.26627698128E+02  0.00000000000E+00 0.  1.
<mgrwt>
<rscale>  0 0.79765152E+02</rscale>
<asrwt>0</asrwt>
<pdfrwt beam="1">  1        1 0.33989626E-01 0.79765152E+02</pdfrwt>
<pdfrwt beam="2">  1       -2 0.11076264E-02 0.79765152E+02</pdfrwt>
<totfact> 0.17133213E+05</totfact>
</mgrwt>
</event>
<event>
 8    1  0.8247621E-014  0.8028533E+02  0.7818608E-02  0.1328244E+00
          1   -1    0    0  501    0  0.00000000000E+00  0.00000000000E+00  0.92769161928E+01  0.92769175619E+01  0.50400000000E-02 0. -1.
         -2   -1    0    0    0  501 -0.00000000000E+00 -0.00000000000E+00 -0.17370354822E+03  0.17370354823E+03  0.25500000000E-02 0.  1.
        -24    2    1    2    0    0  0.00000000000E+00  0.00000000000E+00 -0.16442663202E+03  0.18298046580E+03  0.80285325836E+02 0.  0.
         66    2    3    3    0    0  0.20475192027E+02  0.20160662804E+02 -0.14606927616E+03  0.14888223283E+03  0.20000000603E+01 0.  0.
         13    1    3    3    0    0 -0.20475192027E+02 -0.20160662804E+02 -0.18357355859E+02  0.34098232966E+02  0.10566000000E+00 0. -1.
         13    1    4    4    0    0  0.62055033395E+00  0.48342562609E+00 -0.38329611917E+01  0.39142736984E+01  0.10566000000E+00 0. -1.
        -13    1    4    4    0    0  0.19600381077E+02  0.19323726229E+02 -0.13867786946E+03  0.14138296918E+03  0.10566000000E+00 0.  1.
        -14    1    4    4    0    0  0.25426061639E+00  0.35351094920E+00 -0.35584455151E+01  0.35849899492E+01  0.00000000000E+00 0.  1.
<mgrwt>
<rscale>  0 0.80285326E+02</rscale>
<asrwt>0</asrwt>
<pdfrwt beam="1">  1        1 0.14272181E-02 0.80285326E+02</pdfrwt>
<pdfrwt beam="2">  1       -2 0.26723620E-01 0.80285326E+02</pdfrwt>
<totfact> 0.89005916E+04</totfact>
</mgrwt>
</event>
<event>
 8    1  0.8247621E-014  0.7881123E+02  0.7818608E-02  0.1332459E+00
          1   -1    0    0  501    0  0.00000000000E+00  0.00000000000E+00  0.36573653966E+02  0.36573654313E+02  0.50400000000E-02 0. -1.
         -2   -1    0    0    0  501 -0.00000000000E+00 -0.00000000000E+00 -0.42456858171E+02  0.42456858247E+02  0.25500000000E-02 0.  1.
        -24    2    1    2    0    0  0.17763568394E-14 -0.71054273576E-14 -0.58832042046E+01  0.79030512560E+02  0.78811229047E+02 0.  0.
         66    2    3    3    0    0 -0.15325569143E+02 -0.33501629361E+02 -0.16894975748E+02  0.40579211984E+02  0.20000000747E+01 0.  0.
         13    1    3    3    0    0  0.15325569143E+02  0.33501629361E+02  0.11011771544E+02  0.38451300576E+02  0.10566000000E+00 0. -1.
         13    1    4    4    0    0 -0.19216467689E+01 -0.56011863736E+01 -0.23466279618E+01  0.63705448687E+01  0.10566000000E+00 0. -1.
        -13    1    4    4    0    0 -0.70137507725E+01 -0.13819393725E+02 -0.72749041330E+01  0.17120272691E+02  0.10566000000E+00 0.  1.
        -14    1    4    4    0    0 -0.63901716015E+01 -0.14081049263E+02 -0.72734436537E+01  0.17088394425E+02  0.00000000000E+00 0.  1.
<mgrwt>
<rscale>  0 0.78811229E+02</rscale>
<asrwt>0</asrwt>
<pdfrwt beam="1">  1        1 0.56267161E-02 0.78811229E+02</pdfrwt>
<pdfrwt beam="2">  1       -2 0.65318243E-02 0.78811229E+02</pdfrwt>
<totfact> 0.13053603E+05</totfact>
</mgrwt>
</event>
<event>
 8    1  0.8247621E-014  0.7966030E+02  0.7818608E-02  0.1330018E+00
          1   -1    0    0  501    0  0.00000000000E+00  0.00000000000E+00  0.81180854772E+02  0.81180854929E+02  0.50400000000E-02 0. -1.
         -2   -1    0    0    0  501 -0.00000000000E+00 -0.00000000000E+00 -0.19542058260E+02  0.19542058427E+02  0.25500000000E-02 0.  1.
        -24    2    1    2    0    0  0.00000000000E+00  0.00000000000E+00  0.61638796512E+02  0.10072291336E+03  0.79660304038E+02 0.  0.
         66    2    3    3    0    0 -0.62617885162E+01  0.37907585072E+02  0.17684029219E+02  0.42342884807E+02  0.20000007369E+01 0.  0.
         13    1    3    3    0    0  0.62617885162E+01 -0.37907585072E+02  0.43954767293E+02  0.58380028548E+02  0.10566000000E+00 0. -1.
         13    1    4    4    0    0 -0.10738018871E+00  0.29503309062E+01  0.12365671976E+01  0.32025373426E+01  0.10566000000E+00 0. -1.
        -13    1    4    4    0    0 -0.22818324456E+01  0.15393941967E+02  0.67167399448E+01  0.16950102304E+02  0.10566000000E+00 0.  1.
        -14    1    4    4    0    0 -0.38725758819E+01  0.19563312199E+02  0.97307220762E+01  0.22190245161E+02  0.00000000000E+00 0.  1.
<mgrwt>
<rscale>  0 0.79660304E+02</rscale>
<asrwt>0</asrwt>
<pdfrwt beam="1">  1        1 0.12489362E-01 0.79660304E+02</pdfrwt>
<pdfrwt beam="2">  1       -2 0.30064705E-02 0.79660304E+02</pdfrwt>
<totfact> 0.14368367E+05</totfact>
</mgrwt>
</event>
<event>
 8    1  0.8247621E-014  0.7754596E+02  0.7818608E-02  0.1336164E+00
         -2   -1    0    0    0  501 -0.00000000000E+00  0.00000000000E+00  0.16678413217E+03  0.16678413219E+03  0.25500000000E-02 0.  1.
          1   -1    0    0  501    0  0.00000000000E+00 -0.00000000000E+00 -0.90137096983E+01  0.90137111074E+01  0.50400000000E-02 0. -1.
        -24    2    1    2    0    0 -0.35527136788E-14 -0.35527136788E-14  0.15777042248E+03  0.17579784330E+03  0.77545957348E+02 0.  0.
         66    2    3    3    0    0  0.28476562844E+02  0.26230743971E+02  0.75445747985E+02  0.84823507609E+02  0.19999983184E+01 0.  0.
         13    1    3    3    0    0 -0.28476562844E+02 -0.26230743971E+02  0.82324674490E+02  0.90974335692E+02  0.10566000000E+00 0. -1.
         13    1    4    4    0    0  0.29141262116E+01  0.30067280777E+01  0.91509299945E+01  0.10063956931E+02  0.10566000000E+00 0. -1.
        -13    1    4    4    0    0  0.83646178881E+01  0.82756214627E+01  0.22797204142E+02  0.25654949303E+02  0.10566000000E+00 0.  1.
         14    1    4    4    0    0  0.17197818744E+02  0.14948394430E+02  0.43497613849E+02  0.49104601375E+02  0.00000000000E+00 0. -1.
<mgrwt>
<rscale>  0 0.77545957E+02</rscale>
<asrwt>0</asrwt>
<pdfrwt beam="1">  1        1 0.13867249E-02 0.77545957E+02</pdfrwt>
<pdfrwt beam="2">  1       -2 0.25659094E-01 0.77545957E+02</pdfrwt>
<totfact> 0.98760253E+04</totfact>
</mgrwt>
</event>
<event>
 8    1  0.8247621E-014  0.8221827E+02  0.7818608E-02  0.1322872E+00
          1   -1    0    0  501    0  0.00000000000E+00  0.00000000000E+00  0.44496946812E+02  0.44496947098E+02  0.50400000000E-02 0. -1.
         -2   -1    0    0    0  501 -0.00000000000E+00 -0.00000000000E+00 -0.37979260461E+02  0.37979260546E+02  0.25500000000E-02 0.  1.
        -24    2    1    2    0    0  0.17763568394E-14  0.00000000000E+00  0.65176863518E+01  0.82476207644E+02  0.82218274076E+02 0.  0.
         66    2    3    3    0    0  0.12844653651E+02 -0.21551788026E+01 -0.35827182134E+02  0.38173510500E+02  0.20000002955E+01 0.  0.
         13    1    3    3    0    0 -0.12844653651E+02  0.21551788026E+01  0.42344868486E+02  0.44302697144E+02  0.10566000000E+00 0. -1.
         13    1    4    4    0    0  0.68540101876E+01 -0.12794585119E+01 -0.19242920816E+02  0.20467428644E+02  0.10566000000E+00 0. -1.
        -13    1    4    4    0    0  0.32541324670E+01 -0.26520662226E+00 -0.10708180503E+02  0.11195356465E+02  0.10566000000E+00 0.  1.
         14    1    4    4    0    0  0.27365109965E+01 -0.61051366841E+00 -0.58760808144E+01  0.65107253905E+01  0.00000000000E+00 0. -1.
<mgrwt>
<rscale>  0 0.82218274E+02</rscale>
<asrwt>0</asrwt>
<pdfrwt beam="1">  1        1 0.68456842E-02 0.82218274E+02</pdfrwt>
<pdfrwt beam="2">  1       -2 0.58429632E-02 0.82218274E+02</pdfrwt>
<totfact> 0.11962402E+05</totfact>
</mgrwt>
</event>
<event>
 8    1  0.8247621E-014  0.7979960E+02  0.7818608E-02  0.1329621E+00
         -2   -1    0    0    0  501 -0.00000000000E+00  0.00000000000E+00  0.91917304203E+02  0.91917304239E+02  0.25500000000E-02 0.  1.
          1   -1    0    0  501    0  0.00000000000E+00 -0.00000000000E+00 -0.17319850393E+02  0.17319851126E+02  0.50400000000E-02 0. -1.
        -24    2    1    2    0    0  0.00000000000E+00  0.00000000000E+00  0.74597453810E+02  0.10923715536E+03  0.79799598979E+02 0.  0.
         66    2    3    3    0    0  0.96524424800E+01  0.19304553578E+02  0.83218900561E+02  0.85995469910E+02  0.19999999406E+01 0.  0.
         13    1    3    3    0    0 -0.96524424800E+01 -0.19304553578E+02 -0.86214467509E+01  0.23241685455E+02  0.10566000000E+00 0. -1.
         13    1    4    4    0    0  0.33086716947E+01  0.71525217678E+01  0.27655992154E+02  0.28757102463E+02  0.10566000000E+00 0. -1.
        -13    1    4    4    0    0  0.29062339513E+01  0.51797102802E+01  0.26066481279E+02  0.26734775194E+02  0.10566000000E+00 0.  1.
         14    1    4    4    0    0  0.34375368340E+01  0.69723215298E+01  0.29496427128E+02  0.30503592253E+02  0.00000000000E+00 0. -1.
<mgrwt>
<rscale>  0 0.79799599E+02</rscale>
<asrwt>0</asrwt>
<pdfrwt beam="1">  1        1 0.26645924E-02 0.79799599E+02</pdfrwt>
<pdfrwt beam="2">  1       -2 0.14141124E-01 0.79799599E+02</pdfrwt>
<totfact> 0.10900936E+05</totfact>
</mgrwt>
</event>
<event>
 8    1  0.8247621E-014  0.7916173E+02  0.7818608E-02  0.1331447E+00
          1   -1    0    0  501    0  0.00000000000E+00  0.00000000000E+00  0.30369653121E+03  0.30369653125E+03  0.50400000000E-02 0. -1.
         -2   -1    0    0    0  501 -0.00000000000E+00 -0.00000000000E+00 -0.51585867061E+01  0.51585873363E+01  0.25500000000E-02 0.  1.
        -24    2    1    2    0    0  0.00000000000E+00  0.27755575616E-16  0.29853794451E+03  0.30885511859E+03  0.79161732987E+02 0.  0.
         66    2    3    3    0    0 -0.38909258440E+02 -0.16391710667E+00  0.12158798365E+03  0.12767769982E+03  0.20000005493E+01 0.  0.
         13    1    3    3    0    0  0.38909258440E+02  0.16391710667E+00  0.17694996085E+03  0.18117741877E+03  0.10566000000E+00 0. -1.
         13    1    4    4    0    0 -0.81755598875E+01  0.40105139604E+00  0.24108384251E+02  0.25460282342E+02  0.10566000000E+00 0. -1.
        -13    1    4    4    0    0 -0.22705525751E+02 -0.84645583162E+00  0.71239060780E+02  0.74774810812E+02  0.10566000000E+00 0.  1.
        -14    1    4    4    0    0 -0.80281728012E+01  0.28148732891E+00  0.26240538622E+02  0.27442606670E+02  0.00000000000E+00 0.  1.
<mgrwt>
<rscale>  0 0.79161733E+02</rscale>
<asrwt>0</asrwt>
<pdfrwt beam="1">  1        1 0.46722561E-01 0.79161733E+02</pdfrwt>
<pdfrwt beam="2">  1       -2 0.79362847E-03 0.79161733E+02</pdfrwt>
<totfact> 0.18592493E+05</totfact>
</mgrwt>
</event>
<event>
 8    1  0.8247621E-014  0.8015502E+02  0.7818608E-02  0.1328612E+00
          1   -1    0    0  501    0  0.00000000000E+00  0.00000000000E+00  0.60698069183E+01  0.60698090108E+01  0.50400000000E-02 0. -1.
         -2   -1    0    0    0  501 -0.00000000000E+00 -0.00000000000E+00 -0.26462234088E+03  0.26462234089E+03  0.25500000000E-02 0.  1.
        -24    2    1    2    0    0  0.00000000000E+00  0.17763568394E-14 -0.25855253396E+03  0.27069214990E+03  0.80155019813E+02 0.  0.
         66    2    3    3    0    0  0.38771431836E+02 -0.92060895545E+01 -0.14295995488E+03  0.14842346415E+03  0.20000003447E+01 0.  0.
         13    1    3    3    0    0 -0.38771431836E+02  0.92060895545E+01 -0.11559257908E+03  0.12226868575E+03  0.10566000000E+00 0. -1.
         13    1    4    4    0    0  0.28157048947E+02 -0.67904984441E+01 -0.10365515349E+03  0.10762589039E+03  0.10566000000E+00 0. -1.
        -13    1    4    4    0    0  0.51112912162E+01 -0.13388032561E+01 -0.20876857954E+02  0.21535367517E+02  0.10566000000E+00 0.  1.
         14    1    4    4    0    0  0.55030916731E+01 -0.10767878543E+01 -0.18427943436E+02  0.19262206243E+02  0.00000000000E+00 0. -1.
<mgrwt>
<rscale>  0 0.80155020E+02</rscale>
<asrwt>0</asrwt>
<pdfrwt beam="1">  1        1 0.93381682E-03 0.80155020E+02</pdfrwt>
<pdfrwt beam="2">  1       -2 0.40711120E-01 0.80155020E+02</pdfrwt>
<totfact> 0.74635823E+04</totfact>
</mgrwt>
</event>
<event>
 8    1  0.8247621E-014  0.8135473E+02  0.7818608E-02  0.1325250E+00
         -2   -1    0    0    0  501 -0.00000000000E+00  0.00000000000E+00  0.27393148189E+02  0.27393148308E+02  0.25500000000E-02 0.  1.
          1   -1    0    0  501    0  0.00000000000E+00 -0.00000000000E+00 -0.60403716712E+02  0.60403716922E+02  0.50400000000E-02 0. -1.
        -24    2    1    2    0    0  0.00000000000E+00  0.00000000000E+00 -0.33010568522E+02  0.87796865229E+02  0.81354728873E+02 0.  0.
         66    2    3    3    0    0  0.27304275947E+02 -0.24885922260E+02  0.17931283846E+01  0.37041165115E+02  0.19999979859E+01 0.  0.
         13    1    3    3    0    0 -0.27304275947E+02  0.24885922260E+02 -0.34803696907E+02  0.50755700115E+02  0.10566000000E+00 0. -1.
         13    1    4    4    0    0  0.76538087552E+01 -0.63560439589E+01  0.79183514940E+00  0.99808942590E+01  0.10566000000E+00 0. -1.
        -13    1    4    4    0    0  0.79573502267E+01 -0.80831454435E+01  0.91471790181E+00  0.11380005965E+02  0.10566000000E+00 0.  1.
         14    1    4    4    0    0  0.11693116965E+02 -0.10446732857E+02  0.86575333405E-01  0.15680264891E+02  0.00000000000E+00 0. -1.
<mgrwt>
<rscale>  0 0.81354729E+02</rscale>
<asrwt>0</asrwt>
<pdfrwt beam="1">  1        1 0.92928795E-02 0.81354729E+02</pdfrwt>
<pdfrwt beam="2">  1       -2 0.42143305E-02 0.81354729E+02</pdfrwt>
<totfact> 0.12939061E+05</totfact>
</mgrwt>
</event>
<event>
 8    1  0.8247621E-014  0.8012026E+02  0.7818608E-02  0.1328711E+00
         -2   -1    0    0    0  501 -0.00000000000E+00  0.00000000000E+00  0.62210249582E+01  0.62210254809E+01  0.25500000000E-02 0.  1.
          1   -1    0    0  501    0  0.00000000000E+00 -0.00000000000E+00 -0.25796615552E+03  0.25796615556E+03  0.50400000000E-02 0. -1.
        -24    2    1    2    0    0 -0.22204460493E-15  0.00000000000E+00 -0.25174513056E+03  0.26418718105E+03  0.80120258796E+02 0.  0.
         66    2    3    3    0    0 -0.19372138613E+01 -0.33604734890E+02 -0.54482104665E+02  0.64072854840E+02  0.19999985102E+01 0.  0.
         13    1    3    3    0    0  0.19372138613E+01  0.33604734890E+02 -0.19726302589E+03  0.20011432621E+03  0.10566000000E+00 0. -1.
         13    1    4    4    0    0 -0.82860950792E+00 -0.20266815779E+02 -0.31293788050E+02  0.37292663489E+02  0.10566000000E+00 0. -1.
        -13    1    4    4    0    0 -0.10299548081E+01 -0.13158082199E+02 -0.22900917554E+02  0.26432160769E+02  0.10566000000E+00 0.  1.
        -14    1    4    4    0    0 -0.78649545254E-01 -0.17983691207E+00 -0.28739906090E+00  0.34803058216E+00  0.00000000000E+00 0.  1.
<mgrwt>
<rscale>  0 0.80120259E+02</rscale>
<asrwt>0</asrwt>
<pdfrwt beam="1">  1        1 0.39687093E-01 0.80120259E+02</pdfrwt>
<pdfrwt beam="2">  1       -2 0.95708100E-03 0.80120259E+02</pdfrwt>
<totfact> 0.17452595E+05</totfact>
</mgrwt>
</event>
<event>
 8    1  0.8247621E-014  0.8098757E+02  0.7818608E-02  0.1326272E+00
         -2   -1    0    0    0  501 -0.00000000000E+00  0.00000000000E+00  0.75714542918E+01  0.75714547212E+01  0.25500000000E-02 0.  1.
          1   -1    0    0  501    0  0.00000000000E+00 -0.00000000000E+00 -0.21656956949E+03  0.21656956954E+03  0.50400000000E-02 0. -1.
        -24    2    1    2    0    0  0.00000000000E+00  0.00000000000E+00 -0.20899811519E+03  0.22414102427E+03  0.80987570678E+02 0.  0.
         66    2    3    3    0    0 -0.38052182101E+02 -0.13357557441E+02 -0.95239141901E+02  0.10344509197E+03  0.19999999118E+01 0.  0.
         13    1    3    3    0    0  0.38052182101E+02  0.13357557441E+02 -0.11375897329E+03  0.12069593229E+03  0.10566000000E+00 0. -1.
         13    1    4    4    0    0 -0.14222826075E+02 -0.53822107769E+01 -0.35773191150E+02  0.38871446377E+02  0.10566000000E+00 0.  1.
        -13    1    4    4    0    0 -0.10518072331E+01 -0.23373017422E+00 -0.32783810169E+01  0.34525171075E+01  0.10566000000E+00 0. -1.
        -14    1    4    4    0    0 -0.22777548793E+02 -0.77416164902E+01 -0.56187569734E+02  0.61121128487E+02  0.00000000000E+00 0.  1.
<mgrwt>
<rscale>  0 0.80987571E+02</rscale>
<asrwt>0</asrwt>
<pdfrwt beam="1">  1        1 0.33318391E-01 0.80987571E+02</pdfrwt>
<pdfrwt beam="2">  1       -2 0.11648393E-02 0.80987571E+02</pdfrwt>
<totfact> 0.16391956E+05</totfact>
</mgrwt>
</event>
<event>
 8    1  0.8247621E-014  0.8166471E+02  0.7818608E-02  0.1324393E+00
         -2   -1    0    0    0  501 -0.00000000000E+00  0.00000000000E+00  0.43272942031E+02  0.43272942106E+02  0.25500000000E-02 0.  1.
          1   -1    0    0  501    0  0.00000000000E+00 -0.00000000000E+00 -0.38529418264E+02  0.38529418594E+02  0.50400000000E-02 0. -1.
        -24    2    1    2    0    0  0.35527136788E-14 -0.35527136788E-14  0.47435237666E+01  0.81802360700E+02  0.81664712075E+02 0.  0.
         66    2    3    3    0    0  0.31292393928E+02 -0.21115374933E+02  0.17897798454E+02  0.41825879077E+02  0.19999986907E+01 0.  0.
         13    1    3    3    0    0 -0.31292393928E+02  0.21115374933E+02 -0.13154274688E+02  0.39976481622E+02  0.10566000000E+00 0. -1.
         13    1    4    4    0    0  0.10908055011E+02 -0.80447759582E+01  0.60213061074E+01  0.14831432015E+02  0.10566000000E+00 0. -1.
        -13    1    4    4    0    0  0.32923861285E+01 -0.23230546213E+01  0.15700722365E+01  0.43258155366E+01  0.10566000000E+00 0.  1.
        -14    1    4    4    0    0  0.17091952788E+02 -0.10747544353E+02  0.10306420110E+02  0.22668631525E+02  0.00000000000E+00 0.  1.
<mgrwt>
<rscale>  0 0.81664712E+02</rscale>
<asrwt>0</asrwt>
<pdfrwt beam="1">  1        1 0.59276029E-02 0.81664712E+02</pdfrwt>
<pdfrwt beam="2">  1       -2 0.66573757E-02 0.81664712E+02</pdfrwt>
<totfact> 0.11905599E+05</totfact>
</mgrwt>
</event>
<event>
 8    1  0.8247621E-014  0.7905843E+02  0.7818608E-02  0.1331745E+00
          1   -1    0    0  501    0  0.00000000000E+00  0.00000000000E+00  0.22329966798E+02  0.22329967367E+02  0.50400000000E-02 0. -1.
         -2   -1    0    0    0  501 -0.00000000000E+00 -0.00000000000E+00 -0.69975870457E+02  0.69975870503E+02  0.25500000000E-02 0.  1.
        -24    2    1    2    0    0  0.00000000000E+00  0.00000000000E+00 -0.47645903659E+02  0.92305837870E+02  0.79058431362E+02 0.  0.
         66    2    3    3    0    0 -0.24248280882E+02  0.15272856571E+02 -0.55584639817E+02  0.62569093438E+02  0.19999991313E+01 0.  0.
         13    1    3    3    0    0  0.24248280882E+02 -0.15272856571E+02  0.79387361583E+01  0.29736744432E+02  0.10566000000E+00 0. -1.
         13    1    4    4    0    0 -0.63563665812E+00  0.72381407924E+00 -0.15806652317E+01  0.18540785832E+01  0.10566000000E+00 0. -1.
        -13    1    4    4    0    0 -0.11875978097E+02  0.70226440786E+01 -0.26188274240E+02  0.29600561774E+02  0.10566000000E+00 0.  1.
         14    1    4    4    0    0 -0.11736666127E+02  0.75263984127E+01 -0.27815700345E+02  0.31114453081E+02  0.00000000000E+00 0. -1.
<mgrwt>
<rscale>  0 0.79058431E+02</rscale>
<asrwt>0</asrwt>
<pdfrwt beam="1">  1        1 0.34353796E-02 0.79058431E+02</pdfrwt>
<pdfrwt beam="2">  1       -2 0.10765518E-01 0.79058431E+02</pdfrwt>
<totfact> 0.11842724E+05</totfact>
</mgrwt>
</event>
<event>
 8    1  0.8247621E-014  0.8071168E+02  0.7818608E-02  0.1327044E+00
          1   -1    0    0  501    0  0.00000000000E+00  0.00000000000E+00  0.14487176648E+02  0.14487177525E+02  0.50400000000E-02 0. -1.
         -2   -1    0    0    0  501 -0.00000000000E+00 -0.00000000000E+00 -0.11241623439E+03  0.11241623442E+03  0.25500000000E-02 0.  1.
        -24    2    1    2    0    0  0.17763568394E-14  0.88817841970E-15 -0.97929057743E+02  0.12690341194E+03  0.80711682010E+02 0.  0.
         66    2    3    3    0    0  0.10450452511E+02  0.51882352916E+01 -0.10969566414E+03  0.11033253589E+03  0.20000005817E+01 0.  0.
         13    1    3    3    0    0 -0.10450452511E+02 -0.51882352916E+01  0.11766606395E+02  0.16570876054E+02  0.10566000000E+00 0. -1.
         13    1    4    4    0    0  0.42616305880E+01  0.20194245975E+01 -0.41441386038E+02  0.41708982387E+02  0.10566000000E+00 0. -1.
        -13    1    4    4    0    0  0.29539292907E+01  0.14641892332E+01 -0.25342975540E+02  0.25556743173E+02  0.10566000000E+00 0.  1.
        -14    1    4    4    0    0  0.32348926321E+01  0.17046214610E+01 -0.42911302559E+02  0.43066810330E+02  0.00000000000E+00 0.  1.
<mgrwt>
<rscale>  0 0.80711682E+02</rscale>
<asrwt>0</asrwt>
<pdfrwt beam="1">  1        1 0.22287966E-02 0.80711682E+02</pdfrwt>
<pdfrwt beam="2">  1       -2 0.17294805E-01 0.80711682E+02</pdfrwt>
<totfact> 0.10065840E+05</totfact>
</mgrwt>
</event>
<event>
 8    1  0.8247621E-014  0.8589855E+02  0.7818608E-02  0.1313099E+00
         -2   -1    0    0    0  501 -0.00000000000E+00  0.00000000000E+00  0.35999813997E+03  0.35999813998E+03  0.25500000000E-02 0.  1.
          1   -1    0    0  501    0  0.00000000000E+00 -0.00000000000E+00 -0.51240262740E+01  0.51240287527E+01  0.50400000000E-02 0. -1.
        -24    2    1    2    0    0 -0.88817841970E-15  0.00000000000E+00  0.35487411370E+03  0.36512216873E+03  0.85898553700E+02 0.  0.
         66    2    3    3    0    0 -0.69438272034E+01 -0.34343995550E+02  0.28293710783E+03  0.28510547833E+03  0.20000043158E+01 0.  0.
         13    1    3    3    0    0  0.69438272034E+01  0.34343995550E+02  0.71937005865E+02  0.80016690405E+02  0.10566000000E+00 0. -1.
         13    1    4    4    0    0 -0.38392524113E+01 -0.14630055924E+02  0.11922388568E+03  0.12017955099E+03  0.10566000000E+00 0. -1.
        -13    1    4    4    0    0 -0.18569839079E+01 -0.12136215527E+02  0.10265080660E+03  0.10338247132E+03  0.10566000000E+00 0.  1.
         14    1    4    4    0    0 -0.12475908842E+01 -0.75777240995E+01  0.61062415556E+02  0.61543456021E+02  0.00000000000E+00 0. -1.
<mgrwt>
<rscale>  0 0.85898554E+02</rscale>
<asrwt>0</asrwt>
<pdfrwt beam="1">  1        1 0.78831169E-03 0.85898554E+02</pdfrwt>
<pdfrwt beam="2">  1       -2 0.55384346E-01 0.85898554E+02</pdfrwt>
<totfact> 0.52574154E+04</totfact>
</mgrwt>
</event>
<event>
 8    1  0.8247621E-014  0.7698006E+02  0.7818608E-02  0.1337847E+00
         -2   -1    0    0    0  501 -0.00000000000E+00  0.00000000000E+00  0.72567466242E+01  0.72567470722E+01  0.25500000000E-02 0.  1.
          1   -1    0    0  501    0  0.00000000000E+00 -0.00000000000E+00 -0.20415240945E+03  0.20415240952E+03  0.50400000000E-02 0. -1.
        -24    2    1    2    0    0  0.00000000000E+00  0.00000000000E+00 -0.19689566283E+03  0.21140915659E+03  0.76980058770E+02 0.  0.
         66    2    3    3    0    0  0.36789648946E+01 -0.38272206334E+02 -0.10149844973E+03  0.10855520192E+03  0.20000013017E+01 0.  0.
         13    1    3    3    0    0 -0.36789648946E+01  0.38272206334E+02 -0.95397213101E+02  0.10285395467E+03  0.10566000000E+00 0. -1.
         13    1    4    4    0    0  0.23168433520E+01 -0.21198825550E+02 -0.53716466524E+02  0.57794704841E+02  0.10566000000E+00 0. -1.
        -13    1    4    4    0    0  0.24078380278E+00 -0.33137263388E+01 -0.89191823065E+01  0.95184944261E+01  0.10566000000E+00 0.  1.
         14    1    4    4    0    0  0.11213377398E+01 -0.13759654446E+02 -0.38862800899E+02  0.41242002649E+02  0.00000000000E+00 0. -1.
<mgrwt>
<rscale>  0 0.76980059E+02</rscale>
<asrwt>0</asrwt>
<pdfrwt beam="1">  1        1 0.31408059E-01 0.76980059E+02</pdfrwt>
<pdfrwt beam="2">  1       -2 0.11164227E-02 0.76980059E+02</pdfrwt>
<totfact> 0.18536556E+05</totfact>
</mgrwt>
</event>
<event>
 8    1  0.8247621E-014  0.7827491E+02  0.7818608E-02  0.1334020E+00
          1   -1    0    0  501    0  0.00000000000E+00  0.00000000000E+00  0.10386266807E+03  0.10386266820E+03  0.50400000000E-02 0. -1.
         -2   -1    0    0    0  501 -0.00000000000E+00 -0.00000000000E+00 -0.14747746136E+02  0.14747746357E+02  0.25500000000E-02 0.  1.
        -24    2    1    2    0    0  0.00000000000E+00  0.00000000000E+00  0.89114921937E+02  0.11861041455E+03  0.78274907400E+02 0.  0.
         66    2    3    3    0    0  0.19431587367E+02 -0.20596612903E+02  0.37032993418E+01  0.28627285639E+02  0.20000015888E+01 0.  0.
         13    1    3    3    0    0 -0.19431587367E+02  0.20596612903E+02  0.85411622595E+02  0.89983128914E+02  0.10566000000E+00 0. -1.
         13    1    4    4    0    0  0.38390412100E+01 -0.33283136575E+01  0.60352010287E+00  0.51177445975E+01  0.10566000000E+00 0.  1.
        -13    1    4    4    0    0  0.13654194052E+02 -0.14930614341E+02  0.22597699223E+01  0.20358732375E+02  0.10566000000E+00 0.  1.
        -14    1    4    4    0    0  0.19383521058E+01 -0.23376849045E+01  0.84000931668E+00  0.31508086662E+01  0.00000000000E+00 0.  1.
<mgrwt>
<rscale>  0 0.78274907E+02</rscale>
<asrwt>0</asrwt>
<pdfrwt beam="1">  1        1 0.15978872E-01 0.78274907E+02</pdfrwt>
<pdfrwt beam="2">  1       -2 0.22688841E-02 0.78274907E+02</pdfrwt>
<totfact> 0.15688860E+05</totfact>
</mgrwt>
</event>
<event>
 8    1  0.8247621E-014  0.8596324E+02  0.7818608E-02  0.1312933E+00
         -2   -1    0    0    0  501 -0.00000000000E+00  0.00000000000E+00  0.16387337214E+02  0.16387337413E+02  0.25500000000E-02 0.  1.
          1   -1    0    0  501    0  0.00000000000E+00 -0.00000000000E+00 -0.11273459390E+03  0.11273459402E+03  0.50400000000E-02 0. -1.
        -24    2    1    2    0    0  0.00000000000E+00  0.00000000000E+00 -0.96347256690E+02  0.12912193143E+03  0.85963243915E+02 0.  0.
         66    2    3    3    0    0  0.21940051595E+02 -0.28047214852E+02 -0.12106330455E+02  0.37663979660E+02  0.20000004391E+01 0.  0.
         13    1    3    3    0    0 -0.21940051595E+02  0.28047214852E+02 -0.84240926235E+02  0.91457951770E+02  0.10566000000E+00 0. -1.
         13    1    4    4    0    0  0.12760271520E+02 -0.15486814665E+02 -0.61223033095E+01  0.20979983784E+02  0.10566000000E+00 0. -1.
        -13    1    4    4    0    0  0.32907257623E+01 -0.44689746756E+01 -0.17802808572E+01  0.58293374118E+01  0.10566000000E+00 0.  1.
         14    1    4    4    0    0  0.58890543128E+01 -0.80914255118E+01 -0.42037462887E+01  0.10854658464E+02  0.00000000000E+00 0. -1.
<mgrwt>
<rscale>  0 0.85963244E+02</rscale>
<asrwt>0</asrwt>
<pdfrwt beam="1">  1        1 0.17343783E-01 0.85963244E+02</pdfrwt>
<pdfrwt beam="2">  1       -2 0.25211289E-02 0.85963244E+02</pdfrwt>
<totfact> 0.12350878E+05</totfact>
</mgrwt>
</event>
<event>
 8    1  0.8247621E-014  0.8075632E+02  0.7818608E-02  0.1326919E+00
          1   -1    0    0  501    0  0.00000000000E+00  0.00000000000E+00  0.31113683463E+02  0.31113683871E+02  0.50400000000E-02 0. -1.
         -2   -1    0    0    0  501 -0.00000000000E+00 -0.00000000000E+00 -0.52401241108E+02  0.52401241170E+02  0.25500000000E-02 0.  1.
        -24    2    1    2    0    0  0.00000000000E+00  0.00000000000E+00 -0.21287557645E+02  0.83514925041E+02  0.80756316125E+02 0.  0.
         66    2    3    3    0    0 -0.33368639081E+02 -0.12076798430E+02 -0.30517880820E+02  0.46847157665E+02  0.19999992891E+01 0.  0.
         13    1    3    3    0    0  0.33368639081E+02  0.12076798430E+02  0.92303231742E+01  0.36667767376E+02  0.10566000000E+00 0. -1.
         13    1    4    4    0    0 -0.66969497811E+01 -0.30357480931E+01 -0.60763781341E+01  0.95393101490E+01  0.10566000000E+00 0. -1.
        -13    1    4    4    0    0 -0.17362404924E+02 -0.64596321891E+01 -0.16187969211E+02  0.24601655716E+02  0.10566000000E+00 0.  1.
         14    1    4    4    0    0 -0.93092843761E+01 -0.25814181476E+01 -0.82535334747E+01  0.12706191800E+02  0.00000000000E+00 0. -1.
<mgrwt>
<rscale>  0 0.80756316E+02</rscale>
<asrwt>0</asrwt>
<pdfrwt beam="1">  1        1 0.47867206E-02 0.80756316E+02</pdfrwt>
<pdfrwt beam="2">  1       -2 0.80617294E-02 0.80756316E+02</pdfrwt>
<totfact> 0.11848366E+05</totfact>
</mgrwt>
</event>
<event>
 8    1  0.8247621E-014  0.7875632E+02  0.7818608E-02  0.1332618E+00
         -2   -1    0    0    0  501 -0.00000000000E+00  0.00000000000E+00  0.12936495365E+03  0.12936495368E+03  0.25500000000E-02 0.  1.
          1   -1    0    0  501    0  0.00000000000E+00 -0.00000000000E+00 -0.11986549708E+02  0.11986550767E+02  0.50400000000E-02 0. -1.
        -24    2    1    2    0    0  0.00000000000E+00  0.71054273576E-14  0.11737840395E+03  0.14135150445E+03  0.78756320992E+02 0.  0.
         66    2    3    3    0    0 -0.14203184702E+02  0.32819234888E+02  0.88207628671E+02  0.95201987347E+02  0.20000011568E+01 0.  0.
         13    1    3    3    0    0  0.14203184702E+02 -0.32819234888E+02  0.29170775274E+02  0.46149517099E+02  0.10566000000E+00 0. -1.
         13    1    4    4    0    0 -0.15238058011E+01  0.40634698215E+01  0.93410910178E+01  0.10300529916E+02  0.10566000000E+00 0. -1.
        -13    1    4    4    0    0 -0.12466441258E+02  0.28005992486E+02  0.76729657717E+02  0.82626867968E+02  0.10566000000E+00 0.  1.
         14    1    4    4    0    0 -0.21293764361E+00  0.74977258091E+00  0.21368799364E+01  0.22745894632E+01  0.00000000000E+00 0. -1.
<mgrwt>
<rscale>  0 0.78756321E+02</rscale>
<asrwt>0</asrwt>
<pdfrwt beam="1">  1        1 0.18440847E-02 0.78756321E+02</pdfrwt>
<pdfrwt beam="2">  1       -2 0.19902300E-01 0.78756321E+02</pdfrwt>
<totfact> 0.10304110E+05</totfact>
</mgrwt>
</event>
<event>
 8    1  0.8247621E-014  0.7845681E+02  0.7818608E-02  0.1333489E+00
         -2   -1    0    0    0  501 -0.00000000000E+00  0.00000000000E+00  0.16381098643E+03  0.16381098645E+03  0.25500000000E-02 0.  1.
          1   -1    0    0  501    0  0.00000000000E+00 -0.00000000000E+00 -0.93941672995E+01  0.93941686515E+01  0.50400000000E-02 0. -1.
        -24    2    1    2    0    0  0.00000000000E+00  0.00000000000E+00  0.15441681913E+03  0.17320515510E+03  0.78456814384E+02 0.  0.
         66    2    3    3    0    0  0.24691376925E+02 -0.50316065526E+01  0.14355713425E+03  0.14576567481E+03  0.19999996887E+01 0.  0.
         13    1    3    3    0    0 -0.24691376925E+02  0.50316065526E+01  0.10859684876E+02  0.27439480291E+02  0.10566000000E+00 0. -1.
         13    1    4    4    0    0  0.62241131568E+00 -0.33968317327E+00  0.43289519260E+01  0.43879117262E+01  0.10566000000E+00 0.  1.
        -13    1    4    4    0    0  0.13023809238E+02 -0.21520326624E+01  0.78117105119E+02  0.79224643438E+02  0.10566000000E+00 0.  1.
        -14    1    4    4    0    0  0.11045156371E+02 -0.25398907169E+01  0.61111077208E+02  0.62153119646E+02  0.00000000000E+00 0.  1.
<mgrwt>
<rscale>  0 0.78456814E+02</rscale>
<asrwt>0</asrwt>
<pdfrwt beam="1">  1        1 0.14452569E-02 0.78456814E+02</pdfrwt>
<pdfrwt beam="2">  1       -2 0.25201686E-01 0.78456814E+02</pdfrwt>
<totfact> 0.96445957E+04</totfact>
</mgrwt>
</event>
<event>
 8    1  0.8247621E-014  0.8135899E+02  0.7818608E-02  0.1325238E+00
          1   -1    0    0  501    0  0.00000000000E+00  0.00000000000E+00  0.67112774845E+02  0.67112775034E+02  0.50400000000E-02 0. -1.
         -2   -1    0    0    0  501 -0.00000000000E+00 -0.00000000000E+00 -0.24657321664E+02  0.24657321795E+02  0.25500000000E-02 0.  1.
        -24    2    1    2    0    0  0.00000000000E+00  0.00000000000E+00  0.42455453181E+02  0.91770096829E+02  0.81358989468E+02 0.  0.
         66    2    3    3    0    0  0.21743102882E+02 -0.26595620527E+01 -0.17390934497E+02  0.28040691722E+02  0.19999990730E+01 0.  0.
         13    1    3    3    0    0 -0.21743102882E+02  0.26595620527E+01  0.59846387678E+02  0.63729405108E+02  0.10566000000E+00 0. -1.
         13    1    4    4    0    0  0.32863720269E+01  0.17278983828E+00 -0.22047809350E+01  0.39626153528E+01  0.10566000000E+00 0. -1.
        -13    1    4    4    0    0  0.13148589689E+02 -0.22291312528E+01 -0.10560160069E+02  0.17011248681E+02  0.10566000000E+00 0.  1.
        -14    1    4    4    0    0  0.53081411663E+01 -0.60322063819E+00 -0.46259934922E+01  0.70668276879E+01  0.00000000000E+00 0.  1.
<mgrwt>
<rscale>  0 0.81358989E+02</rscale>
<asrwt>0</asrwt>
<pdfrwt beam="1">  1        1 0.10325042E-01 0.81358989E+02</pdfrwt>
<pdfrwt beam="2">  1       -2 0.37934341E-02 0.81358989E+02</pdfrwt>
<totfact> 0.13155764E+05</totfact>
</mgrwt>
</event>
<event>
 8    1  0.8247621E-014  0.7869375E+02  0.7818608E-02  0.1332800E+00
         -2   -1    0    0    0  501 -0.00000000000E+00  0.00000000000E+00  0.19970466053E+03  0.19970466054E+03  0.25500000000E-02 0.  1.
          1   -1    0    0  501    0  0.00000000000E+00 -0.00000000000E+00 -0.77523290180E+01  0.77523306563E+01  0.50400000000E-02 0. -1.
        -24    2    1    2    0    0  0.11102230246E-15  0.00000000000E+00  0.19195233151E+03  0.20745699120E+03  0.78693745786E+02 0.  0.
         66    2    3    3    0    0  0.82987478628E+00  0.27388944138E+02  0.17038458940E+03  0.17258548970E+03  0.19999990149E+01 0.  0.
         13    1    3    3    0    0 -0.82987478628E+00 -0.27388944138E+02  0.21567742103E+02  0.34871501496E+02  0.10566000000E+00 0. -1.
         13    1    4    4    0    0 -0.28606577244E-01  0.14006723191E+02  0.83410631760E+02  0.84578565651E+02  0.10566000000E+00 0. -1.
        -13    1    4    4    0    0  0.39699609246E+00  0.87797344269E+01  0.54160145370E+02  0.54868696476E+02  0.10566000000E+00 0.  1.
         14    1    4    4    0    0  0.46148527106E+00  0.46024865192E+01  0.32813812275E+02  0.33138227575E+02  0.00000000000E+00 0. -1.
<mgrwt>
<rscale>  0 0.78693746E+02</rscale>
<asrwt>0</asrwt>
<pdfrwt beam="1">  1        1 0.11926662E-02 0.78693746E+02</pdfrwt>
<pdfrwt beam="2">  1       -2 0.30723792E-01 0.78693746E+02</pdfrwt>
<totfact> 0.88818042E+04</totfact>
</mgrwt>
</event>
<event>
 8    1  0.8247621E-014  0.7925444E+02  0.7818608E-02  0.1331181E+00
          1   -1    0    0  501    0  0.00000000000E+00  0.00000000000E+00  0.33735744017E+01  0.33735781665E+01  0.50400000000E-02 0. -1.
         -2   -1    0    0    0  501 -0.00000000000E+00 -0.00000000000E+00 -0.46547534235E+03  0.46547534235E+03  0.25500000000E-02 0.  1.
        -24    2    1    2    0    0  0.00000000000E+00  0.00000000000E+00 -0.46210176794E+03  0.46884892052E+03  0.79254440475E+02 0.  0.
         66    2    3    3    0    0 -0.35201406317E+01  0.20864642382E+02 -0.42922811491E+03  0.42975399860E+03  0.19999986026E+01 0.  0.
         13    1    3    3    0    0  0.35201406317E+01 -0.20864642382E+02 -0.32873653036E+02  0.39094921918E+02  0.10566000000E+00 0. -1.
         13    1    4    4    0    0 -0.15080739515E+01  0.63616912281E+01 -0.12567171700E+03  0.12584171414E+03  0.10566000000E+00 0. -1.
        -13    1    4    4    0    0 -0.10575604874E+01  0.10651931736E+02 -0.21240817080E+03  0.21267774748E+03  0.10566000000E+00 0.  1.
        -14    1    4    4    0    0 -0.95450619277E+00  0.38510194184E+01 -0.91148227109E+02  0.91234536979E+02  0.00000000000E+00 0.  1.
<mgrwt>
<rscale>  0 0.79254440E+02</rscale>
<asrwt>0</asrwt>
<pdfrwt beam="1">  1        1 0.51901211E-03 0.79254440E+02</pdfrwt>
<pdfrwt beam="2">  1       -2 0.71611540E-01 0.79254440E+02</pdfrwt>
<totfact> 0.54466401E+04</totfact>
</mgrwt>
</event>
<event>
 8    1  0.8247621E-014  0.7986562E+02  0.7818608E-02  0.1329433E+00
         -2   -1    0    0    0  501 -0.00000000000E+00  0.00000000000E+00  0.21911231319E+03  0.21911231320E+03  0.25500000000E-02 0.  1.
          1   -1    0    0  501    0  0.00000000000E+00 -0.00000000000E+00 -0.72776796030E+01  0.72776813482E+01  0.50400000000E-02 0. -1.
        -24    2    1    2    0    0 -0.13877787808E-16  0.00000000000E+00  0.21183463358E+03  0.22638999455E+03  0.79865622434E+02 0.  0.
         66    2    3    3    0    0  0.10925525655E+00 -0.18787594139E+02  0.20578685989E+03  0.20665240704E+03  0.19999996774E+01 0.  0.
         13    1    3    3    0    0 -0.10925525655E+00  0.18787594139E+02  0.60477736905E+01  0.19737587514E+02  0.10566000000E+00 0. -1.
         13    1    4    4    0    0 -0.16169372154E+00 -0.96538591360E+01  0.11107300553E+03  0.11149191388E+03  0.10566000000E+00 0. -1.
        -13    1    4    4    0    0 -0.19818749628E-01 -0.61574923191E+01  0.68639213065E+02  0.68914931899E+02  0.10566000000E+00 0.  1.
        -14    1    4    4    0    0  0.29076772772E+00 -0.29762426834E+01  0.26074641303E+02  0.26245561253E+02  0.00000000000E+00 0.  1.
<mgrwt>
<rscale>  0 0.79865622E+02</rscale>
<asrwt>0</asrwt>
<pdfrwt beam="1">  1        1 0.11196431E-02 0.79865622E+02</pdfrwt>
<pdfrwt beam="2">  1       -2 0.33709587E-01 0.79865622E+02</pdfrwt>
<totfact> 0.82237340E+04</totfact>
</mgrwt>
</event>
<event>
 8    1  0.8247621E-014  0.8138943E+02  0.7818608E-02  0.1325154E+00
          1   -1    0    0  501    0  0.00000000000E+00  0.00000000000E+00  0.77118821859E+01  0.77118838328E+01  0.50400000000E-02 0. -1.
         -2   -1    0    0    0  501 -0.00000000000E+00 -0.00000000000E+00 -0.21474132920E+03  0.21474132922E+03  0.25500000000E-02 0.  1.
        -24    2    1    2    0    0 -0.35527136788E-14  0.00000000000E+00 -0.20702944701E+03  0.22245321305E+03  0.81389434599E+02 0.  0.
         66    2    3    3    0    0  0.19259979418E+02 -0.34782610336E+02 -0.12697394903E+03  0.13306825509E+03  0.19999973742E+01 0.  0.
         13    1    3    3    0    0 -0.19259979418E+02  0.34782610336E+02 -0.80055497981E+02  0.89384957962E+02  0.10566000000E+00 0. -1.
         13    1    4    4    0    0  0.94338123947E+01 -0.16138854738E+02 -0.57769385389E+02  0.60718798579E+02  0.10566000000E+00 0. -1.
        -13    1    4    4    0    0  0.95308707920E+01 -0.17623108719E+02 -0.65875214819E+02  0.68854677041E+02  0.10566000000E+00 0.  1.
        -14    1    4    4    0    0  0.29529623108E+00 -0.10206468781E+01 -0.33293488262E+01  0.34947794666E+01  0.00000000000E+00 0.  1.
<mgrwt>
<rscale>  0 0.81389435E+02</rscale>
<asrwt>0</asrwt>
<pdfrwt beam="1">  1        1 0.11864437E-02 0.81389435E+02</pdfrwt>
<pdfrwt beam="2">  1       -2 0.33037123E-01 0.81389435E+02</pdfrwt>
<totfact> 0.79002612E+04</totfact>
</mgrwt>
</event>
<event>
 8    1  0.8247621E-014  0.7880935E+02  0.7818608E-02  0.1332465E+00
         -2   -1    0    0    0  501 -0.00000000000E+00  0.00000000000E+00  0.13614924195E+02  0.13614924434E+02  0.25500000000E-02 0.  1.
          1   -1    0    0  501    0  0.00000000000E+00 -0.00000000000E+00 -0.11404605137E+03  0.11404605148E+03  0.50400000000E-02 0. -1.
        -24    2    1    2    0    0  0.00000000000E+00  0.00000000000E+00 -0.10043112717E+03  0.12766097591E+03  0.78809348847E+02 0.  0.
         66    2    3    3    0    0  0.86137166922E+01 -0.21408735082E+02  0.14408790599E+01  0.23207891368E+02  0.20000090497E+01 0.  0.
         13    1    3    3    0    0 -0.86137166922E+01  0.21408735082E+02 -0.10187200623E+03  0.10445308455E+03  0.10566000000E+00 0. -1.
         13    1    4    4    0    0  0.67038402587E+00 -0.10803547168E+01 -0.12710942691E+00  0.12821473778E+01  0.10566000000E+00 0. -1.
        -13    1    4    4    0    0  0.28052623684E+01 -0.63750876921E+01  0.10756253735E+01  0.70483596685E+01  0.10566000000E+00 0.  1.
         14    1    4    4    0    0  0.51380702979E+01 -0.13953292673E+02  0.49236311329E+00  0.14877384321E+02  0.00000000000E+00 0. -1.
<mgrwt>
<rscale>  0 0.78809349E+02</rscale>
<asrwt>0</asrwt>
<pdfrwt beam="1">  1        1 0.17545546E-01 0.78809349E+02</pdfrwt>
<pdfrwt beam="2">  1       -2 0.20946038E-02 0.78809349E+02</pdfrwt>
<totfact> 0.15651130E+05</totfact>
</mgrwt>
</event>
<event>
 8    1  0.8247621E-014  0.8314744E+02  0.7818608E-02  0.1320350E+00
         -2   -1    0    0    0  501 -0.00000000000E+00  0.00000000000E+00  0.10551487278E+04  0.10551487278E+04  0.25500000000E-02 0.  1.
          1   -1    0    0  501    0  0.00000000000E+00 -0.00000000000E+00 -0.16380346402E+01  0.16380423938E+01  0.50400000000E-02 0. -1.
        -24    2    1    2    0    0  0.00000000000E+00  0.00000000000E+00  0.10535106932E+04  0.10567867702E+04  0.83147441701E+02 0.  0.
         66    2    3    3    0    0  0.20459730072E+02  0.12364298602E+02  0.95898523584E+03  0.95928523339E+03  0.20000011051E+01 0.  0.
         13    1    3    3    0    0 -0.20459730072E+02 -0.12364298602E+02  0.94525457352E+02  0.97501536840E+02  0.10566000000E+00 0. -1.
         13    1    4    4    0    0  0.10422993727E+01  0.72767682916E+00  0.44982742499E+02  0.45000824307E+02  0.10566000000E+00 0. -1.
        -13    1    4    4    0    0  0.59253677439E+01  0.33433160018E+01  0.30650766436E+03  0.30658318157E+03  0.10566000000E+00 0.  1.
        -14    1    4    4    0    0  0.13492062956E+02  0.82933057713E+01  0.60749482898E+03  0.60770122752E+03  0.00000000000E+00 0.  1.
<mgrwt>
<rscale>  0 0.83147442E+02</rscale>
<asrwt>0</asrwt>
<pdfrwt beam="1">  1        1 0.25200530E-03 0.83147442E+02</pdfrwt>
<pdfrwt beam="2">  1       -2 0.16233097E+00 0.83147442E+02</pdfrwt>
<totfact> 0.22140109E+04</totfact>
</mgrwt>
</event>
<event>
 8    1  0.8247621E-014  0.8039520E+02  0.7818608E-02  0.1327934E+00
          1   -1    0    0  501    0  0.00000000000E+00  0.00000000000E+00  0.51633210702E+01  0.51633235301E+01  0.50400000000E-02 0. -1.
         -2   -1    0    0    0  501 -0.00000000000E+00 -0.00000000000E+00 -0.31294715076E+03  0.31294715077E+03  0.25500000000E-02 0.  1.
        -24    2    1    2    0    0  0.00000000000E+00  0.00000000000E+00 -0.30778382969E+03  0.31811047430E+03  0.80395199117E+02 0.  0.
         66    2    3    3    0    0 -0.84573506093E+01  0.23246224236E+02 -0.27923355615E+03  0.28033425157E+03  0.20000003889E+01 0.  0.
         13    1    3    3    0    0  0.84573506093E+01 -0.23246224236E+02 -0.28550273532E+02  0.37776222725E+02  0.10566000000E+00 0. -1.
         13    1    4    4    0    0 -0.16810127782E+01  0.43662519905E+01 -0.48977521831E+02  0.49200597243E+02  0.10566000000E+00 0. -1.
        -13    1    4    4    0    0 -0.60696183043E+01  0.16512044562E+02 -0.20722392783E+03  0.20796936147E+03  0.10566000000E+00 0.  1.
        -14    1    4    4    0    0 -0.70671952684E+00  0.23679276839E+01 -0.23032106494E+02  0.23164292857E+02  0.00000000000E+00 0.  1.
<mgrwt>
<rscale>  0 0.80395199E+02</rscale>
<asrwt>0</asrwt>
<pdfrwt beam="1">  1        1 0.79435753E-03 0.80395199E+02</pdfrwt>
<pdfrwt beam="2">  1       -2 0.48145701E-01 0.80395199E+02</pdfrwt>
<totfact> 0.67780864E+04</totfact>
</mgrwt>
</event>
<event>
 8    1  0.8247621E-014  0.7961029E+02  0.7818608E-02  0.1330161E+00
          1   -1    0    0  501    0  0.00000000000E+00  0.00000000000E+00  0.15755035336E+02  0.15755036142E+02  0.50400000000E-02 0. -1.
         -2   -1    0    0    0  501 -0.00000000000E+00 -0.00000000000E+00 -0.10056781478E+03  0.10056781481E+03  0.25500000000E-02 0.  1.
        -24    2    1    2    0    0  0.00000000000E+00  0.00000000000E+00 -0.84812779442E+02  0.11632285095E+03  0.79610288889E+02 0.  0.
         66    2    3    3    0    0 -0.33906711655E+02  0.20731996174E+01 -0.72678649850E+02  0.80250541393E+02  0.19999994914E+01 0.  0.
         13    1    3    3    0    0  0.33906711655E+02 -0.20731996174E+01 -0.12134129593E+02  0.36072309559E+02  0.10566000000E+00 0. -1.
         13    1    4    4    0    0 -0.15794535838E+01  0.46840294354E+00 -0.35380432880E+01  0.39042271047E+01  0.10566000000E+00 0. -1.
        -13    1    4    4    0    0 -0.73594594181E+01  0.63392326493E+00 -0.15285306734E+02  0.16976903947E+02  0.10566000000E+00 0.  1.
        -14    1    4    4    0    0 -0.24967798653E+02  0.97087340893E+00 -0.53855299828E+02  0.59369410341E+02  0.00000000000E+00 0.  1.
<mgrwt>
<rscale>  0 0.79610289E+02</rscale>
<asrwt>0</asrwt>
<pdfrwt beam="1">  1        1 0.24238517E-02 0.79610289E+02</pdfrwt>
<pdfrwt beam="2">  1       -2 0.15471971E-01 0.79610289E+02</pdfrwt>
<totfact> 0.10731133E+05</totfact>
</mgrwt>
</event>
<event>
 8    1  0.8247621E-014  0.7957019E+02  0.7818608E-02  0.1330276E+00
          1   -1    0    0  501    0  0.00000000000E+00  0.00000000000E+00  0.30098636914E+02  0.30098637336E+02  0.50400000000E-02 0. -1.
         -2   -1    0    0    0  501 -0.00000000000E+00 -0.00000000000E+00 -0.52588879026E+02  0.52588879088E+02  0.25500000000E-02 0.  1.
        -24    2    1    2    0    0  0.00000000000E+00  0.00000000000E+00 -0.22490242112E+02  0.82687516423E+02  0.79570185258E+02 0.  0.
         66    2    3    3    0    0 -0.18373979022E+02  0.33496704578E+02  0.18895606090E+00  0.38257914619E+02  0.20000009701E+01 0.  0.
         13    1    3    3    0    0  0.18373979022E+02 -0.33496704578E+02 -0.22679198173E+02  0.44429601805E+02  0.10566000000E+00 0. -1.
         13    1    4    4    0    0 -0.73312975956E+01  0.12252088872E+02 -0.71511482394E+00  0.14296298801E+02  0.10566000000E+00 0. -1.
        -13    1    4    4    0    0 -0.74606884382E+01  0.14150566444E+02  0.65348278284E+00  0.16010577955E+02  0.10566000000E+00 0.  1.
         14    1    4    4    0    0 -0.35819929878E+01  0.70940492623E+01  0.25058810200E+00  0.79510378629E+01  0.00000000000E+00 0. -1.
<mgrwt>
<rscale>  0 0.79570185E+02</rscale>
<asrwt>0</asrwt>
<pdfrwt beam="1">  1        1 0.46305596E-02 0.79570185E+02</pdfrwt>
<pdfrwt beam="2">  1       -2 0.80905968E-02 0.79570185E+02</pdfrwt>
<totfact> 0.12290514E+05</totfact>
</mgrwt>
</event>
<event>
 8    1  0.8247621E-014  0.8000536E+02  0.7818608E-02  0.1329036E+00
          1   -1    0    0  501    0  0.00000000000E+00  0.00000000000E+00  0.50216982101E+01  0.50217007393E+01  0.50400000000E-02 0. -1.
         -2   -1    0    0    0  501 -0.00000000000E+00 -0.00000000000E+00 -0.31865991272E+03  0.31865991273E+03  0.25500000000E-02 0.  1.
        -24    2    1    2    0    0  0.00000000000E+00  0.71054273576E-14 -0.31363821451E+03  0.32368161347E+03  0.80005357928E+02 0.  0.
         66    2    3    3    0    0  0.29149654741E+02  0.26346805623E+02 -0.18674386319E+03  0.19084319998E+03  0.20000001291E+01 0.  0.
         13    1    3    3    0    0 -0.29149654741E+02 -0.26346805623E+02 -0.12689435131E+03  0.13283841348E+03  0.10566000000E+00 0. -1.
         13    1    4    4    0    0  0.13389651628E+02  0.13019336802E+02 -0.87147318975E+02  0.89126047091E+02  0.10566000000E+00 0. -1.
        -13    1    4    4    0    0  0.49725384460E+01  0.47791306429E+01 -0.33489560805E+02  0.34192514901E+02  0.10566000000E+00 0.  1.
        -14    1    4    4    0    0  0.10787464668E+02  0.85483381778E+01 -0.66106983413E+02  0.67524637989E+02  0.00000000000E+00 0.  1.
<mgrwt>
<rscale>  0 0.80005358E+02</rscale>
<asrwt>0</asrwt>
<pdfrwt beam="1">  1        1 0.77256940E-03 0.80005358E+02</pdfrwt>
<pdfrwt beam="2">  1       -2 0.49024586E-01 0.80005358E+02</pdfrwt>
<totfact> 0.67941027E+04</totfact>
</mgrwt>
</event>
<event>
 8    1  0.8247621E-014  0.7839382E+02  0.7818608E-02  0.1333672E+00
         -2   -1    0    0    0  501 -0.00000000000E+00  0.00000000000E+00  0.10223502840E+03  0.10223502843E+03  0.25500000000E-02 0.  1.
          1   -1    0    0  501    0  0.00000000000E+00 -0.00000000000E+00 -0.15028093287E+02  0.15028094133E+02  0.50400000000E-02 0. -1.
        -24    2    1    2    0    0  0.00000000000E+00  0.00000000000E+00  0.87206935113E+02  0.11726312256E+03  0.78393815967E+02 0.  0.
         66    2    3    3    0    0  0.25931589155E+02  0.24582526907E+02  0.67641664096E+02  0.76525438055E+02  0.20000006566E+01 0.  0.
         13    1    3    3    0    0 -0.25931589155E+02 -0.24582526907E+02  0.19565271017E+02  0.40737684510E+02  0.10566000000E+00 0. -1.
         13    1    4    4    0    0  0.91892214432E+01  0.88979737715E+01  0.25270072251E+02  0.28323196211E+02  0.10566000000E+00 0. -1.
        -13    1    4    4    0    0  0.72917805073E+01  0.77271169879E+01  0.19820156176E+02  0.22488400450E+02  0.10566000000E+00 0.  1.
        -14    1    4    4    0    0  0.94505872042E+01  0.79574361474E+01  0.22551435668E+02  0.25713841394E+02  0.00000000000E+00 0.  1.
<mgrwt>
<rscale>  0 0.78393816E+02</rscale>
<asrwt>0</asrwt>
<pdfrwt beam="1">  1        1 0.23120144E-02 0.78393816E+02</pdfrwt>
<pdfrwt beam="2">  1       -2 0.15728466E-01 0.78393816E+02</pdfrwt>
<totfact> 0.11116610E+05</totfact>
</mgrwt>
</event>
<event>
 8    1  0.8247621E-014  0.8001641E+02  0.7818608E-02  0.1329005E+00
         -2   -1    0    0    0  501 -0.00000000000E+00  0.00000000000E+00  0.50424017190E+01  0.50424023637E+01  0.25500000000E-02 0.  1.
          1   -1    0    0  501    0  0.00000000000E+00 -0.00000000000E+00 -0.31743926486E+03  0.31743926490E+03  0.50400000000E-02 0. -1.
        -24    2    1    2    0    0  0.00000000000E+00  0.35527136788E-14 -0.31239686314E+03  0.32248166727E+03  0.80016408448E+02 0.  0.
         66    2    3    3    0    0  0.25763974433E+02 -0.29462954903E+02 -0.12335562800E+03  0.12943129084E+03  0.19999996714E+01 0.  0.
         13    1    3    3    0    0 -0.25763974433E+02  0.29462954903E+02 -0.18904123514E+03  0.19305037643E+03  0.10566000000E+00 0. -1.
         13    1    4    4    0    0  0.89535327204E+01 -0.93441682772E+01 -0.38588742279E+02  0.40701123126E+02  0.10566000000E+00 0. -1.
        -13    1    4    4    0    0  0.12176048730E+02 -0.14664622258E+02 -0.60900084147E+02  0.63813311478E+02  0.10566000000E+00 0.  1.
         14    1    4    4    0    0  0.46343929830E+01 -0.54541643677E+01 -0.23866801575E+02  0.24916856236E+02  0.00000000000E+00 0. -1.
<mgrwt>
<rscale>  0 0.80016408E+02</rscale>
<asrwt>0</asrwt>
<pdfrwt beam="1">  1        1 0.48836795E-01 0.80016408E+02</pdfrwt>
<pdfrwt beam="2">  1       -2 0.77575441E-03 0.80016408E+02</pdfrwt>
<totfact> 0.18225088E+05</totfact>
</mgrwt>
</event>
<event>
 8    1  0.9614755E-014  0.7972192E+02  0.7818608E-02  0.1329842E+00
          1   -1    0    0  501    0  0.00000000000E+00  0.00000000000E+00  0.18578189941E+02  0.18578190625E+02  0.50400000000E-02 0. -1.
         -2   -1    0    0    0  501 -0.00000000000E+00 -0.00000000000E+00 -0.85524813056E+02  0.85524813094E+02  0.25500000000E-02 0.  1.
        -24    2    1    2    0    0  0.00000000000E+00  0.17763568394E-14 -0.66946623115E+02  0.10410300372E+03  0.79721923188E+02 0.  0.
         66    2    3    3    0    0 -0.93359980490E+01  0.92568348219E+01 -0.82598285114E+02  0.83661977867E+02  0.19999966063E+01 0.  0.
         13    1    3    3    0    0  0.93359980490E+01 -0.92568348219E+01  0.15651661999E+02  0.20441025851E+02  0.10566000000E+00 0. -1.
         13    1    4    4    0    0 -0.90273115380E+00  0.52707572098E+00 -0.48811334373E+01  0.49929310049E+01  0.10566000000E+00 0. -1.
        -13    1    4    4    0    0 -0.73168960688E+01  0.70889968410E+01 -0.62951967076E+02  0.63771091939E+02  0.10566000000E+00 0.  1.
        -14    1    4    4    0    0 -0.11163708263E+01  0.16407622600E+01 -0.14765184600E+02  0.14897954923E+02  0.00000000000E+00 0.  1.
<mgrwt>
<rscale>  0 0.79721923E+02</rscale>
<asrwt>0</asrwt>
<pdfrwt beam="1">  1        1 0.28581832E-02 0.79721923E+02</pdfrwt>
<pdfrwt beam="2">  1       -2 0.13157663E-01 0.79721923E+02</pdfrwt>
<totfact> 0.11110955E+05</totfact>
</mgrwt>
</event>
<event>
 8    1  0.8247621E-014  0.7729848E+02  0.7818608E-02  0.1336898E+00
         -2   -1    0    0    0  501 -0.00000000000E+00  0.00000000000E+00  0.99391266232E+02  0.99391266265E+02  0.25500000000E-02 0.  1.
          1   -1    0    0  501    0  0.00000000000E+00 -0.00000000000E+00 -0.15029124097E+02  0.15029124942E+02  0.50400000000E-02 0. -1.
        -24    2    1    2    0    0  0.00000000000E+00  0.00000000000E+00  0.84362142135E+02  0.11442039121E+03  0.77298479276E+02 0.  0.
         66    2    3    3    0    0 -0.18534715168E+02 -0.28976858767E+02  0.68211165329E+02  0.76419611923E+02  0.20000001381E+01 0.  0.
         13    1    3    3    0    0  0.18534715168E+02  0.28976858767E+02  0.16150976806E+02  0.38000779285E+02  0.10566000000E+00 0. -1.
         13    1    4    4    0    0 -0.57399096984E+01 -0.76302702632E+01  0.19672409434E+02  0.21867383122E+02  0.10566000000E+00 0. -1.
        -13    1    4    4    0    0 -0.57658929883E+01 -0.94685060222E+01  0.22394649016E+02  0.24988589332E+02  0.10566000000E+00 0.  1.
         14    1    4    4    0    0 -0.70289124815E+01 -0.11878082482E+02  0.26144106879E+02  0.29563639468E+02  0.00000000000E+00 0. -1.
<mgrwt>
<rscale>  0 0.77298479E+02</rscale>
<asrwt>0</asrwt>
<pdfrwt beam="1">  1        1 0.23121731E-02 0.77298479E+02</pdfrwt>
<pdfrwt beam="2">  1       -2 0.15290963E-01 0.77298479E+02</pdfrwt>
<totfact> 0.11604896E+05</totfact>
</mgrwt>
</event>
<event>
 8    1  0.8247621E-014  0.8090955E+02  0.7818608E-02  0.1326490E+00
          1   -1    0    0  501    0  0.00000000000E+00  0.00000000000E+00  0.17631375231E+03  0.17631375238E+03  0.50400000000E-02 0. -1.
         -2   -1    0    0    0  501 -0.00000000000E+00 -0.00000000000E+00 -0.92822531878E+01  0.92822535381E+01  0.25500000000E-02 0.  1.
        -24    2    1    2    0    0 -0.35527136788E-14 -0.17763568394E-14  0.16703149912E+03  0.18559600592E+03  0.80909552677E+02 0.  0.
         66    2    3    3    0    0  0.28168860107E+02  0.83909450097E+01  0.19885757276E+02  0.35543437980E+02  0.20000007810E+01 0.  0.
         13    1    3    3    0    0 -0.28168860107E+02 -0.83909450097E+01  0.14714574184E+03  0.15005256794E+03  0.10566000000E+00 0. -1.
         13    1    4    4    0    0  0.98467315425E+01  0.31211067427E+01  0.61967733544E+01  0.12046185845E+02  0.10566000000E+00 0. -1.
        -13    1    4    4    0    0  0.11371329424E+02  0.27135543452E+01  0.82676298128E+01  0.14319056422E+02  0.10566000000E+00 0.  1.
         14    1    4    4    0    0  0.69507991407E+01  0.25562839218E+01  0.54213541092E+01  0.91781957138E+01  0.00000000000E+00 0. -1.
<mgrwt>
<rscale>  0 0.80909553E+02</rscale>
<asrwt>0</asrwt>
<pdfrwt beam="1">  1        1 0.27125191E-01 0.80909553E+02</pdfrwt>
<pdfrwt beam="2">  1       -2 0.14280391E-02 0.80909553E+02</pdfrwt>
<totfact> 0.15791072E+05</totfact>
</mgrwt>
</event>
<event>
 8    1  0.8247621E-014  0.7845456E+02  0.7818608E-02  0.1333495E+00
         -2   -1    0    0    0  501 -0.00000000000E+00  0.00000000000E+00  0.26277937902E+02  0.26277938026E+02  0.25500000000E-02 0.  1.
          1   -1    0    0  501    0  0.00000000000E+00 -0.00000000000E+00 -0.58557851892E+02  0.58557852109E+02  0.50400000000E-02 0. -1.
        -24    2    1    2    0    0  0.00000000000E+00 -0.88817841970E-15 -0.32279913990E+02  0.84835790135E+02  0.78454562905E+02 0.  0.
         66    2    3    3    0    0  0.19236637696E+02 -0.57354281787E+01  0.20260794542E+02  0.28590962966E+02  0.20000004099E+01 0.  0.
         13    1    3    3    0    0 -0.19236637696E+02  0.57354281787E+01 -0.52540708531E+02  0.56244827169E+02  0.10566000000E+00 0. -1.
         13    1    4    4    0    0  0.98324223271E+01 -0.31515084165E+01  0.11113236744E+02  0.15169829567E+02  0.10566000000E+00 0.  1.
        -13    1    4    4    0    0  0.85559265169E+01 -0.26484052700E+01  0.81489099721E+01  0.12109245509E+02  0.10566000000E+00 0. -1.
        -14    1    4    4    0    0  0.84828885171E+00  0.64485507776E-01  0.99864782550E+00  0.13118878900E+01  0.00000000000E+00 0.  1.
<mgrwt>
<rscale>  0 0.78454563E+02</rscale>
<asrwt>0</asrwt>
<pdfrwt beam="1">  1        1 0.90089003E-02 0.78454563E+02</pdfrwt>
<pdfrwt beam="2">  1       -2 0.40427597E-02 0.78454563E+02</pdfrwt>
<totfact> 0.14231719E+05</totfact>
</mgrwt>
</event>
<event>
 8    1  0.8247621E-014  0.8008856E+02  0.7818608E-02  0.1328800E+00
          1   -1    0    0  501    0  0.00000000000E+00  0.00000000000E+00  0.22719665745E+03  0.22719665751E+03  0.50400000000E-02 0. -1.
         -2   -1    0    0    0  501 -0.00000000000E+00 -0.00000000000E+00 -0.70579573721E+01  0.70579578327E+01  0.25500000000E-02 0.  1.
        -24    2    1    2    0    0 -0.71054273576E-14  0.00000000000E+00  0.22013870008E+03  0.23425461534E+03  0.80088560578E+02 0.  0.
         66    2    3    3    0    0 -0.33921150827E+02  0.13882577692E+02  0.63140847147E+02  0.73035176604E+02  0.20000016019E+01 0.  0.
         13    1    3    3    0    0  0.33921150827E+02 -0.13882577692E+02  0.15699785293E+03  0.16121943873E+03  0.10566000000E+00 0. -1.
         13    1    4    4    0    0 -0.19560456304E+01  0.10431573391E+01  0.40768839073E+01  0.46418141035E+01  0.10566000000E+00 0. -1.
        -13    1    4    4    0    0 -0.11957583237E+02  0.56198454776E+01  0.22490828856E+02  0.26084765798E+02  0.10566000000E+00 0.  1.
        -14    1    4    4    0    0 -0.20007521959E+02  0.72195748757E+01  0.36573134384E+02  0.42308596703E+02  0.00000000000E+00 0.  1.
<mgrwt>
<rscale>  0 0.80088561E+02</rscale>
<asrwt>0</asrwt>
<pdfrwt beam="1">  1        1 0.34953326E-01 0.80088561E+02</pdfrwt>
<pdfrwt beam="2">  1       -2 0.10858398E-02 0.80088561E+02</pdfrwt>
<totfact> 0.17043301E+05</totfact>
</mgrwt>
</event>
<event>
 8    1  0.8247621E-014  0.7882673E+02  0.7818608E-02  0.1332414E+00
          1   -1    0    0  501    0  0.00000000000E+00  0.00000000000E+00  0.18842341345E+03  0.18842341352E+03  0.50400000000E-02 0. -1.
         -2   -1    0    0    0  501 -0.00000000000E+00 -0.00000000000E+00 -0.82442690258E+01  0.82442694201E+01  0.25500000000E-02 0.  1.
        -24    2    1    2    0    0 -0.88817841970E-15  0.00000000000E+00  0.18017914443E+03  0.19666768294E+03  0.78826730407E+02 0.  0.
         66    2    3    3    0    0 -0.60218728081E+01 -0.32711474228E+02  0.37510458612E+02  0.50173080396E+02  0.19999982232E+01 0.  0.
         13    1    3    3    0    0  0.60218728081E+01  0.32711474228E+02  0.14266868581E+03  0.14649460254E+03  0.10566000000E+00 0. -1.
         13    1    4    4    0    0 -0.84813076751E+00 -0.49146976194E+01  0.57582740137E+01  0.76185603720E+01  0.10566000000E+00 0. -1.
        -13    1    4    4    0    0 -0.49293284782E+01 -0.26107410783E+02  0.30420759480E+02  0.40389713398E+02  0.10566000000E+00 0.  1.
         14    1    4    4    0    0 -0.24441356239E+00 -0.16893658251E+01  0.13314251183E+01  0.21648066256E+01  0.00000000000E+00 0. -1.
<mgrwt>
<rscale>  0 0.78826730E+02</rscale>
<asrwt>0</asrwt>
<pdfrwt beam="1">  1        1 0.28988219E-01 0.78826730E+02</pdfrwt>
<pdfrwt beam="2">  1       -2 0.12683490E-02 0.78826730E+02</pdfrwt>
<totfact> 0.17142332E+05</totfact>
</mgrwt>
</event>
<event>
 8    1  0.8247621E-014  0.7983000E+02  0.7818608E-02  0.1329535E+00
          1   -1    0    0  501    0  0.00000000000E+00  0.00000000000E+00  0.28365468267E+01  0.28365513043E+01  0.50400000000E-02 0. -1.
         -2   -1    0    0    0  501 -0.00000000000E+00 -0.00000000000E+00 -0.56167093579E+03  0.56167093580E+03  0.25500000000E-02 0.  1.
        -24    2    1    2    0    0  0.00000000000E+00  0.88817841970E-15 -0.55883438897E+03  0.56450748710E+03  0.79829998773E+02 0.  0.
         66    2    3    3    0    0  0.34031198611E+02 -0.69559482749E+01 -0.41828733486E+03  0.41973182175E+03  0.19999983287E+01 0.  0.
         13    1    3    3    0    0 -0.34031198611E+02  0.69559482749E+01 -0.14054705411E+03  0.14477566535E+03  0.10566000000E+00 0. -1.
         13    1    4    4    0    0  0.38765981344E+01 -0.44166616366E+00 -0.42166892529E+02  0.42347149510E+02  0.10566000000E+00 0. -1.
        -13    1    4    4    0    0  0.29781553723E+02 -0.65080576337E+01 -0.37235322379E+03  0.37359902327E+03  0.10566000000E+00 0.  1.
        -14    1    4    4    0    0  0.37304675322E+00 -0.62244775517E-02 -0.37672185393E+01  0.37856489730E+01  0.00000000000E+00 0.  1.
<mgrwt>
<rscale>  0 0.79829999E+02</rscale>
<asrwt>0</asrwt>
<pdfrwt beam="1">  1        1 0.43639261E-03 0.79829999E+02</pdfrwt>
<pdfrwt beam="2">  1       -2 0.86410825E-01 0.79829999E+02</pdfrwt>
<totfact> 0.46193736E+04</totfact>
</mgrwt>
</event>
<event>
 8    1  0.8247621E-014  0.7891923E+02  0.7818608E-02  0.1332147E+00
         -2   -1    0    0    0  501 -0.00000000000E+00  0.00000000000E+00  0.58251131102E+03  0.58251131102E+03  0.25500000000E-02 0.  1.
          1   -1    0    0  501    0  0.00000000000E+00 -0.00000000000E+00 -0.26730120612E+01  0.26730168127E+01  0.50400000000E-02 0. -1.
        -24    2    1    2    0    0  0.17763568394E-14 -0.88817841970E-15  0.57983829896E+03  0.58518432784E+03  0.78919228380E+02 0.  0.
         66    2    3    3    0    0 -0.11725624404E+02  0.61083213265E+01  0.56558441036E+03  0.56574245649E+03  0.19999956792E+01 0.  0.
         13    1    3    3    0    0  0.11725624404E+02 -0.61083213265E+01  0.14253888601E+02  0.19441871344E+02  0.10566000000E+00 0. -1.
         13    1    4    4    0    0 -0.10782220640E+01  0.85356042879E+00  0.47352907683E+02  0.47372989755E+02  0.10566000000E+00 0. -1.
        -13    1    4    4    0    0 -0.74116050391E+01  0.43559995564E+01  0.37781826322E+03  0.37791607244E+03  0.10566000000E+00 0.  1.
        -14    1    4    4    0    0 -0.32357973009E+01  0.89876134131E+00  0.14041323946E+03  0.14045339430E+03  0.00000000000E+00 0.  1.
<mgrwt>
<rscale>  0 0.78919228E+02</rscale>
<asrwt>0</asrwt>
<pdfrwt beam="1">  1        1 0.41123309E-03 0.78919228E+02</pdfrwt>
<pdfrwt beam="2">  1       -2 0.89617103E-01 0.78919228E+02</pdfrwt>
<totfact> 0.46163473E+04</totfact>
</mgrwt>
</event>
<event>
 8    1  0.8247621E-014  0.7927296E+02  0.7818608E-02  0.1331127E+00
         -2   -1    0    0    0  501 -0.00000000000E+00  0.00000000000E+00  0.26234873424E+02  0.26234873548E+02  0.25500000000E-02 0.  1.
          1   -1    0    0  501    0  0.00000000000E+00 -0.00000000000E+00 -0.59884048950E+02  0.59884049162E+02  0.50400000000E-02 0. -1.
        -24    2    1    2    0    0  0.00000000000E+00  0.00000000000E+00 -0.33649175525E+02  0.86118922710E+02  0.79272957780E+02 0.  0.
         66    2    3    3    0    0  0.36987837454E+01 -0.26610968924E+02  0.14785459314E+02  0.30731652654E+02  0.19999998691E+01 0.  0.
         13    1    3    3    0    0 -0.36987837454E+01  0.26610968924E+02 -0.48434634839E+02  0.55387270056E+02  0.10566000000E+00 0. -1.
         13    1    4    4    0    0  0.19642777520E+00 -0.21033787639E+01  0.86538295547E+00  0.22853528809E+01  0.10566000000E+00 0. -1.
        -13    1    4    4    0    0  0.24882546022E+01 -0.11997597997E+02  0.66432602976E+01  0.13938358587E+02  0.10566000000E+00 0.  1.
        -14    1    4    4    0    0  0.10141013679E+01 -0.12509992162E+02  0.72768160608E+01  0.14507941186E+02  0.00000000000E+00 0.  1.
<mgrwt>
<rscale>  0 0.79272958E+02</rscale>
<asrwt>0</asrwt>
<pdfrwt beam="1">  1        1 0.92129306E-02 0.79272958E+02</pdfrwt>
<pdfrwt beam="2">  1       -2 0.40361344E-02 0.79272958E+02</pdfrwt>
<totfact> 0.13879052E+05</totfact>
</mgrwt>
</event>
<event>
 8    1  0.8247621E-014  0.8019717E+02  0.7818608E-02  0.1328493E+00
         -2   -1    0    0    0  501 -0.00000000000E+00  0.00000000000E+00  0.13772106721E+02  0.13772106957E+02  0.25500000000E-02 0.  1.
          1   -1    0    0  501    0  0.00000000000E+00 -0.00000000000E+00 -0.11675020885E+03  0.11675020896E+03  0.50400000000E-02 0. -1.
        -24    2    1    2    0    0  0.35527136788E-14  0.00000000000E+00 -0.10297810213E+03  0.13052231591E+03  0.80197165997E+02 0.  0.
         66    2    3    3    0    0  0.18642508819E+02 -0.11796556380E+02  0.29264682929E+01  0.22344263254E+02  0.20000015569E+01 0.  0.
         13    1    3    3    0    0 -0.18642508819E+02  0.11796556380E+02 -0.10590457042E+03  0.10817805266E+03  0.10566000000E+00 0. -1.
         13    1    4    4    0    0  0.70150696073E+01 -0.45128048229E+01  0.30345904281E+00  0.83474463395E+01  0.10566000000E+00 0. -1.
        -13    1    4    4    0    0  0.17066981174E+01 -0.14064734280E+01  0.30227482983E+00  0.22346185526E+01  0.10566000000E+00 0.  1.
         14    1    4    4    0    0  0.99207410941E+01 -0.58772781291E+01  0.23207344203E+01  0.11762198362E+02  0.00000000000E+00 0. -1.
<mgrwt>
<rscale>  0 0.80197166E+02</rscale>
<asrwt>0</asrwt>
<pdfrwt beam="1">  1        1 0.17961570E-01 0.80197166E+02</pdfrwt>
<pdfrwt beam="2">  1       -2 0.21187857E-02 0.80197166E+02</pdfrwt>
<totfact> 0.14994209E+05</totfact>
</mgrwt>
</event>
<event>
 8    1  0.8247621E-014  0.7649070E+02  0.7818608E-02  0.1339316E+00
         -2   -1    0    0    0  501 -0.00000000000E+00  0.00000000000E+00  0.40497820963E+02  0.40497821043E+02  0.25500000000E-02 0.  1.
          1   -1    0    0  501    0  0.00000000000E+00 -0.00000000000E+00 -0.36118155708E+02  0.36118156060E+02  0.50400000000E-02 0. -1.
        -24    2    1    2    0    0  0.00000000000E+00  0.00000000000E+00  0.43796652549E+01  0.76615977103E+02  0.76490695380E+02 0.  0.
         66    2    3    3    0    0  0.19469677509E+02 -0.64096594101E+01  0.34501710900E+02  0.40181091705E+02  0.19999998878E+01 0.  0.
         13    1    3    3    0    0 -0.19469677509E+02  0.64096594101E+01 -0.30122045645E+02  0.36434885398E+02  0.10566000000E+00 0. -1.
         13    1    4    4    0    0  0.32802458322E+01 -0.89695154198E+00  0.64157591231E+01  0.72620702247E+01  0.10566000000E+00 0. -1.
        -13    1    4    4    0    0  0.12240670192E+02 -0.46151984043E+01  0.20467839432E+02  0.24291514529E+02  0.10566000000E+00 0.  1.
        -14    1    4    4    0    0  0.39487614846E+01 -0.89750946386E+00  0.76181123443E+01  0.86275069510E+01  0.00000000000E+00 0.  1.
<mgrwt>
<rscale>  0 0.76490695E+02</rscale>
<asrwt>0</asrwt>
<pdfrwt beam="1">  1        1 0.55566394E-02 0.76490695E+02</pdfrwt>
<pdfrwt beam="2">  1       -2 0.62304340E-02 0.76490695E+02</pdfrwt>
<totfact> 0.14172225E+05</totfact>
</mgrwt>
</event>
<event>
 8    1  0.8247621E-014  0.7943941E+02  0.7818608E-02  0.1330650E+00
         -2   -1    0    0    0  501 -0.00000000000E+00  0.00000000000E+00  0.10946454500E+03  0.10946454503E+03  0.25500000000E-02 0.  1.
          1   -1    0    0  501    0  0.00000000000E+00 -0.00000000000E+00 -0.14412475239E+02  0.14412476120E+02  0.50400000000E-02 0. -1.
        -24    2    1    2    0    0 -0.35527136788E-14  0.00000000000E+00  0.95052069764E+02  0.12387702115E+03  0.79439413412E+02 0.  0.
         66    2    3    3    0    0  0.16966592192E+02  0.25785383785E+02  0.86475239126E+02  0.91840722125E+02  0.19999977662E+01 0.  0.
         13    1    3    3    0    0 -0.16966592192E+02 -0.25785383785E+02  0.85768306384E+01  0.32036299028E+02  0.10566000000E+00 0. -1.
         13    1    4    4    0    0  0.51616467536E+01  0.79731855550E+01  0.27152307347E+02  0.28765834655E+02  0.10566000000E+00 0.  1.
        -13    1    4    4    0    0  0.61039222852E+01  0.95614525325E+01  0.29188622933E+02  0.31315589002E+02  0.10566000000E+00 0.  1.
        -14    1    4    4    0    0  0.57010231529E+01  0.82507456978E+01  0.30134308846E+02  0.31759298468E+02  0.00000000000E+00 0.  1.
<mgrwt>
<rscale>  0 0.79439413E+02</rscale>
<asrwt>0</asrwt>
<pdfrwt beam="1">  1        1 0.22173040E-02 0.79439413E+02</pdfrwt>
<pdfrwt beam="2">  1       -2 0.16840699E-01 0.79439413E+02</pdfrwt>
<totfact> 0.10558772E+05</totfact>
</mgrwt>
</event>
<event>
 8    1  0.8247621E-014  0.8008283E+02  0.7818608E-02  0.1328817E+00
         -2   -1    0    0    0  501 -0.00000000000E+00  0.00000000000E+00  0.29823530985E+02  0.29823531094E+02  0.25500000000E-02 0.  1.
          1   -1    0    0  501    0  0.00000000000E+00 -0.00000000000E+00 -0.53760063014E+02  0.53760063250E+02  0.50400000000E-02 0. -1.
        -24    2    1    2    0    0 -0.17763568394E-14  0.22204460493E-15 -0.23936532029E+02  0.83583594344E+02  0.80082830107E+02 0.  0.
         66    2    3    3    0    0  0.11755417623E+02 -0.18193714244E+01  0.27901962374E+02  0.30397688110E+02  0.19999955650E+01 0.  0.
         13    1    3    3    0    0 -0.11755417623E+02  0.18193714244E+01 -0.51838494403E+02  0.53185906234E+02  0.10566000000E+00 0. -1.
         13    1    4    4    0    0  0.13083346722E+01 -0.12402675260E+00  0.26156355862E+01  0.29291356755E+01  0.10566000000E+00 0. -1.
        -13    1    4    4    0    0  0.61636857883E+01 -0.97216326930E+00  0.17061012943E+02  0.18166602616E+02  0.10566000000E+00 0.  1.
        -14    1    4    4    0    0  0.42833971626E+01 -0.72318140246E+00  0.82253138446E+01  0.93019498190E+01  0.00000000000E+00 0.  1.
<mgrwt>
<rscale>  0 0.80082830E+02</rscale>
<asrwt>0</asrwt>
<pdfrwt beam="1">  1        1 0.82707790E-02 0.80082830E+02</pdfrwt>
<pdfrwt beam="2">  1       -2 0.45882356E-02 0.80082830E+02</pdfrwt>
<totfact> 0.13269568E+05</totfact>
</mgrwt>
</event>
<event>
 8    1  0.8247621E-014  0.7916005E+02  0.7818608E-02  0.1331452E+00
          1   -1    0    0  501    0  0.00000000000E+00  0.00000000000E+00  0.27366206439E+03  0.27366206443E+03  0.50400000000E-02 0. -1.
         -2   -1    0    0    0  501 -0.00000000000E+00 -0.00000000000E+00 -0.57244999760E+01  0.57245005439E+01  0.25500000000E-02 0.  1.
        -24    2    1    2    0    0  0.00000000000E+00  0.00000000000E+00  0.26793756441E+03  0.27938656498E+03  0.79160054746E+02 0.  0.
         66    2    3    3    0    0 -0.12021679402E+02 -0.19049630042E+02  0.24880881931E+03  0.24983442066E+03  0.20000004178E+01 0.  0.
         13    1    3    3    0    0  0.12021679402E+02  0.19049630042E+02  0.19128745102E+02  0.29552144315E+02  0.10566000000E+00 0. -1.
         13    1    4    4    0    0 -0.32609809823E+00 -0.59149009795E+00  0.69159758749E+01  0.69496824995E+01  0.10566000000E+00 0.  1.
        -13    1    4    4    0    0 -0.94277460923E+01 -0.13406338994E+02  0.17977732202E+03  0.18052287667E+03  0.10566000000E+00 0.  1.
        -14    1    4    4    0    0 -0.22678352114E+01 -0.50518009495E+01  0.62115521410E+02  0.62361861497E+02  0.00000000000E+00 0.  1.
<mgrwt>
<rscale>  0 0.79160055E+02</rscale>
<asrwt>0</asrwt>
<pdfrwt beam="1">  1        1 0.42101840E-01 0.79160055E+02</pdfrwt>
<pdfrwt beam="2">  1       -2 0.88069270E-03 0.79160055E+02</pdfrwt>
<totfact> 0.18225774E+05</totfact>
</mgrwt>
</event>
<event>
 8    1  0.8247621E-014  0.8776387E+02  0.7818608E-02  0.1308359E+00
          1   -1    0    0  501    0  0.00000000000E+00  0.00000000000E+00  0.75445672520E+02  0.75445672689E+02  0.50400000000E-02 0. -1.
         -2   -1    0    0    0  501 -0.00000000000E+00 -0.00000000000E+00 -0.25523321168E+02  0.25523321296E+02  0.25500000000E-02 0.  1.
        -24    2    1    2    0    0  0.00000000000E+00  0.00000000000E+00  0.49922351352E+02  0.10096899398E+03  0.87763868315E+02 0.  0.
         66    2    3    3    0    0 -0.39687368938E+02 -0.11239587625E+02  0.78247499135E+01  0.42031444035E+02  0.19999983099E+01 0.  0.
         13    1    3    3    0    0  0.39687368938E+02  0.11239587625E+02  0.42097601439E+02  0.58937549950E+02  0.10566000000E+00 0. -1.
         13    1    4    4    0    0 -0.22998154744E+02 -0.59955317986E+01  0.43149294494E+01  0.24155564646E+02  0.10566000000E+00 0. -1.
        -13    1    4    4    0    0 -0.15704331123E+02 -0.46582209299E+01  0.32327648187E+01  0.16696915004E+02  0.10566000000E+00 0.  1.
         14    1    4    4    0    0 -0.98488307125E+00 -0.58583489619E+00  0.27705564547E+00  0.11789643847E+01  0.00000000000E+00 0. -1.
<mgrwt>
<rscale>  0 0.87763868E+02</rscale>
<asrwt>0</asrwt>
<pdfrwt beam="1">  1        1 0.11607026E-01 0.87763868E+02</pdfrwt>
<pdfrwt beam="2">  1       -2 0.39266649E-02 0.87763868E+02</pdfrwt>
<totfact> 0.10881760E+05</totfact>
</mgrwt>
</event>
<event>
 8    1  0.8247621E-014  0.8046771E+02  0.7818608E-02  0.1327729E+00
         -2   -1    0    0    0  501 -0.00000000000E+00  0.00000000000E+00  0.30825393459E+02  0.30825393565E+02  0.25500000000E-02 0.  1.
          1   -1    0    0  501    0  0.00000000000E+00 -0.00000000000E+00 -0.52513950544E+02  0.52513950786E+02  0.50400000000E-02 0. -1.
        -24    2    1    2    0    0  0.00000000000E+00  0.17763568394E-14 -0.21688557085E+02  0.83339344351E+02  0.80467712832E+02 0.  0.
         66    2    3    3    0    0 -0.22922163034E+02 -0.89160531616E+01  0.22093595031E+02  0.33121722244E+02  0.19999952257E+01 0.  0.
         13    1    3    3    0    0  0.22922163034E+02  0.89160531616E+01 -0.43782152116E+02  0.50217622107E+02  0.10566000000E+00 0. -1.
         13    1    4    4    0    0 -0.23822162792E+01 -0.13301592398E+01  0.25307118442E+01  0.37228946370E+01  0.10566000000E+00 0. -1.
        -13    1    4    4    0    0 -0.10527858464E+02 -0.36871176367E+01  0.10907830130E+02  0.15602005079E+02  0.10566000000E+00 0.  1.
         14    1    4    4    0    0 -0.10012088291E+02 -0.38987762850E+01  0.86550530567E+01  0.13796822528E+02  0.00000000000E+00 0. -1.
<mgrwt>
<rscale>  0 0.80467713E+02</rscale>
<asrwt>0</asrwt>
<pdfrwt beam="1">  1        1 0.80790694E-02 0.80467713E+02</pdfrwt>
<pdfrwt beam="2">  1       -2 0.47423682E-02 0.80467713E+02</pdfrwt>
<totfact> 0.13046019E+05</totfact>
</mgrwt>
</event>
<event>
 8    1  0.8247621E-014  0.8030827E+02  0.7818608E-02  0.1328179E+00
          1   -1    0    0  501    0  0.00000000000E+00  0.00000000000E+00  0.24635369979E+03  0.24635369984E+03  0.50400000000E-02 0. -1.
         -2   -1    0    0    0  501 -0.00000000000E+00 -0.00000000000E+00 -0.65448760801E+01  0.65448765769E+01  0.25500000000E-02 0.  1.
        -24    2    1    2    0    0  0.00000000000E+00  0.00000000000E+00  0.23980882371E+03  0.25289857642E+03  0.80308268724E+02 0.  0.
         66    2    3    3    0    0 -0.26267603026E+02 -0.26111726750E+02  0.71341545658E+02  0.80407868898E+02  0.20000003154E+01 0.  0.
         13    1    3    3    0    0  0.26267603026E+02  0.26111726750E+02  0.16846727805E+03  0.17249070752E+03  0.10566000000E+00 0. -1.
         13    1    4    4    0    0 -0.17541691790E+02 -0.16848746047E+02  0.48388145874E+02  0.54157317321E+02  0.10566000000E+00 0. -1.
        -13    1    4    4    0    0 -0.21513736894E+01 -0.23570514823E+01  0.61954692549E+01  0.69698711441E+01  0.10566000000E+00 0.  1.
        -14    1    4    4    0    0 -0.65745375472E+01 -0.69059292205E+01  0.16757930529E+02  0.19280680433E+02  0.00000000000E+00 0.  1.
<mgrwt>
<rscale>  0 0.80308269E+02</rscale>
<asrwt>0</asrwt>
<pdfrwt beam="1">  1        1 0.37900565E-01 0.80308269E+02</pdfrwt>
<pdfrwt beam="2">  1       -2 0.10069042E-02 0.80308269E+02</pdfrwt>
<totfact> 0.17189724E+05</totfact>
</mgrwt>
</event>
<event>
 8    1  0.8247621E-014  0.8005417E+02  0.7818608E-02  0.1328898E+00
         -2   -1    0    0    0  501 -0.00000000000E+00  0.00000000000E+00  0.29758738484E+02  0.29758738594E+02  0.25500000000E-02 0.  1.
          1   -1    0    0  501    0  0.00000000000E+00 -0.00000000000E+00 -0.53838556409E+02  0.53838556645E+02  0.50400000000E-02 0. -1.
        -24    2    1    2    0    0  0.00000000000E+00  0.00000000000E+00 -0.24079817925E+02  0.83597295239E+02  0.80054170035E+02 0.  0.
         66    2    3    3    0    0  0.16162358836E+02 -0.87603354631E+01  0.25052424194E+02  0.31138228336E+02  0.19999963322E+01 0.  0.
         13    1    3    3    0    0 -0.16162358836E+02  0.87603354631E+01 -0.49132242119E+02  0.52459066902E+02  0.10566000000E+00 0. -1.
         13    1    4    4    0    0  0.11477066275E+01 -0.35905097659E+00  0.16735797275E+01  0.20635361026E+01  0.10566000000E+00 0. -1.
        -13    1    4    4    0    0  0.10135338822E+02 -0.59255520628E+01  0.17151316192E+02  0.20784996306E+02  0.10566000000E+00 0.  1.
        -14    1    4    4    0    0  0.48793133868E+01 -0.24757324237E+01  0.62275282746E+01  0.82896959275E+01  0.00000000000E+00 0.  1.
<mgrwt>
<rscale>  0 0.80054170E+02</rscale>
<asrwt>0</asrwt>
<pdfrwt beam="1">  1        1 0.82828549E-02 0.80054170E+02</pdfrwt>
<pdfrwt beam="2">  1       -2 0.45782675E-02 0.80054170E+02</pdfrwt>
<totfact> 0.13285779E+05</totfact>
</mgrwt>
</event>
<event>
 8    1  0.8247621E-014  0.7961321E+02  0.7818608E-02  0.1330153E+00
          1   -1    0    0  501    0  0.00000000000E+00  0.00000000000E+00  0.27485667894E+03  0.27485667899E+03  0.50400000000E-02 0. -1.
         -2   -1    0    0    0  501 -0.00000000000E+00 -0.00000000000E+00 -0.57650622763E+01  0.57650628403E+01  0.25500000000E-02 0.  1.
        -24    2    1    2    0    0  0.00000000000E+00  0.22204460493E-15  0.26909161667E+03  0.28062174183E+03  0.79613213898E+02 0.  0.
         66    2    3    3    0    0 -0.37606126414E+02 -0.15037207409E+01  0.89205618618E+02  0.96840716209E+02  0.20000007644E+01 0.  0.
         13    1    3    3    0    0  0.37606126414E+02  0.15037207409E+01  0.17988599805E+03  0.18378102562E+03  0.10566000000E+00 0. -1.
         13    1    4    4    0    0 -0.10327249556E+02 -0.11340909344E+01  0.25225545076E+02  0.27281450366E+02  0.10566000000E+00 0. -1.
        -13    1    4    4    0    0 -0.21068436134E+02 -0.35348901632E-01  0.50063049102E+02  0.54315746337E+02  0.10566000000E+00 0.  1.
         14    1    4    4    0    0 -0.62104407229E+01 -0.33428090479E+00  0.13917024440E+02  0.15243519507E+02  0.00000000000E+00 0. -1.
<mgrwt>
<rscale>  0 0.79613214E+02</rscale>
<asrwt>0</asrwt>
<pdfrwt beam="1">  1        1 0.42285637E-01 0.79613214E+02</pdfrwt>
<pdfrwt beam="2">  1       -2 0.88693283E-03 0.79613214E+02</pdfrwt>
<totfact> 0.17968578E+05</totfact>
</mgrwt>
</event>
<event>
 8    1  0.8247621E-014  0.8175026E+02  0.7818608E-02  0.1324157E+00
         -2   -1    0    0    0  501 -0.00000000000E+00  0.00000000000E+00  0.10047228118E+03  0.10047228121E+03  0.25500000000E-02 0.  1.
          1   -1    0    0  501    0  0.00000000000E+00 -0.00000000000E+00 -0.16629223481E+02  0.16629224244E+02  0.50400000000E-02 0. -1.
        -24    2    1    2    0    0  0.55511151231E-16  0.00000000000E+00  0.83843057695E+02  0.11710150545E+03  0.81750255385E+02 0.  0.
         66    2    3    3    0    0  0.49216467773E+00 -0.40434384851E+02  0.50248386302E+02  0.64529699184E+02  0.20000116192E+01 0.  0.
         13    1    3    3    0    0 -0.49216467773E+00  0.40434384851E+02  0.33594671392E+02  0.52571806268E+02  0.10566000000E+00 0. -1.
         13    1    4    4    0    0 -0.73710741571E+00 -0.13668063417E+02  0.17338910603E+02  0.22090909213E+02  0.10566000000E+00 0. -1.
        -13    1    4    4    0    0  0.54430339982E+00 -0.14212865476E+02  0.17504993806E+02  0.22555216323E+02  0.10566000000E+00 0.  1.
         14    1    4    4    0    0  0.68496869362E+00 -0.12553455958E+02  0.15404481893E+02  0.19883573648E+02  0.00000000000E+00 0. -1.
<mgrwt>
<rscale>  0 0.81750255E+02</rscale>
<asrwt>0</asrwt>
<pdfrwt beam="1">  1        1 0.25583422E-02 0.81750255E+02</pdfrwt>
<pdfrwt beam="2">  1       -2 0.15457274E-01 0.81750255E+02</pdfrwt>
<totfact> 0.10028853E+05</totfact>
</mgrwt>
</event>
<event>
 8    1  0.8247621E-014  0.7928521E+02  0.7818608E-02  0.1331092E+00
         -2   -1    0    0    0  501 -0.00000000000E+00  0.00000000000E+00  0.18375042684E+02  0.18375042861E+02  0.25500000000E-02 0.  1.
          1   -1    0    0  501    0  0.00000000000E+00 -0.00000000000E+00 -0.85525571769E+02  0.85525571917E+02  0.50400000000E-02 0. -1.
        -24    2    1    2    0    0  0.00000000000E+00  0.00000000000E+00 -0.67150529085E+02  0.10390061478E+03  0.79285207920E+02 0.  0.
         66    2    3    3    0    0  0.14259629712E+02 -0.35802644098E+02 -0.21559897627E+02  0.44204021872E+02  0.20000000043E+01 0.  0.
         13    1    3    3    0    0 -0.14259629712E+02  0.35802644098E+02 -0.45590631458E+02  0.59696592907E+02  0.10566000000E+00 0. -1.
         13    1    4    4    0    0  0.38003005486E+01 -0.10768121209E+02 -0.67746448633E+01  0.13277864877E+02  0.10566000000E+00 0. -1.
        -13    1    4    4    0    0  0.35613271287E+01 -0.90736338163E+01 -0.59784193158E+01  0.11435319982E+02  0.10566000000E+00 0.  1.
         14    1    4    4    0    0  0.68980020343E+01 -0.15960889073E+02 -0.88068334480E+01  0.19490837012E+02  0.00000000000E+00 0. -1.
<mgrwt>
<rscale>  0 0.79285208E+02</rscale>
<asrwt>0</asrwt>
<pdfrwt beam="1">  1        1 0.13157780E-01 0.79285208E+02</pdfrwt>
<pdfrwt beam="2">  1       -2 0.28269297E-02 0.79285208E+02</pdfrwt>
<totfact> 0.14676923E+05</totfact>
</mgrwt>
</event>
<event>
 8    1  0.8247621E-014  0.7919471E+02  0.7818608E-02  0.1331352E+00
         -2   -1    0    0    0  501 -0.00000000000E+00  0.00000000000E+00  0.34199391125E+01  0.34199400632E+01  0.25500000000E-02 0.  1.
          1   -1    0    0  501    0  0.00000000000E+00 -0.00000000000E+00 -0.45847316806E+03  0.45847316809E+03  0.50400000000E-02 0. -1.
        -24    2    1    2    0    0  0.17763568394E-14 -0.71054273576E-14 -0.45505322895E+03  0.46189310815E+03  0.79194710567E+02 0.  0.
         66    2    3    3    0    0  0.93770787422E+01 -0.35842703524E+02 -0.30876366878E+03  0.31098493879E+03  0.19999986379E+01 0.  0.
         13    1    3    3    0    0 -0.93770787422E+01  0.35842703524E+02 -0.14628956017E+03  0.15090816937E+03  0.10566000000E+00 0. -1.
         13    1    4    4    0    0  0.18899761620E+01 -0.91141101024E+01 -0.77358198725E+02  0.77916244050E+02  0.10566000000E+00 0. -1.
        -13    1    4    4    0    0  0.28889592560E+01 -0.84869535126E+01 -0.78468278624E+02  0.78978835011E+02  0.10566000000E+00 0.  1.
        -14    1    4    4    0    0  0.45981433242E+01 -0.18241639909E+02 -0.15293719143E+03  0.15408985973E+03  0.00000000000E+00 0.  1.
<mgrwt>
<rscale>  0 0.79194711E+02</rscale>
<asrwt>0</asrwt>
<pdfrwt beam="1">  1        1 0.70534285E-01 0.79194711E+02</pdfrwt>
<pdfrwt beam="2">  1       -2 0.52614492E-03 0.79194711E+02</pdfrwt>
<totfact> 0.19912075E+05</totfact>
</mgrwt>
</event>
<event>
 8    1  0.8247621E-014  0.7978350E+02  0.7818608E-02  0.1329667E+00
         -2   -1    0    0    0  501 -0.00000000000E+00  0.00000000000E+00  0.31495305005E+03  0.31495305006E+03  0.25500000000E-02 0.  1.
          1   -1    0    0  501    0  0.00000000000E+00 -0.00000000000E+00 -0.50526617145E+01  0.50526642282E+01  0.50400000000E-02 0. -1.
        -24    2    1    2    0    0 -0.35527136788E-14  0.00000000000E+00  0.30990038834E+03  0.32000571429E+03  0.79783497585E+02 0.  0.
         66    2    3    3    0    0 -0.21317068356E+02  0.26149208028E+02  0.24024036261E+03  0.24260591563E+03  0.19999973946E+01 0.  0.
         13    1    3    3    0    0  0.21317068356E+02 -0.26149208028E+02  0.69660025729E+02  0.77399798659E+02  0.10566000000E+00 0. -1.
         13    1    4    4    0    0 -0.10167247713E+02  0.12740946204E+02  0.11937975381E+03  0.12048751562E+03  0.10566000000E+00 0. -1.
        -13    1    4    4    0    0 -0.37683707739E+01  0.53417603466E+01  0.43268628232E+02  0.43759803187E+02  0.10566000000E+00 0.  1.
        -14    1    4    4    0    0 -0.73814498692E+01  0.80665014771E+01  0.77591980562E+02  0.78358596821E+02  0.00000000000E+00 0.  1.
<mgrwt>
<rscale>  0 0.79783498E+02</rscale>
<asrwt>0</asrwt>
<pdfrwt beam="1">  1        1 0.77733270E-03 0.79783498E+02</pdfrwt>
<pdfrwt beam="2">  1       -2 0.48454319E-01 0.79783498E+02</pdfrwt>
<totfact> 0.68884274E+04</totfact>
</mgrwt>
</event>
<event>
 8    1  0.8247621E-014  0.8037669E+02  0.7818608E-02  0.1327986E+00
          1   -1    0    0  501    0  0.00000000000E+00  0.00000000000E+00  0.34860691584E+02  0.34860691948E+02  0.50400000000E-02 0. -1.
         -2   -1    0    0    0  501 -0.00000000000E+00 -0.00000000000E+00 -0.46330204999E+02  0.46330205069E+02  0.25500000000E-02 0.  1.
        -24    2    1    2    0    0  0.35527136788E-14  0.00000000000E+00 -0.11469513415E+02  0.81190897017E+02  0.80376688290E+02 0.  0.
         66    2    3    3    0    0 -0.21264172495E+02  0.11351275035E+02 -0.38189757574E+02  0.45204801247E+02  0.19999988616E+01 0.  0.
         13    1    3    3    0    0  0.21264172495E+02 -0.11351275035E+02  0.26720244159E+02  0.35986095770E+02  0.10566000000E+00 0. -1.
         13    1    4    4    0    0 -0.38564312183E+01  0.22349780597E+01 -0.68290485610E+01  0.81556273181E+01  0.10566000000E+00 0.  1.
        -13    1    4    4    0    0 -0.43834300173E+01  0.28860824697E+01 -0.94319547602E+01  0.10794297817E+02  0.10566000000E+00 0. -1.
         14    1    4    4    0    0 -0.13024311260E+02  0.62302145055E+01 -0.21928754252E+02  0.26254876112E+02  0.00000000000E+00 0. -1.
<mgrwt>
<rscale>  0 0.80376688E+02</rscale>
<asrwt>0</asrwt>
<pdfrwt beam="1">  1        1 0.53631834E-02 0.80376688E+02</pdfrwt>
<pdfrwt beam="2">  1       -2 0.71277238E-02 0.80376688E+02</pdfrwt>
<totfact> 0.12247427E+05</totfact>
</mgrwt>
</event>
<event>
 8    1  0.8247621E-014  0.7899606E+02  0.7818608E-02  0.1331925E+00
          1   -1    0    0  501    0  0.00000000000E+00  0.00000000000E+00  0.92817882409E+01  0.92817896093E+01  0.50400000000E-02 0. -1.
         -2   -1    0    0    0  501 -0.00000000000E+00 -0.00000000000E+00 -0.16808123490E+03  0.16808123492E+03  0.25500000000E-02 0.  1.
        -24    2    1    2    0    0  0.00000000000E+00  0.35527136788E-14 -0.15879944666E+03  0.17736302452E+03  0.78996064526E+02 0.  0.
         66    2    3    3    0    0  0.82276467822E+01 -0.23913582893E+02 -0.14749696402E+03  0.14966264734E+03  0.19999988620E+01 0.  0.
         13    1    3    3    0    0 -0.82276467822E+01  0.23913582893E+02 -0.11302482634E+02  0.27700377183E+02  0.10566000000E+00 0. -1.
         13    1    4    4    0    0  0.24304401984E+01 -0.73533077798E+01 -0.41585622815E+02  0.42300748975E+02  0.10566000000E+00 0. -1.
        -13    1    4    4    0    0  0.19910055933E+01 -0.59945982438E+01 -0.34683183476E+02  0.35253846478E+02  0.10566000000E+00 0.  1.
        -14    1    4    4    0    0  0.38062009905E+01 -0.10565676870E+02 -0.71228157729E+02  0.72108051889E+02  0.00000000000E+00 0.  1.
<mgrwt>
<rscale>  0 0.78996065E+02</rscale>
<asrwt>0</asrwt>
<pdfrwt beam="1">  1        1 0.14279677E-02 0.78996065E+02</pdfrwt>
<pdfrwt beam="2">  1       -2 0.25858649E-01 0.78996065E+02</pdfrwt>
<totfact> 0.93904036E+04</totfact>
</mgrwt>
</event>
<event>
 8    1  0.8247621E-014  0.8186197E+02  0.7818608E-02  0.1323849E+00
          1   -1    0    0  501    0  0.00000000000E+00  0.00000000000E+00  0.59153239144E+02  0.59153239358E+02  0.50400000000E-02 0. -1.
         -2   -1    0    0    0  501 -0.00000000000E+00 -0.00000000000E+00 -0.28322129370E+02  0.28322129485E+02  0.25500000000E-02 0.  1.
        -24    2    1    2    0    0 -0.35527136788E-14  0.17763568394E-14  0.30831109774E+02  0.87475368843E+02  0.81861974227E+02 0.  0.
         66    2    3    3    0    0  0.23124020842E+02  0.10900608736E+02  0.49548771211E+02  0.55790899076E+02  0.20000201035E+01 0.  0.
         13    1    3    3    0    0 -0.23124020842E+02 -0.10900608736E+02 -0.18717661437E+02  0.31684469767E+02  0.10566000000E+00 0. -1.
         13    1    4    4    0    0  0.71363507755E+00  0.34110415735E+00  0.11095990140E+01  0.13667483593E+01  0.10566000000E+00 0. -1.
        -13    1    4    4    0    0  0.27549787293E+01  0.17331759054E+01  0.58711008349E+01  0.67137765503E+01  0.10566000000E+00 0. -1.
        -14    1    4    4    0    0  0.19655407035E+02  0.88263286733E+01  0.42568071362E+02  0.47710374166E+02  0.00000000000E+00 0.  1.
<mgrwt>
<rscale>  0 0.81861974E+02</rscale>
<asrwt>0</asrwt>
<pdfrwt beam="1">  1        1 0.91004983E-02 0.81861974E+02</pdfrwt>
<pdfrwt beam="2">  1       -2 0.43572507E-02 0.81861974E+02</pdfrwt>
<totfact> 0.12676191E+05</totfact>
</mgrwt>
</event>
<event>
 8    1  0.8247621E-014  0.7956568E+02  0.7818608E-02  0.1330288E+00
         -2   -1    0    0    0  501 -0.00000000000E+00  0.00000000000E+00  0.96945948797E+02  0.96945948830E+02  0.25500000000E-02 0.  1.
          1   -1    0    0  501    0  0.00000000000E+00 -0.00000000000E+00 -0.16325328049E+02  0.16325328827E+02  0.50400000000E-02 0. -1.
        -24    2    1    2    0    0  0.00000000000E+00  0.35527136788E-14  0.80620620748E+02  0.11327127766E+03  0.79565682630E+02 0.  0.
         66    2    3    3    0    0  0.53504483956E+01  0.16107031184E+02  0.91518863539E+02  0.93100838605E+02  0.20000034582E+01 0.  0.
         13    1    3    3    0    0 -0.53504483956E+01 -0.16107031184E+02 -0.10898242792E+02  0.20170439053E+02  0.10566000000E+00 0. -1.
         13    1    4    4    0    0  0.69073429823E+00  0.42819917526E+01  0.23199418051E+02  0.23601625562E+02  0.10566000000E+00 0.  1.
        -13    1    4    4    0    0  0.14592442397E+01  0.28276542955E+01  0.15537557655E+02  0.15860387274E+02  0.10566000000E+00 0. -1.
        -14    1    4    4    0    0  0.32004698577E+01  0.89973851359E+01  0.52781887834E+02  0.53638825769E+02  0.00000000000E+00 0.  1.
<mgrwt>
<rscale>  0 0.79565683E+02</rscale>
<asrwt>0</asrwt>
<pdfrwt beam="1">  1        1 0.25115890E-02 0.79565683E+02</pdfrwt>
<pdfrwt beam="2">  1       -2 0.14914761E-01 0.79565683E+02</pdfrwt>
<totfact> 0.10843971E+05</totfact>
</mgrwt>
</event>
<event>
 8    1  0.8247621E-014  0.8165537E+02  0.7818608E-02  0.1324418E+00
          1   -1    0    0  501    0  0.00000000000E+00  0.00000000000E+00  0.55725195734E+02  0.55725195961E+02  0.50400000000E-02 0. -1.
         -2   -1    0    0    0  501 -0.00000000000E+00 -0.00000000000E+00 -0.29912854377E+02  0.29912854486E+02  0.25500000000E-02 0.  1.
        -24    2    1    2    0    0  0.00000000000E+00  0.11102230246E-15  0.25812341356E+02  0.85638050447E+02  0.81655365520E+02 0.  0.
         66    2    3    3    0    0  0.18390160879E+02 -0.90837271280E+00 -0.25274623122E+02  0.31334162357E+02  0.19999996370E+01 0.  0.
         13    1    3    3    0    0 -0.18390160879E+02  0.90837271280E+00  0.51086964478E+02  0.54303888090E+02  0.10566000000E+00 0. -1.
         13    1    4    4    0    0  0.66843043736E+01  0.48817607168E+00 -0.89456186281E+01  0.11178260039E+02  0.10566000000E+00 0. -1.
        -13    1    4    4    0    0  0.57579500613E+01 -0.82097966396E+00 -0.74209380492E+01  0.94291824716E+01  0.10566000000E+00 0.  1.
         14    1    4    4    0    0  0.59479064437E+01 -0.57556912052E+00 -0.89080664443E+01  0.10726719846E+02  0.00000000000E+00 0. -1.
<mgrwt>
<rscale>  0 0.81655366E+02</rscale>
<asrwt>0</asrwt>
<pdfrwt beam="1">  1        1 0.85731071E-02 0.81655366E+02</pdfrwt>
<pdfrwt beam="2">  1       -2 0.46019776E-02 0.81655366E+02</pdfrwt>
<totfact> 0.12644331E+05</totfact>
</mgrwt>
</event>
<event>
 8    1  0.8247621E-014  0.8090459E+02  0.7818608E-02  0.1326504E+00
          1   -1    0    0  501    0  0.00000000000E+00  0.00000000000E+00  0.35299915586E+02  0.35299915946E+02  0.50400000000E-02 0. -1.
         -2   -1    0    0    0  501 -0.00000000000E+00 -0.00000000000E+00 -0.46356717376E+02  0.46356717446E+02  0.25500000000E-02 0.  1.
        -24    2    1    2    0    0 -0.71054273576E-14  0.00000000000E+00 -0.11056801790E+02  0.81656633392E+02  0.80904591409E+02 0.  0.
         66    2    3    3    0    0  0.35023912329E+02  0.79042938683E+01 -0.24284873733E+02  0.43392481138E+02  0.20000076750E+01 0.  0.
         13    1    3    3    0    0 -0.35023912329E+02 -0.79042938683E+01  0.13228071943E+02  0.38264152254E+02  0.10566000000E+00 0. -1.
         13    1    4    4    0    0  0.14739980045E+02  0.40105158151E+01 -0.94694324532E+01  0.17973106683E+02  0.10566000000E+00 0. -1.
        -13    1    4    4    0    0  0.10277520570E+02  0.19926300945E+01 -0.76055971901E+01  0.12940412528E+02  0.10566000000E+00 0.  1.
         14    1    4    4    0    0  0.10006411714E+02  0.19011479587E+01 -0.72098440896E+01  0.12478961926E+02  0.00000000000E+00 0. -1.
<mgrwt>
<rscale>  0 0.80904591E+02</rscale>
<asrwt>0</asrwt>
<pdfrwt beam="1">  1        1 0.54307563E-02 0.80904591E+02</pdfrwt>
<pdfrwt beam="2">  1       -2 0.71318027E-02 0.80904591E+02</pdfrwt>
<totfact> 0.12046871E+05</totfact>
</mgrwt>
</event>
<event>
 8    1  0.8247621E-014  0.8029579E+02  0.7818608E-02  0.1328214E+00
          1   -1    0    0  501    0  0.00000000000E+00  0.00000000000E+00  0.37037052568E+02  0.37037052910E+02  0.50400000000E-02 0. -1.
         -2   -1    0    0    0  501 -0.00000000000E+00 -0.00000000000E+00 -0.43520025844E+02  0.43520025918E+02  0.25500000000E-02 0.  1.
        -24    2    1    2    0    0  0.00000000000E+00  0.35527136788E-14 -0.64829732762E+01  0.80557078829E+02  0.80295790717E+02 0.  0.
         66    2    3    3    0    0  0.26650406170E+02 -0.29951121590E+02 -0.16462351730E+01  0.40174916516E+02  0.19999983262E+01 0.  0.
         13    1    3    3    0    0 -0.26650406170E+02  0.29951121590E+02 -0.48367381032E+01  0.40382162313E+02  0.10566000000E+00 0. -1.
         13    1    4    4    0    0  0.65913429795E+01 -0.85674806354E+01 -0.91870426532E-01  0.10810510206E+02  0.10566000000E+00 0. -1.
        -13    1    4    4    0    0  0.45928000300E+01 -0.51201829977E+01 -0.45732799093E+00  0.68942293966E+01  0.10566000000E+00 0.  1.
         14    1    4    4    0    0  0.15466263160E+02 -0.16263457957E+02 -0.10970367555E+01  0.22470176913E+02  0.00000000000E+00 0. -1.
<mgrwt>
<rscale>  0 0.80295791E+02</rscale>
<asrwt>0</asrwt>
<pdfrwt beam="1">  1        1 0.56980081E-02 0.80295791E+02</pdfrwt>
<pdfrwt beam="2">  1       -2 0.66953886E-02 0.80295791E+02</pdfrwt>
<totfact> 0.12407893E+05</totfact>
</mgrwt>
</event>
<event>
 8    1  0.8247621E-014  0.7904294E+02  0.7818608E-02  0.1331790E+00
          1   -1    0    0  501    0  0.00000000000E+00  0.00000000000E+00  0.14295228191E+03  0.14295228200E+03  0.50400000000E-02 0. -1.
         -2   -1    0    0    0  501 -0.00000000000E+00 -0.00000000000E+00 -0.10926348452E+02  0.10926348750E+02  0.25500000000E-02 0.  1.
        -24    2    1    2    0    0 -0.35527136788E-14  0.00000000000E+00  0.13202593346E+03  0.15387863075E+03  0.79042937038E+02 0.  0.
         66    2    3    3    0    0 -0.21540673444E+02 -0.51649384577E+01  0.23964093767E+01  0.22370068748E+02  0.19999990504E+01 0.  0.
         13    1    3    3    0    0  0.21540673444E+02  0.51649384577E+01  0.12962952408E+03  0.13150856200E+03  0.10566000000E+00 0. -1.
         13    1    4    4    0    0 -0.36193948274E+01 -0.10270388926E+01  0.33731187661E+00  0.37788584442E+01  0.10566000000E+00 0. -1.
        -13    1    4    4    0    0 -0.62366104219E+01 -0.19822616509E+01  0.78222366771E-01  0.65453765042E+01  0.10566000000E+00 0.  1.
         14    1    4    4    0    0 -0.11684668195E+02 -0.21556379143E+01  0.19808751333E+01  0.12045833800E+02  0.00000000000E+00 0. -1.
<mgrwt>
<rscale>  0 0.79042937E+02</rscale>
<asrwt>0</asrwt>
<pdfrwt beam="1">  1        1 0.21992659E-01 0.79042937E+02</pdfrwt>
<pdfrwt beam="2">  1       -2 0.16809767E-02 0.79042937E+02</pdfrwt>
<totfact> 0.16161249E+05</totfact>
</mgrwt>
</event>
<event>
 8    1  0.8247621E-014  0.7846314E+02  0.7818608E-02  0.1333470E+00
          1   -1    0    0  501    0  0.00000000000E+00  0.00000000000E+00  0.24994234674E+03  0.24994234679E+03  0.50400000000E-02 0. -1.
         -2   -1    0    0    0  501 -0.00000000000E+00 -0.00000000000E+00 -0.61578833685E+01  0.61578838965E+01  0.25500000000E-02 0.  1.
        -24    2    1    2    0    0 -0.35527136788E-14  0.00000000000E+00  0.24378446338E+03  0.25610023069E+03  0.78463135146E+02 0.  0.
         66    2    3    3    0    0  0.19863135478E+02  0.27673734690E+02  0.18532317489E+03  0.18843847519E+03  0.20000090049E+01 0.  0.
         13    1    3    3    0    0 -0.19863135478E+02 -0.27673734690E+02  0.58461288482E+02  0.67661755503E+02  0.10566000000E+00 0. -1.
         13    1    4    4    0    0  0.93092505620E+00  0.19133894370E+01  0.11798620498E+02  0.11989424102E+02  0.10566000000E+00 0. -1.
        -13    1    4    4    0    0  0.59540832277E+01  0.74345946717E+01  0.49613089181E+02  0.50519244720E+02  0.10566000000E+00 0.  1.
         14    1    4    4    0    0  0.12978127194E+02  0.18325750581E+02  0.12391146521E+03  0.12592980637E+03  0.00000000000E+00 0. -1.
<mgrwt>
<rscale>  0 0.78463135E+02</rscale>
<asrwt>0</asrwt>
<pdfrwt beam="1">  1        1 0.38452665E-01 0.78463135E+02</pdfrwt>
<pdfrwt beam="2">  1       -2 0.94736681E-03 0.78463135E+02</pdfrwt>
<totfact> 0.18330012E+05</totfact>
</mgrwt>
</event>
<event>
 8    1  0.8247621E-014  0.8405531E+02  0.7818608E-02  0.1317922E+00
         -2   -1    0    0    0  501 -0.00000000000E+00  0.00000000000E+00  0.57982018067E+02  0.57982018123E+02  0.25500000000E-02 0.  1.
          1   -1    0    0  501    0  0.00000000000E+00 -0.00000000000E+00 -0.30463300845E+02  0.30463301262E+02  0.50400000000E-02 0. -1.
        -24    2    1    2    0    0  0.00000000000E+00  0.35527136788E-14  0.27518717222E+02  0.88445319385E+02  0.84055307528E+02 0.  0.
         66    2    3    3    0    0  0.36062260907E+02  0.20265416817E+02  0.60963303404E+01  0.41860948570E+02  0.19999977792E+01 0.  0.
         13    1    3    3    0    0 -0.36062260907E+02 -0.20265416817E+02  0.21422386881E+02  0.46584370815E+02  0.10566000000E+00 0. -1.
         13    1    4    4    0    0  0.85016029937E+01  0.47430173930E+01  0.10833658898E+01  0.97958314164E+01  0.10566000000E+00 0. -1.
        -13    1    4    4    0    0  0.26560274144E+02  0.14883122556E+02  0.51179265966E+01  0.30873286776E+02  0.10566000000E+00 0.  1.
        -14    1    4    4    0    0  0.10003837686E+01  0.63927686804E+00 -0.10496214612E+00  0.11918303783E+01  0.00000000000E+00 0.  1.
<mgrwt>
<rscale>  0 0.84055308E+02</rscale>
<asrwt>0</asrwt>
<pdfrwt beam="1">  1        1 0.46866618E-02 0.84055308E+02</pdfrwt>
<pdfrwt beam="2">  1       -2 0.89203103E-02 0.84055308E+02</pdfrwt>
<totfact> 0.10514469E+05</totfact>
</mgrwt>
</event>
<event>
 8    1  0.8247621E-014  0.7930151E+02  0.7818608E-02  0.1331045E+00
         -2   -1    0    0    0  501 -0.00000000000E+00  0.00000000000E+00  0.12945558145E+02  0.12945558397E+02  0.25500000000E-02 0.  1.
          1   -1    0    0  501    0  0.00000000000E+00 -0.00000000000E+00 -0.12144568677E+03  0.12144568688E+03  0.50400000000E-02 0. -1.
        -24    2    1    2    0    0  0.00000000000E+00  0.00000000000E+00 -0.10850012863E+03  0.13439124527E+03  0.79301506253E+02 0.  0.
         66    2    3    3    0    0 -0.27686539917E+02 -0.18552963146E+02 -0.17960392340E+02  0.37912170106E+02  0.20000037731E+01 0.  0.
         13    1    3    3    0    0  0.27686539917E+02  0.18552963146E+02 -0.90539736286E+02  0.96479075166E+02  0.10566000000E+00 0. -1.
         13    1    4    4    0    0 -0.16814713317E+02 -0.11628905537E+02 -0.11663449317E+02  0.23537485888E+02  0.10566000000E+00 0. -1.
        -13    1    4    4    0    0 -0.53100101583E+01 -0.28647597282E+01 -0.28136459824E+01  0.66581396750E+01  0.10566000000E+00 0.  1.
         14    1    4    4    0    0 -0.55618164414E+01 -0.40592978814E+01 -0.34832970400E+01  0.77165445432E+01  0.00000000000E+00 0. -1.
<mgrwt>
<rscale>  0 0.79301506E+02</rscale>
<asrwt>0</asrwt>
<pdfrwt beam="1">  1        1 0.18683951E-01 0.79301506E+02</pdfrwt>
<pdfrwt beam="2">  1       -2 0.19916244E-02 0.79301506E+02</pdfrwt>
<totfact> 0.15560469E+05</totfact>
</mgrwt>
</event>
<event>
 8    1  0.8247621E-014  0.8082732E+02  0.7818608E-02  0.1326720E+00
         -2   -1    0    0    0  501 -0.00000000000E+00  0.00000000000E+00  0.60622081509E+01  0.60622086872E+01  0.25500000000E-02 0.  1.
          1   -1    0    0  501    0  0.00000000000E+00 -0.00000000000E+00 -0.26941733248E+03  0.26941733252E+03  0.50400000000E-02 0. -1.
        -24    2    1    2    0    0  0.00000000000E+00  0.00000000000E+00 -0.26335512433E+03  0.27547954121E+03  0.80827322838E+02 0.  0.
         66    2    3    3    0    0 -0.39118958961E+02 -0.17373914492E+01 -0.16548886544E+03  0.17007020922E+03  0.19999997633E+01 0.  0.
         13    1    3    3    0    0  0.39118958961E+02  0.17373914492E+01 -0.97866258884E+02  0.10540933199E+03  0.10566000000E+00 0. -1.
         13    1    4    4    0    0 -0.34662422635E+01 -0.77280959988E-01 -0.14882806137E+02  0.15281684800E+02  0.10566000000E+00 0. -1.
        -13    1    4    4    0    0 -0.18937655557E+02 -0.13814414971E+01 -0.83437284736E+02  0.85570642319E+02  0.10566000000E+00 0.  1.
         14    1    4    4    0    0 -0.16715061140E+02 -0.27866899212E+00 -0.67168774568E+02  0.69217882099E+02  0.00000000000E+00 0. -1.
<mgrwt>
<rscale>  0 0.80827323E+02</rscale>
<asrwt>0</asrwt>
<pdfrwt beam="1">  1        1 0.41448811E-01 0.80827323E+02</pdfrwt>
<pdfrwt beam="2">  1       -2 0.93264766E-03 0.80827323E+02</pdfrwt>
<totfact> 0.17197453E+05</totfact>
</mgrwt>
</event>
<event>
 8    1  0.8247621E-014  0.7796827E+02  0.7818608E-02  0.1334918E+00
         -2   -1    0    0    0  501 -0.00000000000E+00  0.00000000000E+00  0.70769361979E+02  0.70769362025E+02  0.25500000000E-02 0.  1.
          1   -1    0    0  501    0  0.00000000000E+00 -0.00000000000E+00 -0.21474866618E+02  0.21474867209E+02  0.50400000000E-02 0. -1.
        -24    2    1    2    0    0  0.00000000000E+00  0.00000000000E+00  0.49294495361E+02  0.92244229234E+02  0.77968266327E+02 0.  0.
         66    2    3    3    0    0  0.94898435793E+01 -0.37748201935E+02  0.26633852359E+02  0.47205359513E+02  0.19999986879E+01 0.  0.
         13    1    3    3    0    0 -0.94898435793E+01  0.37748201935E+02  0.22660643002E+02  0.45038869722E+02  0.10566000000E+00 0. -1.
         13    1    4    4    0    0  0.54144827289E+01 -0.20043834067E+02  0.13206315793E+02  0.24606703318E+02  0.10566000000E+00 0. -1.
        -13    1    4    4    0    0  0.11704237770E+01 -0.50632840428E+01  0.35322617660E+01  0.62844867996E+01  0.10566000000E+00 0.  1.
         14    1    4    4    0    0  0.29049370733E+01 -0.12641083825E+02  0.98952747999E+01  0.16314169395E+02  0.00000000000E+00 0. -1.
<mgrwt>
<rscale>  0 0.77968266E+02</rscale>
<asrwt>0</asrwt>
<pdfrwt beam="1">  1        1 0.33038257E-02 0.77968266E+02</pdfrwt>
<pdfrwt beam="2">  1       -2 0.10887594E-01 0.77968266E+02</pdfrwt>
<totfact> 0.12240077E+05</totfact>
</mgrwt>
</event>
<event>
 8    1  0.8247621E-014  0.8064991E+02  0.7818608E-02  0.1327217E+00
          1   -1    0    0  501    0  0.00000000000E+00  0.00000000000E+00  0.54196625883E+03  0.54196625885E+03  0.50400000000E-02 0. -1.
         -2   -1    0    0    0  501 -0.00000000000E+00 -0.00000000000E+00 -0.30003741408E+01  0.30003752244E+01  0.25500000000E-02 0.  1.
        -24    2    1    2    0    0 -0.17763568394E-14 -0.71054273576E-14  0.53896588469E+03  0.54496663408E+03  0.80649906382E+02 0.  0.
         66    2    3    3    0    0 -0.59891565664E+01 -0.36326591588E+02  0.38039306876E+03  0.38217584696E+03  0.19999976803E+01 0.  0.
         13    1    3    3    0    0  0.59891565664E+01  0.36326591588E+02  0.15857281593E+03  0.16279078711E+03  0.10566000000E+00 0. -1.
         13    1    4    4    0    0 -0.12989845203E+01 -0.69675989979E+01  0.80850749350E+02  0.81160887323E+02  0.10566000000E+00 0. -1.
        -13    1    4    4    0    0 -0.10694365265E+01 -0.85538270145E+01  0.86876048526E+02  0.87302752664E+02  0.10566000000E+00 0.  1.
         14    1    4    4    0    0 -0.36207355196E+01 -0.20805165576E+02  0.21266627088E+03  0.21371220698E+03  0.00000000000E+00 0. -1.
<mgrwt>
<rscale>  0 0.80649906E+02</rscale>
<asrwt>0</asrwt>
<pdfrwt beam="1">  1        1 0.83379294E-01 0.80649906E+02</pdfrwt>
<pdfrwt beam="2">  1       -2 0.46159683E-03 0.80649906E+02</pdfrwt>
<totfact> 0.19363222E+05</totfact>
</mgrwt>
</event>
<event>
 8    1  0.8247621E-014  0.8060247E+02  0.7818608E-02  0.1327350E+00
         -2   -1    0    0    0  501 -0.00000000000E+00  0.00000000000E+00  0.19910103094E+03  0.19910103096E+03  0.25500000000E-02 0.  1.
          1   -1    0    0  501    0  0.00000000000E+00 -0.00000000000E+00 -0.81576136318E+01  0.81576151887E+01  0.50400000000E-02 0. -1.
        -24    2    1    2    0    0  0.71054273576E-14  0.00000000000E+00  0.19094341731E+03  0.20725864615E+03  0.80602467634E+02 0.  0.
         66    2    3    3    0    0 -0.38529265042E+02  0.10982574671E+02  0.84908592945E+02  0.93907349934E+02  0.20000011569E+01 0.  0.
         13    1    3    3    0    0  0.38529265042E+02 -0.10982574671E+02  0.10603482437E+03  0.11335129621E+03  0.10566000000E+00 0. -1.
         13    1    4    4    0    0 -0.23946574717E+02  0.67484856538E+01  0.51607395533E+02  0.57291490965E+02  0.10566000000E+00 0. -1.
        -13    1    4    4    0    0 -0.19916126987E+01  0.72895544003E+00  0.39023136911E+01  0.44426471112E+01  0.10566000000E+00 0.  1.
        -14    1    4    4    0    0 -0.12591077626E+02  0.35051335773E+01  0.29398883720E+02  0.32173211857E+02  0.00000000000E+00 0.  1.
<mgrwt>
<rscale>  0 0.80602468E+02</rscale>
<asrwt>0</asrwt>
<pdfrwt beam="1">  1        1 0.12550176E-02 0.80602468E+02</pdfrwt>
<pdfrwt beam="2">  1       -2 0.30630929E-01 0.80602468E+02</pdfrwt>
<totfact> 0.83597506E+04</totfact>
</mgrwt>
</event>
<event>
 8    1  0.8247621E-014  0.7895552E+02  0.7818608E-02  0.1332042E+00
         -2   -1    0    0    0  501 -0.00000000000E+00  0.00000000000E+00  0.67411140424E+02  0.67411140473E+02  0.25500000000E-02 0.  1.
          1   -1    0    0  501    0  0.00000000000E+00 -0.00000000000E+00 -0.23119225397E+02  0.23119225946E+02  0.50400000000E-02 0. -1.
        -24    2    1    2    0    0  0.17763568394E-14  0.00000000000E+00  0.44291915028E+02  0.90530366419E+02  0.78955516002E+02 0.  0.
         66    2    3    3    0    0  0.98926015255E+01 -0.28347492020E+02  0.51506013650E+02  0.59651599414E+02  0.20000004360E+01 0.  0.
         13    1    3    3    0    0 -0.98926015255E+01  0.28347492020E+02 -0.72140986222E+01  0.30878767005E+02  0.10566000000E+00 0. -1.
         13    1    4    4    0    0  0.10904519413E+01 -0.41705079000E+01  0.83570249154E+01  0.94038955254E+01  0.10566000000E+00 0. -1.
        -13    1    4    4    0    0  0.40397044983E+00 -0.70289459338E+00  0.13700369734E+01  0.15954367044E+01  0.10566000000E+00 0.  1.
        -14    1    4    4    0    0  0.83981791344E+01 -0.23474089527E+02  0.41778951761E+02  0.48652267184E+02  0.00000000000E+00 0.  1.
<mgrwt>
<rscale>  0 0.78955516E+02</rscale>
<asrwt>0</asrwt>
<pdfrwt beam="1">  1        1 0.35568039E-02 0.78955516E+02</pdfrwt>
<pdfrwt beam="2">  1       -2 0.10370945E-01 0.78955516E+02</pdfrwt>
<totfact> 0.11970170E+05</totfact>
</mgrwt>
</event>
<event>
 8    1  0.8247621E-014  0.7415264E+02  0.7818608E-02  0.1346515E+00
          1   -1    0    0  501    0  0.00000000000E+00  0.00000000000E+00  0.41533837730E+02  0.41533838036E+02  0.50400000000E-02 0. -1.
         -2   -1    0    0    0  501 -0.00000000000E+00 -0.00000000000E+00 -0.33097194617E+02  0.33097194715E+02  0.25500000000E-02 0.  1.
        -24    2    1    2    0    0  0.00000000000E+00  0.17763568394E-14  0.84366431133E+01  0.74631032751E+02  0.74152640563E+02 0.  0.
         66    2    3    3    0    0  0.28511666892E+01 -0.14215033867E+02 -0.30093334146E+02  0.33463489091E+02  0.20000006876E+01 0.  0.
         13    1    3    3    0    0 -0.28511666892E+01  0.14215033867E+02  0.38529977260E+02  0.41167543660E+02  0.10566000000E+00 0. -1.
         13    1    4    4    0    0  0.85621536945E+00 -0.31708420461E+01 -0.53389009332E+01  0.62691603305E+01  0.10566000000E+00 0. -1.
        -13    1    4    4    0    0  0.11785969636E+01 -0.60945924263E+01 -0.12642481167E+02  0.14084624302E+02  0.10566000000E+00 0.  1.
        -14    1    4    4    0    0  0.81635435614E+00 -0.49495993949E+01 -0.12111952047E+02  0.13109704458E+02  0.00000000000E+00 0.  1.
<mgrwt>
<rscale>  0 0.74152641E+02</rscale>
<asrwt>0</asrwt>
<pdfrwt beam="1">  1        1 0.63898212E-02 0.74152641E+02</pdfrwt>
<pdfrwt beam="2">  1       -2 0.50918761E-02 0.74152641E+02</pdfrwt>
<totfact> 0.15787933E+05</totfact>
</mgrwt>
</event>
<event>
 8    1  0.8247621E-014  0.7774384E+02  0.7818608E-02  0.1335579E+00
          1   -1    0    0  501    0  0.00000000000E+00  0.00000000000E+00  0.37948083805E+02  0.37948084140E+02  0.50400000000E-02 0. -1.
         -2   -1    0    0    0  501 -0.00000000000E+00 -0.00000000000E+00 -0.39818250213E+02  0.39818250294E+02  0.25500000000E-02 0.  1.
        -24    2    1    2    0    0 -0.11102230246E-15  0.00000000000E+00 -0.18701664073E+01  0.77766334434E+02  0.77743843801E+02 0.  0.
         66    2    3    3    0    0  0.27955931149E-01  0.22246274783E+02 -0.32790224386E+02  0.39674882996E+02  0.20000005486E+01 0.  0.
         13    1    3    3    0    0 -0.27955931149E-01 -0.22246274783E+02  0.30920057978E+02  0.38091451439E+02  0.10566000000E+00 0. -1.
         13    1    4    4    0    0  0.54417131940E+00  0.11433928188E+02 -0.17502260382E+02  0.20913419585E+02  0.10566000000E+00 0. -1.
        -13    1    4    4    0    0  0.13237336709E-01  0.28424845626E+01 -0.47805570025E+01  0.55628035203E+01  0.10566000000E+00 0.  1.
         14    1    4    4    0    0 -0.52945272496E+00  0.79698620332E+01 -0.10507407001E+02  0.13198659891E+02  0.00000000000E+00 0. -1.
<mgrwt>
<rscale>  0 0.77743844E+02</rscale>
<asrwt>0</asrwt>
<pdfrwt beam="1">  1        1 0.58381668E-02 0.77743844E+02</pdfrwt>
<pdfrwt beam="2">  1       -2 0.61258846E-02 0.77743844E+02</pdfrwt>
<totfact> 0.13646069E+05</totfact>
</mgrwt>
</event>
<event>
 8    1  0.8247621E-014  0.8050661E+02  0.7818608E-02  0.1327620E+00
         -2   -1    0    0    0  501 -0.00000000000E+00  0.00000000000E+00  0.68212180862E+01  0.68212185628E+01  0.25500000000E-02 0.  1.
          1   -1    0    0  501    0  0.00000000000E+00 -0.00000000000E+00 -0.23754240743E+03  0.23754240749E+03  0.50400000000E-02 0. -1.
        -24    2    1    2    0    0  0.00000000000E+00  0.00000000000E+00 -0.23072118935E+03  0.24436362605E+03  0.80506611669E+02 0.  0.
         66    2    3    3    0    0  0.34056256801E+02 -0.29731918853E+01 -0.51067328090E+02  0.61486100023E+02  0.20000001084E+01 0.  0.
         13    1    3    3    0    0 -0.34056256801E+02  0.29731918853E+01 -0.17965386126E+03  0.18287752603E+03  0.10566000000E+00 0. -1.
         13    1    4    4    0    0  0.20805776210E+01 -0.58228631900E+00 -0.36589585773E+01  0.42505296729E+01  0.10566000000E+00 0. -1.
        -13    1    4    4    0    0  0.25505906086E+02 -0.20791012333E+01 -0.37839381637E+02  0.45680453959E+02  0.10566000000E+00 0.  1.
         14    1    4    4    0    0  0.64697730938E+01 -0.31180433291E+00 -0.95689878764E+01  0.11555116391E+02  0.00000000000E+00 0. -1.
<mgrwt>
<rscale>  0 0.80506612E+02</rscale>
<asrwt>0</asrwt>
<pdfrwt beam="1">  1        1 0.36544980E-01 0.80506612E+02</pdfrwt>
<pdfrwt beam="2">  1       -2 0.10494184E-02 0.80506612E+02</pdfrwt>
<totfact> 0.16956813E+05</totfact>
</mgrwt>
</event>
<event>
 8    1  0.8247621E-014  0.8418500E+02  0.7818608E-02  0.1317578E+00
          1   -1    0    0  501    0  0.00000000000E+00  0.00000000000E+00  0.12510250866E+03  0.12510250876E+03  0.50400000000E-02 0. -1.
         -2   -1    0    0    0  501 -0.00000000000E+00 -0.00000000000E+00 -0.14162614531E+02  0.14162614760E+02  0.25500000000E-02 0.  1.
        -24    2    1    2    0    0 -0.35527136788E-14  0.00000000000E+00  0.11093989413E+03  0.13926512352E+03  0.84185001754E+02 0.  0.
         66    2    3    3    0    0 -0.27514979115E+02 -0.30687436304E+02  0.41563887868E+02  0.58569186627E+02  0.20000062025E+01 0.  0.
         13    1    3    3    0    0  0.27514979115E+02  0.30687436304E+02  0.69376006264E+02  0.80695936898E+02  0.10566000000E+00 0. -1.
         13    1    4    4    0    0 -0.11931760065E+02 -0.12676412925E+02  0.17240844492E+02  0.24501351508E+02  0.10566000000E+00 0.  1.
        -13    1    4    4    0    0 -0.12257707225E+02 -0.13437087602E+02  0.18976340961E+02  0.26285345536E+02  0.10566000000E+00 0.  1.
        -14    1    4    4    0    0 -0.33255118247E+01 -0.45739357772E+01  0.53467024152E+01  0.77824895828E+01  0.00000000000E+00 0.  1.
<mgrwt>
<rscale>  0 0.84185002E+02</rscale>
<asrwt>0</asrwt>
<pdfrwt beam="1">  1        1 0.19246540E-01 0.84185002E+02</pdfrwt>
<pdfrwt beam="2">  1       -2 0.21788637E-02 0.84185002E+02</pdfrwt>
<totfact> 0.13317706E+05</totfact>
</mgrwt>
</event>
