<event>
 8    1  0.2389776E-020  0.7943999E+02  0.7818608E-02  0.1330648E+00
          2   -1    0    0  501    0  0.00000000000E+00  0.00000000000E+00  0.12452824928E+02  0.12452825189E+02  0.25500000000E-02 0. -1.
         -1   -1    0    0    0  501 -0.00000000000E+00 -0.00000000000E+00 -0.12669239109E+03  0.12669239119E+03  0.50400000000E-02 0.  1.
         24    2    1    2    0    0  0.00000000000E+00  0.00000000000E+00 -0.11423956617E+03  0.13914521638E+03  0.79439994743E+02 0.  0.
         66    2    3    3    0    0 -0.16552331660E+02 -0.30480697555E+02 -0.90967237804E+02  0.97376028718E+02  0.20000020981E+01 0.  0.
        -13    1    3    3    0    0  0.16552331660E+02  0.30480697555E+02 -0.23272328362E+02  0.41769187666E+02  0.10566000000E+00 0.  1.
         13    1    4    4    0    0 -0.93413403491E+01 -0.15895235062E+02 -0.48650514476E+02  0.52026943597E+02  0.10566000000E+00 0. -1.
        -13    1    4    4    0    0 -0.28590028029E+01 -0.65849418256E+01 -0.19694565091E+02  0.20962404777E+02  0.10566000000E+00 0. -1.
         14    1    4    4    0    0 -0.43519885082E+01 -0.80005206675E+01 -0.22622158236E+02  0.24386680344E+02  0.00000000000E+00 0. -1.
<mgrwt>
<rscale>  0 0.79439995E+02</rscale>
<asrwt>0</asrwt>
<pdfrwt beam="1">  1        2 0.19158193E-02 0.79439995E+02</pdfrwt>
<pdfrwt beam="2">  1       -1 0.19491136E-01 0.79439995E+02</pdfrwt>
<totfact> 0.11442323E+05</totfact>
</mgrwt>
</event>
<event>
 8    1  0.2389776E-020  0.7995194E+02  0.7818608E-02  0.1329188E+00
         -1   -1    0    0    0  501 -0.00000000000E+00  0.00000000000E+00  0.11980846984E+01  0.11980952993E+01  0.50400000000E-02 0.  1.
          2   -1    0    0  501    0  0.00000000000E+00 -0.00000000000E+00 -0.13338550035E+04  0.13338550035E+04  0.25500000000E-02 0. -1.
         24    2    1    2    0    0  0.17763568394E-14  0.00000000000E+00 -0.13326569188E+04  0.13350530988E+04  0.79951944255E+02 0.  0.
         66    2    3    3    0    0 -0.13928891400E+02  0.85483497496E+01 -0.12754810615E+04  0.12755873261E+04  0.20000001471E+01 0.  0.
        -13    1    3    3    0    0  0.13928891400E+02 -0.85483497496E+01 -0.57175857308E+02  0.59465772693E+02  0.10566000000E+00 0.  1.
         13    1    4    4    0    0 -0.62488320118E+01  0.34579335911E+01 -0.53010093935E+03  0.53014905665E+03  0.10566000000E+00 0. -1.
        -13    1    4    4    0    0 -0.19058351738E+01  0.14351167013E+01 -0.15136063920E+03  0.15137947692E+03  0.10566000000E+00 0. -1.
         14    1    4    4    0    0 -0.57742242141E+01  0.36552994572E+01 -0.59401948293E+03  0.59405879253E+03  0.00000000000E+00 0. -1.
<mgrwt>
<rscale>  0 0.79951944E+02</rscale>
<asrwt>0</asrwt>
<pdfrwt beam="1">  1        2 0.20520727E+00 0.79951944E+02</pdfrwt>
<pdfrwt beam="2">  1       -1 0.18432261E-03 0.79951944E+02</pdfrwt>
<totfact> 0.34485776E+05</totfact>
</mgrwt>
</event>
<event>
 8    1  0.2389776E-020  0.8070238E+02  0.7818608E-02  0.1327070E+00
         -1   -1    0    0    0  501 -0.00000000000E+00  0.00000000000E+00  0.23670627099E+03  0.23670627104E+03  0.50400000000E-02 0.  1.
          2   -1    0    0  501    0  0.00000000000E+00 -0.00000000000E+00 -0.68786456056E+01  0.68786460783E+01  0.25500000000E-02 0. -1.
         24    2    1    2    0    0  0.35527136788E-14  0.35527136788E-14  0.22982762539E+03  0.24358491712E+03  0.80702381994E+02 0.  0.
         66    2    3    3    0    0 -0.31312208198E+02 -0.23319816738E+02  0.14545948414E+03  0.15062114646E+03  0.19999998240E+01 0.  0.
        -13    1    3    3    0    0  0.31312208198E+02  0.23319816738E+02  0.84368141249E+02  0.92963770668E+02  0.10566000000E+00 0.  1.
         13    1    4    4    0    0 -0.19752705566E+02 -0.13811816782E+02  0.89375363855E+02  0.92568366563E+02  0.10566000000E+00 0. -1.
        -13    1    4    4    0    0 -0.35908400335E+01 -0.31927558171E+01  0.16768463124E+02  0.17443633263E+02  0.10566000000E+00 0.  1.
        -14    1    4    4    0    0 -0.79686625983E+01 -0.63152441397E+01  0.39315657158E+02  0.40609146629E+02  0.00000000000E+00 0.  1.
<mgrwt>
<rscale>  0 0.80702382E+02</rscale>
<asrwt>0</asrwt>
<pdfrwt beam="1">  1        2 0.10582532E-02 0.80702382E+02</pdfrwt>
<pdfrwt beam="2">  1       -1 0.36416349E-01 0.80702382E+02</pdfrwt>
<totfact> 0.92288948E+04</totfact>
</mgrwt>
</event>
<event>
 8    1  0.2389776E-020  0.7941826E+02  0.7818608E-02  0.1330710E+00
          2   -1    0    0  501    0  0.00000000000E+00  0.00000000000E+00  0.16890206365E+04  0.16890206365E+04  0.25500000000E-02 0. -1.
         -1   -1    0    0    0  501 -0.00000000000E+00 -0.00000000000E+00 -0.93356086972E+00  0.93357447431E+00  0.50400000000E-02 0.  1.
         24    2    1    2    0    0  0.00000000000E+00  0.00000000000E+00  0.16880870757E+04  0.16899542110E+04  0.79418261669E+02 0.  0.
         66    2    3    3    0    0 -0.75396072558E+01  0.83901950315E+01  0.16541842415E+04  0.16542239105E+04  0.20000004072E+01 0.  0.
        -13    1    3    3    0    0  0.75396072558E+01 -0.83901950315E+01  0.33902834155E+02  0.35730300558E+02  0.10566000000E+00 0.  1.
         13    1    4    4    0    0 -0.12245045483E+01  0.22004481473E+01  0.34600342908E+03  0.34601260885E+03  0.10566000000E+00 0. -1.
        -13    1    4    4    0    0 -0.10946035772E+01  0.17935379704E+01  0.29481068920E+03  0.29481819579E+03  0.10566000000E+00 0. -1.
         14    1    4    4    0    0 -0.52204991302E+01  0.43962089138E+01  0.10133701232E+04  0.10133931058E+04  0.00000000000E+00 0. -1.
<mgrwt>
<rscale>  0 0.79418262E+02</rscale>
<asrwt>0</asrwt>
<pdfrwt beam="1">  1        2 0.25984546E+00 0.79418262E+02</pdfrwt>
<pdfrwt beam="2">  1       -1 0.14362794E-03 0.79418262E+02</pdfrwt>
<totfact> 0.32054496E+05</totfact>
</mgrwt>
</event>
<event>
 8    1  0.2389776E-020  0.8056912E+02  0.7818608E-02  0.1327444E+00
         -1   -1    0    0    0  501 -0.00000000000E+00  0.00000000000E+00  0.26055694859E+01  0.26055743604E+01  0.50400000000E-02 0.  1.
          2   -1    0    0  501    0  0.00000000000E+00 -0.00000000000E+00 -0.62283665949E+03  0.62283665949E+03  0.25500000000E-02 0. -1.
         24    2    1    2    0    0  0.00000000000E+00  0.00000000000E+00 -0.62023109000E+03  0.62544223385E+03  0.80569118666E+02 0.  0.
         66    2    3    3    0    0  0.23401366845E+02 -0.24458997939E+02 -0.47948788903E+03  0.48068545047E+03  0.20000051938E+01 0.  0.
        -13    1    3    3    0    0 -0.23401366845E+02  0.24458997939E+02 -0.14074320097E+03  0.14475678338E+03  0.10566000000E+00 0.  1.
         13    1    4    4    0    0  0.88502104343E+01 -0.10259498181E+02 -0.18531476820E+03  0.18580946694E+03  0.10566000000E+00 0.  1.
        -13    1    4    4    0    0  0.98461542361E+01 -0.95455440396E+01 -0.20374667556E+03  0.20420769606E+03  0.10566000000E+00 0. -1.
        -14    1    4    4    0    0  0.47050021748E+01 -0.46539557185E+01 -0.90426445271E+02  0.90668287475E+02  0.00000000000E+00 0.  1.
<mgrwt>
<rscale>  0 0.80569119E+02</rscale>
<asrwt>0</asrwt>
<pdfrwt beam="1">  1        2 0.95820906E-01 0.80569119E+02</pdfrwt>
<pdfrwt beam="2">  1       -1 0.40085772E-03 0.80569119E+02</pdfrwt>
<totfact> 0.31899270E+05</totfact>
</mgrwt>
</event>
<event>
 8    1  0.2389776E-020  0.8124023E+02  0.7818608E-02  0.1325568E+00
          2   -1    0    0  501    0  0.00000000000E+00  0.00000000000E+00  0.10126552786E+04  0.10126552786E+04  0.25500000000E-02 0. -1.
         -1   -1    0    0    0  501 -0.00000000000E+00 -0.00000000000E+00 -0.16293697189E+01  0.16293775138E+01  0.50400000000E-02 0.  1.
         24    2    1    2    0    0 -0.35527136788E-14  0.00000000000E+00  0.10110259089E+04  0.10142846561E+04  0.81240231447E+02 0.  0.
         66    2    3    3    0    0  0.18081729999E+02 -0.17598725361E+02  0.90285824780E+03  0.90321297583E+03  0.19999981668E+01 0.  0.
        -13    1    3    3    0    0 -0.18081729999E+02  0.17598725361E+02  0.10816766110E+03  0.11107168030E+03  0.10566000000E+00 0.  1.
         13    1    4    4    0    0  0.82867457733E+01 -0.82882671666E+01  0.44648654654E+03  0.44664036196E+03  0.10566000000E+00 0. -1.
        -13    1    4    4    0    0  0.60284090389E+01 -0.52612281700E+01  0.27885597806E+03  0.27897076890E+03  0.10566000000E+00 0.  1.
        -14    1    4    4    0    0  0.37665751873E+01 -0.40492300246E+01  0.17751572320E+03  0.17760184496E+03  0.00000000000E+00 0.  1.
<mgrwt>
<rscale>  0 0.81240231E+02</rscale>
<asrwt>0</asrwt>
<pdfrwt beam="1">  1        2 0.15579320E+00 0.81240231E+02</pdfrwt>
<pdfrwt beam="2">  1       -1 0.25067273E-03 0.81240231E+02</pdfrwt>
<totfact> 0.33866657E+05</totfact>
</mgrwt>
</event>
<event>
 8    1  0.2389776E-020  0.7820448E+02  0.7818608E-02  0.1334225E+00
         -1   -1    0    0    0  501 -0.00000000000E+00  0.00000000000E+00  0.27710058824E+02  0.27710059282E+02  0.50400000000E-02 0.  1.
          2   -1    0    0  501    0  0.00000000000E+00 -0.00000000000E+00 -0.55177987186E+02  0.55177987245E+02  0.25500000000E-02 0. -1.
         24    2    1    2    0    0  0.00000000000E+00 -0.35527136788E-14 -0.27467928363E+02  0.82888046527E+02  0.78204483046E+02 0.  0.
         66    2    3    3    0    0 -0.22124480295E+02 -0.26463425987E+02  0.57190943203E+01  0.35021615890E+02  0.19999991102E+01 0.  0.
        -13    1    3    3    0    0  0.22124480295E+02  0.26463425987E+02 -0.33187022683E+02  0.47866430637E+02  0.10566000000E+00 0.  1.
         13    1    4    4    0    0 -0.18804964916E+02 -0.21956743666E+02  0.51352351203E+01  0.29361660405E+02  0.10566000000E+00 0. -1.
        -13    1    4    4    0    0 -0.11892096463E+01 -0.13049441584E+01 -0.97820712240E-02  0.17687166432E+01  0.10566000000E+00 0.  1.
         14    1    4    4    0    0 -0.21303057329E+01 -0.32017381618E+01  0.59364127125E+00  0.38912388428E+01  0.00000000000E+00 0. -1.
<mgrwt>
<rscale>  0 0.78204483E+02</rscale>
<asrwt>0</asrwt>
<pdfrwt beam="1">  1        2 0.84889211E-02 0.78204483E+02</pdfrwt>
<pdfrwt beam="2">  1       -1 0.42630860E-02 0.78204483E+02</pdfrwt>
<totfact> 0.16246523E+05</totfact>
</mgrwt>
</event>
<event>
 8    1  0.2389776E-020  0.8143690E+02  0.7818608E-02  0.1325022E+00
         -1   -1    0    0    0  501 -0.00000000000E+00  0.00000000000E+00  0.19883176188E+03  0.19883176194E+03  0.50400000000E-02 0.  1.
          2   -1    0    0  501    0  0.00000000000E+00 -0.00000000000E+00 -0.83386683701E+01  0.83386687600E+01  0.25500000000E-02 0. -1.
         24    2    1    2    0    0  0.00000000000E+00  0.00000000000E+00  0.19049309351E+03  0.20717043070E+03  0.81436900008E+02 0.  0.
         66    2    3    3    0    0  0.55193941962E+01 -0.31238958544E+02  0.30463301951E+02  0.44026685517E+02  0.20000071615E+01 0.  0.
        -13    1    3    3    0    0 -0.55193941962E+01  0.31238958544E+02  0.16002979155E+03  0.16314374518E+03  0.10566000000E+00 0.  1.
         13    1    4    4    0    0  0.21540928232E+01 -0.14262451703E+02  0.13591925848E+02  0.19819416155E+02  0.10566000000E+00 0. -1.
        -13    1    4    4    0    0  0.32983577735E+01 -0.16568817193E+02  0.16126645107E+02  0.23355614178E+02  0.10566000000E+00 0.  1.
        -14    1    4    4    0    0  0.66943599409E-01 -0.40768964794E+00  0.74473099633E+00  0.85165518341E+00  0.00000000000E+00 0.  1.
<mgrwt>
<rscale>  0 0.81436900E+02</rscale>
<asrwt>0</asrwt>
<pdfrwt beam="1">  1        2 0.12828721E-02 0.81436900E+02</pdfrwt>
<pdfrwt beam="2">  1       -1 0.30589501E-01 0.81436900E+02</pdfrwt>
<totfact> 0.95359068E+04</totfact>
</mgrwt>
</event>
<event>
 8    1  0.2389776E-020  0.7802385E+02  0.7818608E-02  0.1334755E+00
         -1   -1    0    0    0  501 -0.00000000000E+00  0.00000000000E+00  0.92938216977E+02  0.92938217113E+02  0.50400000000E-02 0.  1.
          2   -1    0    0  501    0  0.00000000000E+00 -0.00000000000E+00 -0.16375721144E+02  0.16375721343E+02  0.25500000000E-02 0. -1.
         24    2    1    2    0    0  0.00000000000E+00  0.35527136788E-14  0.76562495832E+02  0.10931393846E+03  0.78023851307E+02 0.  0.
         66    2    3    3    0    0  0.24512328171E+02  0.30272814424E+02  0.40577508789E+02  0.56283494539E+02  0.20000031346E+01 0.  0.
        -13    1    3    3    0    0 -0.24512328171E+02 -0.30272814424E+02  0.35984987044E+02  0.53030443917E+02  0.10566000000E+00 0.  1.
         13    1    4    4    0    0  0.90558245896E+01  0.11614023727E+02  0.15549569655E+02  0.21417137685E+02  0.10566000000E+00 0. -1.
        -13    1    4    4    0    0  0.12560659291E+02  0.15746396160E+02  0.20178558168E+02  0.28511480629E+02  0.10566000000E+00 0.  1.
        -14    1    4    4    0    0  0.28958442902E+01  0.29123945365E+01  0.48493809656E+01  0.63548762253E+01  0.00000000000E+00 0.  1.
<mgrwt>
<rscale>  0 0.78023851E+02</rscale>
<asrwt>0</asrwt>
<pdfrwt beam="1">  1        2 0.25193418E-02 0.78023851E+02</pdfrwt>
<pdfrwt beam="2">  1       -1 0.14298187E-01 0.78023851E+02</pdfrwt>
<totfact> 0.12810434E+05</totfact>
</mgrwt>
</event>
<event>
 8    1  0.2389776E-020  0.7521193E+02  0.7818608E-02  0.1343216E+00
          2   -1    0    0  501    0  0.00000000000E+00  0.00000000000E+00  0.32930859247E+03  0.32930859248E+03  0.25500000000E-02 0. -1.
         -1   -1    0    0    0  501 -0.00000000000E+00 -0.00000000000E+00 -0.42944763070E+01  0.42944792645E+01  0.50400000000E-02 0.  1.
         24    2    1    2    0    0  0.00000000000E+00  0.88817841970E-15  0.32501411616E+03  0.33360307174E+03  0.75211925731E+02 0.  0.
         66    2    3    3    0    0 -0.32306091930E+02  0.36212405704E+01  0.24624086173E+03  0.24838550467E+03  0.19999971884E+01 0.  0.
        -13    1    3    3    0    0  0.32306091930E+02 -0.36212405704E+01  0.78773254435E+02  0.85217567070E+02  0.10566000000E+00 0.  1.
         13    1    4    4    0    0 -0.71347633059E+01  0.10892752123E+01  0.54285290474E+02  0.54763083312E+02  0.10566000000E+00 0. -1.
        -13    1    4    4    0    0 -0.63196681252E+01 -0.71503846377E-01  0.47825750310E+02  0.48241650830E+02  0.10566000000E+00 0.  1.
        -14    1    4    4    0    0 -0.18851660498E+02  0.26034692044E+01  0.14412982094E+03  0.14538077053E+03  0.00000000000E+00 0.  1.
<mgrwt>
<rscale>  0 0.75211926E+02</rscale>
<asrwt>0</asrwt>
<pdfrwt beam="1">  1        2 0.50662864E-01 0.75211926E+02</pdfrwt>
<pdfrwt beam="2">  1       -1 0.66068885E-03 0.75211926E+02</pdfrwt>
<totfact> 0.30976364E+05</totfact>
</mgrwt>
</event>
<event>
 8    1  0.2389776E-020  0.8054669E+02  0.7818608E-02  0.1327507E+00
          2   -1    0    0  501    0  0.00000000000E+00  0.00000000000E+00  0.16439513342E+03  0.16439513344E+03  0.25500000000E-02 0. -1.
         -1   -1    0    0    0  501 -0.00000000000E+00 -0.00000000000E+00 -0.98661210907E+01  0.98661223780E+01  0.50400000000E-02 0.  1.
         24    2    1    2    0    0 -0.17763568394E-14 -0.17763568394E-14  0.15452901233E+03  0.17426125581E+03  0.80546692220E+02 0.  0.
         66    2    3    3    0    0  0.11384737303E+02  0.10713708360E+02  0.15755184051E+03  0.15833817682E+03  0.20000004289E+01 0.  0.
        -13    1    3    3    0    0 -0.11384737303E+02 -0.10713708360E+02 -0.30228281832E+01  0.15923078991E+02  0.10566000000E+00 0.  1.
         13    1    4    4    0    0  0.79622234984E+01  0.72339740568E+01  0.11529123983E+03  0.11579209182E+03  0.10566000000E+00 0. -1.
        -13    1    4    4    0    0  0.17153194100E+01  0.21715270367E+01  0.24045625891E+02  0.24204568554E+02  0.10566000000E+00 0.  1.
         14    1    4    4    0    0  0.17071943943E+01  0.13082072668E+01  0.18214974789E+02  0.18341516445E+02  0.00000000000E+00 0. -1.
<mgrwt>
<rscale>  0 0.80546692E+02</rscale>
<asrwt>0</asrwt>
<pdfrwt beam="1">  1        2 0.25291557E-01 0.80546692E+02</pdfrwt>
<pdfrwt beam="2">  1       -1 0.15178650E-02 0.80546692E+02</pdfrwt>
<totfact> 0.20269208E+05</totfact>
</mgrwt>
</event>
<event>
 8    1  0.2389776E-020  0.8131722E+02  0.7818608E-02  0.1325354E+00
         -1   -1    0    0    0  501 -0.00000000000E+00  0.00000000000E+00  0.33099189900E+01  0.33099228272E+01  0.50400000000E-02 0.  1.
          2   -1    0    0  501    0  0.00000000000E+00 -0.00000000000E+00 -0.49944474565E+03  0.49944474566E+03  0.25500000000E-02 0. -1.
         24    2    1    2    0    0  0.00000000000E+00 -0.71054273576E-14 -0.49613482666E+03  0.50275466849E+03  0.81317221161E+02 0.  0.
         66    2    3    3    0    0  0.56725489295E+01 -0.39416994143E+02 -0.29815513852E+03  0.30080951425E+03  0.19999996328E+01 0.  0.
        -13    1    3    3    0    0 -0.56725489295E+01  0.39416994143E+02 -0.19797968814E+03  0.20194515424E+03  0.10566000000E+00 0.  1.
         13    1    4    4    0    0  0.23223950778E+01 -0.21091557037E+02 -0.16121215306E+03  0.16260263453E+03  0.10566000000E+00 0. -1.
        -13    1    4    4    0    0  0.79732205507E+00 -0.28144790418E+01 -0.22154922602E+02  0.22347455655E+02  0.10566000000E+00 0.  1.
        -14    1    4    4    0    0  0.25528317966E+01 -0.15510958064E+02 -0.11478806286E+03  0.11585942407E+03  0.00000000000E+00 0.  1.
<mgrwt>
<rscale>  0 0.81317221E+02</rscale>
<asrwt>0</asrwt>
<pdfrwt beam="1">  1        2 0.76837593E-01 0.81317221E+02</pdfrwt>
<pdfrwt beam="2">  1       -1 0.50921900E-03 0.81317221E+02</pdfrwt>
<totfact> 0.29171094E+05</totfact>
</mgrwt>
</event>
<event>
 8    1  0.2389776E-020  0.7868583E+02  0.7818608E-02  0.1332823E+00
         -1   -1    0    0    0  501 -0.00000000000E+00  0.00000000000E+00  0.32267533025E+01  0.32267572386E+01  0.50400000000E-02 0.  1.
          2   -1    0    0  501    0  0.00000000000E+00 -0.00000000000E+00 -0.47969709427E+03  0.47969709427E+03  0.25500000000E-02 0. -1.
         24    2    1    2    0    0 -0.35527136788E-14  0.35527136788E-14 -0.47647034096E+03  0.48292385151E+03  0.78685834435E+02 0.  0.
         66    2    3    3    0    0  0.25002616714E+02 -0.22054803957E+02 -0.36629276401E+03  0.36781236274E+03  0.19999992562E+01 0.  0.
        -13    1    3    3    0    0 -0.25002616714E+02  0.22054803957E+02 -0.11017757696E+03  0.11511148878E+03  0.10566000000E+00 0.  1.
         13    1    4    4    0    0  0.10655083308E+02 -0.10408411672E+02 -0.16598498454E+03  0.16665200896E+03  0.10566000000E+00 0. -1.
        -13    1    4    4    0    0  0.82168789268E+01 -0.61630622638E+01 -0.11328215713E+03  0.11374690643E+03  0.10566000000E+00 0.  1.
         14    1    4    4    0    0  0.61306544796E+01 -0.54833300212E+01 -0.87025622339E+02  0.87413447341E+02  0.00000000000E+00 0. -1.
<mgrwt>
<rscale>  0 0.78685834E+02</rscale>
<asrwt>0</asrwt>
<pdfrwt beam="1">  1        2 0.73799497E-01 0.78685834E+02</pdfrwt>
<pdfrwt beam="2">  1       -1 0.49642427E-03 0.78685834E+02</pdfrwt>
<totfact> 0.31372099E+05</totfact>
</mgrwt>
</event>
<event>
 8    1  0.2389776E-020  0.7901686E+02  0.7818608E-02  0.1331865E+00
          2   -1    0    0  501    0  0.00000000000E+00  0.00000000000E+00  0.82055683104E+03  0.82055683105E+03  0.25500000000E-02 0. -1.
         -1   -1    0    0    0  501 -0.00000000000E+00 -0.00000000000E+00 -0.19022609679E+01  0.19022676445E+01  0.50400000000E-02 0.  1.
         24    2    1    2    0    0  0.35527136788E-14 -0.35527136788E-14  0.81865457007E+03  0.82245909869E+03  0.79016858426E+02 0.  0.
         66    2    3    3    0    0  0.23931844341E+02 -0.13805054290E+02  0.70317894042E+03  0.70372433165E+03  0.20000000470E+01 0.  0.
        -13    1    3    3    0    0 -0.23931844341E+02  0.13805054290E+02  0.11547562965E+03  0.11873476704E+03  0.10566000000E+00 0.  1.
         13    1    4    4    0    0  0.13361909689E+02 -0.84503755641E+01  0.40027666746E+03  0.40058878062E+03  0.10566000000E+00 0. -1.
        -13    1    4    4    0    0  0.42075642071E+01 -0.22130359434E+01  0.10968820451E+03  0.10979123143E+03  0.10566000000E+00 0.  1.
        -14    1    4    4    0    0  0.63623704449E+01 -0.31416427822E+01  0.19321406845E+03  0.19334431960E+03  0.00000000000E+00 0.  1.
<mgrwt>
<rscale>  0 0.79016858E+02</rscale>
<asrwt>0</asrwt>
<pdfrwt beam="1">  1        2 0.12623963E+00 0.79016858E+02</pdfrwt>
<pdfrwt beam="2">  1       -1 0.29265577E-03 0.79016858E+02</pdfrwt>
<totfact> 0.35636653E+05</totfact>
</mgrwt>
</event>
<event>
 8    1  0.2389776E-020  0.7897542E+02  0.7818608E-02  0.1331984E+00
         -1   -1    0    0    0  501 -0.00000000000E+00  0.00000000000E+00  0.19279872705E+02  0.19279873364E+02  0.50400000000E-02 0.  1.
          2   -1    0    0  501    0  0.00000000000E+00 -0.00000000000E+00 -0.80876008035E+02  0.80876008076E+02  0.25500000000E-02 0. -1.
         24    2    1    2    0    0  0.00000000000E+00  0.00000000000E+00 -0.61596135330E+02  0.10015588144E+03  0.78975418323E+02 0.  0.
         66    2    3    3    0    0 -0.36236551119E+02  0.90301870090E+00 -0.50601990437E+02  0.62277319352E+02  0.19999974383E+01 0.  0.
        -13    1    3    3    0    0  0.36236551119E+02 -0.90301870090E+00 -0.10994144894E+02  0.37878562087E+02  0.10566000000E+00 0.  1.
         13    1    4    4    0    0 -0.93330578176E+01  0.27623188278E+00 -0.12717815319E+02  0.15777714118E+02  0.10566000000E+00 0. -1.
        -13    1    4    4    0    0 -0.13215366532E+02 -0.52663132038E+00 -0.18636828008E+02  0.22853134913E+02  0.10566000000E+00 0.  1.
        -14    1    4    4    0    0 -0.13688126770E+02  0.11534181385E+01 -0.19247347110E+02  0.23646470321E+02  0.00000000000E+00 0.  1.
<mgrwt>
<rscale>  0 0.78975418E+02</rscale>
<asrwt>0</asrwt>
<pdfrwt beam="1">  1        2 0.12442463E-01 0.78975418E+02</pdfrwt>
<pdfrwt beam="2">  1       -1 0.29661344E-02 0.78975418E+02</pdfrwt>
<totfact> 0.17333869E+05</totfact>
</mgrwt>
</event>
<event>
 8    1  0.2389776E-020  0.8019194E+02  0.7818608E-02  0.1328508E+00
          2   -1    0    0  501    0  0.00000000000E+00  0.00000000000E+00  0.66396787848E+03  0.66396787848E+03  0.25500000000E-02 0. -1.
         -1   -1    0    0    0  501 -0.00000000000E+00 -0.00000000000E+00 -0.24213293807E+01  0.24213346261E+01  0.50400000000E-02 0.  1.
         24    2    1    2    0    0 -0.35527136788E-14  0.00000000000E+00  0.66154654910E+03  0.66638921311E+03  0.80191936787E+02 0.  0.
         66    2    3    3    0    0  0.30503042410E+02 -0.55785190156E+01  0.54188144341E+03  0.54277164092E+03  0.20000011301E+01 0.  0.
        -13    1    3    3    0    0 -0.30503042410E+02  0.55785190156E+01  0.11966510569E+03  0.12361757220E+03  0.10566000000E+00 0.  1.
         13    1    4    4    0    0  0.49329660949E+01 -0.10691240928E+01  0.98119165277E+02  0.98248964064E+02  0.10566000000E+00 0.  1.
        -13    1    4    4    0    0  0.15423538017E+02 -0.22070629576E+01  0.26986962797E+03  0.27031904098E+03  0.10566000000E+00 0. -1.
        -14    1    4    4    0    0  0.10146538299E+02 -0.23023319652E+01  0.17389265016E+03  0.17420363587E+03  0.00000000000E+00 0.  1.
<mgrwt>
<rscale>  0 0.80191937E+02</rscale>
<asrwt>0</asrwt>
<pdfrwt beam="1">  1        2 0.10214896E+00 0.80191937E+02</pdfrwt>
<pdfrwt beam="2">  1       -1 0.37251242E-03 0.80191937E+02</pdfrwt>
<totfact> 0.32827884E+05</totfact>
</mgrwt>
</event>
<event>
 8    1  0.2389776E-020  0.7999743E+02  0.7818608E-02  0.1329059E+00
         -1   -1    0    0    0  501 -0.00000000000E+00  0.00000000000E+00  0.88300398837E+02  0.88300398981E+02  0.50400000000E-02 0.  1.
          2   -1    0    0  501    0  0.00000000000E+00 -0.00000000000E+00 -0.18118798807E+02  0.18118798986E+02  0.25500000000E-02 0. -1.
         24    2    1    2    0    0  0.00000000000E+00  0.35527136788E-14  0.70181600030E+02  0.10641919797E+03  0.79997429416E+02 0.  0.
         66    2    3    3    0    0 -0.79629023882E+01 -0.25920806548E+02 -0.39577157238E+01  0.27476526799E+02  0.19999961707E+01 0.  0.
        -13    1    3    3    0    0  0.79629023882E+01  0.25920806548E+02  0.74139315754E+02  0.78942671167E+02  0.10566000000E+00 0.  1.
         13    1    4    4    0    0 -0.51062453892E+01 -0.13458073417E+02 -0.21283044313E+01  0.14551093631E+02  0.10566000000E+00 0. -1.
        -13    1    4    4    0    0 -0.12607481498E+00 -0.71030526655E+00 -0.13652477050E+00  0.74177589555E+00  0.10566000000E+00 0. -1.
         14    1    4    4    0    0 -0.27305821840E+01 -0.11752427864E+02 -0.16928865220E+01  0.12183657273E+02  0.00000000000E+00 0. -1.
<mgrwt>
<rscale>  0 0.79997429E+02</rscale>
<asrwt>0</asrwt>
<pdfrwt beam="1">  1        2 0.27875075E-02 0.79997429E+02</pdfrwt>
<pdfrwt beam="2">  1       -1 0.13584677E-01 0.79997429E+02</pdfrwt>
<totfact> 0.12168490E+05</totfact>
</mgrwt>
</event>
<event>
 8    1  0.2389776E-020  0.8340182E+02  0.7818608E-02  0.1319666E+00
         -1   -1    0    0    0  501 -0.00000000000E+00  0.00000000000E+00  0.68843206127E+02  0.68843206312E+02  0.50400000000E-02 0.  1.
          2   -1    0    0  501    0  0.00000000000E+00 -0.00000000000E+00 -0.25259806256E+02  0.25259806384E+02  0.25500000000E-02 0. -1.
         24    2    1    2    0    0 -0.35527136788E-14  0.00000000000E+00  0.43583399872E+02  0.94103012696E+02  0.83401824046E+02 0.  0.
         66    2    3    3    0    0  0.17895766148E+02 -0.18274675544E+02 -0.15322801897E+02  0.29883280658E+02  0.19999981642E+01 0.  0.
        -13    1    3    3    0    0 -0.17895766148E+02  0.18274675544E+02  0.58906201769E+02  0.64219732038E+02  0.10566000000E+00 0.  1.
         13    1    4    4    0    0  0.57868302310E+01 -0.54366384447E+01 -0.45006559869E+01  0.91275139030E+01  0.10566000000E+00 0. -1.
        -13    1    4    4    0    0  0.10123692199E+02 -0.10918127785E+02 -0.97236921445E+01  0.17783588250E+02  0.10566000000E+00 0.  1.
        -14    1    4    4    0    0  0.19852437176E+01 -0.19199093139E+01 -0.10984537656E+01  0.29721785053E+01  0.00000000000E+00 0.  1.
<mgrwt>
<rscale>  0 0.83401824E+02</rscale>
<asrwt>0</asrwt>
<pdfrwt beam="1">  1        2 0.38861240E-02 0.83401824E+02</pdfrwt>
<pdfrwt beam="2">  1       -1 0.10591263E-01 0.83401824E+02</pdfrwt>
<totfact> 0.11555631E+05</totfact>
</mgrwt>
</event>
<event>
 8    1  0.2389776E-020  0.8138873E+02  0.7818608E-02  0.1325156E+00
          2   -1    0    0  501    0  0.00000000000E+00  0.00000000000E+00  0.32880618012E+02  0.32880618111E+02  0.25500000000E-02 0. -1.
         -1   -1    0    0    0  501 -0.00000000000E+00 -0.00000000000E+00 -0.50364968434E+02  0.50364968687E+02  0.50400000000E-02 0.  1.
         24    2    1    2    0    0 -0.35527136788E-14  0.17763568394E-14 -0.17484350422E+02  0.83245586798E+02  0.81388729021E+02 0.  0.
         66    2    3    3    0    0 -0.16630631527E+02  0.14718379955E+02  0.26100649346E+02  0.34328596066E+02  0.19999995229E+01 0.  0.
        -13    1    3    3    0    0  0.16630631527E+02 -0.14718379955E+02 -0.43584999768E+02  0.48916990732E+02  0.10566000000E+00 0.  1.
         13    1    4    4    0    0 -0.52682914859E+01  0.47349291744E+01  0.72403084845E+01  0.10129544928E+02  0.10566000000E+00 0. -1.
        -13    1    4    4    0    0 -0.51283696245E+01  0.50120692632E+01  0.83649511851E+01  0.11018374911E+02  0.10566000000E+00 0.  1.
        -14    1    4    4    0    0 -0.62339704163E+01  0.49713815174E+01  0.10495389676E+02  0.13180676227E+02  0.00000000000E+00 0.  1.
<mgrwt>
<rscale>  0 0.81388729E+02</rscale>
<asrwt>0</asrwt>
<pdfrwt beam="1">  1        2 0.50585566E-02 0.81388729E+02</pdfrwt>
<pdfrwt beam="2">  1       -1 0.77484568E-02 0.81388729E+02</pdfrwt>
<totfact> 0.13058657E+05</totfact>
</mgrwt>
</event>
<event>
 8    1  0.2389776E-020  0.7479252E+02  0.7818608E-02  0.1344515E+00
         -1   -1    0    0    0  501 -0.00000000000E+00  0.00000000000E+00  0.81891956281E+02  0.81891956436E+02  0.50400000000E-02 0.  1.
          2   -1    0    0  501    0  0.00000000000E+00 -0.00000000000E+00 -0.17077137662E+02  0.17077137852E+02  0.25500000000E-02 0. -1.
         24    2    1    2    0    0  0.00000000000E+00  0.00000000000E+00  0.64814818619E+02  0.98969094288E+02  0.74792519089E+02 0.  0.
         66    2    3    3    0    0 -0.15786789332E+02  0.20175326608E+02 -0.35708138888E+01  0.25942575690E+02  0.20000001087E+01 0.  0.
        -13    1    3    3    0    0  0.15786789332E+02 -0.20175326608E+02  0.68385632508E+02  0.73026518599E+02  0.10566000000E+00 0.  1.
         13    1    4    4    0    0 -0.98666996473E+01  0.13301121105E+02 -0.26320554018E+01  0.16769331062E+02  0.10566000000E+00 0. -1.
        -13    1    4    4    0    0 -0.15512031919E+01  0.22273949820E+01  0.62225218724E-01  0.27170858952E+01  0.10566000000E+00 0.  1.
        -14    1    4    4    0    0 -0.43688864925E+01  0.46468105205E+01 -0.10009837057E+01  0.64561587324E+01  0.00000000000E+00 0.  1.
<mgrwt>
<rscale>  0 0.74792519E+02</rscale>
<asrwt>0</asrwt>
<pdfrwt beam="1">  1        2 0.26272519E-02 0.74792519E+02</pdfrwt>
<pdfrwt beam="2">  1       -1 0.12598763E-01 0.74792519E+02</pdfrwt>
<totfact> 0.14592875E+05</totfact>
</mgrwt>
</event>
<event>
 8    1  0.2389776E-020  0.7987797E+02  0.7818608E-02  0.1329398E+00
          2   -1    0    0  501    0  0.00000000000E+00  0.00000000000E+00  0.10105752858E+03  0.10105752861E+03  0.25500000000E-02 0. -1.
         -1   -1    0    0    0  501 -0.00000000000E+00 -0.00000000000E+00 -0.15784302970E+02  0.15784303775E+02  0.50400000000E-02 0.  1.
         24    2    1    2    0    0  0.17763568394E-14  0.00000000000E+00  0.85273225610E+02  0.11684183239E+03  0.79877974371E+02 0.  0.
         66    2    3    3    0    0 -0.13100516900E+02 -0.12976652678E+02  0.94443536187E+02  0.96247590039E+02  0.20000007907E+01 0.  0.
        -13    1    3    3    0    0  0.13100516900E+02  0.12976652678E+02 -0.91703105764E+01  0.20594242348E+02  0.10566000000E+00 0.  1.
         13    1    4    4    0    0 -0.10487201128E+01 -0.92422718375E+00  0.96909213180E+01  0.97917888963E+01  0.10566000000E+00 0.  1.
        -13    1    4    4    0    0 -0.47792456965E+01 -0.53139275513E+01  0.37246185960E+02  0.37925829563E+02  0.10566000000E+00 0. -1.
         14    1    4    4    0    0 -0.72725510906E+01 -0.67384979431E+01  0.47506428909E+02  0.48529971580E+02  0.00000000000E+00 0. -1.
<mgrwt>
<rscale>  0 0.79877974E+02</rscale>
<asrwt>0</asrwt>
<pdfrwt beam="1">  1        2 0.15547312E-01 0.79877974E+02</pdfrwt>
<pdfrwt beam="2">  1       -1 0.24283543E-02 0.79877974E+02</pdfrwt>
<totfact> 0.17851046E+05</totfact>
</mgrwt>
</event>
<event>
 8    1  0.2389776E-020  0.7548725E+02  0.7818608E-02  0.1342369E+00
          2   -1    0    0  501    0  0.00000000000E+00  0.00000000000E+00  0.46675848727E+02  0.46675848797E+02  0.25500000000E-02 0. -1.
         -1   -1    0    0    0  501 -0.00000000000E+00 -0.00000000000E+00 -0.30520732656E+02  0.30520733073E+02  0.50400000000E-02 0.  1.
         24    2    1    2    0    0 -0.17763568394E-14  0.00000000000E+00  0.16155116071E+02  0.77196581870E+02  0.75487247115E+02 0.  0.
         66    2    3    3    0    0 -0.12707086334E+02 -0.15796324428E+02  0.40608796021E+02  0.45432017720E+02  0.20000028367E+01 0.  0.
        -13    1    3    3    0    0  0.12707086334E+02  0.15796324428E+02 -0.24453679949E+02  0.31764564150E+02  0.10566000000E+00 0.  1.
         13    1    4    4    0    0 -0.26738851902E+01 -0.27790892930E+01  0.79003701884E+01  0.87920425646E+01  0.10566000000E+00 0. -1.
        -13    1    4    4    0    0 -0.52881320752E+01 -0.64078967548E+01  0.14876969662E+02  0.17039978640E+02  0.10566000000E+00 0.  1.
         14    1    4    4    0    0 -0.47450690682E+01 -0.66093383798E+01  0.17831456170E+02  0.19599996516E+02  0.00000000000E+00 0. -1.
<mgrwt>
<rscale>  0 0.75487247E+02</rscale>
<asrwt>0</asrwt>
<pdfrwt beam="1">  1        2 0.71808998E-02 0.75487247E+02</pdfrwt>
<pdfrwt beam="2">  1       -1 0.46954974E-02 0.75487247E+02</pdfrwt>
<totfact> 0.17257137E+05</totfact>
</mgrwt>
</event>
<event>
 8    1  0.2389776E-020  0.7961445E+02  0.7818608E-02  0.1330149E+00
         -1   -1    0    0    0  501 -0.00000000000E+00  0.00000000000E+00  0.47659165089E+01  0.47659191738E+01  0.50400000000E-02 0.  1.
          2   -1    0    0  501    0  0.00000000000E+00 -0.00000000000E+00 -0.33248898290E+03  0.33248898291E+03  0.25500000000E-02 0. -1.
         24    2    1    2    0    0  0.00000000000E+00  0.00000000000E+00 -0.32772306639E+03  0.33725490209E+03  0.79614450539E+02 0.  0.
         66    2    3    3    0    0  0.74879278924E+01  0.24509852912E+02 -0.29285692927E+03  0.29398296388E+03  0.20000195977E+01 0.  0.
        -13    1    3    3    0    0 -0.74879278924E+01 -0.24509852912E+02 -0.34866137126E+02  0.43271938205E+02  0.10566000000E+00 0.  1.
         13    1    4    4    0    0  0.28401333018E+01  0.12145310317E+02 -0.13987453565E+03  0.14042959734E+03  0.10566000000E+00 0. -1.
        -13    1    4    4    0    0  0.10911915324E+01  0.23223939967E+01 -0.31904072980E+02  0.32007268700E+02  0.10566000000E+00 0.  1.
         14    1    4    4    0    0  0.35566030583E+01  0.10042148598E+02 -0.12107832063E+03  0.12154609784E+03  0.00000000000E+00 0. -1.
<mgrwt>
<rscale>  0 0.79614451E+02</rscale>
<asrwt>0</asrwt>
<pdfrwt beam="1">  1        2 0.51152133E-01 0.79614451E+02</pdfrwt>
<pdfrwt beam="2">  1       -1 0.73321839E-03 0.79614451E+02</pdfrwt>
<totfact> 0.26795218E+05</totfact>
</mgrwt>
</event>
<event>
 8    1  0.2389776E-020  0.7943788E+02  0.7818608E-02  0.1330654E+00
          2   -1    0    0  501    0  0.00000000000E+00  0.00000000000E+00  0.29320617801E+02  0.29320617912E+02  0.25500000000E-02 0. -1.
         -1   -1    0    0    0  501 -0.00000000000E+00 -0.00000000000E+00 -0.53804939781E+02  0.53804940017E+02  0.50400000000E-02 0.  1.
         24    2    1    2    0    0  0.00000000000E+00 -0.88817841970E-15 -0.24484321980E+02  0.83125557929E+02  0.79437877352E+02 0.  0.
         66    2    3    3    0    0 -0.16281657420E+02 -0.68254632186E+01  0.24951989401E+02  0.30631373836E+02  0.19999928808E+01 0.  0.
        -13    1    3    3    0    0  0.16281657420E+02  0.68254632186E+01 -0.49436311381E+02  0.52494184092E+02  0.10566000000E+00 0.  1.
         13    1    4    4    0    0 -0.10446634834E+02 -0.47355241308E+01  0.17571905593E+02  0.20984289322E+02  0.10566000000E+00 0. -1.
        -13    1    4    4    0    0 -0.20644051475E+01 -0.65901593864E+00  0.23200400461E+01  0.31764477756E+01  0.10566000000E+00 0. -1.
         14    1    4    4    0    0 -0.37706174389E+01 -0.14309231491E+01  0.50600437629E+01  0.64706367392E+01  0.00000000000E+00 0. -1.
<mgrwt>
<rscale>  0 0.79437877E+02</rscale>
<asrwt>0</asrwt>
<pdfrwt beam="1">  1        2 0.45108643E-02 0.79437877E+02</pdfrwt>
<pdfrwt beam="2">  1       -1 0.82776831E-02 0.79437877E+02</pdfrwt>
<totfact> 0.13662084E+05</totfact>
</mgrwt>
</event>
<event>
 8    1  0.2389776E-020  0.7953674E+02  0.7818608E-02  0.1330371E+00
          2   -1    0    0  501    0  0.00000000000E+00  0.00000000000E+00  0.42522733308E+03  0.42522733309E+03  0.25500000000E-02 0. -1.
         -1   -1    0    0    0  501 -0.00000000000E+00 -0.00000000000E+00 -0.37192401797E+01  0.37192435946E+01  0.50400000000E-02 0.  1.
         24    2    1    2    0    0  0.00000000000E+00  0.00000000000E+00  0.42150809290E+03  0.42894657669E+03  0.79536741616E+02 0.  0.
         66    2    3    3    0    0  0.34796574749E+02 -0.94844088888E+01  0.30093051783E+03  0.30309063364E+03  0.20000025667E+01 0.  0.
        -13    1    3    3    0    0 -0.34796574749E+02  0.94844088888E+01  0.12057757508E+03  0.12585594305E+03  0.10566000000E+00 0.  1.
         13    1    4    4    0    0  0.16472920185E+02 -0.54968939019E+01  0.14556296714E+03  0.14659523017E+03  0.10566000000E+00 0. -1.
        -13    1    4    4    0    0  0.14419434720E+02 -0.31617909069E+01  0.12145117258E+03  0.12234506735E+03  0.10566000000E+00 0.  1.
         14    1    4    4    0    0  0.39042198438E+01 -0.82572408003E+00  0.33916378110E+02  0.34150336118E+02  0.00000000000E+00 0. -1.
<mgrwt>
<rscale>  0 0.79536742E+02</rscale>
<asrwt>0</asrwt>
<pdfrwt beam="1">  1        2 0.65419570E-01 0.79536742E+02</pdfrwt>
<pdfrwt beam="2">  1       -1 0.57219123E-03 0.79536742E+02</pdfrwt>
<totfact> 0.29299227E+05</totfact>
</mgrwt>
</event>
<event>
 8    1  0.2389776E-020  0.7996631E+02  0.7818608E-02  0.1329147E+00
          2   -1    0    0  501    0  0.00000000000E+00  0.00000000000E+00  0.17820824988E+02  0.17820825170E+02  0.25500000000E-02 0. -1.
         -1   -1    0    0    0  501 -0.00000000000E+00 -0.00000000000E+00 -0.89707005508E+02  0.89707005650E+02  0.50400000000E-02 0.  1.
         24    2    1    2    0    0  0.00000000000E+00 -0.17763568394E-14 -0.71886180520E+02  0.10752783082E+03  0.79966314477E+02 0.  0.
         66    2    3    3    0    0 -0.66791104105E+01  0.13464174686E+02  0.13818911169E+02  0.20514794893E+02  0.19999969356E+01 0.  0.
        -13    1    3    3    0    0  0.66791104105E+01 -0.13464174686E+02 -0.85705091689E+02  0.87013035927E+02  0.10566000000E+00 0.  1.
         13    1    4    4    0    0 -0.16577786188E+01  0.30308972235E+01  0.32812161915E+01  0.47657225747E+01  0.10566000000E+00 0. -1.
        -13    1    4    4    0    0 -0.20863853964E+01  0.62797253056E+01  0.58990572471E+01  0.88655509912E+01  0.10566000000E+00 0.  1.
        -14    1    4    4    0    0 -0.29349463953E+01  0.41535521570E+01  0.46386377301E+01  0.68835213267E+01  0.00000000000E+00 0.  1.
<mgrwt>
<rscale>  0 0.79966314E+02</rscale>
<asrwt>0</asrwt>
<pdfrwt beam="1">  1        2 0.27416654E-02 0.79966314E+02</pdfrwt>
<pdfrwt beam="2">  1       -1 0.13801078E-01 0.79966314E+02</pdfrwt>
<totfact> 0.12140376E+05</totfact>
</mgrwt>
</event>
<event>
 8    1  0.2389776E-020  0.9010462E+02  0.7818608E-02  0.1302599E+00
         -1   -1    0    0    0  501 -0.00000000000E+00  0.00000000000E+00  0.18945464390E+01  0.18945531429E+01  0.50400000000E-02 0.  1.
          2   -1    0    0  501    0  0.00000000000E+00 -0.00000000000E+00 -0.10713418175E+04  0.10713418175E+04  0.25500000000E-02 0. -1.
         24    2    1    2    0    0  0.00000000000E+00  0.00000000000E+00 -0.10694472711E+04  0.10732363707E+04  0.90104615297E+02 0.  0.
         66    2    3    3    0    0  0.15101733379E+02  0.10772626254E+02 -0.10237140614E+04  0.10238840712E+04  0.19999998625E+01 0.  0.
        -13    1    3    3    0    0 -0.15101733379E+02 -0.10772626254E+02 -0.45733209737E+02  0.49352299484E+02  0.10566000000E+00 0.  1.
         13    1    4    4    0    0  0.70161211465E+01  0.54675812464E+01 -0.45556787523E+03  0.45565471632E+03  0.10566000000E+00 0. -1.
        -13    1    4    4    0    0  0.17181434210E+01  0.12949864230E+01 -0.14996496922E+03  0.14998043928E+03  0.10566000000E+00 0.  1.
         14    1    4    4    0    0  0.63674688116E+01  0.40100585851E+01 -0.41818121690E+03  0.41824891559E+03  0.00000000000E+00 0. -1.
<mgrwt>
<rscale>  0 0.90104615E+02</rscale>
<asrwt>0</asrwt>
<pdfrwt beam="1">  1        2 0.16482133E+00 0.90104615E+02</pdfrwt>
<pdfrwt beam="2">  1       -1 0.29147006E-03 0.90104615E+02</pdfrwt>
<totfact> 0.25852494E+05</totfact>
</mgrwt>
</event>
<event>
 8    1  0.2389776E-020  0.7858664E+02  0.7818608E-02  0.1333111E+00
         -1   -1    0    0    0  501 -0.00000000000E+00  0.00000000000E+00  0.55066596536E+01  0.55066619600E+01  0.50400000000E-02 0.  1.
          2   -1    0    0  501    0  0.00000000000E+00 -0.00000000000E+00 -0.28038132313E+03  0.28038132314E+03  0.25500000000E-02 0. -1.
         24    2    1    2    0    0  0.71054273576E-14  0.00000000000E+00 -0.27487466347E+03  0.28588798510E+03  0.78586636295E+02 0.  0.
         66    2    3    3    0    0 -0.37804501542E+02 -0.10227794502E+02 -0.12712675568E+03  0.13303758916E+03  0.20000006495E+01 0.  0.
        -13    1    3    3    0    0  0.37804501542E+02  0.10227794502E+02 -0.14774790779E+03  0.15285039593E+03  0.10566000000E+00 0.  1.
         13    1    4    4    0    0 -0.10775195877E+02 -0.35020459113E+01 -0.34948930943E+02  0.36739734755E+02  0.10566000000E+00 0.  1.
        -13    1    4    4    0    0 -0.65678465472E+01 -0.14923088763E+01 -0.23411213638E+02  0.24361027936E+02  0.10566000000E+00 0. -1.
         14    1    4    4    0    0 -0.20461459118E+02 -0.52334397142E+01 -0.68766611104E+02  0.71936826474E+02  0.00000000000E+00 0. -1.
<mgrwt>
<rscale>  0 0.78586636E+02</rscale>
<asrwt>0</asrwt>
<pdfrwt beam="1">  1        2 0.43135577E-01 0.78586636E+02</pdfrwt>
<pdfrwt beam="2">  1       -1 0.84717881E-03 0.78586636E+02</pdfrwt>
<totfact> 0.26067713E+05</totfact>
</mgrwt>
</event>
<event>
 8    1  0.2389776E-020  0.8167474E+02  0.7818608E-02  0.1324365E+00
         -1   -1    0    0    0  501 -0.00000000000E+00  0.00000000000E+00  0.24721480370E+01  0.24721531746E+01  0.50400000000E-02 0.  1.
          2   -1    0    0  501    0  0.00000000000E+00 -0.00000000000E+00 -0.67459116407E+03  0.67459116408E+03  0.25500000000E-02 0. -1.
         24    2    1    2    0    0  0.00000000000E+00 -0.35527136788E-14 -0.67211901604E+03  0.67706331725E+03  0.81674744271E+02 0.  0.
         66    2    3    3    0    0  0.12351084309E+01  0.16368493734E+02 -0.64601696186E+03  0.64622857262E+03  0.19999969716E+01 0.  0.
        -13    1    3    3    0    0 -0.12351084309E+01 -0.16368493734E+02 -0.26102054180E+02  0.30834744630E+02  0.10566000000E+00 0.  1.
         13    1    4    4    0    0  0.56915504994E+00  0.91853616697E+01 -0.36898531896E+03  0.36910008342E+03  0.10566000000E+00 0. -1.
        -13    1    4    4    0    0 -0.14019234827E+00  0.21406699801E+01 -0.65451465085E+02  0.65486697639E+02  0.10566000000E+00 0. -1.
        -14    1    4    4    0    0  0.80614572924E+00  0.50424620841E+01 -0.21158017781E+03  0.21164179157E+03  0.00000000000E+00 0.  1.
<mgrwt>
<rscale>  0 0.81674744E+02</rscale>
<asrwt>0</asrwt>
<pdfrwt beam="1">  1        2 0.10378311E+00 0.81674744E+02</pdfrwt>
<pdfrwt beam="2">  1       -1 0.38033140E-03 0.81674744E+02</pdfrwt>
<totfact> 0.31420802E+05</totfact>
</mgrwt>
</event>
<event>
 8    1  0.2389776E-020  0.7914315E+02  0.7818608E-02  0.1331501E+00
          2   -1    0    0  501    0  0.00000000000E+00  0.00000000000E+00  0.67415113718E+02  0.67415113766E+02  0.25500000000E-02 0. -1.
         -1   -1    0    0    0  501 -0.00000000000E+00 -0.00000000000E+00 -0.23227872342E+02  0.23227872889E+02  0.50400000000E-02 0.  1.
         24    2    1    2    0    0  0.00000000000E+00  0.00000000000E+00  0.44187241376E+02  0.90642986654E+02  0.79143153395E+02 0.  0.
         66    2    3    3    0    0  0.14393783632E+02 -0.17382222690E+02  0.59300676433E+02  0.63481437432E+02  0.20000000213E+01 0.  0.
        -13    1    3    3    0    0 -0.14393783632E+02  0.17382222690E+02 -0.15113435058E+02  0.27161549223E+02  0.10566000000E+00 0.  1.
         13    1    4    4    0    0  0.72654270458E+01 -0.86906058018E+01  0.30295024135E+02  0.32343665697E+02  0.10566000000E+00 0. -1.
        -13    1    4    4    0    0  0.50810164614E+01 -0.67588433634E+01  0.22987576879E+02  0.24493642985E+02  0.10566000000E+00 0.  1.
        -14    1    4    4    0    0  0.20473401246E+01 -0.19327735252E+01  0.60180754196E+01  0.66441287496E+01  0.00000000000E+00 0.  1.
<mgrwt>
<rscale>  0 0.79143153E+02</rscale>
<asrwt>0</asrwt>
<pdfrwt beam="1">  1        2 0.10371556E-01 0.79143153E+02</pdfrwt>
<pdfrwt beam="2">  1       -1 0.35735189E-02 0.79143153E+02</pdfrwt>
<totfact> 0.16473318E+05</totfact>
</mgrwt>
</event>
<event>
 8    1  0.2389776E-020  0.8000337E+02  0.7818608E-02  0.1329042E+00
          2   -1    0    0  501    0  0.00000000000E+00  0.00000000000E+00  0.67300899468E+03  0.67300899469E+03  0.25500000000E-02 0. -1.
         -1   -1    0    0    0  501 -0.00000000000E+00 -0.00000000000E+00 -0.23775802013E+01  0.23775855432E+01  0.50400000000E-02 0.  1.
         24    2    1    2    0    0  0.00000000000E+00  0.11102230246E-15  0.67063141448E+03  0.67538658023E+03  0.80003366594E+02 0.  0.
         66    2    3    3    0    0 -0.22647933962E+02  0.64724149822E+00  0.61356985911E+03  0.61399130273E+03  0.19999954402E+01 0.  0.
        -13    1    3    3    0    0  0.22647933962E+02 -0.64724149822E+00  0.57061555367E+02  0.61395277500E+02  0.10566000000E+00 0.  1.
         13    1    4    4    0    0 -0.10029715066E+02  0.71030924483E+00  0.29521034589E+03  0.29538154853E+03  0.10566000000E+00 0. -1.
        -13    1    4    4    0    0 -0.30259015176E+01  0.18412665951E-01  0.80169026882E+02  0.80226183096E+02  0.10566000000E+00 0. -1.
         14    1    4    4    0    0 -0.95923173781E+01 -0.81480412568E-01  0.23819048634E+03  0.23838357111E+03  0.00000000000E+00 0. -1.
<mgrwt>
<rscale>  0 0.80003367E+02</rscale>
<asrwt>0</asrwt>
<pdfrwt beam="1">  1        2 0.10354004E+00 0.80003367E+02</pdfrwt>
<pdfrwt beam="2">  1       -1 0.36578131E-03 0.80003367E+02</pdfrwt>
<totfact> 0.33139197E+05</totfact>
</mgrwt>
</event>
<event>
 8    1  0.2389776E-020  0.7728690E+02  0.7818608E-02  0.1336932E+00
         -1   -1    0    0    0  501 -0.00000000000E+00  0.00000000000E+00  0.15263651591E+02  0.15263652423E+02  0.50400000000E-02 0.  1.
          2   -1    0    0  501    0  0.00000000000E+00 -0.00000000000E+00 -0.97834782405E+02  0.97834782438E+02  0.25500000000E-02 0. -1.
         24    2    1    2    0    0  0.00000000000E+00  0.00000000000E+00 -0.82571130815E+02  0.11309843486E+03  0.77286896199E+02 0.  0.
         66    2    3    3    0    0  0.27584609196E+02 -0.15766622777E+02 -0.73434240009E+02  0.80038020527E+02  0.20000164640E+01 0.  0.
        -13    1    3    3    0    0 -0.27584609196E+02  0.15766622777E+02 -0.91368908052E+01  0.33060414334E+02  0.10566000000E+00 0.  1.
         13    1    4    4    0    0  0.96005055906E+01 -0.55469788918E+01 -0.24531931393E+02  0.26921469208E+02  0.10566000000E+00 0. -1.
        -13    1    4    4    0    0  0.12712253482E+02 -0.75582104506E+01 -0.36386814247E+02  0.39277720770E+02  0.10566000000E+00 0.  1.
        -14    1    4    4    0    0  0.52718501241E+01 -0.26614334344E+01 -0.12515494369E+02  0.13838830549E+02  0.00000000000E+00 0.  1.
<mgrwt>
<rscale>  0 0.77286896E+02</rscale>
<asrwt>0</asrwt>
<pdfrwt beam="1">  1        2 0.15051505E-01 0.77286896E+02</pdfrwt>
<pdfrwt beam="2">  1       -1 0.23482542E-02 0.77286896E+02</pdfrwt>
<totfact> 0.19321390E+05</totfact>
</mgrwt>
</event>
<event>
 8    1  0.2389776E-020  0.7930316E+02  0.7818608E-02  0.1331041E+00
          2   -1    0    0  501    0  0.00000000000E+00  0.00000000000E+00  0.17152508056E+03  0.17152508058E+03  0.25500000000E-02 0. -1.
         -1   -1    0    0    0  501 -0.00000000000E+00 -0.00000000000E+00 -0.91662853895E+01  0.91662867751E+01  0.50400000000E-02 0.  1.
         24    2    1    2    0    0  0.00000000000E+00  0.00000000000E+00  0.16235879517E+03  0.18069136736E+03  0.79303164295E+02 0.  0.
         66    2    3    3    0    0  0.86866406262E+01  0.92317434261E+01  0.16677471856E+03  0.16726771824E+03  0.20000008068E+01 0.  0.
        -13    1    3    3    0    0 -0.86866406262E+01 -0.92317434261E+01 -0.44159233895E+01  0.13423649112E+02  0.10566000000E+00 0.  1.
         13    1    4    4    0    0  0.41262964033E+00  0.10607885651E+00  0.72143564069E+01  0.72276979976E+01  0.10566000000E+00 0. -1.
        -13    1    4    4    0    0  0.37824046879E+01  0.46003122779E+01  0.84184242285E+02  0.84394711158E+02  0.10566000000E+00 0.  1.
         14    1    4    4    0    0  0.44916062979E+01  0.45253522917E+01  0.75376119870E+02  0.75645309089E+02  0.00000000000E+00 0. -1.
<mgrwt>
<rscale>  0 0.79303164E+02</rscale>
<asrwt>0</asrwt>
<pdfrwt beam="1">  1        2 0.26388474E-01 0.79303164E+02</pdfrwt>
<pdfrwt beam="2">  1       -1 0.14101978E-02 0.79303164E+02</pdfrwt>
<totfact> 0.21421698E+05</totfact>
</mgrwt>
</event>
<event>
 8    1  0.2389776E-020  0.7842234E+02  0.7818608E-02  0.1333589E+00
         -1   -1    0    0    0  501 -0.00000000000E+00  0.00000000000E+00  0.35493067390E+01  0.35493103174E+01  0.50400000000E-02 0.  1.
          2   -1    0    0  501    0  0.00000000000E+00 -0.00000000000E+00 -0.43318747769E+03  0.43318747769E+03  0.25500000000E-02 0. -1.
         24    2    1    2    0    0  0.44408920985E-15  0.00000000000E+00 -0.42963817095E+03  0.43673678801E+03  0.78422344185E+02 0.  0.
         66    2    3    3    0    0 -0.26144208876E+01  0.38786897866E+02 -0.24238411121E+03  0.24548995092E+03  0.19999991093E+01 0.  0.
        -13    1    3    3    0    0  0.26144208876E+01 -0.38786897866E+02 -0.18725405974E+03  0.19124683709E+03  0.10566000000E+00 0.  1.
         13    1    4    4    0    0 -0.18557439870E+01  0.20682564483E+02 -0.13256022679E+03  0.13417688754E+03  0.10566000000E+00 0. -1.
        -13    1    4    4    0    0 -0.50053827176E+00  0.14938593788E+02 -0.92634083920E+02  0.93832280110E+02  0.10566000000E+00 0.  1.
        -14    1    4    4    0    0 -0.25813862888E+00  0.31657395948E+01 -0.17189800494E+02  0.17480783270E+02  0.00000000000E+00 0.  1.
<mgrwt>
<rscale>  0 0.78422344E+02</rscale>
<asrwt>0</asrwt>
<pdfrwt beam="1">  1        2 0.66644186E-01 0.78422344E+02</pdfrwt>
<pdfrwt beam="2">  1       -1 0.54604781E-03 0.78422344E+02</pdfrwt>
<totfact> 0.30590158E+05</totfact>
</mgrwt>
</event>
<event>
 8    1  0.2389776E-020  0.8213252E+02  0.7818608E-02  0.1323106E+00
          2   -1    0    0  501    0  0.00000000000E+00  0.00000000000E+00  0.75679661604E+03  0.75679661604E+03  0.25500000000E-02 0. -1.
         -1   -1    0    0    0  501 -0.00000000000E+00 -0.00000000000E+00 -0.22283865448E+01  0.22283922444E+01  0.50400000000E-02 0.  1.
         24    2    1    2    0    0  0.00000000000E+00  0.00000000000E+00  0.75456822949E+03  0.75902500829E+03  0.82132516363E+02 0.  0.
         66    2    3    3    0    0  0.93535299636E+01 -0.26909031407E+02  0.65053715434E+03  0.65116370728E+03  0.20000007923E+01 0.  0.
        -13    1    3    3    0    0 -0.93535299636E+01  0.26909031407E+02  0.10403107515E+03  0.10786130101E+03  0.10566000000E+00 0.  1.
         13    1    4    4    0    0  0.41175879041E+01 -0.96767523090E+01  0.24538214581E+03  0.24560741584E+03  0.10566000000E+00 0. -1.
        -13    1    4    4    0    0  0.15845396445E+01 -0.44901307311E+01  0.99074688292E+02  0.99189097506E+02  0.10566000000E+00 0.  1.
         14    1    4    4    0    0  0.36514024150E+01 -0.12742148367E+02  0.30608032024E+03  0.30636719394E+03  0.00000000000E+00 0. -1.
<mgrwt>
<rscale>  0 0.82132516E+02</rscale>
<asrwt>0</asrwt>
<pdfrwt beam="1">  1        2 0.11643022E+00 0.82132516E+02</pdfrwt>
<pdfrwt beam="2">  1       -1 0.34282921E-03 0.82132516E+02</pdfrwt>
<totfact> 0.31763683E+05</totfact>
</mgrwt>
</event>
<event>
 8    1  0.2389776E-020  0.7605113E+02  0.7818608E-02  0.1340647E+00
          2   -1    0    0  501    0  0.00000000000E+00  0.00000000000E+00  0.11669637907E+03  0.11669637910E+03  0.25500000000E-02 0. -1.
         -1   -1    0    0    0  501 -0.00000000000E+00 -0.00000000000E+00 -0.12390645344E+02  0.12390646369E+02  0.50400000000E-02 0.  1.
         24    2    1    2    0    0  0.35527136788E-14 -0.35527136788E-14  0.10430573372E+03  0.12908702547E+03  0.76051127905E+02 0.  0.
         66    2    3    3    0    0 -0.26261366177E+02  0.27170006207E+02  0.45384514232E+02  0.59089955088E+02  0.20000173749E+01 0.  0.
        -13    1    3    3    0    0  0.26261366177E+02 -0.27170006207E+02  0.58921219493E+02  0.69997070377E+02  0.10566000000E+00 0.  1.
         13    1    4    4    0    0 -0.45718207004E+01  0.50588783176E+01  0.88146475772E+01  0.11144638635E+02  0.10566000000E+00 0. -1.
        -13    1    4    4    0    0 -0.33310504206E+01  0.27477226829E+01  0.53708867085E+01  0.68922757430E+01  0.10566000000E+00 0.  1.
         14    1    4    4    0    0 -0.18358495056E+02  0.19363405206E+02  0.31198979946E+02  0.41053040711E+02  0.00000000000E+00 0. -1.
<mgrwt>
<rscale>  0 0.76051128E+02</rscale>
<asrwt>0</asrwt>
<pdfrwt beam="1">  1        2 0.17953289E-01 0.76051128E+02</pdfrwt>
<pdfrwt beam="2">  1       -1 0.19062532E-02 0.76051128E+02</pdfrwt>
<totfact> 0.21203895E+05</totfact>
</mgrwt>
</event>
<event>
 8    1  0.2389776E-020  0.7948998E+02  0.7818608E-02  0.1330505E+00
          2   -1    0    0  501    0  0.00000000000E+00  0.00000000000E+00  0.11260203542E+03  0.11260203545E+03  0.25500000000E-02 0. -1.
         -1   -1    0    0    0  501 -0.00000000000E+00 -0.00000000000E+00 -0.14028734908E+02  0.14028735813E+02  0.50400000000E-02 0.  1.
         24    2    1    2    0    0  0.35527136788E-14  0.00000000000E+00  0.98573300514E+02  0.12663077126E+03  0.79489978340E+02 0.  0.
         66    2    3    3    0    0  0.30525841777E+02  0.14678989142E+02  0.16269964069E+02  0.37629928051E+02  0.20000039736E+01 0.  0.
        -13    1    3    3    0    0 -0.30525841777E+02 -0.14678989142E+02  0.82303336445E+02  0.89000843212E+02  0.10566000000E+00 0.  1.
         13    1    4    4    0    0  0.49272984664E+01  0.16960466174E+01  0.23180212299E+01  0.57043168534E+01  0.10566000000E+00 0. -1.
        -13    1    4    4    0    0  0.54400691294E+01  0.31395795559E+01  0.31181617831E+01  0.70132309859E+01  0.10566000000E+00 0.  1.
         14    1    4    4    0    0  0.20158474181E+02  0.98433629685E+01  0.10833781056E+02  0.24912380212E+02  0.00000000000E+00 0. -1.
<mgrwt>
<rscale>  0 0.79489978E+02</rscale>
<asrwt>0</asrwt>
<pdfrwt beam="1">  1        2 0.17323391E-01 0.79489978E+02</pdfrwt>
<pdfrwt beam="2">  1       -1 0.21582669E-02 0.79489978E+02</pdfrwt>
<totfact> 0.18654017E+05</totfact>
</mgrwt>
</event>
<event>
 8    1  0.2389776E-020  0.8133256E+02  0.7818608E-02  0.1325312E+00
          2   -1    0    0  501    0  0.00000000000E+00  0.00000000000E+00  0.28688711131E+02  0.28688711244E+02  0.25500000000E-02 0. -1.
         -1   -1    0    0    0  501 -0.00000000000E+00 -0.00000000000E+00 -0.57644492210E+02  0.57644492430E+02  0.50400000000E-02 0.  1.
         24    2    1    2    0    0  0.00000000000E+00  0.00000000000E+00 -0.28955781079E+02  0.86333203674E+02  0.81332556819E+02 0.  0.
         66    2    3    3    0    0 -0.23971736500E+02  0.78171479936E+01  0.19347741328E+02  0.31844733384E+02  0.19999990532E+01 0.  0.
        -13    1    3    3    0    0  0.23971736500E+02 -0.78171479936E+01 -0.48303522407E+02  0.54488470290E+02  0.10566000000E+00 0.  1.
         13    1    4    4    0    0 -0.82072460073E+01  0.21246118583E+01  0.56011333646E+01  0.10161531458E+02  0.10566000000E+00 0. -1.
        -13    1    4    4    0    0 -0.12449355694E+02  0.45488984325E+01  0.11124080457E+02  0.17304197878E+02  0.10566000000E+00 0.  1.
         14    1    4    4    0    0 -0.33151347989E+01  0.11436377028E+01  0.26225275068E+01  0.43790040482E+01  0.00000000000E+00 0. -1.
<mgrwt>
<rscale>  0 0.81332557E+02</rscale>
<asrwt>0</asrwt>
<pdfrwt beam="1">  1        2 0.44136479E-02 0.81332557E+02</pdfrwt>
<pdfrwt beam="2">  1       -1 0.88683834E-02 0.81332557E+02</pdfrwt>
<totfact> 0.12731473E+05</totfact>
</mgrwt>
</event>
<event>
 8    1  0.2389776E-020  0.7942521E+02  0.7818608E-02  0.1330691E+00
         -1   -1    0    0    0  501 -0.00000000000E+00  0.00000000000E+00  0.56757372656E+01  0.56757395034E+01  0.50400000000E-02 0.  1.
          2   -1    0    0  501    0  0.00000000000E+00 -0.00000000000E+00 -0.27786531803E+03  0.27786531804E+03  0.25500000000E-02 0. -1.
         24    2    1    2    0    0  0.35527136788E-14  0.00000000000E+00 -0.27218958076E+03  0.28354105754E+03  0.79425206560E+02 0.  0.
         66    2    3    3    0    0 -0.24038058288E+02 -0.31268816265E+02 -0.12040894119E+03  0.12671969156E+03  0.19999982172E+01 0.  0.
        -13    1    3    3    0    0  0.24038058288E+02  0.31268816265E+02 -0.15178063957E+03  0.15682136598E+03  0.10566000000E+00 0.  1.
         13    1    4    4    0    0 -0.61405909926E+01 -0.72514946274E+01 -0.30507249551E+02  0.31953004104E+02  0.10566000000E+00 0. -1.
        -13    1    4    4    0    0 -0.61511350998E+01 -0.74695143318E+01 -0.28340229835E+02  0.29946784443E+02  0.10566000000E+00 0.  1.
        -14    1    4    4    0    0 -0.11746332195E+02 -0.16547807306E+02 -0.61561461809E+02  0.64819903014E+02  0.00000000000E+00 0.  1.
<mgrwt>
<rscale>  0 0.79425207E+02</rscale>
<asrwt>0</asrwt>
<pdfrwt beam="1">  1        2 0.42748500E-01 0.79425207E+02</pdfrwt>
<pdfrwt beam="2">  1       -1 0.87319074E-03 0.79425207E+02</pdfrwt>
<totfact> 0.25269924E+05</totfact>
</mgrwt>
</event>
<event>
 8    1  0.2389776E-020  0.7890380E+02  0.7818608E-02  0.1332191E+00
         -1   -1    0    0    0  501 -0.00000000000E+00  0.00000000000E+00  0.48248401833E+01  0.48248428157E+01  0.50400000000E-02 0.  1.
          2   -1    0    0  501    0  0.00000000000E+00 -0.00000000000E+00 -0.32259140305E+03  0.32259140306E+03  0.25500000000E-02 0. -1.
         24    2    1    2    0    0  0.17763568394E-14  0.00000000000E+00 -0.31776656287E+03  0.32741624588E+03  0.78903799575E+02 0.  0.
         66    2    3    3    0    0 -0.12091136301E+02  0.17522286814E+02 -0.29668687690E+03  0.29745643218E+03  0.20000023231E+01 0.  0.
        -13    1    3    3    0    0  0.12091136301E+02 -0.17522286814E+02 -0.21079685976E+02  0.29959813704E+02  0.10566000000E+00 0.  1.
         13    1    4    4    0    0 -0.46364100319E+01  0.72771795275E+01 -0.11699538617E+03  0.11731319273E+03  0.10566000000E+00 0. -1.
        -13    1    4    4    0    0 -0.59437917939E+01  0.86044195639E+01 -0.14082740675E+03  0.14121520581E+03  0.10566000000E+00 0. -1.
         14    1    4    4    0    0 -0.15109344754E+01  0.16406877230E+01 -0.38864083979E+02  0.38928033635E+02  0.00000000000E+00 0. -1.
<mgrwt>
<rscale>  0 0.78903800E+02</rscale>
<asrwt>0</asrwt>
<pdfrwt beam="1">  1        2 0.49629430E-01 0.78903800E+02</pdfrwt>
<pdfrwt beam="2">  1       -1 0.74228357E-03 0.78903800E+02</pdfrwt>
<totfact> 0.27134695E+05</totfact>
</mgrwt>
</event>
<event>
 8    1  0.2389776E-020  0.8135250E+02  0.7818608E-02  0.1325256E+00
          2   -1    0    0  501    0  0.00000000000E+00  0.00000000000E+00  0.58285208181E+02  0.58285208237E+02  0.25500000000E-02 0. -1.
         -1   -1    0    0    0  501 -0.00000000000E+00 -0.00000000000E+00 -0.28387255389E+02  0.28387255837E+02  0.50400000000E-02 0.  1.
         24    2    1    2    0    0 -0.35527136788E-14 -0.44408920985E-15  0.29897952791E+02  0.86672464073E+02  0.81352495029E+02 0.  0.
         66    2    3    3    0    0 -0.30426791156E+02 -0.32787708104E+01  0.43466230362E+02  0.53196363967E+02  0.19999998190E+01 0.  0.
        -13    1    3    3    0    0  0.30426791156E+02  0.32787708104E+01 -0.13568277571E+02  0.33476100107E+02  0.10566000000E+00 0.  1.
         13    1    4    4    0    0 -0.13342283398E+02 -0.15299124590E+01  0.18357095890E+02  0.22745357591E+02  0.10566000000E+00 0. -1.
        -13    1    4    4    0    0 -0.24987179471E+01 -0.58756539851E+00  0.31719304248E+01  0.40818048865E+01  0.10566000000E+00 0.  1.
        -14    1    4    4    0    0 -0.14585789811E+02 -0.11612929529E+01  0.21937204048E+02  0.26369201489E+02  0.00000000000E+00 0.  1.
<mgrwt>
<rscale>  0 0.81352495E+02</rscale>
<asrwt>0</asrwt>
<pdfrwt beam="1">  1        2 0.89669551E-02 0.81352495E+02</pdfrwt>
<pdfrwt beam="2">  1       -1 0.43672701E-02 0.81352495E+02</pdfrwt>
<totfact> 0.14771811E+05</totfact>
</mgrwt>
</event>
<event>
 8    1  0.2389776E-020  0.8054857E+02  0.7818608E-02  0.1327502E+00
          2   -1    0    0  501    0  0.00000000000E+00  0.00000000000E+00  0.80718683430E+02  0.80718683470E+02  0.25500000000E-02 0. -1.
         -1   -1    0    0    0  501 -0.00000000000E+00 -0.00000000000E+00 -0.20094704755E+02  0.20094705387E+02  0.50400000000E-02 0.  1.
         24    2    1    2    0    0  0.00000000000E+00  0.00000000000E+00  0.60623978675E+02  0.10081338886E+03  0.80548572815E+02 0.  0.
         66    2    3    3    0    0 -0.12848905641E+02  0.16423673563E+02  0.73418278255E+02  0.76348379246E+02  0.20000005306E+01 0.  0.
        -13    1    3    3    0    0  0.12848905641E+02 -0.16423673563E+02 -0.12794299580E+02  0.24465009611E+02  0.10566000000E+00 0.  1.
         13    1    4    4    0    0 -0.36945896396E+01  0.58419713863E+01  0.22789539446E+02  0.23814972066E+02  0.10566000000E+00 0. -1.
        -13    1    4    4    0    0 -0.35217161923E+01  0.42149761792E+01  0.21368451623E+02  0.22063326992E+02  0.10566000000E+00 0.  1.
         14    1    4    4    0    0 -0.56325998091E+01  0.63667259975E+01  0.29260287186E+02  0.30470080189E+02  0.00000000000E+00 0. -1.
<mgrwt>
<rscale>  0 0.80548573E+02</rscale>
<asrwt>0</asrwt>
<pdfrwt beam="1">  1        2 0.12418259E-01 0.80548573E+02</pdfrwt>
<pdfrwt beam="2">  1       -1 0.30914930E-02 0.80548573E+02</pdfrwt>
<totfact> 0.16428598E+05</totfact>
</mgrwt>
</event>
<event>
 8    1  0.2389776E-020  0.8052575E+02  0.7818608E-02  0.1327566E+00
          2   -1    0    0  501    0  0.00000000000E+00  0.00000000000E+00  0.18224961414E+02  0.18224961592E+02  0.25500000000E-02 0. -1.
         -1   -1    0    0    0  501 -0.00000000000E+00 -0.00000000000E+00 -0.88949374524E+02  0.88949374667E+02  0.50400000000E-02 0.  1.
         24    2    1    2    0    0  0.00000000000E+00  0.71054273576E-14 -0.70724413110E+02  0.10717433626E+03  0.80525745838E+02 0.  0.
         66    2    3    3    0    0 -0.23661516563E+02  0.32285699991E+02 -0.29919002766E+02  0.50013803832E+02  0.20000143082E+01 0.  0.
        -13    1    3    3    0    0  0.23661516563E+02 -0.32285699991E+02 -0.40805410344E+02  0.57160532427E+02  0.10566000000E+00 0.  1.
         13    1    4    4    0    0 -0.71352606337E+01  0.10036645755E+02 -0.92892786904E+01  0.15425565304E+02  0.10566000000E+00 0. -1.
        -13    1    4    4    0    0 -0.98973934592E+00  0.19893668883E+01 -0.18682824995E+01  0.29049626715E+01  0.10566000000E+00 0.  1.
         14    1    4    4    0    0 -0.15536516584E+02  0.20259687348E+02 -0.18761441576E+02  0.31683275856E+02  0.00000000000E+00 0. -1.
<mgrwt>
<rscale>  0 0.80525746E+02</rscale>
<asrwt>0</asrwt>
<pdfrwt beam="1">  1        2 0.28038403E-02 0.80525746E+02</pdfrwt>
<pdfrwt beam="2">  1       -1 0.13684519E-01 0.80525746E+02</pdfrwt>
<totfact> 0.11953331E+05</totfact>
</mgrwt>
</event>
<event>
 8    1  0.2389776E-020  0.8084501E+02  0.7818608E-02  0.1326670E+00
          2   -1    0    0  501    0  0.00000000000E+00  0.00000000000E+00  0.92216105186E+02  0.92216105221E+02  0.25500000000E-02 0. -1.
         -1   -1    0    0    0  501 -0.00000000000E+00 -0.00000000000E+00 -0.17719016473E+02  0.17719017190E+02  0.50400000000E-02 0.  1.
         24    2    1    2    0    0  0.00000000000E+00  0.00000000000E+00  0.74497088713E+02  0.10993512241E+03  0.80845005490E+02 0.  0.
         66    2    3    3    0    0  0.27762438205E+02  0.70888945951E+01  0.75995723649E+02  0.81242571594E+02  0.20000061555E+01 0.  0.
        -13    1    3    3    0    0 -0.27762438205E+02 -0.70888945951E+01 -0.14986349362E+01  0.28692550817E+02  0.10566000000E+00 0.  1.
         13    1    4    4    0    0  0.22947071207E+02  0.56973688295E+01  0.62005256813E+02  0.66360312876E+02  0.10566000000E+00 0. -1.
        -13    1    4    4    0    0  0.22225614810E+01  0.51870160222E+00  0.74563384967E+01  0.77985241362E+01  0.10566000000E+00 0.  1.
         14    1    4    4    0    0  0.25928055169E+01  0.87282416338E+00  0.65341283391E+01  0.70837345815E+01  0.00000000000E+00 0. -1.
<mgrwt>
<rscale>  0 0.80845005E+02</rscale>
<asrwt>0</asrwt>
<pdfrwt beam="1">  1        2 0.14187093E-01 0.80845005E+02</pdfrwt>
<pdfrwt beam="2">  1       -1 0.27260027E-02 0.80845005E+02</pdfrwt>
<totfact> 0.16851841E+05</totfact>
</mgrwt>
</event>
<event>
 8    1  0.2389776E-020  0.8111935E+02  0.7818608E-02  0.1325905E+00
         -1   -1    0    0    0  501 -0.00000000000E+00  0.00000000000E+00  0.33783915620E+01  0.33783953214E+01  0.50400000000E-02 0.  1.
          2   -1    0    0  501    0  0.00000000000E+00 -0.00000000000E+00 -0.48694370551E+03  0.48694370552E+03  0.25500000000E-02 0. -1.
         24    2    1    2    0    0  0.00000000000E+00  0.00000000000E+00 -0.48356531395E+03  0.49032210084E+03  0.81119354760E+02 0.  0.
         66    2    3    3    0    0  0.11944464166E+02  0.35662429064E+02 -0.33331914151E+03  0.33544020207E+03  0.19999985166E+01 0.  0.
        -13    1    3    3    0    0 -0.11944464166E+02 -0.35662429064E+02 -0.15024617244E+03  0.15488189877E+03  0.10566000000E+00 0.  1.
         13    1    4    4    0    0  0.11363833210E+01  0.36113038848E+01 -0.31991929323E+02  0.32215331577E+02  0.10566000000E+00 0. -1.
        -13    1    4    4    0    0  0.64368057672E+00  0.24586398395E+01 -0.26720561393E+02  0.26841363597E+02  0.10566000000E+00 0.  1.
         14    1    4    4    0    0  0.10164400269E+02  0.29592485340E+02 -0.27460665080E+03  0.27638350689E+03  0.00000000000E+00 0. -1.
<mgrwt>
<rscale>  0 0.81119355E+02</rscale>
<asrwt>0</asrwt>
<pdfrwt beam="1">  1        2 0.74914361E-01 0.81119355E+02</pdfrwt>
<pdfrwt beam="2">  1       -1 0.51975323E-03 0.81119355E+02</pdfrwt>
<totfact> 0.29118941E+05</totfact>
</mgrwt>
</event>
<event>
 8    1  0.2389776E-020  0.7289795E+02  0.7818608E-02  0.1350507E+00
         -1   -1    0    0    0  501 -0.00000000000E+00  0.00000000000E+00  0.36280574555E+03  0.36280574559E+03  0.50400000000E-02 0.  1.
          2   -1    0    0  501    0  0.00000000000E+00 -0.00000000000E+00 -0.36618155055E+01  0.36618163934E+01  0.25500000000E-02 0. -1.
         24    2    1    2    0    0 -0.71054273576E-14 -0.17763568394E-14  0.35914393004E+03  0.36646756198E+03  0.72897952609E+02 0.  0.
         66    2    3    3    0    0 -0.33121823815E+02 -0.13879776040E+02  0.21021097897E+03  0.21326593511E+03  0.20000005888E+01 0.  0.
        -13    1    3    3    0    0  0.33121823815E+02  0.13879776040E+02  0.14893295107E+03  0.15320162687E+03  0.10566000000E+00 0.  1.
         13    1    4    4    0    0 -0.10255242455E+01 -0.28789750320E+00  0.56849178300E+01  0.57848111222E+01  0.10566000000E+00 0. -1.
        -13    1    4    4    0    0 -0.55444538122E+01 -0.25698719510E+01  0.32592682152E+02  0.33160809758E+02  0.10566000000E+00 0.  1.
         14    1    4    4    0    0 -0.26551845758E+02 -0.11022006586E+02  0.17193337899E+03  0.17432031423E+03  0.00000000000E+00 0. -1.
<mgrwt>
<rscale>  0 0.72897953E+02</rscale>
<asrwt>0</asrwt>
<pdfrwt beam="1">  1        2 0.56335629E-03 0.72897953E+02</pdfrwt>
<pdfrwt beam="2">  1       -1 0.55816269E-01 0.72897953E+02</pdfrwt>
<totfact> 0.10092309E+05</totfact>
</mgrwt>
</event>
<event>
 8    1  0.2389776E-020  0.8078418E+02  0.7818608E-02  0.1326841E+00
         -1   -1    0    0    0  501 -0.00000000000E+00  0.00000000000E+00  0.20038065417E+01  0.20038128801E+01  0.50400000000E-02 0.  1.
          2   -1    0    0  501    0  0.00000000000E+00 -0.00000000000E+00 -0.81420950622E+03  0.81420950622E+03  0.25500000000E-02 0. -1.
         24    2    1    2    0    0  0.17763568394E-14  0.71054273576E-14 -0.81220569967E+03  0.81621331910E+03  0.80784179720E+02 0.  0.
         66    2    3    3    0    0  0.93706449550E+01  0.33389951296E+02 -0.61508774972E+03  0.61606788400E+03  0.20000005675E+01 0.  0.
        -13    1    3    3    0    0 -0.93706449550E+01 -0.33389951296E+02 -0.19711794995E+03  0.20014543510E+03  0.10566000000E+00 0.  1.
         13    1    4    4    0    0  0.44746743226E+01  0.12918704680E+02 -0.24819233162E+03  0.24856862288E+03  0.10566000000E+00 0. -1.
        -13    1    4    4    0    0  0.22415150097E+00  0.13547339684E+01 -0.25330913401E+02  0.25368324458E+02  0.10566000000E+00 0.  1.
        -14    1    4    4    0    0  0.46718191314E+01  0.19116512648E+02 -0.34156450470E+03  0.34213093666E+03  0.00000000000E+00 0.  1.
<mgrwt>
<rscale>  0 0.80784180E+02</rscale>
<asrwt>0</asrwt>
<pdfrwt beam="1">  1        2 0.12526274E+00 0.80784180E+02</pdfrwt>
<pdfrwt beam="2">  1       -1 0.30827907E-03 0.80784180E+02</pdfrwt>
<totfact> 0.33604806E+05</totfact>
</mgrwt>
</event>
<event>
 8    1  0.2389776E-020  0.8142434E+02  0.7818608E-02  0.1325057E+00
         -1   -1    0    0    0  501 -0.00000000000E+00  0.00000000000E+00  0.59919098082E+01  0.59919119279E+01  0.50400000000E-02 0.  1.
          2   -1    0    0  501    0  0.00000000000E+00 -0.00000000000E+00 -0.27661970562E+03  0.27661970563E+03  0.25500000000E-02 0. -1.
         24    2    1    2    0    0  0.00000000000E+00  0.17763568394E-14 -0.27062779581E+03  0.28261161756E+03  0.81424336127E+02 0.  0.
         66    2    3    3    0    0 -0.11253505021E+02 -0.13852205217E+02 -0.26230461696E+03  0.26291868901E+03  0.19999968660E+01 0.  0.
        -13    1    3    3    0    0  0.11253505021E+02  0.13852205217E+02 -0.83231788517E+01  0.19692928550E+02  0.10566000000E+00 0.  1.
         13    1    4    4    0    0 -0.10771452289E+01 -0.18550916518E+01 -0.24634952308E+02  0.24728397565E+02  0.10566000000E+00 0.  1.
        -13    1    4    4    0    0 -0.17325202399E+01 -0.19479806292E+01 -0.37195739612E+02  0.37287135371E+02  0.10566000000E+00 0.  1.
         14    1    4    4    0    0 -0.84438395520E+01 -0.10049132936E+02 -0.20047392504E+03  0.20090315608E+03  0.00000000000E+00 0. -1.
<mgrwt>
<rscale>  0 0.81424336E+02</rscale>
<asrwt>0</asrwt>
<pdfrwt beam="1">  1        2 0.42556868E-01 0.81424336E+02</pdfrwt>
<pdfrwt beam="2">  1       -1 0.92183266E-03 0.81424336E+02</pdfrwt>
<totfact> 0.23634476E+05</totfact>
</mgrwt>
</event>
<event>
 8    1  0.2389776E-020  0.7954276E+02  0.7818608E-02  0.1330354E+00
          2   -1    0    0  501    0  0.00000000000E+00  0.00000000000E+00  0.84286806474E+02  0.84286806512E+02  0.25500000000E-02 0. -1.
         -1   -1    0    0    0  501 -0.00000000000E+00 -0.00000000000E+00 -0.18766433461E+02  0.18766434138E+02  0.50400000000E-02 0.  1.
         24    2    1    2    0    0 -0.35527136788E-14  0.00000000000E+00  0.65520373013E+02  0.10305324065E+03  0.79542762894E+02 0.  0.
         66    2    3    3    0    0 -0.31362901459E+02 -0.26459296479E+00  0.64411233624E+02  0.71669439868E+02  0.19999991575E+01 0.  0.
        -13    1    3    3    0    0  0.31362901459E+02  0.26459296479E+00  0.11091393889E+01  0.31383800783E+02  0.10566000000E+00 0.  1.
         13    1    4    4    0    0 -0.45687528296E+01  0.51976955558E+00  0.10178800581E+02  0.11169727307E+02  0.10566000000E+00 0. -1.
        -13    1    4    4    0    0 -0.19245654629E+02 -0.76669739134E+00  0.38404802843E+02  0.42964207108E+02  0.10566000000E+00 0.  1.
        -14    1    4    4    0    0 -0.75484940002E+01 -0.17665129027E-01  0.15827630201E+02  0.17535505453E+02  0.00000000000E+00 0.  1.
<mgrwt>
<rscale>  0 0.79542763E+02</rscale>
<asrwt>0</asrwt>
<pdfrwt beam="1">  1        2 0.12967201E-01 0.79542763E+02</pdfrwt>
<pdfrwt beam="2">  1       -1 0.28871437E-02 0.79542763E+02</pdfrwt>
<totfact> 0.17186340E+05</totfact>
</mgrwt>
</event>
<event>
 8    1  0.2389776E-020  0.7956568E+02  0.7818608E-02  0.1330289E+00
         -1   -1    0    0    0  501 -0.00000000000E+00  0.00000000000E+00  0.19491068271E+01  0.19491133433E+01  0.50400000000E-02 0.  1.
          2   -1    0    0  501    0  0.00000000000E+00 -0.00000000000E+00 -0.81199843919E+03  0.81199843920E+03  0.25500000000E-02 0. -1.
         24    2    1    2    0    0  0.00000000000E+00 -0.88817841970E-15 -0.81004933236E+03  0.81394755254E+03  0.79565679912E+02 0.  0.
         66    2    3    3    0    0 -0.32443947840E+02  0.56502464428E+01 -0.63314102042E+03  0.63400006844E+03  0.20000001306E+01 0.  0.
        -13    1    3    3    0    0  0.32443947840E+02 -0.56502464428E+01 -0.17690831194E+03  0.17994748410E+03  0.10566000000E+00 0.  1.
         13    1    4    4    0    0 -0.14847310232E+02  0.31479641614E+01 -0.29589812169E+03  0.29628712744E+03  0.10566000000E+00 0. -1.
        -13    1    4    4    0    0 -0.97763008713E+01  0.16267975978E+01 -0.19785209556E+03  0.19810019034E+03  0.10566000000E+00 0.  1.
        -14    1    4    4    0    0 -0.78203367367E+01  0.87548468350E+00 -0.13939080317E+03  0.13961275066E+03  0.00000000000E+00 0.  1.
<mgrwt>
<rscale>  0 0.79565680E+02</rscale>
<asrwt>0</asrwt>
<pdfrwt beam="1">  1        2 0.12492257E+00 0.79565680E+02</pdfrwt>
<pdfrwt beam="2">  1       -1 0.29986374E-03 0.79565680E+02</pdfrwt>
<totfact> 0.34942619E+05</totfact>
</mgrwt>
</event>
<event>
 8    1  0.2389776E-020  0.7959822E+02  0.7818608E-02  0.1330196E+00
         -1   -1    0    0    0  501 -0.00000000000E+00  0.00000000000E+00  0.62648710408E+02  0.62648710610E+02  0.50400000000E-02 0.  1.
          2   -1    0    0  501    0  0.00000000000E+00 -0.00000000000E+00 -0.25283348408E+02  0.25283348537E+02  0.25500000000E-02 0. -1.
         24    2    1    2    0    0 -0.88817841970E-15  0.35527136788E-14  0.37365362000E+02  0.87932059147E+02  0.79598220762E+02 0.  0.
         66    2    3    3    0    0  0.52119888127E+01 -0.19184934250E+02 -0.19361391902E+02  0.27822473373E+02  0.19999996598E+01 0.  0.
        -13    1    3    3    0    0 -0.52119888127E+01  0.19184934250E+02  0.56726753902E+02  0.60109585774E+02  0.10566000000E+00 0.  1.
         13    1    4    4    0    0  0.21888408489E+01 -0.67260364395E+01 -0.75510451205E+01  0.10346982019E+02  0.10566000000E+00 0. -1.
        -13    1    4    4    0    0  0.31325575453E+01 -0.11787155751E+02 -0.11096475285E+02  0.16489174791E+02  0.10566000000E+00 0.  1.
        -14    1    4    4    0    0 -0.10940958149E+00 -0.67174205948E+00 -0.71387149652E+00  0.98631656406E+00  0.00000000000E+00 0.  1.
<mgrwt>
<rscale>  0 0.79598221E+02</rscale>
<asrwt>0</asrwt>
<pdfrwt beam="1">  1        2 0.38897460E-02 0.79598221E+02</pdfrwt>
<pdfrwt beam="2">  1       -1 0.96382630E-02 0.79598221E+02</pdfrwt>
<totfact> 0.13195871E+05</totfact>
</mgrwt>
</event>
<event>
 8    1  0.2389776E-020  0.8269776E+02  0.7818608E-02  0.1321565E+00
          2   -1    0    0  501    0  0.00000000000E+00  0.00000000000E+00  0.51847904925E+03  0.51847904926E+03  0.25500000000E-02 0. -1.
         -1   -1    0    0    0  501 -0.00000000000E+00 -0.00000000000E+00 -0.32975854852E+01  0.32975893367E+01  0.50400000000E-02 0.  1.
         24    2    1    2    0    0  0.00000000000E+00  0.35527136788E-14  0.51518146377E+03  0.52177663860E+03  0.82697762815E+02 0.  0.
         66    2    3    3    0    0 -0.13400908949E+02  0.20432536071E+02  0.46801222049E+03  0.46865393567E+03  0.19999994539E+01 0.  0.
        -13    1    3    3    0    0  0.13400908949E+02 -0.20432536071E+02  0.47169243277E+02  0.53122702928E+02  0.10566000000E+00 0.  1.
         13    1    4    4    0    0 -0.20291746671E+01  0.22191084051E+01  0.57821655179E+02  0.57899887423E+02  0.10566000000E+00 0. -1.
        -13    1    4    4    0    0 -0.10155251686E+02  0.16622323300E+02  0.37740251782E+03  0.37790488537E+03  0.10566000000E+00 0.  1.
        -14    1    4    4    0    0 -0.12164825965E+01  0.15911043664E+01  0.32788047494E+02  0.32849162873E+02  0.00000000000E+00 0.  1.
<mgrwt>
<rscale>  0 0.82697763E+02</rscale>
<asrwt>0</asrwt>
<pdfrwt beam="1">  1        2 0.79765916E-01 0.82697763E+02</pdfrwt>
<pdfrwt beam="2">  1       -1 0.50732173E-03 0.82697763E+02</pdfrwt>
<totfact> 0.28247943E+05</totfact>
</mgrwt>
</event>
<event>
 8    1  0.2389776E-020  0.7936430E+02  0.7818608E-02  0.1330865E+00
          2   -1    0    0  501    0  0.00000000000E+00  0.00000000000E+00  0.39958518057E+02  0.39958518138E+02  0.25500000000E-02 0. -1.
         -1   -1    0    0    0  501 -0.00000000000E+00 -0.00000000000E+00 -0.39407694993E+02  0.39407695315E+02  0.50400000000E-02 0.  1.
         24    2    1    2    0    0  0.00000000000E+00  0.00000000000E+00  0.55082306398E+00  0.79366213453E+02  0.79364301999E+02 0.  0.
         66    2    3    3    0    0 -0.31594931430E+02 -0.44586723425E+01  0.23825010979E+02  0.39871676638E+02  0.19999996673E+01 0.  0.
        -13    1    3    3    0    0  0.31594931430E+02  0.44586723425E+01 -0.23274187915E+02  0.39494536815E+02  0.10566000000E+00 0.  1.
         13    1    4    4    0    0 -0.16787856335E+02 -0.20390781884E+01  0.13091860232E+02  0.21386863458E+02  0.10566000000E+00 0. -1.
        -13    1    4    4    0    0 -0.25307572130E+01 -0.79231998152E-01  0.14802254303E+01  0.29348323872E+01  0.10566000000E+00 0.  1.
         14    1    4    4    0    0 -0.12276317882E+02 -0.23403621559E+01  0.92529253159E+01  0.15549980793E+02  0.00000000000E+00 0. -1.
<mgrwt>
<rscale>  0 0.79364302E+02</rscale>
<asrwt>0</asrwt>
<pdfrwt beam="1">  1        2 0.61474643E-02 0.79364302E+02</pdfrwt>
<pdfrwt beam="2">  1       -1 0.60627224E-02 0.79364302E+02</pdfrwt>
<totfact> 0.14569843E+05</totfact>
</mgrwt>
</event>
<event>
 8    1  0.2389776E-020  0.8141529E+02  0.7818608E-02  0.1325082E+00
         -1   -1    0    0    0  501 -0.00000000000E+00  0.00000000000E+00  0.52762958329E+03  0.52762958332E+03  0.50400000000E-02 0.  1.
          2   -1    0    0  501    0  0.00000000000E+00 -0.00000000000E+00 -0.31406730289E+01  0.31406740641E+01  0.25500000000E-02 0. -1.
         24    2    1    2    0    0  0.00000000000E+00 -0.35527136788E-14  0.52448891026E+03  0.53077025738E+03  0.81415288063E+02 0.  0.
         66    2    3    3    0    0 -0.31198927518E+02  0.19006805771E+02  0.37910958130E+03  0.38087098388E+03  0.19999949479E+01 0.  0.
        -13    1    3    3    0    0  0.31198927518E+02 -0.19006805771E+02  0.14537932896E+03  0.14989927350E+03  0.10566000000E+00 0.  1.
         13    1    4    4    0    0 -0.77675812704E+00  0.50714491010E+00  0.10301834371E+02  0.10344056486E+02  0.10566000000E+00 0.  1.
        -13    1    4    4    0    0 -0.35637943009E+01  0.26973299578E+01  0.50407271394E+02  0.50605141953E+02  0.10566000000E+00 0.  1.
         14    1    4    4    0    0 -0.26858375090E+02  0.15802330903E+02  0.31840047554E+03  0.31992178544E+03  0.00000000000E+00 0. -1.
<mgrwt>
<rscale>  0 0.81415288E+02</rscale>
<asrwt>0</asrwt>
<pdfrwt beam="1">  1        2 0.48318115E-03 0.81415288E+02</pdfrwt>
<pdfrwt beam="2">  1       -1 0.81173681E-01 0.81415288E+02</pdfrwt>
<totfact> 0.61676130E+04</totfact>
</mgrwt>
</event>
<event>
 8    1  0.2389776E-020  0.8016204E+02  0.7818608E-02  0.1328592E+00
          2   -1    0    0  501    0  0.00000000000E+00  0.00000000000E+00  0.37916073318E+03  0.37916073319E+03  0.25500000000E-02 0. -1.
         -1   -1    0    0    0  501 -0.00000000000E+00 -0.00000000000E+00 -0.42369566538E+01  0.42369596514E+01  0.50400000000E-02 0.  1.
         24    2    1    2    0    0 -0.71054273576E-14  0.17763568394E-14  0.37492377653E+03  0.38339769284E+03  0.80162040084E+02 0.  0.
         66    2    3    3    0    0 -0.36814929038E+02  0.90257816145E+01  0.24951104823E+03  0.25238178801E+03  0.20000000533E+01 0.  0.
        -13    1    3    3    0    0  0.36814929038E+02 -0.90257816145E+01  0.12541272830E+03  0.13101590483E+03  0.10566000000E+00 0.  1.
         13    1    4    4    0    0 -0.20310115546E+02  0.44711635536E+01  0.13367820968E+03  0.13528624100E+03  0.10566000000E+00 0. -1.
        -13    1    4    4    0    0 -0.13695224014E+02  0.34236572683E+01  0.96341744912E+02  0.97370547737E+02  0.10566000000E+00 0.  1.
        -14    1    4    4    0    0 -0.28095894783E+01  0.11309607927E+01  0.19491093639E+02  0.19724999280E+02  0.00000000000E+00 0.  1.
<mgrwt>
<rscale>  0 0.80162040E+02</rscale>
<asrwt>0</asrwt>
<pdfrwt beam="1">  1        2 0.58332416E-01 0.80162040E+02</pdfrwt>
<pdfrwt beam="2">  1       -1 0.65183977E-03 0.80162040E+02</pdfrwt>
<totfact> 0.27580330E+05</totfact>
</mgrwt>
</event>
<event>
 8    1  0.2389776E-020  0.7506620E+02  0.7818608E-02  0.1343666E+00
          2   -1    0    0  501    0  0.00000000000E+00  0.00000000000E+00  0.83986756342E+01  0.83986760214E+01  0.25500000000E-02 0. -1.
         -1   -1    0    0    0  501 -0.00000000000E+00 -0.00000000000E+00 -0.16773280713E+03  0.16773280720E+03  0.50400000000E-02 0.  1.
         24    2    1    2    0    0 -0.35527136788E-14 -0.35527136788E-14 -0.15933413149E+03  0.17613148322E+03  0.75066196947E+02 0.  0.
         66    2    3    3    0    0 -0.19683056629E+02 -0.24814642897E+02 -0.32589325471E+02  0.45489046636E+02  0.20000021943E+01 0.  0.
        -13    1    3    3    0    0  0.19683056629E+02  0.24814642897E+02 -0.12674480602E+03  0.13064243659E+03  0.10566000000E+00 0.  1.
         13    1    4    4    0    0 -0.15863897208E+01 -0.23403950400E+01 -0.35357894738E+01  0.45284713235E+01  0.10566000000E+00 0. -1.
        -13    1    4    4    0    0 -0.59841700470E+01 -0.72348770078E+01 -0.88031003871E+01  0.12870877085E+02  0.10566000000E+00 0.  1.
         14    1    4    4    0    0 -0.12112496861E+02 -0.15239370849E+02 -0.20250435611E+02  0.28089698227E+02  0.00000000000E+00 0. -1.
<mgrwt>
<rscale>  0 0.75066197E+02</rscale>
<asrwt>0</asrwt>
<pdfrwt beam="1">  1        2 0.12921041E-02 0.75066197E+02</pdfrwt>
<pdfrwt beam="2">  1       -1 0.25805045E-01 0.75066197E+02</pdfrwt>
<totfact> 0.12307246E+05</totfact>
</mgrwt>
</event>
<event>
 8    1  0.2389776E-020  0.7887553E+02  0.7818608E-02  0.1332273E+00
          2   -1    0    0  501    0  0.00000000000E+00  0.00000000000E+00  0.76839787079E+03  0.76839787080E+03  0.25500000000E-02 0. -1.
         -1   -1    0    0    0  501 -0.00000000000E+00 -0.00000000000E+00 -0.20241268205E+01  0.20241330952E+01  0.50400000000E-02 0.  1.
         24    2    1    2    0    0  0.00000000000E+00  0.00000000000E+00  0.76637374397E+03  0.77042200389E+03  0.78875526187E+02 0.  0.
         66    2    3    3    0    0  0.29158604886E+01 -0.32748339603E+02  0.59572298776E+03  0.59663291404E+03  0.19999975634E+01 0.  0.
        -13    1    3    3    0    0 -0.29158604886E+01  0.32748339603E+02  0.17065075622E+03  0.17378908985E+03  0.10566000000E+00 0.  1.
         13    1    4    4    0    0  0.11536366926E+01 -0.89056596108E+01  0.15252426238E+03  0.15278842701E+03  0.10566000000E+00 0. -1.
        -13    1    4    4    0    0  0.90765602135E+00 -0.85473092000E+01  0.15105085967E+03  0.15129525341E+03  0.10566000000E+00 0.  1.
        -14    1    4    4    0    0  0.85456777471E+00 -0.15295370792E+02  0.29214786571E+03  0.29254923362E+03  0.00000000000E+00 0.  1.
<mgrwt>
<rscale>  0 0.78875526E+02</rscale>
<asrwt>0</asrwt>
<pdfrwt beam="1">  1        2 0.11821498E+00 0.78875526E+02</pdfrwt>
<pdfrwt beam="2">  1       -1 0.31140480E-03 0.78875526E+02</pdfrwt>
<totfact> 0.35391873E+05</totfact>
</mgrwt>
</event>
<event>
 8    1  0.2389776E-020  0.7866667E+02  0.7818608E-02  0.1332878E+00
         -1   -1    0    0    0  501 -0.00000000000E+00  0.00000000000E+00  0.22570674697E+01  0.22570730968E+01  0.50400000000E-02 0.  1.
          2   -1    0    0  501    0  0.00000000000E+00 -0.00000000000E+00 -0.68545113750E+03  0.68545113750E+03  0.25500000000E-02 0. -1.
         24    2    1    2    0    0 -0.17763568394E-14  0.00000000000E+00 -0.68319407003E+03  0.68770821060E+03  0.78666674038E+02 0.  0.
         66    2    3    3    0    0 -0.14099140672E+02  0.28647265654E+02 -0.54224769442E+03  0.54319058690E+03  0.20000003894E+01 0.  0.
        -13    1    3    3    0    0  0.14099140672E+02 -0.28647265654E+02 -0.14094637561E+03  0.14451762370E+03  0.10566000000E+00 0.  1.
         13    1    4    4    0    0 -0.18764807194E+01  0.35278011704E+01 -0.64856779954E+02  0.64979840189E+02  0.10566000000E+00 0. -1.
        -13    1    4    4    0    0 -0.58001597696E+01  0.99908035144E+01 -0.19461239159E+03  0.19495500027E+03  0.10566000000E+00 0.  1.
        -14    1    4    4    0    0 -0.64225001829E+01  0.15128660969E+02 -0.28277852287E+03  0.28325574644E+03  0.00000000000E+00 0.  1.
<mgrwt>
<rscale>  0 0.78666674E+02</rscale>
<asrwt>0</asrwt>
<pdfrwt beam="1">  1        2 0.10545386E+00 0.78666674E+02</pdfrwt>
<pdfrwt beam="2">  1       -1 0.34724213E-03 0.78666674E+02</pdfrwt>
<totfact> 0.34774156E+05</totfact>
</mgrwt>
</event>
<event>
 8    1  0.2389776E-020  0.7975716E+02  0.7818608E-02  0.1329742E+00
          2   -1    0    0  501    0  0.00000000000E+00  0.00000000000E+00  0.69675771340E+01  0.69675776006E+01  0.25500000000E-02 0. -1.
         -1   -1    0    0    0  501 -0.00000000000E+00 -0.00000000000E+00 -0.22824307807E+03  0.22824307813E+03  0.50400000000E-02 0.  1.
         24    2    1    2    0    0  0.00000000000E+00  0.71054273576E-14 -0.22127550094E+03  0.23521065573E+03  0.79757164273E+02 0.  0.
         66    2    3    3    0    0 -0.49416828136E+01  0.36947401813E+02 -0.15228458435E+03  0.15679325673E+03  0.19999990069E+01 0.  0.
        -13    1    3    3    0    0  0.49416828136E+01 -0.36947401813E+02 -0.68990916589E+02  0.78417398998E+02  0.10566000000E+00 0.  1.
         13    1    4    4    0    0 -0.18595390484E+01  0.21127917448E+02 -0.86144963906E+02  0.88717601137E+02  0.10566000000E+00 0. -1.
        -13    1    4    4    0    0 -0.19973090971E+01  0.10905513977E+02 -0.45440229240E+02  0.46773337236E+02  0.10566000000E+00 0.  1.
         14    1    4    4    0    0 -0.10848346681E+01  0.49139703885E+01 -0.20699391204E+02  0.21302318358E+02  0.00000000000E+00 0. -1.
<mgrwt>
<rscale>  0 0.79757164E+02</rscale>
<asrwt>0</asrwt>
<pdfrwt beam="1">  1        2 0.10719352E-02 0.79757164E+02</pdfrwt>
<pdfrwt beam="2">  1       -1 0.35114314E-01 0.79757164E+02</pdfrwt>
<totfact> 0.96273972E+04</totfact>
</mgrwt>
</event>
<event>
 8    1  0.2389776E-020  0.8069312E+02  0.7818608E-02  0.1327096E+00
         -1   -1    0    0    0  501 -0.00000000000E+00  0.00000000000E+00  0.34844580911E+01  0.34844617361E+01  0.50400000000E-02 0.  1.
          2   -1    0    0  501    0  0.00000000000E+00 -0.00000000000E+00 -0.46717278183E+03  0.46717278184E+03  0.25500000000E-02 0. -1.
         24    2    1    2    0    0  0.00000000000E+00  0.00000000000E+00 -0.46368832374E+03  0.47065724357E+03  0.80693118393E+02 0.  0.
         66    2    3    3    0    0  0.30786406367E+02  0.50477544970E+01 -0.38098319720E+03  0.38226362523E+03  0.19999973809E+01 0.  0.
        -13    1    3    3    0    0 -0.30786406367E+02 -0.50477544970E+01 -0.82705126544E+02  0.88393618340E+02  0.10566000000E+00 0.  1.
         13    1    4    4    0    0  0.15300715013E+02  0.16779463735E+01 -0.18917171084E+03  0.18979693024E+03  0.10566000000E+00 0. -1.
        -13    1    4    4    0    0  0.68099468176E+01  0.18662761133E+01 -0.86301331588E+02  0.86589776303E+02  0.10566000000E+00 0.  1.
         14    1    4    4    0    0  0.86757445364E+01  0.15035320102E+01 -0.10551015477E+03  0.10587691869E+03  0.00000000000E+00 0. -1.
<mgrwt>
<rscale>  0 0.80693118E+02</rscale>
<asrwt>0</asrwt>
<pdfrwt beam="1">  1        2 0.71872686E-01 0.80693118E+02</pdfrwt>
<pdfrwt beam="2">  1       -1 0.53607113E-03 0.80693118E+02</pdfrwt>
<totfact> 0.29124634E+05</totfact>
</mgrwt>
</event>
<event>
 8    1  0.2389776E-020  0.8002592E+02  0.7818608E-02  0.1328978E+00
         -1   -1    0    0    0  501 -0.00000000000E+00  0.00000000000E+00  0.57246051531E+01  0.57246073718E+01  0.50400000000E-02 0.  1.
          2   -1    0    0  501    0  0.00000000000E+00 -0.00000000000E+00 -0.27967637910E+03  0.27967637911E+03  0.25500000000E-02 0. -1.
         24    2    1    2    0    0 -0.76327832943E-16  0.17763568394E-14 -0.27395177395E+03  0.28540098649E+03  0.80025924782E+02 0.  0.
         66    2    3    3    0    0  0.60956531775E-01 -0.14626106771E+02 -0.26979031582E+03  0.27019389561E+03  0.20000008136E+01 0.  0.
        -13    1    3    3    0    0 -0.60956531775E-01  0.14626106771E+02 -0.41614581328E+01  0.15207090873E+02  0.10566000000E+00 0.  1.
         13    1    4    4    0    0  0.69419848750E+00 -0.80297369104E+01 -0.13623876449E+03  0.13647699696E+03  0.10566000000E+00 0. -1.
        -13    1    4    4    0    0 -0.39656985491E+00 -0.18477130050E+01 -0.37351147741E+02  0.37399073687E+02  0.10566000000E+00 0. -1.
        -14    1    4    4    0    0 -0.23667210082E+00 -0.47486568559E+01 -0.96200403590E+02  0.96317824968E+02  0.00000000000E+00 0.  1.
<mgrwt>
<rscale>  0 0.80025925E+02</rscale>
<asrwt>0</asrwt>
<pdfrwt beam="1">  1        2 0.43027125E-01 0.80025925E+02</pdfrwt>
<pdfrwt beam="2">  1       -1 0.88070887E-03 0.80025925E+02</pdfrwt>
<totfact> 0.24833638E+05</totfact>
</mgrwt>
</event>
<event>
 8    1  0.2389776E-020  0.8241189E+02  0.7818608E-02  0.1322343E+00
         -1   -1    0    0    0  501 -0.00000000000E+00  0.00000000000E+00  0.22080423673E+02  0.22080424249E+02  0.50400000000E-02 0.  1.
          2   -1    0    0  501    0  0.00000000000E+00 -0.00000000000E+00 -0.76897517241E+02  0.76897517283E+02  0.25500000000E-02 0. -1.
         24    2    1    2    0    0  0.00000000000E+00  0.00000000000E+00 -0.54817093567E+02  0.98977941531E+02  0.82411887265E+02 0.  0.
         66    2    3    3    0    0  0.31340905237E+02 -0.13404452824E+02 -0.55178055880E+02  0.64888747431E+02  0.19999989601E+01 0.  0.
        -13    1    3    3    0    0 -0.31340905237E+02  0.13404452824E+02  0.36096231305E+00  0.34089194101E+02  0.10566000000E+00 0.  1.
         13    1    4    4    0    0  0.47951915748E+01 -0.21687150108E+01 -0.88930640303E+01  0.10334163678E+02  0.10566000000E+00 0. -1.
        -13    1    4    4    0    0  0.53762476851E+01 -0.24843514774E+01 -0.10810176224E+02  0.12326683069E+02  0.10566000000E+00 0.  1.
        -14    1    4    4    0    0  0.21169465977E+02 -0.87513863353E+01 -0.35474815626E+02  0.42227900685E+02  0.00000000000E+00 0.  1.
<mgrwt>
<rscale>  0 0.82411887E+02</rscale>
<asrwt>0</asrwt>
<pdfrwt beam="1">  1        2 0.11830387E-01 0.82411887E+02</pdfrwt>
<pdfrwt beam="2">  1       -1 0.33969884E-02 0.82411887E+02</pdfrwt>
<totfact> 0.15252493E+05</totfact>
</mgrwt>
</event>
<event>
 8    1  0.2389776E-020  0.7978928E+02  0.7818608E-02  0.1329650E+00
          2   -1    0    0  501    0  0.00000000000E+00  0.00000000000E+00  0.43670430970E+03  0.43670430970E+03  0.25500000000E-02 0. -1.
         -1   -1    0    0    0  501 -0.00000000000E+00 -0.00000000000E+00 -0.36445289753E+01  0.36445324602E+01  0.50400000000E-02 0.  1.
         24    2    1    2    0    0  0.00000000000E+00  0.00000000000E+00  0.43305978072E+03  0.44034884216E+03  0.79789279462E+02 0.  0.
         66    2    3    3    0    0  0.36504257823E+02 -0.63156133278E+01  0.29798824879E+03  0.30028893458E+03  0.20000004208E+01 0.  0.
        -13    1    3    3    0    0 -0.36504257823E+02  0.63156133278E+01  0.13507153193E+03  0.14005990758E+03  0.10566000000E+00 0.  1.
         13    1    4    4    0    0  0.10047539185E+02 -0.13615491069E+01  0.87440701881E+02  0.88026668511E+02  0.10566000000E+00 0. -1.
        -13    1    4    4    0    0  0.11734662703E+02 -0.20651115900E+01  0.90712235677E+02  0.91491463319E+02  0.10566000000E+00 0.  1.
         14    1    4    4    0    0  0.14722055935E+02 -0.28889526308E+01  0.11983531124E+03  0.12077080275E+03  0.00000000000E+00 0. -1.
<mgrwt>
<rscale>  0 0.79789279E+02</rscale>
<asrwt>0</asrwt>
<pdfrwt beam="1">  1        2 0.67185315E-01 0.79789279E+02</pdfrwt>
<pdfrwt beam="2">  1       -1 0.56069673E-03 0.79789279E+02</pdfrwt>
<totfact> 0.29323184E+05</totfact>
</mgrwt>
</event>
<event>
 8    1  0.2389776E-020  0.7932365E+02  0.7818608E-02  0.1330982E+00
         -1   -1    0    0    0  501 -0.00000000000E+00  0.00000000000E+00  0.89035711480E+01  0.89035725745E+01  0.50400000000E-02 0.  1.
          2   -1    0    0  501    0  0.00000000000E+00 -0.00000000000E+00 -0.17667742691E+03  0.17667742693E+03  0.25500000000E-02 0. -1.
         24    2    1    2    0    0  0.35527136788E-14  0.44408920985E-15 -0.16777385576E+03  0.18558099950E+03  0.79323645272E+02 0.  0.
         66    2    3    3    0    0  0.27652824190E+02  0.31974778278E+01 -0.14995303856E+03  0.15252808375E+03  0.20000020628E+01 0.  0.
        -13    1    3    3    0    0 -0.27652824190E+02 -0.31974778278E+01 -0.17820817202E+02  0.33052915755E+02  0.10566000000E+00 0.  1.
         13    1    4    4    0    0  0.11115074228E+02  0.95345989076E+00 -0.58353858131E+02  0.59410755623E+02  0.10566000000E+00 0. -1.
        -13    1    4    4    0    0  0.20310379777E+01 -0.15122348197E+00 -0.10555336557E+02  0.10750547785E+02  0.10566000000E+00 0.  1.
        -14    1    4    4    0    0  0.14506711984E+02  0.23952414190E+01 -0.81043843872E+02  0.82366780341E+02  0.00000000000E+00 0.  1.
<mgrwt>
<rscale>  0 0.79323645E+02</rscale>
<asrwt>0</asrwt>
<pdfrwt beam="1">  1        2 0.27181140E-01 0.79323645E+02</pdfrwt>
<pdfrwt beam="2">  1       -1 0.13697804E-02 0.79323645E+02</pdfrwt>
<totfact> 0.21620420E+05</totfact>
</mgrwt>
</event>
<event>
 8    1  0.2389776E-020  0.7232563E+02  0.7818608E-02  0.1352359E+00
          2   -1    0    0  501    0  0.00000000000E+00  0.00000000000E+00  0.34615149005E+02  0.34615149099E+02  0.25500000000E-02 0. -1.
         -1   -1    0    0    0  501 -0.00000000000E+00 -0.00000000000E+00 -0.37779674120E+02  0.37779674456E+02  0.50400000000E-02 0.  1.
         24    2    1    2    0    0  0.35527136788E-14  0.00000000000E+00 -0.31645251155E+01  0.72394823555E+02  0.72325626567E+02 0.  0.
         66    2    3    3    0    0 -0.17128625276E+02  0.23979480542E+02  0.19349189474E+02  0.35310004564E+02  0.19999995332E+01 0.  0.
        -13    1    3    3    0    0  0.17128625276E+02 -0.23979480542E+02 -0.22513714589E+02  0.37084818991E+02  0.10566000000E+00 0.  1.
         13    1    4    4    0    0 -0.11440481194E+02  0.17057747984E+02  0.13962013649E+02  0.24835465879E+02  0.10566000000E+00 0. -1.
        -13    1    4    4    0    0 -0.38735734340E+01  0.42430637494E+01  0.35331270323E+01  0.67455401409E+01  0.10566000000E+00 0.  1.
         14    1    4    4    0    0 -0.18145706478E+01  0.26786688091E+01  0.18540487922E+01  0.37289985449E+01  0.00000000000E+00 0. -1.
<mgrwt>
<rscale>  0 0.72325627E+02</rscale>
<asrwt>0</asrwt>
<pdfrwt beam="1">  1        2 0.53254075E-02 0.72325627E+02</pdfrwt>
<pdfrwt beam="2">  1       -1 0.58122576E-02 0.72325627E+02</pdfrwt>
<totfact> 0.18282549E+05</totfact>
</mgrwt>
</event>
<event>
 8    1  0.2389776E-020  0.8067259E+02  0.7818608E-02  0.1327153E+00
          2   -1    0    0  501    0  0.00000000000E+00  0.00000000000E+00  0.50423507854E+03  0.50423507855E+03  0.25500000000E-02 0. -1.
         -1   -1    0    0    0  501 -0.00000000000E+00 -0.00000000000E+00 -0.32267010668E+01  0.32267050029E+01  0.50400000000E-02 0.  1.
         24    2    1    2    0    0  0.35527136788E-14  0.35527136788E-14  0.50100837747E+03  0.50746178355E+03  0.80672594260E+02 0.  0.
         66    2    3    3    0    0 -0.24860237122E+02 -0.30373834369E+02  0.30845083111E+03  0.31094455522E+03  0.20000014083E+01 0.  0.
        -13    1    3    3    0    0  0.24860237122E+02  0.30373834369E+02  0.19255754636E+03  0.19651722833E+03  0.10566000000E+00 0.  1.
         13    1    4    4    0    0 -0.32960113002E+00 -0.45418183632E+00  0.47439120338E+01  0.47781569109E+01  0.10566000000E+00 0.  1.
        -13    1    4    4    0    0 -0.52832754029E+01 -0.74245739619E+01  0.74594656211E+02  0.75149259456E+02  0.10566000000E+00 0.  1.
         14    1    4    4    0    0 -0.19247360589E+02 -0.22495078571E+02  0.22911226286E+03  0.23101713885E+03  0.00000000000E+00 0. -1.
<mgrwt>
<rscale>  0 0.80672594E+02</rscale>
<asrwt>0</asrwt>
<pdfrwt beam="1">  1        2 0.77574616E-01 0.80672594E+02</pdfrwt>
<pdfrwt beam="2">  1       -1 0.49641593E-03 0.80672594E+02</pdfrwt>
<totfact> 0.29873857E+05</totfact>
</mgrwt>
</event>
<event>
 8    1  0.2389776E-020  0.8039464E+02  0.7818608E-02  0.1327935E+00
         -1   -1    0    0    0  501 -0.00000000000E+00  0.00000000000E+00  0.10774036597E+02  0.10774037776E+02  0.50400000000E-02 0.  1.
          2   -1    0    0  501    0  0.00000000000E+00 -0.00000000000E+00 -0.14997390057E+03  0.14997390059E+03  0.25500000000E-02 0. -1.
         24    2    1    2    0    0 -0.35527136788E-14  0.17763568394E-14 -0.13919986397E+03  0.16074793837E+03  0.80394636384E+02 0.  0.
         66    2    3    3    0    0 -0.23074059780E+02  0.12360074964E+02 -0.13057426826E+03  0.13318717362E+03  0.19999993342E+01 0.  0.
        -13    1    3    3    0    0  0.23074059780E+02 -0.12360074964E+02 -0.86255957076E+01  0.27560764743E+02  0.10566000000E+00 0.  1.
         13    1    4    4    0    0 -0.35845110998E+01  0.21181464551E+01 -0.21417626229E+02  0.21818825394E+02  0.10566000000E+00 0. -1.
        -13    1    4    4    0    0 -0.43657363704E-01  0.32690814262E-01 -0.73481746841E+00  0.74437584743E+00  0.10566000000E+00 0.  1.
         14    1    4    4    0    0 -0.19445891317E+02  0.10209237695E+02 -0.10842182456E+03  0.11062397238E+03  0.00000000000E+00 0. -1.
<mgrwt>
<rscale>  0 0.80394636E+02</rscale>
<asrwt>0</asrwt>
<pdfrwt beam="1">  1        2 0.23072906E-01 0.80394636E+02</pdfrwt>
<pdfrwt beam="2">  1       -1 0.16575443E-02 0.80394636E+02</pdfrwt>
<totfact> 0.19768996E+05</totfact>
</mgrwt>
</event>
<event>
 8    1  0.2389776E-020  0.8079281E+02  0.7818608E-02  0.1326816E+00
         -1   -1    0    0    0  501 -0.00000000000E+00  0.00000000000E+00  0.16125614272E+02  0.16125615060E+02  0.50400000000E-02 0.  1.
          2   -1    0    0  501    0  0.00000000000E+00 -0.00000000000E+00 -0.10119735648E+03  0.10119735652E+03  0.25500000000E-02 0. -1.
         24    2    1    2    0    0  0.00000000000E+00  0.00000000000E+00 -0.85071742212E+02  0.11732297158E+03  0.80792811169E+02 0.  0.
         66    2    3    3    0    0 -0.88690970520E+01  0.18803798744E+02 -0.92815792210E+02  0.95136822651E+02  0.20000027012E+01 0.  0.
        -13    1    3    3    0    0  0.88690970520E+01 -0.18803798744E+02  0.77440499981E+01  0.22186148925E+02  0.10566000000E+00 0.  1.
         13    1    4    4    0    0 -0.21396505618E+01  0.43401162003E+01 -0.24126091354E+02  0.24606790957E+02  0.10566000000E+00 0. -1.
        -13    1    4    4    0    0 -0.65408044778E+01  0.13760625871E+02 -0.64311669207E+02  0.66091897445E+02  0.10566000000E+00 0.  1.
        -14    1    4    4    0    0 -0.18864201241E+00  0.70305667349E+00 -0.43780316493E+01  0.44381342496E+01  0.00000000000E+00 0.  1.
<mgrwt>
<rscale>  0 0.80792811E+02</rscale>
<asrwt>0</asrwt>
<pdfrwt beam="1">  1        2 0.15568824E-01 0.80792811E+02</pdfrwt>
<pdfrwt beam="2">  1       -1 0.24808639E-02 0.80792811E+02</pdfrwt>
<totfact> 0.17321325E+05</totfact>
</mgrwt>
</event>
<event>
 8    1  0.2389776E-020  0.8042736E+02  0.7818608E-02  0.1327843E+00
          2   -1    0    0  501    0  0.00000000000E+00  0.00000000000E+00  0.21640261184E+03  0.21640261185E+03  0.25500000000E-02 0. -1.
         -1   -1    0    0    0  501 -0.00000000000E+00 -0.00000000000E+00 -0.74728304361E+01  0.74728321357E+01  0.50400000000E-02 0.  1.
         24    2    1    2    0    0  0.35527136788E-14 -0.17763568394E-14  0.20892978140E+03  0.22387544399E+03  0.80427363904E+02 0.  0.
         66    2    3    3    0    0 -0.23613390887E+02  0.14603143109E+02  0.18541072850E+03  0.18748861902E+03  0.20000003419E+01 0.  0.
        -13    1    3    3    0    0  0.23613390887E+02 -0.14603143109E+02  0.23519052902E+02  0.36386824968E+02  0.10566000000E+00 0.  1.
         13    1    4    4    0    0 -0.42219656632E+01  0.28045014128E+01  0.35259821432E+02  0.35622414204E+02  0.10566000000E+00 0. -1.
        -13    1    4    4    0    0 -0.15816910647E+02  0.10072578222E+02  0.12713559349E+03  0.12851109598E+03  0.10566000000E+00 0.  1.
        -14    1    4    4    0    0 -0.35745145775E+01  0.17260634737E+01  0.23015313576E+02  0.23355108832E+02  0.00000000000E+00 0.  1.
<mgrwt>
<rscale>  0 0.80427364E+02</rscale>
<asrwt>0</asrwt>
<pdfrwt beam="1">  1        2 0.33292708E-01 0.80427364E+02</pdfrwt>
<pdfrwt beam="2">  1       -1 0.11496664E-02 0.80427364E+02</pdfrwt>
<totfact> 0.22358870E+05</totfact>
</mgrwt>
</event>
<event>
 8    1  0.2389776E-020  0.7095812E+02  0.7818608E-02  0.1356865E+00
         -1   -1    0    0    0  501 -0.00000000000E+00  0.00000000000E+00  0.11137330997E+01  0.11137445035E+01  0.50400000000E-02 0.  1.
          2   -1    0    0  501    0  0.00000000000E+00 -0.00000000000E+00 -0.11302144833E+04  0.11302144833E+04  0.25500000000E-02 0. -1.
         24    2    1    2    0    0  0.00000000000E+00  0.17763568394E-14 -0.11291007502E+04  0.11313282278E+04  0.70958120949E+02 0.  0.
         66    2    3    3    0    0  0.20942671364E+01  0.15513267702E+02 -0.10721224346E+04  0.10722385753E+04  0.19999987836E+01 0.  0.
        -13    1    3    3    0    0 -0.20942671364E+01 -0.15513267702E+02 -0.56978315591E+02  0.59089652573E+02  0.10566000000E+00 0.  1.
         13    1    4    4    0    0  0.12985965468E+01  0.71190083350E+01 -0.47558494279E+03  0.47564000631E+03  0.10566000000E+00 0. -1.
        -13    1    4    4    0    0  0.26925268651E+00  0.16337221998E+01 -0.15710497386E+03  0.15711373434E+03  0.10566000000E+00 0.  1.
        -14    1    4    4    0    0  0.52641790311E+00  0.67605371672E+01 -0.43943251799E+03  0.43948483460E+03  0.00000000000E+00 0.  1.
<mgrwt>
<rscale>  0 0.70958121E+02</rscale>
<asrwt>0</asrwt>
<pdfrwt beam="1">  1        2 0.17387823E+00 0.70958121E+02</pdfrwt>
<pdfrwt beam="2">  1       -1 0.17134534E-03 0.70958121E+02</pdfrwt>
<totfact> 0.47982275E+05</totfact>
</mgrwt>
</event>
<event>
 8    1  0.2389776E-020  0.7924907E+02  0.7818608E-02  0.1331196E+00
          2   -1    0    0  501    0  0.00000000000E+00  0.00000000000E+00  0.18061397795E+02  0.18061397975E+02  0.25500000000E-02 0. -1.
         -1   -1    0    0    0  501 -0.00000000000E+00 -0.00000000000E+00 -0.86931474158E+02  0.86931474304E+02  0.50400000000E-02 0.  1.
         24    2    1    2    0    0  0.35527136788E-14  0.00000000000E+00 -0.68870076363E+02  0.10499287228E+03  0.79249074514E+02 0.  0.
         66    2    3    3    0    0 -0.28207317262E+02  0.25768765198E+02 -0.20662143556E+02  0.43481101402E+02  0.19999989607E+01 0.  0.
        -13    1    3    3    0    0  0.28207317262E+02 -0.25768765198E+02 -0.48207932807E+02  0.61511770878E+02  0.10566000000E+00 0.  1.
         13    1    4    4    0    0 -0.42633575177E+01  0.37101835842E+01 -0.24991346905E+01  0.61804949470E+01  0.10566000000E+00 0. -1.
        -13    1    4    4    0    0 -0.98015020846E+01  0.83679638105E+01 -0.75942840287E+01  0.14959163593E+02  0.10566000000E+00 0.  1.
        -14    1    4    4    0    0 -0.14142457660E+02  0.13690617803E+02 -0.10568724837E+02  0.22341442862E+02  0.00000000000E+00 0.  1.
<mgrwt>
<rscale>  0 0.79249075E+02</rscale>
<asrwt>0</asrwt>
<pdfrwt beam="1">  1        2 0.27786766E-02 0.79249075E+02</pdfrwt>
<pdfrwt beam="2">  1       -1 0.13374073E-01 0.79249075E+02</pdfrwt>
<totfact> 0.12495426E+05</totfact>
</mgrwt>
</event>
<event>
 8    1  0.2389776E-020  0.8018070E+02  0.7818608E-02  0.1328539E+00
         -1   -1    0    0    0  501 -0.00000000000E+00  0.00000000000E+00  0.50444284462E+01  0.50444309640E+01  0.50400000000E-02 0.  1.
          2   -1    0    0  501    0  0.00000000000E+00 -0.00000000000E+00 -0.31861605525E+03  0.31861605526E+03  0.25500000000E-02 0. -1.
         24    2    1    2    0    0  0.88817841970E-15  0.35527136788E-14 -0.31357162680E+03  0.32366048622E+03  0.80180703454E+02 0.  0.
         66    2    3    3    0    0 -0.66475511628E+01 -0.16711333940E+02 -0.30140221886E+03  0.30194495555E+03  0.20000082949E+01 0.  0.
        -13    1    3    3    0    0  0.66475511628E+01  0.16711333940E+02 -0.12169407945E+02  0.21715530670E+02  0.10566000000E+00 0.  1.
         13    1    4    4    0    0 -0.13796828906E+01 -0.29378340561E+01 -0.44874631619E+02  0.44991978405E+02  0.10566000000E+00 0. -1.
        -13    1    4    4    0    0 -0.17007194380E+01 -0.57051628806E+01 -0.10610544583E+03  0.10627237708E+03  0.10566000000E+00 0. -1.
         14    1    4    4    0    0 -0.35671488342E+01 -0.80683370032E+01 -0.15042214140E+03  0.15068060007E+03  0.00000000000E+00 0. -1.
<mgrwt>
<rscale>  0 0.80180703E+02</rscale>
<asrwt>0</asrwt>
<pdfrwt beam="1">  1        2 0.49017839E-01 0.80180703E+02</pdfrwt>
<pdfrwt beam="2">  1       -1 0.77606636E-03 0.80180703E+02</pdfrwt>
<totfact> 0.25901898E+05</totfact>
</mgrwt>
</event>
<event>
 8    1  0.2389776E-020  0.8397848E+02  0.7818608E-02  0.1318126E+00
         -1   -1    0    0    0  501 -0.00000000000E+00  0.00000000000E+00  0.20539644228E+01  0.20539706063E+01  0.50400000000E-02 0.  1.
          2   -1    0    0  501    0  0.00000000000E+00 -0.00000000000E+00 -0.85838572218E+03  0.85838572219E+03  0.25500000000E-02 0. -1.
         24    2    1    2    0    0  0.00000000000E+00  0.00000000000E+00 -0.85633175776E+03  0.86043969279E+03  0.83978482871E+02 0.  0.
         66    2    3    3    0    0 -0.69556910064E+01 -0.26563976239E+02 -0.75355609200E+03  0.75405889045E+03  0.20000007157E+01 0.  0.
        -13    1    3    3    0    0  0.69556910064E+01  0.26563976239E+02 -0.10277566575E+03  0.10638080234E+03  0.10566000000E+00 0.  1.
         13    1    4    4    0    0 -0.54132063579E+01 -0.19119207867E+02 -0.55975157901E+03  0.56010417627E+03  0.10566000000E+00 0. -1.
        -13    1    4    4    0    0 -0.13170418113E+01 -0.48940154139E+01 -0.12681074880E+03  0.12691202922E+03  0.10566000000E+00 0.  1.
         14    1    4    4    0    0 -0.22544283727E+00 -0.25507529579E+01 -0.66993764198E+02  0.67042684959E+02  0.00000000000E+00 0. -1.
<mgrwt>
<rscale>  0 0.83978483E+02</rscale>
<asrwt>0</asrwt>
<pdfrwt beam="1">  1        2 0.13205906E+00 0.83978483E+02</pdfrwt>
<pdfrwt beam="2">  1       -1 0.31599569E-03 0.83978483E+02</pdfrwt>
<totfact> 0.30619026E+05</totfact>
</mgrwt>
</event>
<event>
 8    1  0.2389776E-020  0.8185970E+02  0.7818608E-02  0.1323855E+00
         -1   -1    0    0    0  501 -0.00000000000E+00  0.00000000000E+00  0.29023736529E+02  0.29023736967E+02  0.50400000000E-02 0.  1.
          2   -1    0    0  501    0  0.00000000000E+00 -0.00000000000E+00 -0.57720083836E+02  0.57720083892E+02  0.25500000000E-02 0. -1.
         24    2    1    2    0    0  0.00000000000E+00  0.00000000000E+00 -0.28696347307E+02  0.86743820859E+02  0.81859697706E+02 0.  0.
         66    2    3    3    0    0  0.32101474139E+02 -0.22359729760E+02 -0.16944838589E+01  0.39208844784E+02  0.20000192255E+01 0.  0.
        -13    1    3    3    0    0 -0.32101474139E+02  0.22359729760E+02 -0.27001863448E+02  0.47534976076E+02  0.10566000000E+00 0.  1.
         13    1    4    4    0    0  0.10169667090E+02 -0.75070942992E+01 -0.75347918005E+00  0.12663233728E+02  0.10566000000E+00 0. -1.
        -13    1    4    4    0    0  0.43280076662E+01 -0.35185871375E+01 -0.53947326134E+00  0.56048462278E+01  0.10566000000E+00 0.  1.
        -14    1    4    4    0    0  0.17603799383E+02 -0.11334048323E+02 -0.40153141750E+00  0.20940764828E+02  0.00000000000E+00 0.  1.
<mgrwt>
<rscale>  0 0.81859698E+02</rscale>
<asrwt>0</asrwt>
<pdfrwt beam="1">  1        2 0.88800129E-02 0.81859698E+02</pdfrwt>
<pdfrwt beam="2">  1       -1 0.44651903E-02 0.81859698E+02</pdfrwt>
<totfact> 0.14490554E+05</totfact>
</mgrwt>
</event>
<event>
 8    1  0.2389776E-020  0.8036569E+02  0.7818608E-02  0.1328017E+00
          2   -1    0    0  501    0  0.00000000000E+00  0.00000000000E+00  0.23029922009E+03  0.23029922010E+03  0.25500000000E-02 0. -1.
         -1   -1    0    0    0  501 -0.00000000000E+00 -0.00000000000E+00 -0.70111429778E+01  0.70111447893E+01  0.50400000000E-02 0.  1.
         24    2    1    2    0    0  0.00000000000E+00  0.00000000000E+00  0.22328807711E+03  0.23731036489E+03  0.80365688607E+02 0.  0.
         66    2    3    3    0    0  0.14379391050E+02  0.28181657372E+02  0.18474434351E+03  0.18744451222E+03  0.20000003410E+01 0.  0.
        -13    1    3    3    0    0 -0.14379391050E+02 -0.28181657372E+02  0.38543733598E+02  0.49865852674E+02  0.10566000000E+00 0.  1.
         13    1    4    4    0    0  0.72140797775E+01  0.14438535643E+02  0.89225241707E+02  0.90673420473E+02  0.10566000000E+00 0. -1.
        -13    1    4    4    0    0  0.25287081474E+00  0.74898114253E+00  0.48392598565E+01  0.49045403857E+01  0.10566000000E+00 0. -1.
         14    1    4    4    0    0  0.69124404578E+01  0.12994140587E+02  0.90679841950E+02  0.91866551360E+02  0.00000000000E+00 0. -1.
<mgrwt>
<rscale>  0 0.80365689E+02</rscale>
<asrwt>0</asrwt>
<pdfrwt beam="1">  1        2 0.35430656E-01 0.80365689E+02</pdfrwt>
<pdfrwt beam="2">  1       -1 0.10786373E-02 0.80365689E+02</pdfrwt>
<totfact> 0.22902938E+05</totfact>
</mgrwt>
</event>
<event>
 8    1  0.2389776E-020  0.7733164E+02  0.7818608E-02  0.1336799E+00
          2   -1    0    0  501    0  0.00000000000E+00  0.00000000000E+00  0.11200833400E+04  0.11200833400E+04  0.25500000000E-02 0. -1.
         -1   -1    0    0    0  501 -0.00000000000E+00 -0.00000000000E+00 -0.13347581005E+01  0.13347676159E+01  0.50400000000E-02 0.  1.
         24    2    1    2    0    0  0.35527136788E-14  0.00000000000E+00  0.11187485819E+04  0.11214181076E+04  0.77331640309E+02 0.  0.
         66    2    3    3    0    0  0.19774094000E+02  0.16996442396E+02  0.97326580278E+03  0.97361707910E+03  0.20000000128E+01 0.  0.
        -13    1    3    3    0    0 -0.19774094000E+02 -0.16996442396E+02  0.14548277908E+03  0.14780102848E+03  0.10566000000E+00 0.  1.
         13    1    4    4    0    0  0.11082099674E+01  0.13598193917E+01  0.71363047225E+02  0.71384682611E+02  0.10566000000E+00 0. -1.
        -13    1    4    4    0    0  0.49285090567E+01  0.48175056134E+01  0.24482030848E+03  0.24491731905E+03  0.10566000000E+00 0.  1.
         14    1    4    4    0    0  0.13737374976E+02  0.10819117391E+02  0.65708244707E+03  0.65731507744E+03  0.00000000000E+00 0. -1.
<mgrwt>
<rscale>  0 0.77331640E+02</rscale>
<asrwt>0</asrwt>
<pdfrwt beam="1">  1        2 0.17232039E+00 0.77331640E+02</pdfrwt>
<pdfrwt beam="2">  1       -1 0.20534828E-03 0.77331640E+02</pdfrwt>
<totfact> 0.38463876E+05</totfact>
</mgrwt>
</event>
<event>
 8    1  0.2389776E-020  0.8141284E+02  0.7818608E-02  0.1325089E+00
          2   -1    0    0  501    0  0.00000000000E+00  0.00000000000E+00  0.27567026825E+02  0.27567026943E+02  0.25500000000E-02 0. -1.
         -1   -1    0    0    0  501 -0.00000000000E+00 -0.00000000000E+00 -0.60108497181E+02  0.60108497392E+02  0.50400000000E-02 0.  1.
         24    2    1    2    0    0  0.00000000000E+00  0.00000000000E+00 -0.32541470356E+02  0.87675524335E+02  0.81412838512E+02 0.  0.
         66    2    3    3    0    0  0.31222218999E+02 -0.16991579125E+02  0.50269967155E+01  0.35955686724E+02  0.19999978684E+01 0.  0.
        -13    1    3    3    0    0 -0.31222218999E+02  0.16991579125E+02 -0.37568467071E+02  0.51719837611E+02  0.10566000000E+00 0.  1.
         13    1    4    4    0    0  0.11836682969E+02 -0.66510874182E+01  0.13781738505E+01  0.13647510936E+02  0.10566000000E+00 0. -1.
        -13    1    4    4    0    0  0.11843589426E+02 -0.58728929130E+01  0.26784579966E+01  0.13488765064E+02  0.10566000000E+00 0.  1.
        -14    1    4    4    0    0  0.75419466035E+01 -0.44675987937E+01  0.97036486835E+00  0.88194107246E+01  0.00000000000E+00 0.  1.
<mgrwt>
<rscale>  0 0.81412839E+02</rscale>
<asrwt>0</asrwt>
<pdfrwt beam="1">  1        2 0.42410811E-02 0.81412839E+02</pdfrwt>
<pdfrwt beam="2">  1       -1 0.92474612E-02 0.81412839E+02</pdfrwt>
<totfact> 0.12595402E+05</totfact>
</mgrwt>
</event>
<event>
 8    1  0.2389776E-020  0.8057424E+02  0.7818608E-02  0.1327430E+00
         -1   -1    0    0    0  501 -0.00000000000E+00  0.00000000000E+00  0.14234224092E+02  0.14234224984E+02  0.50400000000E-02 0.  1.
          2   -1    0    0  501    0  0.00000000000E+00 -0.00000000000E+00 -0.11402462217E+03  0.11402462220E+03  0.25500000000E-02 0. -1.
         24    2    1    2    0    0  0.00000000000E+00 -0.35527136788E-14 -0.99790398080E+02  0.12825884719E+03  0.80574241121E+02 0.  0.
         66    2    3    3    0    0 -0.26357955479E+02  0.30294508788E+02 -0.54579831771E+02  0.67789800973E+02  0.20000000183E+01 0.  0.
        -13    1    3    3    0    0  0.26357955479E+02 -0.30294508788E+02 -0.45210566310E+02  0.60469046212E+02  0.10566000000E+00 0.  1.
         13    1    4    4    0    0 -0.44430972700E+01  0.49703463506E+01 -0.86852471667E+01  0.10949435537E+02  0.10566000000E+00 0. -1.
        -13    1    4    4    0    0 -0.52316625241E+01  0.51444586631E+01 -0.94087634439E+01  0.11931963010E+02  0.10566000000E+00 0.  1.
        -14    1    4    4    0    0 -0.16683195685E+02  0.20179703774E+02 -0.36485821160E+02  0.44908402425E+02  0.00000000000E+00 0.  1.
<mgrwt>
<rscale>  0 0.80574241E+02</rscale>
<asrwt>0</asrwt>
<pdfrwt beam="1">  1        2 0.17542249E-01 0.80574241E+02</pdfrwt>
<pdfrwt beam="2">  1       -1 0.21898808E-02 0.80574241E+02</pdfrwt>
<totfact> 0.18057463E+05</totfact>
</mgrwt>
</event>
<event>
 8    1  0.2389776E-020  0.7975660E+02  0.7818608E-02  0.1329744E+00
         -1   -1    0    0    0  501 -0.00000000000E+00  0.00000000000E+00  0.56236019703E+01  0.56236042288E+01  0.50400000000E-02 0.  1.
          2   -1    0    0  501    0  0.00000000000E+00 -0.00000000000E+00 -0.28278644602E+03  0.28278644604E+03  0.25500000000E-02 0. -1.
         24    2    1    2    0    0 -0.35527136788E-14  0.00000000000E+00 -0.27716284405E+03  0.28841005026E+03  0.79756598282E+02 0.  0.
         66    2    3    3    0    0  0.16868491060E+02 -0.19726986818E+02 -0.24802697210E+03  0.24938941216E+03  0.20000021141E+01 0.  0.
        -13    1    3    3    0    0 -0.16868491060E+02  0.19726986818E+02 -0.29135871951E+02  0.39020638102E+02  0.10566000000E+00 0.  1.
         13    1    4    4    0    0  0.12515716756E+02 -0.14821135788E+02 -0.18921086623E+03  0.19020271369E+03  0.10566000000E+00 0. -1.
        -13    1    4    4    0    0  0.16092944644E+01 -0.12477003233E+01 -0.18680139897E+02  0.18791098302E+02  0.10566000000E+00 0.  1.
        -14    1    4    4    0    0  0.27434798400E+01 -0.36581507064E+01 -0.40135965973E+02  0.40395600166E+02  0.00000000000E+00 0.  1.
<mgrwt>
<rscale>  0 0.79756598E+02</rscale>
<asrwt>0</asrwt>
<pdfrwt beam="1">  1        2 0.43505596E-01 0.79756598E+02</pdfrwt>
<pdfrwt beam="2">  1       -1 0.86516994E-03 0.79756598E+02</pdfrwt>
<totfact> 0.25154844E+05</totfact>
</mgrwt>
</event>
<event>
 8    1  0.2389776E-020  0.8034597E+02  0.7818608E-02  0.1328072E+00
          2   -1    0    0  501    0  0.00000000000E+00  0.00000000000E+00  0.35943986558E+02  0.35943986649E+02  0.25500000000E-02 0. -1.
         -1   -1    0    0    0  501 -0.00000000000E+00 -0.00000000000E+00 -0.44899552097E+02  0.44899552380E+02  0.50400000000E-02 0.  1.
         24    2    1    2    0    0  0.00000000000E+00 -0.35527136788E-14 -0.89555655386E+01  0.80843539028E+02  0.80345974688E+02 0.  0.
         66    2    3    3    0    0 -0.21267788907E+02 -0.20731608651E+02  0.22700542852E+02  0.37435719402E+02  0.19999997885E+01 0.  0.
        -13    1    3    3    0    0  0.21267788907E+02  0.20731608651E+02 -0.31656108390E+02  0.43407819626E+02  0.10566000000E+00 0.  1.
         13    1    4    4    0    0 -0.30081159221E+00 -0.32551259313E+00  0.34368416100E+00  0.57072664246E+00  0.10566000000E+00 0.  1.
        -13    1    4    4    0    0 -0.16351634194E+01 -0.21437847007E+01  0.24660525095E+01  0.36554276448E+01  0.10566000000E+00 0.  1.
         14    1    4    4    0    0 -0.19331813895E+02 -0.18262311357E+02  0.19890806181E+02  0.33209565115E+02  0.00000000000E+00 0. -1.
<mgrwt>
<rscale>  0 0.80345975E+02</rscale>
<asrwt>0</asrwt>
<pdfrwt beam="1">  1        2 0.55298441E-02 0.80345975E+02</pdfrwt>
<pdfrwt beam="2">  1       -1 0.69076235E-02 0.80345975E+02</pdfrwt>
<totfact> 0.13782188E+05</totfact>
</mgrwt>
</event>
<event>
 8    1  0.2389776E-020  0.8015331E+02  0.7818608E-02  0.1328617E+00
          2   -1    0    0  501    0  0.00000000000E+00  0.00000000000E+00  0.17674280320E+03  0.17674280322E+03  0.25500000000E-02 0. -1.
         -1   -1    0    0    0  501 -0.00000000000E+00 -0.00000000000E+00 -0.90874319856E+01  0.90874333832E+01  0.50400000000E-02 0.  1.
         24    2    1    2    0    0  0.00000000000E+00  0.00000000000E+00  0.16765537122E+03  0.18583023660E+03  0.80153311463E+02 0.  0.
         66    2    3    3    0    0 -0.45745105028E+01  0.90769282793E+01  0.17369676870E+03  0.17400541437E+03  0.20000001331E+01 0.  0.
        -13    1    3    3    0    0  0.45745105028E+01 -0.90769282793E+01 -0.60413974807E+01  0.11824822235E+02  0.10566000000E+00 0.  1.
         13    1    4    4    0    0 -0.11059237869E+01  0.28703347664E+01  0.52944830369E+02  0.53034216464E+02  0.10566000000E+00 0. -1.
        -13    1    4    4    0    0 -0.47984519370E+00  0.22115665852E+01  0.33187910301E+02  0.33265144406E+02  0.10566000000E+00 0.  1.
         14    1    4    4    0    0 -0.29887415222E+01  0.39950269278E+01  0.87564028028E+02  0.87706053500E+02  0.00000000000E+00 0. -1.
<mgrwt>
<rscale>  0 0.80153311E+02</rscale>
<asrwt>0</asrwt>
<pdfrwt beam="1">  1        2 0.27191200E-01 0.80153311E+02</pdfrwt>
<pdfrwt beam="2">  1       -1 0.13980666E-02 0.80153311E+02</pdfrwt>
<totfact> 0.21036400E+05</totfact>
</mgrwt>
</event>
<event>
 8    1  0.2389776E-020  0.7954848E+02  0.7818608E-02  0.1330338E+00
          2   -1    0    0  501    0  0.00000000000E+00  0.00000000000E+00  0.17750652401E+03  0.17750652403E+03  0.25500000000E-02 0. -1.
         -1   -1    0    0    0  501 -0.00000000000E+00 -0.00000000000E+00 -0.89122913342E+01  0.89122927593E+01  0.50400000000E-02 0.  1.
         24    2    1    2    0    0  0.00000000000E+00  0.00000000000E+00  0.16859423268E+03  0.18641881679E+03  0.79548475542E+02 0.  0.
         66    2    3    3    0    0  0.22211546754E+02  0.32286825759E+02  0.99929094757E+02  0.10735742130E+03  0.20000007195E+01 0.  0.
        -13    1    3    3    0    0 -0.22211546754E+02 -0.32286825759E+02  0.68665137923E+02  0.79061395490E+02  0.10566000000E+00 0.  1.
         13    1    4    4    0    0  0.16182815465E+02  0.24583008548E+02  0.75686576577E+02  0.81207615798E+02  0.10566000000E+00 0. -1.
        -13    1    4    4    0    0  0.28459412615E+01  0.38498737863E+01  0.11100898819E+02  0.12089748900E+02  0.10566000000E+00 0.  1.
        -14    1    4    4    0    0  0.31827900279E+01  0.38539434239E+01  0.13141619361E+02  0.14060056604E+02  0.00000000000E+00 0.  1.
<mgrwt>
<rscale>  0 0.79548476E+02</rscale>
<asrwt>0</asrwt>
<pdfrwt beam="1">  1        2 0.27308696E-01 0.79548476E+02</pdfrwt>
<pdfrwt beam="2">  1       -1 0.13711219E-02 0.79548476E+02</pdfrwt>
<totfact> 0.21493284E+05</totfact>
</mgrwt>
</event>
<event>
 8    1  0.2389776E-020  0.7965746E+02  0.7818608E-02  0.1330026E+00
          2   -1    0    0  501    0  0.00000000000E+00  0.00000000000E+00  0.13826950694E+04  0.13826950694E+04  0.25500000000E-02 0. -1.
         -1   -1    0    0    0  501 -0.00000000000E+00 -0.00000000000E+00 -0.11472667434E+01  0.11472778139E+01  0.50400000000E-02 0.  1.
         24    2    1    2    0    0  0.00000000000E+00  0.17763568394E-14  0.13815478027E+04  0.13838423472E+04  0.79657459938E+02 0.  0.
         66    2    3    3    0    0  0.28726435792E+01 -0.11524908718E+02  0.13511877541E+04  0.13512414375E+04  0.19999946807E+01 0.  0.
        -13    1    3    3    0    0 -0.28726435792E+01  0.11524908718E+02  0.30360048560E+02  0.32600909722E+02  0.10566000000E+00 0.  1.
         13    1    4    4    0    0  0.10822586984E+01 -0.29422730577E+01  0.43503345500E+03  0.43504476366E+03  0.10566000000E+00 0. -1.
        -13    1    4    4    0    0  0.97568308113E+00 -0.27050563351E+01  0.29559776267E+03  0.29561176863E+03  0.10566000000E+00 0.  1.
         14    1    4    4    0    0  0.81470179959E+00 -0.58775793256E+01  0.62055653645E+03  0.62058490524E+03  0.00000000000E+00 0. -1.
<mgrwt>
<rscale>  0 0.79657460E+02</rscale>
<asrwt>0</asrwt>
<pdfrwt beam="1">  1        2 0.21272316E+00 0.79657460E+02</pdfrwt>
<pdfrwt beam="2">  1       -1 0.17650273E-03 0.79657460E+02</pdfrwt>
<totfact> 0.34512609E+05</totfact>
</mgrwt>
</event>
<event>
 8    1  0.2389776E-020  0.8065649E+02  0.7818608E-02  0.1327199E+00
          2   -1    0    0  501    0  0.00000000000E+00  0.00000000000E+00  0.34918491289E+03  0.34918491290E+03  0.25500000000E-02 0. -1.
         -1   -1    0    0    0  501 -0.00000000000E+00 -0.00000000000E+00 -0.46576087075E+01  0.46576114344E+01  0.50400000000E-02 0.  1.
         24    2    1    2    0    0  0.00000000000E+00  0.35527136788E-14  0.34452730419E+03  0.35384252434E+03  0.80656485788E+02 0.  0.
         66    2    3    3    0    0 -0.80795411605E+00 -0.20133975371E+02  0.32549693177E+03  0.32612617551E+03  0.20000015808E+01 0.  0.
        -13    1    3    3    0    0  0.80795411605E+00  0.20133975371E+02  0.19030372420E+02  0.27716348832E+02  0.10566000000E+00 0.  1.
         13    1    4    4    0    0 -0.76542034973E+00 -0.13718813776E+02  0.22626901848E+03  0.22668584342E+03  0.10566000000E+00 0. -1.
        -13    1    4    4    0    0 -0.38431702602E+00 -0.39372188496E+01  0.65866534380E+02  0.65985308267E+02  0.10566000000E+00 0.  1.
        -14    1    4    4    0    0  0.34178325970E+00 -0.24779427456E+01  0.33361378907E+02  0.33455023817E+02  0.00000000000E+00 0.  1.
<mgrwt>
<rscale>  0 0.80656486E+02</rscale>
<asrwt>0</asrwt>
<pdfrwt beam="1">  1        2 0.53720774E-01 0.80656486E+02</pdfrwt>
<pdfrwt beam="2">  1       -1 0.71655516E-03 0.80656486E+02</pdfrwt>
<totfact> 0.26357232E+05</totfact>
</mgrwt>
</event>
<event>
 8    1  0.2462435E-020  0.7865288E+02  0.7818608E-02  0.1332918E+00
          2   -1    0    0  501    0  0.00000000000E+00  0.00000000000E+00  0.25371490085E+03  0.25371490086E+03  0.25500000000E-02 0. -1.
         -1   -1    0    0    0  501 -0.00000000000E+00 -0.00000000000E+00 -0.60956949397E+01  0.60956970233E+01  0.50400000000E-02 0.  1.
         24    2    1    2    0    0  0.88817841970E-15  0.71054273576E-14  0.24761920591E+03  0.25981059789E+03  0.78652880674E+02 0.  0.
         66    2    3    3    0    0  0.69476203588E+01  0.27758622788E+02  0.21287852463E+03  0.21480241344E+03  0.20000002572E+01 0.  0.
        -13    1    3    3    0    0 -0.69476203588E+01 -0.27758622788E+02  0.34740681279E+02  0.45008184450E+02  0.10566000000E+00 0.  1.
         13    1    4    4    0    0  0.80004453746E+00  0.22457442631E+01  0.16502982938E+02  0.16674622888E+02  0.10566000000E+00 0. -1.
        -13    1    4    4    0    0  0.11536898376E+01  0.29125886843E+01  0.25430608431E+02  0.25623059581E+02  0.10566000000E+00 0.  1.
         14    1    4    4    0    0  0.49938859837E+01  0.22600289841E+02  0.17094493326E+03  0.17250473097E+03  0.00000000000E+00 0. -1.
<mgrwt>
<rscale>  0 0.78652881E+02</rscale>
<asrwt>0</asrwt>
<pdfrwt beam="1">  1        2 0.39033057E-01 0.78652881E+02</pdfrwt>
<pdfrwt beam="2">  1       -1 0.93779950E-03 0.78652881E+02</pdfrwt>
<totfact> 0.25089185E+05</totfact>
</mgrwt>
</event>
<event>
 8    1  0.2389776E-020  0.7908110E+02  0.7818608E-02  0.1331680E+00
         -1   -1    0    0    0  501 -0.00000000000E+00  0.00000000000E+00  0.22308109876E+03  0.22308109882E+03  0.50400000000E-02 0.  1.
          2   -1    0    0  501    0  0.00000000000E+00 -0.00000000000E+00 -0.70084600802E+01  0.70084605441E+01  0.25500000000E-02 0. -1.
         24    2    1    2    0    0  0.00000000000E+00  0.00000000000E+00  0.21607263868E+03  0.23008955936E+03  0.79081098506E+02 0.  0.
         66    2    3    3    0    0 -0.11147632874E+02 -0.37884110812E+02  0.11219360902E+03  0.11895747787E+03  0.20000160357E+01 0.  0.
        -13    1    3    3    0    0  0.11147632874E+02  0.37884110812E+02  0.10387902966E+03  0.11113208150E+03  0.10566000000E+00 0.  1.
         13    1    4    4    0    0 -0.46075893048E+01 -0.18137197590E+02  0.54603505558E+02  0.57721242181E+02  0.10566000000E+00 0. -1.
        -13    1    4    4    0    0 -0.39104125748E+01 -0.12751484294E+02  0.36372659496E+02  0.38741104799E+02  0.10566000000E+00 0.  1.
         14    1    4    4    0    0 -0.26296309947E+01 -0.69954289278E+01  0.21217443967E+02  0.22495130885E+02  0.00000000000E+00 0. -1.
<mgrwt>
<rscale>  0 0.79081099E+02</rscale>
<asrwt>0</asrwt>
<pdfrwt beam="1">  1        2 0.10782247E-02 0.79081099E+02</pdfrwt>
<pdfrwt beam="2">  1       -1 0.34320167E-01 0.79081099E+02</pdfrwt>
<totfact> 0.99127322E+04</totfact>
</mgrwt>
</event>
<event>
 8    1  0.2389776E-020  0.7877014E+02  0.7818608E-02  0.1332578E+00
          2   -1    0    0  501    0  0.00000000000E+00  0.00000000000E+00  0.33789398980E+03  0.33789398981E+03  0.25500000000E-02 0. -1.
         -1   -1    0    0    0  501 -0.00000000000E+00 -0.00000000000E+00 -0.45907396166E+01  0.45907423832E+01  0.50400000000E-02 0.  1.
         24    2    1    2    0    0  0.17763568394E-14  0.71054273576E-14  0.33330325019E+03  0.34248473219E+03  0.78770141566E+02 0.  0.
         66    2    3    3    0    0  0.91797376140E+01  0.35408021783E+02  0.22994308462E+03  0.23284290360E+03  0.20000000155E+01 0.  0.
        -13    1    3    3    0    0 -0.91797376140E+01 -0.35408021783E+02  0.10336016556E+03  0.10964182860E+03  0.10566000000E+00 0.  1.
         13    1    4    4    0    0  0.40281677936E+01  0.16093298984E+02  0.10640528819E+03  0.10769083957E+03  0.10566000000E+00 0. -1.
        -13    1    4    4    0    0  0.88496362530E+00  0.22864983540E+01  0.13122240696E+02  0.13349741580E+02  0.10566000000E+00 0. -1.
        -14    1    4    4    0    0  0.42666061951E+01  0.17028224445E+02  0.11041555573E+03  0.11180232245E+03  0.00000000000E+00 0.  1.
<mgrwt>
<rscale>  0 0.78770142E+02</rscale>
<asrwt>0</asrwt>
<pdfrwt beam="1">  1        2 0.51983679E-01 0.78770142E+02</pdfrwt>
<pdfrwt beam="2">  1       -1 0.70626801E-03 0.78770142E+02</pdfrwt>
<totfact> 0.27712726E+05</totfact>
</mgrwt>
</event>
<event>
 8    1  0.2389776E-020  0.8020806E+02  0.7818608E-02  0.1328462E+00
          2   -1    0    0  501    0  0.00000000000E+00  0.00000000000E+00  0.61968245224E+03  0.61968245225E+03  0.25500000000E-02 0. -1.
         -1   -1    0    0    0  501 -0.00000000000E+00 -0.00000000000E+00 -0.25954130002E+01  0.25954178937E+01  0.50400000000E-02 0.  1.
         24    2    1    2    0    0 -0.71054273576E-14  0.00000000000E+00  0.61708703924E+03  0.62227787014E+03  0.80208064849E+02 0.  0.
         66    2    3    3    0    0  0.33774740870E+02  0.88518821202E+01  0.46140568450E+03  0.46272918065E+03  0.20000010745E+01 0.  0.
        -13    1    3    3    0    0 -0.33774740870E+02 -0.88518821202E+01  0.15568135474E+03  0.15954868949E+03  0.10566000000E+00 0.  1.
         13    1    4    4    0    0  0.95710261952E+01  0.19813525730E+01  0.13088795568E+03  0.13125242247E+03  0.10566000000E+00 0. -1.
        -13    1    4    4    0    0  0.16055859834E+02  0.46619387304E+01  0.21116881441E+03  0.21182965715E+03  0.10566000000E+00 0.  1.
        -14    1    4    4    0    0  0.81478548406E+01  0.22085908168E+01  0.11934891441E+03  0.11964710103E+03  0.00000000000E+00 0.  1.
<mgrwt>
<rscale>  0 0.80208065E+02</rscale>
<asrwt>0</asrwt>
<pdfrwt beam="1">  1        2 0.95335941E-01 0.80208065E+02</pdfrwt>
<pdfrwt beam="2">  1       -1 0.39929394E-03 0.80208065E+02</pdfrwt>
<totfact> 0.32230431E+05</totfact>
</mgrwt>
</event>
<event>
 8    1  0.2389776E-020  0.7936334E+02  0.7818608E-02  0.1330868E+00
          2   -1    0    0  501    0  0.00000000000E+00  0.00000000000E+00  0.29659318992E+03  0.29659318993E+03  0.25500000000E-02 0. -1.
         -1   -1    0    0    0  501 -0.00000000000E+00 -0.00000000000E+00 -0.53090713568E+01  0.53090737491E+01  0.50400000000E-02 0.  1.
         24    2    1    2    0    0 -0.71054273576E-14  0.00000000000E+00  0.29128411856E+03  0.30190226368E+03  0.79363335917E+02 0.  0.
         66    2    3    3    0    0  0.37233171582E+02  0.64489717202E+01  0.19149871888E+03  0.19520158207E+03  0.20000017577E+01 0.  0.
        -13    1    3    3    0    0 -0.37233171582E+02 -0.64489717202E+01  0.99785399677E+02  0.10670068161E+03  0.10566000000E+00 0.  1.
         13    1    4    4    0    0  0.51176903959E+01  0.10413280522E+01  0.28825517586E+02  0.29294995259E+02  0.10566000000E+00 0. -1.
        -13    1    4    4    0    0  0.15383289794E+01  0.78050285595E-01  0.67772045390E+01  0.69508426320E+01  0.10566000000E+00 0. -1.
         14    1    4    4    0    0  0.30577152207E+02  0.53295933824E+01  0.15589599676E+03  0.15895574418E+03  0.00000000000E+00 0. -1.
<mgrwt>
<rscale>  0 0.79363336E+02</rscale>
<asrwt>0</asrwt>
<pdfrwt beam="1">  1        2 0.45629724E-01 0.79363336E+02</pdfrwt>
<pdfrwt beam="2">  1       -1 0.81678035E-03 0.79363336E+02</pdfrwt>
<totfact> 0.25926616E+05</totfact>
</mgrwt>
</event>
<event>
 8    1  0.2389776E-020  0.8264987E+02  0.7818608E-02  0.1321695E+00
         -1   -1    0    0    0  501 -0.00000000000E+00  0.00000000000E+00  0.12460311464E+01  0.12460413394E+01  0.50400000000E-02 0.  1.
          2   -1    0    0  501    0  0.00000000000E+00 -0.00000000000E+00 -0.13705460619E+04  0.13705460619E+04  0.25500000000E-02 0. -1.
         24    2    1    2    0    0  0.00000000000E+00  0.00000000000E+00 -0.13693000307E+04  0.13717921032E+04  0.82649865665E+02 0.  0.
         66    2    3    3    0    0  0.55016200004E+01 -0.11992807111E+02 -0.13346197005E+04  0.13346864202E+04  0.19999984876E+01 0.  0.
        -13    1    3    3    0    0 -0.55016200004E+01  0.11992807111E+02 -0.34680330207E+02  0.37105683019E+02  0.10566000000E+00 0.  1.
         13    1    4    4    0    0  0.95572177991E+00 -0.27015903198E+01 -0.31294209409E+03  0.31295523228E+03  0.10566000000E+00 0. -1.
        -13    1    4    4    0    0  0.35238317836E+01 -0.79343037176E+01 -0.80135715485E+03  0.80140418726E+03  0.10566000000E+00 0.  1.
         14    1    4    4    0    0  0.10220664369E+01 -0.13569130736E+01 -0.22032045156E+03  0.22032700064E+03  0.00000000000E+00 0. -1.
<mgrwt>
<rscale>  0 0.82649866E+02</rscale>
<asrwt>0</asrwt>
<pdfrwt beam="1">  1        2 0.21085204E+00 0.82649866E+02</pdfrwt>
<pdfrwt beam="2">  1       -1 0.19169898E-03 0.82649866E+02</pdfrwt>
<totfact> 0.31427832E+05</totfact>
</mgrwt>
</event>
<event>
 8    1  0.2389776E-020  0.7889754E+02  0.7818608E-02  0.1332209E+00
          2   -1    0    0  501    0  0.00000000000E+00  0.00000000000E+00  0.19577177994E+02  0.19577178160E+02  0.25500000000E-02 0. -1.
         -1   -1    0    0    0  501 -0.00000000000E+00 -0.00000000000E+00 -0.79490796975E+02  0.79490797135E+02  0.50400000000E-02 0.  1.
         24    2    1    2    0    0  0.35527136788E-14  0.00000000000E+00 -0.59913618981E+02  0.99067975295E+02  0.78897541087E+02 0.  0.
         66    2    3    3    0    0 -0.28964745169E+02  0.19049188837E+02 -0.64053957011E+01  0.35310864470E+02  0.19999993646E+01 0.  0.
        -13    1    3    3    0    0  0.28964745169E+02 -0.19049188837E+02 -0.53508223280E+02  0.63757110825E+02  0.10566000000E+00 0.  1.
         13    1    4    4    0    0 -0.14205354075E+02  0.82994124702E+01 -0.32654780356E+01  0.16773396871E+02  0.10566000000E+00 0. -1.
        -13    1    4    4    0    0 -0.11459367862E+02  0.85230033867E+01 -0.26631587996E+01  0.14527982563E+02  0.10566000000E+00 0.  1.
        -14    1    4    4    0    0 -0.33000232320E+01  0.22267729804E+01 -0.47675886586E+00  0.40094850360E+01  0.00000000000E+00 0.  1.
<mgrwt>
<rscale>  0 0.78897541E+02</rscale>
<asrwt>0</asrwt>
<pdfrwt beam="1">  1        2 0.30118736E-02 0.78897541E+02</pdfrwt>
<pdfrwt beam="2">  1       -1 0.12229353E-01 0.78897541E+02</pdfrwt>
<totfact> 0.12864749E+05</totfact>
</mgrwt>
</event>
<event>
 8    1  0.2389776E-020  0.8041349E+02  0.7818608E-02  0.1327882E+00
          2   -1    0    0  501    0  0.00000000000E+00  0.00000000000E+00  0.19129565546E+03  0.19129565547E+03  0.25500000000E-02 0. -1.
         -1   -1    0    0    0  501 -0.00000000000E+00 -0.00000000000E+00 -0.84507008462E+01  0.84507023492E+01  0.50400000000E-02 0.  1.
         24    2    1    2    0    0  0.17763568394E-14  0.00000000000E+00  0.18284495461E+03  0.19974635782E+03  0.80413494123E+02 0.  0.
         66    2    3    3    0    0 -0.11240787007E+02  0.29158758222E+02  0.15422061182E+03  0.15736767641E+03  0.19999992073E+01 0.  0.
        -13    1    3    3    0    0  0.11240787007E+02 -0.29158758222E+02  0.28624342792E+02  0.42378681408E+02  0.10566000000E+00 0.  1.
         13    1    4    4    0    0 -0.39911137284E+01  0.10826226870E+02  0.60573094646E+02  0.61662364016E+02  0.10566000000E+00 0. -1.
        -13    1    4    4    0    0 -0.12551474729E+01  0.32116737795E+01  0.18252385862E+02  0.18575548372E+02  0.10566000000E+00 0.  1.
         14    1    4    4    0    0 -0.59945258056E+01  0.15120857572E+02  0.75395131311E+02  0.77129764026E+02  0.00000000000E+00 0. -1.
<mgrwt>
<rscale>  0 0.80413494E+02</rscale>
<asrwt>0</asrwt>
<pdfrwt beam="1">  1        2 0.29430097E-01 0.80413494E+02</pdfrwt>
<pdfrwt beam="2">  1       -1 0.13001081E-02 0.80413494E+02</pdfrwt>
<totfact> 0.21427986E+05</totfact>
</mgrwt>
</event>
<event>
 8    1  0.2389776E-020  0.7826373E+02  0.7818608E-02  0.1334052E+00
         -1   -1    0    0    0  501 -0.00000000000E+00  0.00000000000E+00  0.25157145080E+01  0.25157195566E+01  0.50400000000E-02 0.  1.
          2   -1    0    0  501    0  0.00000000000E+00 -0.00000000000E+00 -0.60869442811E+03  0.60869442811E+03  0.25500000000E-02 0. -1.
         24    2    1    2    0    0 -0.88817841970E-15  0.35527136788E-14 -0.60617871360E+03  0.61121014767E+03  0.78263732297E+02 0.  0.
         66    2    3    3    0    0 -0.66896325076E+01  0.25803553520E+02 -0.52674612818E+03  0.52742398326E+03  0.19999997788E+01 0.  0.
        -13    1    3    3    0    0  0.66896325076E+01 -0.25803553520E+02 -0.79432585417E+02  0.83786164415E+02  0.10566000000E+00 0.  1.
         13    1    4    4    0    0 -0.25190580210E+01  0.10791866577E+02 -0.21868967655E+03  0.21897030810E+03  0.10566000000E+00 0.  1.
        -13    1    4    4    0    0 -0.15838487613E+01  0.81957408918E+01 -0.15874266557E+03  0.15896201993E+03  0.10566000000E+00 0. -1.
        -14    1    4    4    0    0 -0.25867257253E+01  0.68159460512E+01 -0.14931378607E+03  0.14949165522E+03  0.00000000000E+00 0.  1.
<mgrwt>
<rscale>  0 0.78263732E+02</rscale>
<asrwt>0</asrwt>
<pdfrwt beam="1">  1        2 0.93645180E-01 0.78263732E+02</pdfrwt>
<pdfrwt beam="2">  1       -1 0.38703388E-03 0.78263732E+02</pdfrwt>
<totfact> 0.34186708E+05</totfact>
</mgrwt>
</event>
<event>
 8    1  0.2389776E-020  0.7965767E+02  0.7818608E-02  0.1330026E+00
          2   -1    0    0  501    0  0.00000000000E+00  0.00000000000E+00  0.39964998708E+02  0.39964998789E+02  0.25500000000E-02 0. -1.
         -1   -1    0    0    0  501 -0.00000000000E+00 -0.00000000000E+00 -0.39693132776E+02  0.39693133096E+02  0.50400000000E-02 0.  1.
         24    2    1    2    0    0  0.00000000000E+00  0.35527136788E-14  0.27186593186E+00  0.79658131885E+02  0.79657667957E+02 0.  0.
         66    2    3    3    0    0 -0.27942022146E+02 -0.27102463309E+02  0.84445526266E+01  0.39882459787E+02  0.20000026547E+01 0.  0.
        -13    1    3    3    0    0  0.27942022146E+02  0.27102463309E+02 -0.81726866947E+01  0.39775672098E+02  0.10566000000E+00 0.  1.
         13    1    4    4    0    0 -0.65502962964E+01 -0.67141964063E+01  0.27974728462E+01  0.97889648744E+01  0.10566000000E+00 0. -1.
        -13    1    4    4    0    0 -0.87293065082E+01 -0.84883058870E+01  0.20291457477E+01  0.12344258805E+02  0.10566000000E+00 0.  1.
         14    1    4    4    0    0 -0.12662419342E+02 -0.11899961015E+02  0.36179340326E+01  0.17749236108E+02  0.00000000000E+00 0. -1.
<mgrwt>
<rscale>  0 0.79657668E+02</rscale>
<asrwt>0</asrwt>
<pdfrwt beam="1">  1        2 0.61484613E-02 0.79657668E+02</pdfrwt>
<pdfrwt beam="2">  1       -1 0.61066359E-02 0.79657668E+02</pdfrwt>
<totfact> 0.14422607E+05</totfact>
</mgrwt>
</event>
<event>
 8    1  0.2389776E-020  0.7918211E+02  0.7818608E-02  0.1331389E+00
         -1   -1    0    0    0  501 -0.00000000000E+00  0.00000000000E+00  0.14481792707E+02  0.14481793584E+02  0.50400000000E-02 0.  1.
          2   -1    0    0  501    0  0.00000000000E+00 -0.00000000000E+00 -0.10823602141E+03  0.10823602144E+03  0.25500000000E-02 0. -1.
         24    2    1    2    0    0  0.44408920985E-15  0.00000000000E+00 -0.93754228704E+02  0.12271781503E+03  0.79182111141E+02 0.  0.
         66    2    3    3    0    0 -0.34856975022E+01  0.36972753877E+02 -0.68061355645E+02  0.77559543288E+02  0.20000016187E+01 0.  0.
        -13    1    3    3    0    0  0.34856975022E+01 -0.36972753877E+02 -0.25692873059E+02  0.45158271738E+02  0.10566000000E+00 0.  1.
         13    1    4    4    0    0 -0.21639999844E+01  0.20818872952E+02 -0.37000006526E+02  0.42510234226E+02  0.10566000000E+00 0. -1.
        -13    1    4    4    0    0 -0.50860892200E+00  0.58479343922E+01 -0.10271731487E+02  0.11831172869E+02  0.10566000000E+00 0.  1.
         14    1    4    4    0    0 -0.81308859577E+00  0.10305946532E+02 -0.20789617632E+02  0.23218136193E+02  0.00000000000E+00 0. -1.
<mgrwt>
<rscale>  0 0.79182111E+02</rscale>
<asrwt>0</asrwt>
<pdfrwt beam="1">  1        2 0.16651695E-01 0.79182111E+02</pdfrwt>
<pdfrwt beam="2">  1       -1 0.22279683E-02 0.79182111E+02</pdfrwt>
<totfact> 0.18633526E+05</totfact>
</mgrwt>
</event>
<event>
 8    1  0.2389776E-020  0.8482540E+02  0.7818608E-02  0.1315890E+00
         -1   -1    0    0    0  501 -0.00000000000E+00  0.00000000000E+00  0.15565791658E+02  0.15565792474E+02  0.50400000000E-02 0.  1.
          2   -1    0    0  501    0  0.00000000000E+00 -0.00000000000E+00 -0.11556347878E+03  0.11556347881E+03  0.25500000000E-02 0. -1.
         24    2    1    2    0    0  0.35527136788E-14  0.00000000000E+00 -0.99997687121E+02  0.13112927128E+03  0.84825399245E+02 0.  0.
         66    2    3    3    0    0  0.29874338856E+02 -0.14558961547E+02 -0.90703656773E+02  0.96620871614E+02  0.19999990274E+01 0.  0.
        -13    1    3    3    0    0 -0.29874338856E+02  0.14558961547E+02 -0.92940303482E+01  0.34508399666E+02  0.10566000000E+00 0.  1.
         13    1    4    4    0    0  0.18066779165E+02 -0.85664261350E+01 -0.54880630465E+02  0.58409647580E+02  0.10566000000E+00 0. -1.
        -13    1    4    4    0    0  0.52958863936E+01 -0.33483234571E+01 -0.16525045180E+02  0.17673312222E+02  0.10566000000E+00 0.  1.
        -14    1    4    4    0    0  0.65116732968E+01 -0.26442119546E+01 -0.19297981127E+02  0.20537911811E+02  0.00000000000E+00 0.  1.
<mgrwt>
<rscale>  0 0.84825399E+02</rscale>
<asrwt>0</asrwt>
<pdfrwt beam="1">  1        2 0.17778996E-01 0.84825399E+02</pdfrwt>
<pdfrwt beam="2">  1       -1 0.23947373E-02 0.84825399E+02</pdfrwt>
<totfact> 0.15795890E+05</totfact>
</mgrwt>
</event>
<event>
 8    1  0.2389776E-020  0.8076836E+02  0.7818608E-02  0.1326885E+00
         -1   -1    0    0    0  501 -0.00000000000E+00  0.00000000000E+00  0.29654067363E+02  0.29654067791E+02  0.50400000000E-02 0.  1.
          2   -1    0    0  501    0  0.00000000000E+00 -0.00000000000E+00 -0.54996904533E+02  0.54996904593E+02  0.25500000000E-02 0. -1.
         24    2    1    2    0    0  0.00000000000E+00  0.00000000000E+00 -0.25342837170E+02  0.84650972384E+02  0.80768358468E+02 0.  0.
         66    2    3    3    0    0 -0.10383609822E+02 -0.65442020824E+01 -0.52975158590E+02  0.54415194158E+02  0.19999984607E+01 0.  0.
        -13    1    3    3    0    0  0.10383609822E+02  0.65442020824E+01  0.27632321420E+02  0.30235778225E+02  0.10566000000E+00 0.  1.
         13    1    4    4    0    0 -0.22179405359E+01 -0.76979630457E+00 -0.89806551041E+01  0.92830585857E+01  0.10566000000E+00 0. -1.
        -13    1    4    4    0    0 -0.65652733082E+01 -0.43210422067E+01 -0.36187342393E+02  0.37031191351E+02  0.10566000000E+00 0.  1.
        -14    1    4    4    0    0 -0.16003959779E+01 -0.14533635711E+01 -0.78071610929E+01  0.81009442219E+01  0.00000000000E+00 0.  1.
<mgrwt>
<rscale>  0 0.80768358E+02</rscale>
<asrwt>0</asrwt>
<pdfrwt beam="1">  1        2 0.84610622E-02 0.80768358E+02</pdfrwt>
<pdfrwt beam="2">  1       -1 0.45621643E-02 0.80768358E+02</pdfrwt>
<totfact> 0.14867502E+05</totfact>
</mgrwt>
</event>
<event>
 8    1  0.2389776E-020  0.8086215E+02  0.7818608E-02  0.1326622E+00
          2   -1    0    0  501    0  0.00000000000E+00  0.00000000000E+00  0.72318024434E+03  0.72318024434E+03  0.25500000000E-02 0. -1.
         -1   -1    0    0    0  501 -0.00000000000E+00 -0.00000000000E+00 -0.22603904054E+01  0.22603960242E+01  0.50400000000E-02 0.  1.
         24    2    1    2    0    0  0.71054273576E-14 -0.35527136788E-14  0.72091985393E+03  0.72544064037E+03  0.80862147519E+02 0.  0.
         66    2    3    3    0    0 -0.18788337720E+02  0.27628561311E+02  0.56453386416E+03  0.56552526276E+03  0.20000000356E+01 0.  0.
        -13    1    3    3    0    0  0.18788337720E+02 -0.27628561311E+02  0.15638598977E+03  0.15991537761E+03  0.10566000000E+00 0.  1.
         13    1    4    4    0    0 -0.16471238218E+02  0.24421276344E+02  0.49791844758E+03  0.49878902557E+03  0.10566000000E+00 0. -1.
        -13    1    4    4    0    0 -0.16573733334E+01  0.26545781774E+01  0.49168497493E+02  0.49268103084E+02  0.10566000000E+00 0.  1.
        -14    1    4    4    0    0 -0.65972616840E+00  0.55270679032E+00  0.17446919088E+02  0.17468134104E+02  0.00000000000E+00 0.  1.
<mgrwt>
<rscale>  0 0.80862148E+02</rscale>
<asrwt>0</asrwt>
<pdfrwt beam="1">  1        2 0.11125868E+00 0.80862148E+02</pdfrwt>
<pdfrwt beam="2">  1       -1 0.34775224E-03 0.80862148E+02</pdfrwt>
<totfact> 0.32769005E+05</totfact>
</mgrwt>
</event>
<event>
 8    1  0.2389776E-020  0.7923943E+02  0.7818608E-02  0.1331224E+00
          2   -1    0    0  501    0  0.00000000000E+00  0.00000000000E+00  0.37917421631E+03  0.37917421632E+03  0.25500000000E-02 0. -1.
         -1   -1    0    0    0  501 -0.00000000000E+00 -0.00000000000E+00 -0.41398421906E+01  0.41398452586E+01  0.50400000000E-02 0.  1.
         24    2    1    2    0    0  0.00000000000E+00  0.35527136788E-14  0.37503437412E+03  0.38331406158E+03  0.79239434827E+02 0.  0.
         66    2    3    3    0    0  0.24277696750E+02  0.30456073503E+02  0.15317907743E+03  0.15806583671E+03  0.19999999405E+01 0.  0.
        -13    1    3    3    0    0 -0.24277696750E+02 -0.30456073503E+02  0.22185529668E+03  0.22524822486E+03  0.10566000000E+00 0.  1.
         13    1    4    4    0    0  0.44503833454E+01  0.52886631867E+01  0.28881322876E+02  0.29697101632E+02  0.10566000000E+00 0. -1.
        -13    1    4    4    0    0  0.11252881102E+02  0.15359759973E+02  0.72875065305E+02  0.75321549816E+02  0.10566000000E+00 0.  1.
         14    1    4    4    0    0  0.85744323029E+01  0.98076503432E+01  0.51422689253E+02  0.53047185265E+02  0.00000000000E+00 0. -1.
<mgrwt>
<rscale>  0 0.79239435E+02</rscale>
<asrwt>0</asrwt>
<pdfrwt beam="1">  1        2 0.58334494E-01 0.79239435E+02</pdfrwt>
<pdfrwt beam="2">  1       -1 0.63689905E-03 0.79239435E+02</pdfrwt>
<totfact> 0.28427633E+05</totfact>
</mgrwt>
</event>
<event>
 8    1  0.2389776E-020  0.7876250E+02  0.7818608E-02  0.1332600E+00
          2   -1    0    0  501    0  0.00000000000E+00  0.00000000000E+00  0.10117595582E+04  0.10117595582E+04  0.25500000000E-02 0. -1.
         -1   -1    0    0    0  501 -0.00000000000E+00 -0.00000000000E+00 -0.15328529201E+01  0.15328612058E+01  0.50400000000E-02 0.  1.
         24    2    1    2    0    0  0.17763568394E-14  0.10658141036E-13  0.10102267053E+04  0.10132924195E+04  0.78762498510E+02 0.  0.
         66    2    3    3    0    0 -0.65329477355E+01 -0.22403479180E+02  0.91314054069E+03  0.91344088059E+03  0.20000001896E+01 0.  0.
        -13    1    3    3    0    0  0.65329477355E+01  0.22403479180E+02  0.97086164639E+02  0.99851538865E+02  0.10566000000E+00 0.  1.
         13    1    4    4    0    0 -0.24991663556E+00 -0.96376426309E+00  0.30938933684E+02  0.30955130131E+02  0.10566000000E+00 0.  1.
        -13    1    4    4    0    0 -0.23194364343E+01 -0.72212471786E+01  0.27310624721E+03  0.27321156569E+03  0.10566000000E+00 0. -1.
         14    1    4    4    0    0 -0.39635946656E+01 -0.14218467738E+02  0.60909535979E+03  0.60927418477E+03  0.00000000000E+00 0. -1.
<mgrwt>
<rscale>  0 0.78762499E+02</rscale>
<asrwt>0</asrwt>
<pdfrwt beam="1">  1        2 0.15565556E+00 0.78762499E+02</pdfrwt>
<pdfrwt beam="2">  1       -1 0.23582380E-03 0.78762499E+02</pdfrwt>
<totfact> 0.36701332E+05</totfact>
</mgrwt>
</event>
<event>
 8    1  0.2389776E-020  0.7795650E+02  0.7818608E-02  0.1334953E+00
         -1   -1    0    0    0  501 -0.00000000000E+00  0.00000000000E+00  0.17321718839E+03  0.17321718846E+03  0.50400000000E-02 0.  1.
          2   -1    0    0  501    0  0.00000000000E+00 -0.00000000000E+00 -0.87710911524E+01  0.87710915231E+01  0.25500000000E-02 0. -1.
         24    2    1    2    0    0  0.00000000000E+00  0.00000000000E+00  0.16444609723E+03  0.18198827998E+03  0.77956495276E+02 0.  0.
         66    2    3    3    0    0 -0.20958755049E+02  0.16868270956E+02  0.16516973964E+02  0.31632552943E+02  0.19999996215E+01 0.  0.
        -13    1    3    3    0    0  0.20958755049E+02 -0.16868270956E+02  0.14792912327E+03  0.15035572704E+03  0.10566000000E+00 0.  1.
         13    1    4    4    0    0 -0.11297747690E+02  0.92700277274E+01  0.87454235342E+01  0.17031327422E+02  0.10566000000E+00 0. -1.
        -13    1    4    4    0    0 -0.40554847178E+01  0.33778080594E+01  0.25992926548E+01  0.58842187182E+01  0.10566000000E+00 0.  1.
         14    1    4    4    0    0 -0.56055226414E+01  0.42204351697E+01  0.51722577750E+01  0.87170068025E+01  0.00000000000E+00 0. -1.
<mgrwt>
<rscale>  0 0.77956495E+02</rscale>
<asrwt>0</asrwt>
<pdfrwt beam="1">  1        2 0.13493987E-02 0.77956495E+02</pdfrwt>
<pdfrwt beam="2">  1       -1 0.26648797E-01 0.77956495E+02</pdfrwt>
<totfact> 0.11087552E+05</totfact>
</mgrwt>
</event>
<event>
 8    1  0.2389776E-020  0.8012199E+02  0.7818608E-02  0.1328706E+00
         -1   -1    0    0    0  501 -0.00000000000E+00  0.00000000000E+00  0.30208432849E+01  0.30208474893E+01  0.50400000000E-02 0.  1.
          2   -1    0    0  501    0  0.00000000000E+00 -0.00000000000E+00 -0.53126955409E+03  0.53126955410E+03  0.25500000000E-02 0. -1.
         24    2    1    2    0    0  0.00000000000E+00  0.35527136788E-14 -0.52824871081E+03  0.53429040159E+03  0.80121986739E+02 0.  0.
         66    2    3    3    0    0 -0.32020079802E+01 -0.31666860324E+02 -0.42624223904E+03  0.42743360796E+03  0.19999935529E+01 0.  0.
        -13    1    3    3    0    0  0.32020079802E+01  0.31666860324E+02 -0.10200647177E+03  0.10685679363E+03  0.10566000000E+00 0.  1.
         13    1    4    4    0    0 -0.23880219457E+01 -0.23333840255E+02 -0.32276394484E+03  0.32361512017E+03  0.10566000000E+00 0. -1.
        -13    1    4    4    0    0 -0.86879260294E+00 -0.59941502816E+01 -0.75134655353E+02  0.75378460035E+02  0.10566000000E+00 0. -1.
         14    1    4    4    0    0  0.54806568417E-01 -0.23388697870E+01 -0.28343638846E+02  0.28440027754E+02  0.00000000000E+00 0. -1.
<mgrwt>
<rscale>  0 0.80121987E+02</rscale>
<asrwt>0</asrwt>
<pdfrwt beam="1">  1        2 0.81733703E-01 0.80121987E+02</pdfrwt>
<pdfrwt beam="2">  1       -1 0.46474587E-03 0.80121987E+02</pdfrwt>
<totfact> 0.30911843E+05</totfact>
</mgrwt>
</event>
<event>
 8    1  0.2389776E-020  0.7123013E+02  0.7818608E-02  0.1355959E+00
          2   -1    0    0  501    0  0.00000000000E+00  0.00000000000E+00  0.53778753886E+02  0.53778753946E+02  0.25500000000E-02 0. -1.
         -1   -1    0    0    0  501 -0.00000000000E+00 -0.00000000000E+00 -0.23586132439E+02  0.23586132978E+02  0.50400000000E-02 0.  1.
         24    2    1    2    0    0  0.00000000000E+00  0.00000000000E+00  0.30192621447E+02  0.77364886924E+02  0.71230129432E+02 0.  0.
         66    2    3    3    0    0 -0.35665467710E+01 -0.35348094203E+02  0.17339372876E+02  0.39583606076E+02  0.19999996591E+01 0.  0.
        -13    1    3    3    0    0  0.35665467710E+01  0.35348094203E+02  0.12853248571E+02  0.37781280848E+02  0.10566000000E+00 0.  1.
         13    1    4    4    0    0 -0.33365111095E+01 -0.24145756523E+02  0.11817183541E+02  0.27088869584E+02  0.10566000000E+00 0. -1.
        -13    1    4    4    0    0 -0.15621249156E+00 -0.32151998234E+01  0.15857867632E+01  0.35899576517E+01  0.10566000000E+00 0.  1.
         14    1    4    4    0    0 -0.73823169944E-01 -0.79871378563E+01  0.39364025722E+01  0.89047788410E+01  0.00000000000E+00 0. -1.
<mgrwt>
<rscale>  0 0.71230129E+02</rscale>
<asrwt>0</asrwt>
<pdfrwt beam="1">  1        2 0.82736543E-02 0.71230129E+02</pdfrwt>
<pdfrwt beam="2">  1       -1 0.36286359E-02 0.71230129E+02</pdfrwt>
<totfact> 0.20791822E+05</totfact>
</mgrwt>
</event>
<event>
 8    1  0.2389776E-020  0.7970480E+02  0.7818608E-02  0.1329891E+00
          2   -1    0    0  501    0  0.00000000000E+00  0.00000000000E+00  0.15507636631E+03  0.15507636633E+03  0.25500000000E-02 0. -1.
         -1   -1    0    0    0  501 -0.00000000000E+00 -0.00000000000E+00 -0.10241493157E+02  0.10241494398E+02  0.50400000000E-02 0.  1.
         24    2    1    2    0    0  0.00000000000E+00 -0.17763568394E-14  0.14483487315E+03  0.16531786073E+03  0.79704796561E+02 0.  0.
         66    2    3    3    0    0  0.99777591136E+01  0.11233286201E+02  0.14896603744E+03  0.14973517553E+03  0.20000208892E+01 0.  0.
        -13    1    3    3    0    0 -0.99777591136E+01 -0.11233286201E+02 -0.41311642846E+01  0.15582685205E+02  0.10566000000E+00 0.  1.
         13    1    4    4    0    0  0.41170734725E+01  0.42444068871E+01  0.54909941610E+02  0.55227512486E+02  0.10566000000E+00 0. -1.
        -13    1    4    4    0    0  0.39025575008E+01  0.36079335767E+01  0.55698734627E+02  0.55951830558E+02  0.10566000000E+00 0.  1.
        -14    1    4    4    0    0  0.19581281403E+01  0.33809457375E+01  0.38357361203E+02  0.38555832481E+02  0.00000000000E+00 0.  1.
<mgrwt>
<rscale>  0 0.79704797E+02</rscale>
<asrwt>0</asrwt>
<pdfrwt beam="1">  1        2 0.23857902E-01 0.79704797E+02</pdfrwt>
<pdfrwt beam="2">  1       -1 0.15756144E-02 0.79704797E+02</pdfrwt>
<totfact> 0.20446437E+05</totfact>
</mgrwt>
</event>
<event>
 8    1  0.2389776E-020  0.8719098E+02  0.7818608E-02  0.1309800E+00
         -1   -1    0    0    0  501 -0.00000000000E+00  0.00000000000E+00  0.18684404512E+01  0.18684472487E+01  0.50400000000E-02 0.  1.
          2   -1    0    0  501    0  0.00000000000E+00 -0.00000000000E+00 -0.10171923670E+04  0.10171923670E+04  0.25500000000E-02 0. -1.
         24    2    1    2    0    0  0.17763568394E-14  0.17763568394E-14 -0.10153239266E+04  0.10190608143E+04  0.87190981882E+02 0.  0.
         66    2    3    3    0    0  0.10502529916E+02  0.12936437404E+02 -0.97848031648E+03  0.97862423040E+03  0.20000075897E+01 0.  0.
        -13    1    3    3    0    0 -0.10502529916E+02 -0.12936437404E+02 -0.36843610108E+02  0.40436583896E+02  0.10566000000E+00 0.  1.
         13    1    4    4    0    0  0.69294507765E+01  0.74443527847E+01 -0.59235917976E+03  0.59244649099E+03  0.10566000000E+00 0. -1.
        -13    1    4    4    0    0  0.46413041133E+00  0.11612855029E+01 -0.87820979321E+02  0.87829946909E+02  0.10566000000E+00 0.  1.
         14    1    4    4    0    0  0.31089487278E+01  0.43307991167E+01 -0.29830015739E+03  0.29834779249E+03  0.00000000000E+00 0. -1.
<mgrwt>
<rscale>  0 0.87190982E+02</rscale>
<asrwt>0</asrwt>
<pdfrwt beam="1">  1        2 0.15649069E+00 0.87190982E+02</pdfrwt>
<pdfrwt beam="2">  1       -1 0.28745371E-03 0.87190982E+02</pdfrwt>
<totfact> 0.28165675E+05</totfact>
</mgrwt>
</event>
<event>
 8    1  0.2389776E-020  0.8052008E+02  0.7818608E-02  0.1327582E+00
          2   -1    0    0  501    0  0.00000000000E+00  0.00000000000E+00  0.12368309143E+02  0.12368309406E+02  0.25500000000E-02 0. -1.
         -1   -1    0    0    0  501 -0.00000000000E+00 -0.00000000000E+00 -0.13105030270E+03  0.13105030279E+03  0.50400000000E-02 0.  1.
         24    2    1    2    0    0  0.17763568394E-14  0.00000000000E+00 -0.11868199355E+03  0.14341861220E+03  0.80520076573E+02 0.  0.
         66    2    3    3    0    0  0.14556371999E+02 -0.24816194057E+02 -0.92788081395E+01  0.30295672015E+02  0.20000022660E+01 0.  0.
        -13    1    3    3    0    0 -0.14556371999E+02  0.24816194057E+02 -0.10940318541E+03  0.11312294018E+03  0.10566000000E+00 0.  1.
         13    1    4    4    0    0  0.87972907795E+01 -0.13257304058E+02 -0.49362231078E+01  0.16659108576E+02  0.10566000000E+00 0. -1.
        -13    1    4    4    0    0  0.43455503172E+01 -0.84279762009E+01 -0.34049522343E+01  0.10075686287E+02  0.10566000000E+00 0.  1.
        -14    1    4    4    0    0  0.14135309025E+01 -0.31309137984E+01 -0.93763279741E+00  0.35608771515E+01  0.00000000000E+00 0.  1.
<mgrwt>
<rscale>  0 0.80520077E+02</rscale>
<asrwt>0</asrwt>
<pdfrwt beam="1">  1        2 0.19028169E-02 0.80520077E+02</pdfrwt>
<pdfrwt beam="2">  1       -1 0.20161584E-01 0.80520077E+02</pdfrwt>
<totfact> 0.10971937E+05</totfact>
</mgrwt>
</event>
<event>
 8    1  0.2389776E-020  0.7954036E+02  0.7818608E-02  0.1330361E+00
         -1   -1    0    0    0  501 -0.00000000000E+00  0.00000000000E+00  0.10637983983E+02  0.10637985177E+02  0.50400000000E-02 0.  1.
          2   -1    0    0  501    0  0.00000000000E+00 -0.00000000000E+00 -0.14868110907E+03  0.14868110910E+03  0.25500000000E-02 0. -1.
         24    2    1    2    0    0  0.00000000000E+00  0.22204460493E-15 -0.13804312509E+03  0.15931909427E+03  0.79540363432E+02 0.  0.
         66    2    3    3    0    0 -0.19073197995E+02  0.17871334899E+01 -0.13881659742E+03  0.14014645357E+03  0.20000002932E+01 0.  0.
        -13    1    3    3    0    0  0.19073197995E+02 -0.17871334899E+01  0.77347233262E+00  0.19172640699E+02  0.10566000000E+00 0.  1.
         13    1    4    4    0    0 -0.81067262729E+01  0.76237736217E+00 -0.57107814139E+02  0.57685473300E+02  0.10566000000E+00 0. -1.
        -13    1    4    4    0    0 -0.58652677528E+01  0.12762852898E+01 -0.44858975429E+02  0.45258911946E+02  0.10566000000E+00 0.  1.
        -14    1    4    4    0    0 -0.51012039695E+01 -0.25152916205E+00 -0.36849807856E+02  0.37202068328E+02  0.00000000000E+00 0.  1.
<mgrwt>
<rscale>  0 0.79540363E+02</rscale>
<asrwt>0</asrwt>
<pdfrwt beam="1">  1        2 0.22874015E-01 0.79540363E+02</pdfrwt>
<pdfrwt beam="2">  1       -1 0.16366131E-02 0.79540363E+02</pdfrwt>
<totfact> 0.20280852E+05</totfact>
</mgrwt>
</event>
<event>
 8    1  0.2389776E-020  0.8263962E+02  0.7818608E-02  0.1321723E+00
          2   -1    0    0  501    0  0.00000000000E+00  0.00000000000E+00  0.49470199753E+02  0.49470199819E+02  0.25500000000E-02 0. -1.
         -1   -1    0    0    0  501 -0.00000000000E+00 -0.00000000000E+00 -0.34512227327E+02  0.34512227695E+02  0.50400000000E-02 0.  1.
         24    2    1    2    0    0  0.88817841970E-15 -0.35527136788E-14  0.14957972426E+02  0.83982427515E+02  0.82639622410E+02 0.  0.
         66    2    3    3    0    0  0.55775113495E+01  0.29006420012E+02  0.36811262561E+02  0.47239285454E+02  0.20000010199E+01 0.  0.
        -13    1    3    3    0    0 -0.55775113495E+01 -0.29006420012E+02 -0.21853290134E+02  0.36743142061E+02  0.10566000000E+00 0.  1.
         13    1    4    4    0    0  0.26382069393E+01  0.11041601687E+02  0.15280995442E+02  0.19036730008E+02  0.10566000000E+00 0. -1.
        -13    1    4    4    0    0  0.98351911764E+00  0.47775599024E+01  0.60884034960E+01  0.78020644474E+01  0.10566000000E+00 0. -1.
         14    1    4    4    0    0  0.19557852925E+01  0.13187258423E+02  0.15441863623E+02  0.20400490998E+02  0.00000000000E+00 0. -1.
<mgrwt>
<rscale>  0 0.82639622E+02</rscale>
<asrwt>0</asrwt>
<pdfrwt beam="1">  1        2 0.76108000E-02 0.82639622E+02</pdfrwt>
<pdfrwt beam="2">  1       -1 0.53095735E-02 0.82639622E+02</pdfrwt>
<totfact> 0.13636627E+05</totfact>
</mgrwt>
</event>
<event>
 8    1  0.2389776E-020  0.8399229E+02  0.7818608E-02  0.1318089E+00
         -1   -1    0    0    0  501 -0.00000000000E+00  0.00000000000E+00  0.76181618263E+01  0.76181634935E+01  0.50400000000E-02 0.  1.
          2   -1    0    0  501    0  0.00000000000E+00 -0.00000000000E+00 -0.23150940805E+03  0.23150940806E+03  0.25500000000E-02 0. -1.
         24    2    1    2    0    0 -0.88817841970E-15  0.00000000000E+00 -0.22389124622E+03  0.23912757156E+03  0.83992293357E+02 0.  0.
         66    2    3    3    0    0  0.73374686584E+01 -0.40394793185E+02 -0.13684391784E+03  0.14288399356E+03  0.20000008481E+01 0.  0.
        -13    1    3    3    0    0 -0.73374686584E+01  0.40394793185E+02 -0.87047328386E+02  0.96243577999E+02  0.10566000000E+00 0.  1.
         13    1    4    4    0    0  0.35690061030E+01 -0.20408804406E+02 -0.67636889806E+02  0.70739077803E+02  0.10566000000E+00 0. -1.
        -13    1    4    4    0    0  0.31747469083E+01 -0.14970990344E+02 -0.50481758258E+02  0.52750627017E+02  0.10566000000E+00 0.  1.
        -14    1    4    4    0    0  0.59371564708E+00 -0.50149984356E+01 -0.18725269773E+02  0.19394288738E+02  0.00000000000E+00 0.  1.
<mgrwt>
<rscale>  0 0.83992293E+02</rscale>
<asrwt>0</asrwt>
<pdfrwt beam="1">  1        2 0.35616827E-01 0.83992293E+02</pdfrwt>
<pdfrwt beam="2">  1       -1 0.11720252E-02 0.83992293E+02</pdfrwt>
<totfact> 0.20422428E+05</totfact>
</mgrwt>
</event>
<event>
 8    1  0.2389776E-020  0.8079526E+02  0.7818608E-02  0.1326810E+00
         -1   -1    0    0    0  501 -0.00000000000E+00  0.00000000000E+00  0.32765483185E+01  0.32765521947E+01  0.50400000000E-02 0.  1.
          2   -1    0    0  501    0  0.00000000000E+00 -0.00000000000E+00 -0.49807517815E+03  0.49807517816E+03  0.25500000000E-02 0. -1.
         24    2    1    2    0    0 -0.88817841970E-15  0.00000000000E+00 -0.49479862983E+03  0.50135173035E+03  0.80795256315E+02 0.  0.
         66    2    3    3    0    0 -0.68022361920E+01  0.21428299995E+02 -0.45563532070E+03  0.45619402443E+03  0.19999997776E+01 0.  0.
        -13    1    3    3    0    0  0.68022361920E+01 -0.21428299995E+02 -0.39163309137E+02  0.45157705926E+02  0.10566000000E+00 0.  1.
         13    1    4    4    0    0 -0.11065836816E+01  0.17528663809E+01 -0.38649352359E+02  0.38705047084E+02  0.10566000000E+00 0.  1.
        -13    1    4    4    0    0 -0.47722246383E+01  0.15933271404E+02 -0.33957244600E+03  0.33997955897E+03  0.10566000000E+00 0. -1.
         14    1    4    4    0    0 -0.92342787212E+00  0.37421622106E+01 -0.77413522332E+02  0.77509418375E+02  0.00000000000E+00 0. -1.
<mgrwt>
<rscale>  0 0.80795256E+02</rscale>
<asrwt>0</asrwt>
<pdfrwt beam="1">  1        2 0.76626891E-01 0.80795256E+02</pdfrwt>
<pdfrwt beam="2">  1       -1 0.50408505E-03 0.80795256E+02</pdfrwt>
<totfact> 0.29639447E+05</totfact>
</mgrwt>
</event>
<event>
 8    1  0.2389776E-020  0.8129689E+02  0.7818608E-02  0.1325411E+00
          2   -1    0    0  501    0  0.00000000000E+00  0.00000000000E+00  0.13473924567E+02  0.13473924808E+02  0.25500000000E-02 0. -1.
         -1   -1    0    0    0  501 -0.00000000000E+00 -0.00000000000E+00 -0.12262916864E+03  0.12262916875E+03  0.50400000000E-02 0.  1.
         24    2    1    2    0    0  0.35527136788E-14  0.00000000000E+00 -0.10915524408E+03  0.13610309356E+03  0.81296892720E+02 0.  0.
         66    2    3    3    0    0  0.24117654344E+02 -0.78300768039E+01 -0.14759205612E+01  0.25478416242E+02  0.19999997208E+01 0.  0.
        -13    1    3    3    0    0 -0.24117654344E+02  0.78300768039E+01 -0.10767932352E+03  0.11062467731E+03  0.10566000000E+00 0.  1.
         13    1    4    4    0    0  0.19159357035E+02 -0.65328843100E+01 -0.69130243750E+00  0.20254594602E+02  0.10566000000E+00 0. -1.
        -13    1    4    4    0    0  0.24103327105E+01 -0.39381512288E+00 -0.16365037121E+00  0.24500488986E+01  0.10566000000E+00 0.  1.
         14    1    4    4    0    0  0.25479645988E+01 -0.90337737095E+00 -0.62096775252E+00  0.27737727414E+01  0.00000000000E+00 0. -1.
<mgrwt>
<rscale>  0 0.81296893E+02</rscale>
<asrwt>0</asrwt>
<pdfrwt beam="1">  1        2 0.20729116E-02 0.81296893E+02</pdfrwt>
<pdfrwt beam="2">  1       -1 0.18866025E-01 0.81296893E+02</pdfrwt>
<totfact> 0.10879333E+05</totfact>
</mgrwt>
</event>
<event>
 8    1  0.2389776E-020  0.8060898E+02  0.7818608E-02  0.1327332E+00
         -1   -1    0    0    0  501 -0.00000000000E+00  0.00000000000E+00  0.99283955028E+02  0.99283955156E+02  0.50400000000E-02 0.  1.
          2   -1    0    0  501    0  0.00000000000E+00 -0.00000000000E+00 -0.16361675349E+02  0.16361675548E+02  0.25500000000E-02 0. -1.
         24    2    1    2    0    0  0.00000000000E+00  0.00000000000E+00  0.82922279679E+02  0.11564563070E+03  0.80608978617E+02 0.  0.
         66    2    3    3    0    0  0.20137322499E+02  0.34311101088E+02  0.50524140471E+02  0.64338574625E+02  0.19999997848E+01 0.  0.
        -13    1    3    3    0    0 -0.20137322499E+02 -0.34311101088E+02  0.32398139208E+02  0.51307056079E+02  0.10566000000E+00 0.  1.
         13    1    4    4    0    0  0.10022378800E+02  0.17165943567E+02  0.26265269940E+02  0.32939235941E+02  0.10566000000E+00 0. -1.
        -13    1    4    4    0    0  0.43255080494E+01  0.66396577451E+01  0.90515505130E+01  0.12030661062E+02  0.10566000000E+00 0.  1.
         14    1    4    4    0    0  0.57894356490E+01  0.10505499776E+02  0.15207320019E+02  0.19368677622E+02  0.00000000000E+00 0. -1.
<mgrwt>
<rscale>  0 0.80608979E+02</rscale>
<asrwt>0</asrwt>
<pdfrwt beam="1">  1        2 0.25171809E-02 0.80608979E+02</pdfrwt>
<pdfrwt beam="2">  1       -1 0.15274455E-01 0.80608979E+02</pdfrwt>
<totfact> 0.11649032E+05</totfact>
</mgrwt>
</event>
<event>
 8    1  0.2389776E-020  0.8033101E+02  0.7818608E-02  0.1328115E+00
          2   -1    0    0  501    0  0.00000000000E+00  0.00000000000E+00  0.36853464445E+03  0.36853464446E+03  0.25500000000E-02 0. -1.
         -1   -1    0    0    0  501 -0.00000000000E+00 -0.00000000000E+00 -0.43775182342E+01  0.43775211355E+01  0.50400000000E-02 0.  1.
         24    2    1    2    0    0  0.17763568394E-14  0.71054273576E-14  0.36415712622E+03  0.37291216559E+03  0.80331006931E+02 0.  0.
         66    2    3    3    0    0 -0.14652269670E+02 -0.32803525107E+02  0.26529837991E+03  0.26772745591E+03  0.19999999796E+01 0.  0.
        -13    1    3    3    0    0  0.14652269670E+02  0.32803525107E+02  0.98858746305E+02  0.10518470968E+03  0.10566000000E+00 0.  1.
         13    1    4    4    0    0 -0.40413410774E+01 -0.89749631018E+01  0.73364403682E+02  0.74021816325E+02  0.10566000000E+00 0. -1.
        -13    1    4    4    0    0 -0.17061892172E+01 -0.55173930889E+01  0.43061115150E+02  0.43446789411E+02  0.10566000000E+00 0.  1.
         14    1    4    4    0    0 -0.89047393758E+01 -0.18311168916E+02  0.14887286108E+03  0.15025885018E+03  0.00000000000E+00 0. -1.
<mgrwt>
<rscale>  0 0.80331007E+02</rscale>
<asrwt>0</asrwt>
<pdfrwt beam="1">  1        2 0.56697633E-01 0.80331007E+02</pdfrwt>
<pdfrwt beam="2">  1       -1 0.67346462E-03 0.80331007E+02</pdfrwt>
<totfact> 0.27153811E+05</totfact>
</mgrwt>
</event>
<event>
 8    1  0.2389776E-020  0.7984107E+02  0.7818608E-02  0.1329503E+00
          2   -1    0    0  501    0  0.00000000000E+00  0.00000000000E+00  0.29414386580E+02  0.29414386691E+02  0.25500000000E-02 0. -1.
         -1   -1    0    0    0  501 -0.00000000000E+00 -0.00000000000E+00 -0.54179237498E+02  0.54179237732E+02  0.50400000000E-02 0.  1.
         24    2    1    2    0    0  0.00000000000E+00  0.35527136788E-14 -0.24764850918E+02  0.83593624423E+02  0.79841068399E+02 0.  0.
         66    2    3    3    0    0 -0.25733883071E+02 -0.17988052562E+02  0.13380529020E+02  0.34188321595E+02  0.20000009274E+01 0.  0.
        -13    1    3    3    0    0  0.25733883071E+02  0.17988052562E+02 -0.38145379938E+02  0.49405302828E+02  0.10566000000E+00 0.  1.
         13    1    4    4    0    0 -0.49258439160E+01 -0.35710062527E+01  0.28859903569E+01  0.67346958593E+01  0.10566000000E+00 0. -1.
        -13    1    4    4    0    0 -0.13854222792E+02 -0.92899098838E+01  0.61063595811E+01  0.17763465489E+02  0.10566000000E+00 0.  1.
        -14    1    4    4    0    0 -0.69538163632E+01 -0.51271364259E+01  0.43881790823E+01  0.96901602464E+01  0.00000000000E+00 0.  1.
<mgrwt>
<rscale>  0 0.79841068E+02</rscale>
<asrwt>0</asrwt>
<pdfrwt beam="1">  1        2 0.45252902E-02 0.79841068E+02</pdfrwt>
<pdfrwt beam="2">  1       -1 0.83352674E-02 0.79841068E+02</pdfrwt>
<totfact> 0.13477976E+05</totfact>
</mgrwt>
</event>
<event>
 8    1  0.2389776E-020  0.7990525E+02  0.7818608E-02  0.1329321E+00
         -1   -1    0    0    0  501 -0.00000000000E+00  0.00000000000E+00  0.33725195492E+01  0.33725233152E+01  0.50400000000E-02 0.  1.
          2   -1    0    0  501    0  0.00000000000E+00 -0.00000000000E+00 -0.47329932200E+03  0.47329932200E+03  0.25500000000E-02 0. -1.
         24    2    1    2    0    0  0.17763568394E-14  0.00000000000E+00 -0.46992680245E+03  0.47667184532E+03  0.79905246768E+02 0.  0.
         66    2    3    3    0    0  0.13089298188E+02  0.20646544950E+02 -0.42343352107E+03  0.42414332047E+03  0.19999972732E+01 0.  0.
        -13    1    3    3    0    0 -0.13089298188E+02 -0.20646544950E+02 -0.46493281381E+02  0.52528524851E+02  0.10566000000E+00 0.  1.
         13    1    4    4    0    0  0.75111291560E+01  0.12769439334E+02 -0.26251320532E+03  0.26293092206E+03  0.10566000000E+00 0. -1.
        -13    1    4    4    0    0  0.20760666579E+01  0.25289847306E+01 -0.61019884992E+02  0.61107637371E+02  0.10566000000E+00 0.  1.
         14    1    4    4    0    0  0.35021023744E+01  0.53481208854E+01 -0.99900430755E+02  0.10010476104E+03  0.00000000000E+00 0. -1.
<mgrwt>
<rscale>  0 0.79905247E+02</rscale>
<asrwt>0</asrwt>
<pdfrwt beam="1">  1        2 0.72815228E-01 0.79905247E+02</pdfrwt>
<pdfrwt beam="2">  1       -1 0.51884983E-03 0.79905247E+02</pdfrwt>
<totfact> 0.30008154E+05</totfact>
</mgrwt>
</event>
<event>
 8    1  0.2389776E-020  0.7967534E+02  0.7818608E-02  0.1329975E+00
          2   -1    0    0  501    0  0.00000000000E+00  0.00000000000E+00  0.11500917790E+04  0.11500917790E+04  0.25500000000E-02 0. -1.
         -1   -1    0    0    0  501 -0.00000000000E+00 -0.00000000000E+00 -0.13799200501E+01  0.13799292540E+01  0.50400000000E-02 0.  1.
         24    2    1    2    0    0 -0.44408920985E-15  0.00000000000E+00  0.11487118590E+04  0.11514717083E+04  0.79675341379E+02 0.  0.
         66    2    3    3    0    0  0.27347460465E+01 -0.19725260009E+02  0.10729395236E+04  0.10731261744E+04  0.20000006768E+01 0.  0.
        -13    1    3    3    0    0 -0.27347460465E+01  0.19725260009E+02  0.75772335334E+02  0.78345533914E+02  0.10566000000E+00 0.  1.
         13    1    4    4    0    0  0.21087403996E+00 -0.16168276552E+01  0.10282239693E+03  0.10283537851E+03  0.10566000000E+00 0.  1.
        -13    1    4    4    0    0  0.85985078588E+00 -0.71833792022E+01  0.42625762653E+03  0.42631903033E+03  0.10566000000E+00 0. -1.
        -14    1    4    4    0    0  0.16640212207E+01 -0.10925053152E+02  0.54385950018E+03  0.54397176552E+03  0.00000000000E+00 0.  1.
<mgrwt>
<rscale>  0 0.79675341E+02</rscale>
<asrwt>0</asrwt>
<pdfrwt beam="1">  1        2 0.17693678E+00 0.79675341E+02</pdfrwt>
<pdfrwt beam="2">  1       -1 0.21229660E-03 0.79675341E+02</pdfrwt>
<totfact> 0.35545597E+05</totfact>
</mgrwt>
</event>
<event>
 8    1  0.2389776E-020  0.8189853E+02  0.7818608E-02  0.1323748E+00
          2   -1    0    0  501    0  0.00000000000E+00  0.00000000000E+00  0.55904982664E+03  0.55904982665E+03  0.25500000000E-02 0. -1.
         -1   -1    0    0    0  501 -0.00000000000E+00 -0.00000000000E+00 -0.29994487309E+01  0.29994529652E+01  0.50400000000E-02 0.  1.
         24    2    1    2    0    0  0.00000000000E+00  0.00000000000E+00  0.55605037791E+03  0.56204927961E+03  0.81898534409E+02 0.  0.
         66    2    3    3    0    0 -0.22500139180E+02 -0.82927101007E+01  0.50578281094E+03  0.50635489249E+03  0.20000002422E+01 0.  0.
        -13    1    3    3    0    0  0.22500139180E+02  0.82927101007E+01  0.50267566973E+02  0.55694387126E+02  0.10566000000E+00 0.  1.
         13    1    4    4    0    0 -0.87519672367E+01 -0.30689207647E+01  0.21081012662E+03  0.21101406553E+03  0.10566000000E+00 0. -1.
        -13    1    4    4    0    0 -0.57652970792E+01 -0.25951983958E+01  0.12033911009E+03  0.12050512971E+03  0.10566000000E+00 0.  1.
         14    1    4    4    0    0 -0.79828748643E+01 -0.26285909402E+01  0.17463357423E+03  0.17483569724E+03  0.00000000000E+00 0. -1.
<mgrwt>
<rscale>  0 0.81898534E+02</rscale>
<asrwt>0</asrwt>
<pdfrwt beam="1">  1        2 0.86007528E-01 0.81898534E+02</pdfrwt>
<pdfrwt beam="2">  1       -1 0.46145471E-03 0.81898534E+02</pdfrwt>
<totfact> 0.29647083E+05</totfact>
</mgrwt>
</event>
<event>
 8    1  0.2389776E-020  0.7819230E+02  0.7818608E-02  0.1334261E+00
         -1   -1    0    0    0  501 -0.00000000000E+00  0.00000000000E+00  0.82557642926E+02  0.82557643080E+02  0.50400000000E-02 0.  1.
          2   -1    0    0  501    0  0.00000000000E+00 -0.00000000000E+00 -0.18514446058E+02  0.18514446234E+02  0.25500000000E-02 0. -1.
         24    2    1    2    0    0  0.00000000000E+00  0.00000000000E+00  0.64043196868E+02  0.10107208931E+03  0.78192302518E+02 0.  0.
         66    2    3    3    0    0  0.38246759725E+02  0.79794890693E+01  0.31872792304E+02  0.50461487962E+02  0.20000007081E+01 0.  0.
        -13    1    3    3    0    0 -0.38246759725E+02 -0.79794890693E+01  0.32170404564E+02  0.50610601351E+02  0.10566000000E+00 0.  1.
         13    1    4    4    0    0  0.87174376386E+01  0.21510869791E+01  0.68365932108E+01  0.11285879006E+02  0.10566000000E+00 0.  1.
        -13    1    4    4    0    0  0.16745183745E+02  0.26241143214E+01  0.13849857454E+02  0.21888738432E+02  0.10566000000E+00 0. -1.
         14    1    4    4    0    0  0.12784138342E+02  0.32042877689E+01  0.11186341639E+02  0.17286870524E+02  0.00000000000E+00 0. -1.
<mgrwt>
<rscale>  0 0.78192303E+02</rscale>
<asrwt>0</asrwt>
<pdfrwt beam="1">  1        2 0.28483764E-02 0.78192303E+02</pdfrwt>
<pdfrwt beam="2">  1       -1 0.12701176E-01 0.78192303E+02</pdfrwt>
<totfact> 0.13053699E+05</totfact>
</mgrwt>
</event>
<event>
 8    1  0.2389776E-020  0.7970530E+02  0.7818608E-02  0.1329890E+00
          2   -1    0    0  501    0  0.00000000000E+00  0.00000000000E+00  0.67384267758E+01  0.67384272583E+01  0.25500000000E-02 0. -1.
         -1   -1    0    0    0  501 -0.00000000000E+00 -0.00000000000E+00 -0.23569796570E+03  0.23569796575E+03  0.50400000000E-02 0.  1.
         24    2    1    2    0    0  0.00000000000E+00 -0.17763568394E-14 -0.22895953892E+03  0.24243639301E+03  0.79705295886E+02 0.  0.
         66    2    3    3    0    0 -0.31414080396E+02 -0.14539605790E+02 -0.54639134124E+02  0.64712283006E+02  0.20000025996E+01 0.  0.
        -13    1    3    3    0    0  0.31414080396E+02  0.14539605790E+02 -0.17432040480E+03  0.17772411000E+03  0.10566000000E+00 0.  1.
         13    1    4    4    0    0 -0.21098841232E+02 -0.98582678416E+01 -0.37759774150E+02  0.44363929651E+02  0.10566000000E+00 0. -1.
        -13    1    4    4    0    0 -0.81573134470E+01 -0.36964912367E+01 -0.12657820571E+02  0.15506043847E+02  0.10566000000E+00 0.  1.
         14    1    4    4    0    0 -0.21579257169E+01 -0.98484671160E+00 -0.42215394030E+01  0.48423095085E+01  0.00000000000E+00 0. -1.
<mgrwt>
<rscale>  0 0.79705296E+02</rscale>
<asrwt>0</asrwt>
<pdfrwt beam="1">  1        2 0.10366813E-02 0.79705296E+02</pdfrwt>
<pdfrwt beam="2">  1       -1 0.36261219E-01 0.79705296E+02</pdfrwt>
<totfact> 0.95404304E+04</totfact>
</mgrwt>
</event>
<event>
 8    1  0.2389776E-020  0.8009927E+02  0.7818608E-02  0.1328770E+00
         -1   -1    0    0    0  501 -0.00000000000E+00  0.00000000000E+00  0.13678910301E+02  0.13678911230E+02  0.50400000000E-02 0.  1.
          2   -1    0    0  501    0  0.00000000000E+00 -0.00000000000E+00 -0.11725885117E+03  0.11725885120E+03  0.25500000000E-02 0. -1.
         24    2    1    2    0    0  0.35527136788E-14  0.00000000000E+00 -0.10357994087E+03  0.13093776243E+03  0.80099272650E+02 0.  0.
         66    2    3    3    0    0 -0.17268374150E+02  0.60646870286E+01 -0.11000879118E+03  0.11153883321E+03  0.20000001513E+01 0.  0.
        -13    1    3    3    0    0  0.17268374150E+02 -0.60646870286E+01  0.64288503149E+01  0.19398929222E+02  0.10566000000E+00 0.  1.
         13    1    4    4    0    0 -0.13165476174E+02  0.47784932031E+01 -0.80779131058E+02  0.81984406680E+02  0.10566000000E+00 0. -1.
        -13    1    4    4    0    0 -0.17295607964E+01  0.15958536877E+00 -0.12093054914E+02  0.12217609800E+02  0.10566000000E+00 0.  1.
        -14    1    4    4    0    0 -0.23733371799E+01  0.11266084567E+01 -0.17136605213E+02  0.17336816727E+02  0.00000000000E+00 0.  1.
<mgrwt>
<rscale>  0 0.80099273E+02</rscale>
<asrwt>0</asrwt>
<pdfrwt beam="1">  1        2 0.18039823E-01 0.80099273E+02</pdfrwt>
<pdfrwt beam="2">  1       -1 0.21044479E-02 0.80099273E+02</pdfrwt>
<totfact> 0.18497054E+05</totfact>
</mgrwt>
</event>
<event>
 8    1  0.2389776E-020  0.7969943E+02  0.7818608E-02  0.1329907E+00
          2   -1    0    0  501    0  0.00000000000E+00  0.00000000000E+00  0.14040831427E+03  0.14040831429E+03  0.25500000000E-02 0. -1.
         -1   -1    0    0    0  501 -0.00000000000E+00 -0.00000000000E+00 -0.11309869811E+02  0.11309870934E+02  0.50400000000E-02 0.  1.
         24    2    1    2    0    0 -0.35527136788E-14  0.00000000000E+00  0.12909844446E+03  0.15171818523E+03  0.79699431407E+02 0.  0.
         66    2    3    3    0    0  0.19241286361E+02 -0.18470030855E+02  0.12088783181E+03  0.12381129603E+03  0.20000012319E+01 0.  0.
        -13    1    3    3    0    0 -0.19241286361E+02  0.18470030855E+02  0.82106126547E+01  0.27906889199E+02  0.10566000000E+00 0.  1.
         13    1    4    4    0    0  0.25653801027E+01 -0.28683996159E+01  0.19286923001E+02  0.19667370294E+02  0.10566000000E+00 0. -1.
        -13    1    4    4    0    0  0.10631977530E+01 -0.10565486843E+01  0.82058931448E+01  0.83423336618E+01  0.10566000000E+00 0.  1.
         14    1    4    4    0    0  0.15612708505E+02 -0.14545082554E+02  0.93395015660E+02  0.95801592072E+02  0.00000000000E+00 0. -1.
<mgrwt>
<rscale>  0 0.79699431E+02</rscale>
<asrwt>0</asrwt>
<pdfrwt beam="1">  1        2 0.21601280E-01 0.79699431E+02</pdfrwt>
<pdfrwt beam="2">  1       -1 0.17399800E-02 0.79699431E+02</pdfrwt>
<totfact> 0.19809261E+05</totfact>
</mgrwt>
</event>
<event>
 8    1  0.2389776E-020  0.8135962E+02  0.7818608E-02  0.1325237E+00
          2   -1    0    0  501    0  0.00000000000E+00  0.00000000000E+00  0.54672936797E+03  0.54672936798E+03  0.25500000000E-02 0. -1.
         -1   -1    0    0    0  501 -0.00000000000E+00 -0.00000000000E+00 -0.30268098799E+01  0.30268140760E+01  0.50400000000E-02 0.  1.
         24    2    1    2    0    0  0.00000000000E+00  0.88817841970E-15  0.54370255809E+03  0.54975618205E+03  0.81359621623E+02 0.  0.
         66    2    3    3    0    0  0.30278412258E+02 -0.70405718998E+01  0.44905792825E+03  0.45013706229E+03  0.20000041461E+01 0.  0.
        -13    1    3    3    0    0 -0.30278412258E+02  0.70405718998E+01  0.94644629836E+02  0.99619119764E+02  0.10566000000E+00 0.  1.
         13    1    4    4    0    0  0.33328203632E+00 -0.19577680102E+00  0.55970555366E+01  0.56113813083E+01  0.10566000000E+00 0.  1.
        -13    1    4    4    0    0  0.16130879155E+02 -0.43158091491E+01  0.24564148140E+03  0.24620840769E+03  0.10566000000E+00 0. -1.
         14    1    4    4    0    0  0.13814251067E+02 -0.25289859497E+01  0.19781939132E+03  0.19831727329E+03  0.00000000000E+00 0. -1.
<mgrwt>
<rscale>  0 0.81359622E+02</rscale>
<asrwt>0</asrwt>
<pdfrwt beam="1">  1        2 0.84112202E-01 0.81359622E+02</pdfrwt>
<pdfrwt beam="2">  1       -1 0.46566343E-03 0.81359622E+02</pdfrwt>
<totfact> 0.29961512E+05</totfact>
</mgrwt>
</event>
<event>
 8    1  0.2389776E-020  0.7607827E+02  0.7818608E-02  0.1340564E+00
          2   -1    0    0  501    0  0.00000000000E+00  0.00000000000E+00  0.19003379881E+03  0.19003379882E+03  0.25500000000E-02 0. -1.
         -1   -1    0    0    0  501 -0.00000000000E+00 -0.00000000000E+00 -0.76143072992E+01  0.76143089672E+01  0.50400000000E-02 0.  1.
         24    2    1    2    0    0  0.00000000000E+00  0.17763568394E-14  0.18241949151E+03  0.19764810779E+03  0.76078273058E+02 0.  0.
         66    2    3    3    0    0 -0.29061457966E+02 -0.15017327709E+02  0.14157395254E+03  0.14531783273E+03  0.20000000414E+01 0.  0.
        -13    1    3    3    0    0  0.29061457966E+02  0.15017327709E+02  0.40845538967E+02  0.52330275063E+02  0.10566000000E+00 0.  1.
         13    1    4    4    0    0 -0.23371234115E+02 -0.11687037514E+02  0.11301580877E+03  0.11599735181E+03  0.10566000000E+00 0. -1.
        -13    1    4    4    0    0 -0.45950843023E+01 -0.24759075674E+01  0.21286936331E+02  0.21917795063E+02  0.10566000000E+00 0.  1.
        -14    1    4    4    0    0 -0.10951395490E+01 -0.85438262783E+00  0.72712074391E+01  0.74026858592E+01  0.00000000000E+00 0.  1.
<mgrwt>
<rscale>  0 0.76078273E+02</rscale>
<asrwt>0</asrwt>
<pdfrwt beam="1">  1        2 0.29235969E-01 0.76078273E+02</pdfrwt>
<pdfrwt beam="2">  1       -1 0.11714320E-02 0.76078273E+02</pdfrwt>
<totfact> 0.24740513E+05</totfact>
</mgrwt>
</event>
<event>
 8    1  0.2389776E-020  0.7997073E+02  0.7818608E-02  0.1329135E+00
          2   -1    0    0  501    0  0.00000000000E+00  0.00000000000E+00  0.73815586030E+03  0.73815586031E+03  0.25500000000E-02 0. -1.
         -1   -1    0    0    0  501 -0.00000000000E+00 -0.00000000000E+00 -0.21659751689E+01  0.21659810326E+01  0.50400000000E-02 0.  1.
         24    2    1    2    0    0 -0.71054273576E-14 -0.35527136788E-14  0.73598988513E+03  0.74032184134E+03  0.79970730554E+02 0.  0.
         66    2    3    3    0    0 -0.28832543297E+02 -0.17096692604E+02  0.56960495157E+03  0.57059391279E+03  0.20000002769E+01 0.  0.
        -13    1    3    3    0    0  0.28832543297E+02  0.17096692604E+02  0.16638493356E+03  0.16972792855E+03  0.10566000000E+00 0.  1.
         13    1    4    4    0    0 -0.13672226628E+02 -0.78122300193E+01  0.25372863026E+03  0.25421681631E+03  0.10566000000E+00 0. -1.
        -13    1    4    4    0    0 -0.38036118072E+01 -0.21076852547E+01  0.81811939351E+02  0.81927494679E+02  0.10566000000E+00 0.  1.
         14    1    4    4    0    0 -0.11356704862E+02 -0.71767773304E+01  0.23406438197E+03  0.23444960180E+03  0.00000000000E+00 0. -1.
<mgrwt>
<rscale>  0 0.79970731E+02</rscale>
<asrwt>0</asrwt>
<pdfrwt beam="1">  1        2 0.11356263E+00 0.79970731E+02</pdfrwt>
<pdfrwt beam="2">  1       -1 0.33322684E-03 0.79970731E+02</pdfrwt>
<totfact> 0.33874422E+05</totfact>
</mgrwt>
</event>
<event>
 8    1  0.2389776E-020  0.7964814E+02  0.7818608E-02  0.1330053E+00
          2   -1    0    0  501    0  0.00000000000E+00  0.00000000000E+00  0.16382497097E+04  0.16382497097E+04  0.25500000000E-02 0. -1.
         -1   -1    0    0    0  501 -0.00000000000E+00 -0.00000000000E+00 -0.96807338062E+00  0.96808650020E+00  0.50400000000E-02 0.  1.
         24    2    1    2    0    0  0.35527136788E-14 -0.88817841970E-15  0.16372816363E+04  0.16392177962E+04  0.79648143463E+02 0.  0.
         66    2    3    3    0    0 -0.19291950197E+02  0.57103403468E+01  0.15258768631E+04  0.15260108088E+04  0.19999999375E+01 0.  0.
        -13    1    3    3    0    0  0.19291950197E+02 -0.57103403468E+01  0.11140477322E+03  0.11320698737E+03  0.10566000000E+00 0.  1.
         13    1    4    4    0    0 -0.35660837664E+01  0.11979605633E+01  0.33245865922E+03  0.33247995927E+03  0.10566000000E+00 0. -1.
        -13    1    4    4    0    0 -0.12033677656E+02  0.29786906132E+01  0.91068301097E+03  0.91076739052E+03  0.10566000000E+00 0.  1.
        -14    1    4    4    0    0 -0.36921887749E+01  0.15336891703E+01  0.28273519287E+03  0.28276345901E+03  0.00000000000E+00 0.  1.
<mgrwt>
<rscale>  0 0.79648143E+02</rscale>
<asrwt>0</asrwt>
<pdfrwt beam="1">  1        2 0.25203843E+00 0.79648143E+02</pdfrwt>
<pdfrwt beam="2">  1       -1 0.14893537E-03 0.79648143E+02</pdfrwt>
<totfact> 0.32344387E+05</totfact>
</mgrwt>
</event>
<event>
 8    1  0.2389776E-020  0.8679448E+02  0.7818608E-02  0.1310805E+00
         -1   -1    0    0    0  501 -0.00000000000E+00  0.00000000000E+00  0.11219439072E+01  0.11219552275E+01  0.50400000000E-02 0.  1.
          2   -1    0    0  501    0  0.00000000000E+00 -0.00000000000E+00 -0.16786142911E+04  0.16786142911E+04  0.25500000000E-02 0. -1.
         24    2    1    2    0    0  0.00000000000E+00  0.00000000000E+00 -0.16774923472E+04  0.16797362463E+04  0.86794483365E+02 0.  0.
         66    2    3    3    0    0 -0.24617883936E+02  0.31815784068E+01 -0.15275579724E+04  0.15277609504E+04  0.20000030850E+01 0.  0.
        -13    1    3    3    0    0  0.24617883936E+02 -0.31815784068E+01 -0.14993437483E+03  0.15197529592E+03  0.10566000000E+00 0.  1.
         13    1    4    4    0    0 -0.76414971604E+01  0.17087216428E+01 -0.51331477588E+03  0.51337450512E+03  0.10566000000E+00 0. -1.
        -13    1    4    4    0    0 -0.50046922434E+01  0.33537260635E+00 -0.30908349561E+03  0.30912421103E+03  0.10566000000E+00 0.  1.
         14    1    4    4    0    0 -0.11971694533E+02  0.11374841577E+01 -0.70515970087E+03  0.70526223426E+03  0.00000000000E+00 0. -1.
<mgrwt>
<rscale>  0 0.86794483E+02</rscale>
<asrwt>0</asrwt>
<pdfrwt beam="1">  1        2 0.25824634E+00 0.86794483E+02</pdfrwt>
<pdfrwt beam="2">  1       -1 0.17260897E-03 0.86794483E+02</pdfrwt>
<totfact> 0.25505882E+05</totfact>
</mgrwt>
</event>
<event>
 8    1  0.2389776E-020  0.7820039E+02  0.7818608E-02  0.1334237E+00
          2   -1    0    0  501    0  0.00000000000E+00  0.00000000000E+00  0.35539641219E+03  0.35539641220E+03  0.25500000000E-02 0. -1.
         -1   -1    0    0    0  501 -0.00000000000E+00 -0.00000000000E+00 -0.43017453888E+01  0.43017483412E+01  0.50400000000E-02 0.  1.
         24    2    1    2    0    0  0.26645352591E-14 -0.35527136788E-14  0.35109466680E+03  0.35969816054E+03  0.78200394115E+02 0.  0.
         66    2    3    3    0    0 -0.67134164360E+01  0.74316801173E+01  0.34938923236E+03  0.34953846073E+03  0.20000015794E+01 0.  0.
        -13    1    3    3    0    0  0.67134164360E+01 -0.74316801173E+01  0.17054344360E+01  0.10159699812E+02  0.10566000000E+00 0.  1.
         13    1    4    4    0    0 -0.67613475554E-01  0.42098195270E-01  0.73054115535E+01  0.73066097365E+01  0.10566000000E+00 0. -1.
        -13    1    4    4    0    0 -0.80332832686E+00  0.27949910787E+00  0.26255377674E+02  0.26269363848E+02  0.10566000000E+00 0.  1.
         14    1    4    4    0    0 -0.58424746336E+01  0.71100828142E+01  0.31582844314E+03  0.31596248714E+03  0.00000000000E+00 0. -1.
<mgrwt>
<rscale>  0 0.78200394E+02</rscale>
<asrwt>0</asrwt>
<pdfrwt beam="1">  1        2 0.54676357E-01 0.78200394E+02</pdfrwt>
<pdfrwt beam="2">  1       -1 0.66180738E-03 0.78200394E+02</pdfrwt>
<totfact> 0.28756875E+05</totfact>
</mgrwt>
</event>
<event>
 8    1  0.2389776E-020  0.7988379E+02  0.7818608E-02  0.1329382E+00
          2   -1    0    0  501    0  0.00000000000E+00  0.00000000000E+00  0.24862119009E+02  0.24862119140E+02  0.25500000000E-02 0. -1.
         -1   -1    0    0    0  501 -0.00000000000E+00 -0.00000000000E+00 -0.64168105994E+02  0.64168106192E+02  0.50400000000E-02 0.  1.
         24    2    1    2    0    0  0.00000000000E+00  0.00000000000E+00 -0.39305986985E+02  0.89030225332E+02  0.79883793161E+02 0.  0.
         66    2    3    3    0    0  0.10183068895E+02  0.37494558878E+02 -0.94621039512E+01  0.40038334614E+02  0.19999974806E+01 0.  0.
        -13    1    3    3    0    0 -0.10183068895E+02 -0.37494558878E+02 -0.29843883034E+02  0.48991890718E+02  0.10566000000E+00 0.  1.
         13    1    4    4    0    0  0.80105146691E+01  0.31541694224E+02 -0.75569981359E+01  0.33409073688E+02  0.10566000000E+00 0. -1.
        -13    1    4    4    0    0  0.11797449117E+01  0.28330099730E+01 -0.10529088877E+01  0.32461553760E+01  0.10566000000E+00 0.  1.
         14    1    4    4    0    0  0.99280931450E+00  0.31198546802E+01 -0.85219692753E+00  0.33831055502E+01  0.00000000000E+00 0. -1.
<mgrwt>
<rscale>  0 0.79883793E+02</rscale>
<asrwt>0</asrwt>
<pdfrwt beam="1">  1        2 0.38249414E-02 0.79883793E+02</pdfrwt>
<pdfrwt beam="2">  1       -1 0.98720163E-02 0.79883793E+02</pdfrwt>
<totfact> 0.13019713E+05</totfact>
</mgrwt>
</event>
<event>
 8    1  0.2389776E-020  0.8196336E+02  0.7818608E-02  0.1323570E+00
         -1   -1    0    0    0  501 -0.00000000000E+00  0.00000000000E+00  0.21067139414E+01  0.21067199701E+01  0.50400000000E-02 0.  1.
          2   -1    0    0  501    0  0.00000000000E+00 -0.00000000000E+00 -0.79721107608E+03  0.79721107609E+03  0.25500000000E-02 0. -1.
         24    2    1    2    0    0  0.00000000000E+00 -0.35527136788E-14 -0.79510436214E+03  0.79931779606E+03  0.81963360089E+02 0.  0.
         66    2    3    3    0    0 -0.95699590759E+01  0.31205675566E+02 -0.63906536564E+03  0.63990149232E+03  0.20000018964E+01 0.  0.
        -13    1    3    3    0    0  0.95699590759E+01 -0.31205675566E+02 -0.15603899651E+03  0.15941630374E+03  0.10566000000E+00 0.  1.
         13    1    4    4    0    0 -0.24816857534E+01  0.81012856821E+01 -0.15436329863E+03  0.15459569439E+03  0.10566000000E+00 0. -1.
        -13    1    4    4    0    0 -0.23480181688E+01  0.97176146173E+01 -0.20191847648E+03  0.20216584166E+03  0.10566000000E+00 0.  1.
         14    1    4    4    0    0 -0.47402551536E+01  0.13386775266E+02 -0.28278359052E+03  0.28313995627E+03  0.00000000000E+00 0. -1.
<mgrwt>
<rscale>  0 0.81963360E+02</rscale>
<asrwt>0</asrwt>
<pdfrwt beam="1">  1        2 0.12264762E+00 0.81963360E+02</pdfrwt>
<pdfrwt beam="2">  1       -1 0.32411094E-03 0.81963360E+02</pdfrwt>
<totfact> 0.32245889E+05</totfact>
</mgrwt>
</event>
<event>
 8    1  0.2389776E-020  0.8209378E+02  0.7818608E-02  0.1323212E+00
          2   -1    0    0  501    0  0.00000000000E+00  0.00000000000E+00  0.80876218252E+02  0.80876218292E+02  0.25500000000E-02 0. -1.
         -1   -1    0    0    0  501 -0.00000000000E+00 -0.00000000000E+00 -0.20832416311E+02  0.20832416921E+02  0.50400000000E-02 0.  1.
         24    2    1    2    0    0  0.44408920985E-15 -0.71054273576E-14  0.60043801940E+02  0.10170863521E+03  0.82093777628E+02 0.  0.
         66    2    3    3    0    0  0.35430464754E+01 -0.39584400011E+02  0.42635669414E+02  0.58320478480E+02  0.20000002756E+01 0.  0.
        -13    1    3    3    0    0 -0.35430464754E+01  0.39584400011E+02  0.17408132526E+02  0.43388156733E+02  0.10566000000E+00 0.  1.
         13    1    4    4    0    0  0.17362405332E+01 -0.18585774842E+02  0.19846075197E+02  0.27245612902E+02  0.10566000000E+00 0. -1.
        -13    1    4    4    0    0  0.15045551469E+01 -0.93628074276E+01  0.10451052759E+02  0.14112459634E+02  0.10566000000E+00 0.  1.
        -14    1    4    4    0    0  0.30225079530E+00 -0.11635817742E+02  0.12338541459E+02  0.16962405943E+02  0.00000000000E+00 0.  1.
<mgrwt>
<rscale>  0 0.82093778E+02</rscale>
<asrwt>0</asrwt>
<pdfrwt beam="1">  1        2 0.12442495E-01 0.82093778E+02</pdfrwt>
<pdfrwt beam="2">  1       -1 0.32049871E-02 0.82093778E+02</pdfrwt>
<totfact> 0.15614690E+05</totfact>
</mgrwt>
</event>
<event>
 8    1  0.2389776E-020  0.8166867E+02  0.7818608E-02  0.1324382E+00
          2   -1    0    0  501    0  0.00000000000E+00  0.00000000000E+00  0.36703907717E+02  0.36703907806E+02  0.25500000000E-02 0. -1.
         -1   -1    0    0    0  501 -0.00000000000E+00 -0.00000000000E+00 -0.45429575683E+02  0.45429575963E+02  0.50400000000E-02 0.  1.
         24    2    1    2    0    0 -0.71054273576E-14  0.35527136788E-14 -0.87256679657E+01  0.82133483768E+02  0.81668671316E+02 0.  0.
         66    2    3    3    0    0  0.27566598572E+02 -0.30037117787E+02 -0.61902086934E+01  0.41285160430E+02  0.19999965822E+01 0.  0.
        -13    1    3    3    0    0 -0.27566598572E+02  0.30037117787E+02 -0.25354592723E+01  0.40848323338E+02  0.10566000000E+00 0.  1.
         13    1    4    4    0    0  0.10228855236E+02 -0.10249311180E+02 -0.15808243156E+01  0.14566675278E+02  0.10566000000E+00 0. -1.
        -13    1    4    4    0    0  0.41727232082E+01 -0.50148018640E+01 -0.91022900348E+00  0.65878325405E+01  0.10566000000E+00 0.  1.
         14    1    4    4    0    0  0.13165020128E+02 -0.14773004743E+02 -0.36991553743E+01  0.20130652612E+02  0.00000000000E+00 0. -1.
<mgrwt>
<rscale>  0 0.81668671E+02</rscale>
<asrwt>0</asrwt>
<pdfrwt beam="1">  1        2 0.56467550E-02 0.81668671E+02</pdfrwt>
<pdfrwt beam="2">  1       -1 0.69891655E-02 0.81668671E+02</pdfrwt>
<totfact> 0.13226271E+05</totfact>
</mgrwt>
</event>
<event>
 8    1  0.2389776E-020  0.7771812E+02  0.7818608E-02  0.1335655E+00
         -1   -1    0    0    0  501 -0.00000000000E+00  0.00000000000E+00  0.65379893094E+02  0.65379893288E+02  0.50400000000E-02 0.  1.
          2   -1    0    0  501    0  0.00000000000E+00 -0.00000000000E+00 -0.23096192355E+02  0.23096192495E+02  0.25500000000E-02 0. -1.
         24    2    1    2    0    0  0.00000000000E+00  0.35527136788E-14  0.42283700739E+02  0.88476085784E+02  0.77718121486E+02 0.  0.
         66    2    3    3    0    0  0.26711170937E+02 -0.25663988701E+02  0.34426849969E+02  0.50609633126E+02  0.19999993803E+01 0.  0.
        -13    1    3    3    0    0 -0.26711170937E+02  0.25663988701E+02  0.78568507706E+01  0.37866452658E+02  0.10566000000E+00 0.  1.
         13    1    4    4    0    0  0.59633951986E+01 -0.61422899899E+01  0.86833380884E+01  0.12194315602E+02  0.10566000000E+00 0. -1.
        -13    1    4    4    0    0  0.17737137028E+02 -0.16706282432E+02  0.21435967316E+02  0.32453316648E+02  0.10566000000E+00 0.  1.
        -14    1    4    4    0    0  0.30106387098E+01 -0.28154162786E+01  0.43075445648E+01  0.59620008756E+01  0.00000000000E+00 0.  1.
<mgrwt>
<rscale>  0 0.77718121E+02</rscale>
<asrwt>0</asrwt>
<pdfrwt beam="1">  1        2 0.35532604E-02 0.77718121E+02</pdfrwt>
<pdfrwt beam="2">  1       -1 0.10058445E-01 0.77718121E+02</pdfrwt>
<totfact> 0.13872150E+05</totfact>
</mgrwt>
</event>
<event>
 8    1  0.2389776E-020  0.7993257E+02  0.7818608E-02  0.1329243E+00
          2   -1    0    0  501    0  0.00000000000E+00  0.00000000000E+00  0.58678203664E+03  0.58678203665E+03  0.25500000000E-02 0. -1.
         -1   -1    0    0    0  501 -0.00000000000E+00 -0.00000000000E+00 -0.27221395749E+01  0.27221442406E+01  0.50400000000E-02 0.  1.
         24    2    1    2    0    0  0.35527136788E-14 -0.44408920985E-15  0.58405989707E+03  0.58950418089E+03  0.79932571099E+02 0.  0.
         66    2    3    3    0    0  0.20560983067E+02 -0.30531294455E+01  0.54374509173E+03  0.54414593668E+03  0.20000005882E+01 0.  0.
        -13    1    3    3    0    0 -0.20560983067E+02  0.30531294455E+01  0.40314805334E+02  0.45358244203E+02  0.10566000000E+00 0.  1.
         13    1    4    4    0    0  0.55328967860E+01 -0.12466076497E+01  0.15515588167E+03  0.15525954321E+03  0.10566000000E+00 0. -1.
        -13    1    4    4    0    0  0.36241014674E+01 -0.23154887070E+00  0.10810051932E+03  0.10816155124E+03  0.10566000000E+00 0.  1.
         14    1    4    4    0    0  0.11403984813E+02 -0.15749729252E+01  0.28048869074E+03  0.28072484223E+03  0.00000000000E+00 0. -1.
<mgrwt>
<rscale>  0 0.79932571E+02</rscale>
<asrwt>0</asrwt>
<pdfrwt beam="1">  1        2 0.90274115E-01 0.79932571E+02</pdfrwt>
<pdfrwt beam="2">  1       -1 0.41879127E-03 0.79932571E+02</pdfrwt>
<totfact> 0.32032798E+05</totfact>
</mgrwt>
</event>
<event>
 8    1  0.2389776E-020  0.7956074E+02  0.7818608E-02  0.1330303E+00
          2   -1    0    0  501    0  0.00000000000E+00  0.00000000000E+00  0.19176063039E+03  0.19176063041E+03  0.25500000000E-02 0. -1.
         -1   -1    0    0    0  501 -0.00000000000E+00 -0.00000000000E+00 -0.82523586092E+01  0.82523601483E+01  0.50400000000E-02 0.  1.
         24    2    1    2    0    0  0.00000000000E+00 -0.71054273576E-14  0.18350827178E+03  0.20001299056E+03  0.79560735159E+02 0.  0.
         66    2    3    3    0    0 -0.22267403102E+02  0.32928262902E+02  0.93330676112E+02  0.10146291362E+03  0.19999996926E+01 0.  0.
        -13    1    3    3    0    0  0.22267403102E+02 -0.32928262902E+02  0.90177595672E+02  0.98550076935E+02  0.10566000000E+00 0.  1.
         13    1    4    4    0    0 -0.12294845298E+02  0.19158374632E+02  0.53022451216E+02  0.57702669232E+02  0.10566000000E+00 0. -1.
        -13    1    4    4    0    0 -0.12045324048E+00  0.26376085679E+00  0.94452299067E+00  0.99366316638E+00  0.10566000000E+00 0. -1.
        -14    1    4    4    0    0 -0.98521045629E+01  0.13506127413E+02  0.39363701905E+02  0.42766581225E+02  0.00000000000E+00 0.  1.
<mgrwt>
<rscale>  0 0.79560735E+02</rscale>
<asrwt>0</asrwt>
<pdfrwt beam="1">  1        2 0.29501634E-01 0.79560735E+02</pdfrwt>
<pdfrwt beam="2">  1       -1 0.12695938E-02 0.79560735E+02</pdfrwt>
<totfact> 0.22058244E+05</totfact>
</mgrwt>
</event>
<event>
 8    1  0.2389776E-020  0.8119439E+02  0.7818608E-02  0.1325696E+00
         -1   -1    0    0    0  501 -0.00000000000E+00  0.00000000000E+00  0.35988404860E+02  0.35988405213E+02  0.50400000000E-02 0.  1.
          2   -1    0    0  501    0  0.00000000000E+00 -0.00000000000E+00 -0.45796201766E+02  0.45796201837E+02  0.25500000000E-02 0. -1.
         24    2    1    2    0    0  0.00000000000E+00  0.17763568394E-14 -0.98077969058E+01  0.81784607049E+02  0.81194390632E+02 0.  0.
         66    2    3    3    0    0  0.11447184779E+02  0.14388337794E+02 -0.41336952276E+02  0.45285824793E+02  0.19999999678E+01 0.  0.
        -13    1    3    3    0    0 -0.11447184779E+02 -0.14388337794E+02  0.31529155370E+02  0.36498782257E+02  0.10566000000E+00 0.  1.
         13    1    4    4    0    0  0.76788967156E+01  0.98088652130E+01 -0.26735646295E+02  0.29495512174E+02  0.10566000000E+00 0. -1.
        -13    1    4    4    0    0  0.28038575192E+01  0.26875278979E+01 -0.92248767289E+01  0.10009692198E+02  0.10566000000E+00 0.  1.
        -14    1    4    4    0    0  0.96443054403E+00  0.18919446832E+01 -0.53764292519E+01  0.57806204216E+01  0.00000000000E+00 0.  1.
<mgrwt>
<rscale>  0 0.81194391E+02</rscale>
<asrwt>0</asrwt>
<pdfrwt beam="1">  1        2 0.70455695E-02 0.81194391E+02</pdfrwt>
<pdfrwt beam="2">  1       -1 0.55366777E-02 0.81194391E+02</pdfrwt>
<totfact> 0.14077662E+05</totfact>
</mgrwt>
</event>
<event>
 8    1  0.2389776E-020  0.7958119E+02  0.7818608E-02  0.1330244E+00
         -1   -1    0    0    0  501 -0.00000000000E+00  0.00000000000E+00  0.33584950208E+01  0.33584988025E+01  0.50400000000E-02 0.  1.
          2   -1    0    0  501    0  0.00000000000E+00 -0.00000000000E+00 -0.47142864010E+03  0.47142864010E+03  0.25500000000E-02 0. -1.
         24    2    1    2    0    0  0.00000000000E+00  0.00000000000E+00 -0.46807014508E+03  0.47478713891E+03  0.79581194759E+02 0.  0.
         66    2    3    3    0    0 -0.37684519946E+02 -0.11244820077E+02 -0.26933558472E+03  0.27219887255E+03  0.19999994166E+01 0.  0.
        -13    1    3    3    0    0  0.37684519946E+02  0.11244820077E+02 -0.19873456035E+03  0.20258826636E+03  0.10566000000E+00 0.  1.
         13    1    4    4    0    0 -0.18820083374E+02 -0.53652254114E+01 -0.13307319077E+03  0.13450452203E+03  0.10566000000E+00 0. -1.
        -13    1    4    4    0    0 -0.15422136653E+02 -0.50230636910E+01 -0.10830653429E+03  0.10951433697E+03  0.10566000000E+00 0.  1.
        -14    1    4    4    0    0 -0.34422999192E+01 -0.85653097494E+00 -0.27955859668E+02  0.28180013552E+02  0.00000000000E+00 0.  1.
<mgrwt>
<rscale>  0 0.79581195E+02</rscale>
<asrwt>0</asrwt>
<pdfrwt beam="1">  1        2 0.72527431E-01 0.79581195E+02</pdfrwt>
<pdfrwt beam="2">  1       -1 0.51669221E-03 0.79581195E+02</pdfrwt>
<totfact> 0.30288327E+05</totfact>
</mgrwt>
</event>
<event>
 8    1  0.2389776E-020  0.8149440E+02  0.7818608E-02  0.1324863E+00
         -1   -1    0    0    0  501 -0.00000000000E+00  0.00000000000E+00  0.15155227571E+01  0.15155311376E+01  0.50400000000E-02 0.  1.
          2   -1    0    0  501    0  0.00000000000E+00 -0.00000000000E+00 -0.10955490576E+04  0.10955490576E+04  0.25500000000E-02 0. -1.
         24    2    1    2    0    0  0.00000000000E+00  0.00000000000E+00 -0.10940335349E+04  0.10970645888E+04  0.81494395562E+02 0.  0.
         66    2    3    3    0    0  0.20087897501E+02  0.10736020726E+02 -0.10017783341E+04  0.10020392290E+04  0.20000006998E+01 0.  0.
        -13    1    3    3    0    0 -0.20087897501E+02 -0.10736020726E+02 -0.92255200765E+02  0.95025359769E+02  0.10566000000E+00 0.  1.
         13    1    4    4    0    0  0.78950435139E+01  0.49421944259E+01 -0.40832395362E+03  0.40843018897E+03  0.10566000000E+00 0. -1.
        -13    1    4    4    0    0  0.47872391549E+01  0.21156149731E+01 -0.20673374822E+03  0.20680001766E+03  0.10566000000E+00 0.  1.
        -14    1    4    4    0    0  0.74056148318E+01  0.36782113274E+01 -0.38672063228E+03  0.38680902239E+03  0.00000000000E+00 0.  1.
<mgrwt>
<rscale>  0 0.81494396E+02</rscale>
<asrwt>0</asrwt>
<pdfrwt beam="1">  1        2 0.16854538E+00 0.81494396E+02</pdfrwt>
<pdfrwt beam="2">  1       -1 0.23315887E-03 0.81494396E+02</pdfrwt>
<totfact> 0.33600675E+05</totfact>
</mgrwt>
</event>
<event>
 8    1  0.2389776E-020  0.7326046E+02  0.7818608E-02  0.1349344E+00
          2   -1    0    0  501    0  0.00000000000E+00  0.00000000000E+00  0.49202786299E+03  0.49202786300E+03  0.25500000000E-02 0. -1.
         -1   -1    0    0    0  501 -0.00000000000E+00 -0.00000000000E+00 -0.27270258608E+01  0.27270305182E+01  0.50400000000E-02 0.  1.
         24    2    1    2    0    0 -0.17763568394E-14  0.00000000000E+00  0.48930083713E+03  0.49475489352E+03  0.73260463017E+02 0.  0.
         66    2    3    3    0    0  0.11194706785E+02 -0.28646730148E+02  0.37885086326E+03  0.38010252983E+03  0.19999943708E+01 0.  0.
        -13    1    3    3    0    0 -0.11194706785E+02  0.28646730148E+02  0.11044997387E+03  0.11465236369E+03  0.10566000000E+00 0.  1.
         13    1    4    4    0    0  0.15484719068E+01 -0.34898982789E+01  0.47523837740E+02  0.47677074919E+02  0.10566000000E+00 0. -1.
        -13    1    4    4    0    0  0.84083952043E+01 -0.20043871702E+02  0.26914980741E+03  0.27002608743E+03  0.10566000000E+00 0.  1.
        -14    1    4    4    0    0  0.12378396738E+01 -0.51129601675E+01  0.62177218115E+02  0.62399367475E+02  0.00000000000E+00 0.  1.
<mgrwt>
<rscale>  0 0.73260463E+02</rscale>
<asrwt>0</asrwt>
<pdfrwt beam="1">  1        2 0.75696598E-01 0.73260463E+02</pdfrwt>
<pdfrwt beam="2">  1       -1 0.41954278E-03 0.73260463E+02</pdfrwt>
<totfact> 0.38065785E+05</totfact>
</mgrwt>
</event>
<event>
 8    1  0.2389776E-020  0.8367441E+02  0.7818608E-02  0.1318936E+00
          2   -1    0    0  501    0  0.00000000000E+00  0.00000000000E+00  0.35045274911E+02  0.35045275003E+02  0.25500000000E-02 0. -1.
         -1   -1    0    0    0  501 -0.00000000000E+00 -0.00000000000E+00 -0.49945444641E+02  0.49945444895E+02  0.50400000000E-02 0.  1.
         24    2    1    2    0    0  0.00000000000E+00 -0.35527136788E-14 -0.14900169730E+02  0.84990719899E+02  0.83674413120E+02 0.  0.
         66    2    3    3    0    0  0.26480763294E+02  0.23630487357E+02  0.15000364966E+02  0.38582919945E+02  0.20000012429E+01 0.  0.
        -13    1    3    3    0    0 -0.26480763294E+02 -0.23630487357E+02 -0.29900534696E+02  0.46407799954E+02  0.10566000000E+00 0.  1.
         13    1    4    4    0    0  0.24597429088E+02  0.22411152825E+02  0.13943716712E+02  0.36079518961E+02  0.10566000000E+00 0. -1.
        -13    1    4    4    0    0  0.16619008724E+01  0.10169778371E+01  0.10183715977E+01  0.22010004946E+01  0.10566000000E+00 0.  1.
         14    1    4    4    0    0  0.22143333405E+00  0.20235669479E+00  0.38276656343E-01  0.30240048905E+00  0.00000000000E+00 0. -1.
<mgrwt>
<rscale>  0 0.83674413E+02</rscale>
<asrwt>0</asrwt>
<pdfrwt beam="1">  1        2 0.53915807E-02 0.83674413E+02</pdfrwt>
<pdfrwt beam="2">  1       -1 0.76839147E-02 0.83674413E+02</pdfrwt>
<totfact> 0.12242575E+05</totfact>
</mgrwt>
</event>
<event>
 8    1  0.2389776E-020  0.8059185E+02  0.7818608E-02  0.1327380E+00
         -1   -1    0    0    0  501 -0.00000000000E+00  0.00000000000E+00  0.40459228843E+01  0.40459260235E+01  0.50400000000E-02 0.  1.
          2   -1    0    0  501    0  0.00000000000E+00 -0.00000000000E+00 -0.40133268363E+03  0.40133268364E+03  0.25500000000E-02 0. -1.
         24    2    1    2    0    0  0.00000000000E+00 -0.71054273576E-14 -0.39728676075E+03  0.40537860966E+03  0.80591853852E+02 0.  0.
         66    2    3    3    0    0  0.28435006910E+00  0.40186002355E+02 -0.21184451042E+03  0.21563184418E+03  0.19999974394E+01 0.  0.
        -13    1    3    3    0    0 -0.28435006910E+00 -0.40186002355E+02 -0.18544225033E+03  0.18974676548E+03  0.10566000000E+00 0.  1.
         13    1    4    4    0    0 -0.41122646579E+00  0.25890860897E+02 -0.13780876628E+03  0.14022044435E+03  0.10566000000E+00 0. -1.
        -13    1    4    4    0    0 -0.59539361875E-01  0.71699949204E+01 -0.37703487605E+02  0.38379376151E+02  0.10566000000E+00 0.  1.
        -14    1    4    4    0    0  0.75511589676E+00  0.71251465384E+01 -0.36332256534E+02  0.37032023683E+02  0.00000000000E+00 0.  1.
<mgrwt>
<rscale>  0 0.80591854E+02</rscale>
<asrwt>0</asrwt>
<pdfrwt beam="1">  1        2 0.61743458E-01 0.80591854E+02</pdfrwt>
<pdfrwt beam="2">  1       -1 0.62245024E-03 0.80591854E+02</pdfrwt>
<totfact> 0.27746859E+05</totfact>
</mgrwt>
</event>
<event>
 8    1  0.2389776E-020  0.8080235E+02  0.7818608E-02  0.1326790E+00
          2   -1    0    0  501    0  0.00000000000E+00  0.00000000000E+00  0.48301808454E+02  0.48301808522E+02  0.25500000000E-02 0. -1.
         -1   -1    0    0    0  501 -0.00000000000E+00 -0.00000000000E+00 -0.33792834993E+02  0.33792835368E+02  0.50400000000E-02 0.  1.
         24    2    1    2    0    0 -0.71054273576E-14  0.17763568394E-14  0.14508973462E+02  0.82094643890E+02  0.80802352964E+02 0.  0.
         66    2    3    3    0    0  0.38820289049E+02 -0.11044399683E+02  0.61200575423E+01  0.40871122927E+02  0.19999946966E+01 0.  0.
        -13    1    3    3    0    0 -0.38820289049E+02  0.11044399683E+02  0.83889159197E+01  0.41223520963E+02  0.10566000000E+00 0.  1.
         13    1    4    4    0    0  0.26779290052E+02 -0.75738404279E+01  0.45490816349E+01  0.28199268471E+02  0.10566000000E+00 0. -1.
        -13    1    4    4    0    0  0.11090564631E+02 -0.33404429322E+01  0.12073302777E+01  0.11645943210E+02  0.10566000000E+00 0.  1.
        -14    1    4    4    0    0  0.95043436590E+00 -0.13011632336E+00  0.36364562969E+00  0.10259112464E+01  0.00000000000E+00 0.  1.
<mgrwt>
<rscale>  0 0.80802353E+02</rscale>
<asrwt>0</asrwt>
<pdfrwt beam="1">  1        2 0.74310475E-02 0.80802353E+02</pdfrwt>
<pdfrwt beam="2">  1       -1 0.51988977E-02 0.80802353E+02</pdfrwt>
<totfact> 0.14430833E+05</totfact>
</mgrwt>
</event>
<event>
 8    1  0.2389776E-020  0.8107664E+02  0.7818608E-02  0.1326024E+00
         -1   -1    0    0    0  501 -0.00000000000E+00  0.00000000000E+00  0.26718714395E+01  0.26718761930E+01  0.50400000000E-02 0.  1.
          2   -1    0    0  501    0  0.00000000000E+00 -0.00000000000E+00 -0.61505727690E+03  0.61505727690E+03  0.25500000000E-02 0. -1.
         24    2    1    2    0    0 -0.71054273576E-14  0.00000000000E+00 -0.61238540546E+03  0.61772915310E+03  0.81076641313E+02 0.  0.
         66    2    3    3    0    0  0.28352375519E+02  0.52608116390E+01 -0.52319675116E+03  0.52399463141E+03  0.19999957028E+01 0.  0.
        -13    1    3    3    0    0 -0.28352375519E+02 -0.52608116390E+01 -0.89188654301E+02  0.93734521692E+02  0.10566000000E+00 0.  1.
         13    1    4    4    0    0  0.18625325454E+02  0.34962220554E+01 -0.33155069830E+03  0.33209185931E+03  0.10566000000E+00 0. -1.
        -13    1    4    4    0    0  0.18755926882E+01  0.22346452390E-01 -0.37738149808E+02  0.37784884044E+02  0.10566000000E+00 0.  1.
        -14    1    4    4    0    0  0.78514573765E+01  0.17422431312E+01 -0.15390790305E+03  0.15411788805E+03  0.00000000000E+00 0.  1.
<mgrwt>
<rscale>  0 0.81076641E+02</rscale>
<asrwt>0</asrwt>
<pdfrwt beam="1">  1        2 0.94624084E-01 0.81076641E+02</pdfrwt>
<pdfrwt beam="2">  1       -1 0.41105800E-03 0.81076641E+02</pdfrwt>
<totfact> 0.31275694E+05</totfact>
</mgrwt>
</event>
<event>
 8    1  0.2389776E-020  0.8119507E+02  0.7818608E-02  0.1325694E+00
          2   -1    0    0  501    0  0.00000000000E+00  0.00000000000E+00  0.12253278660E+02  0.12253278926E+02  0.25500000000E-02 0. -1.
         -1   -1    0    0    0  501 -0.00000000000E+00 -0.00000000000E+00 -0.13450766884E+03  0.13450766894E+03  0.50400000000E-02 0.  1.
         24    2    1    2    0    0  0.35527136788E-14  0.55511151231E-16 -0.12225439018E+03  0.14676094786E+03  0.81195073119E+02 0.  0.
         66    2    3    3    0    0  0.28707064983E+02 -0.34838978672E+00 -0.93438261958E+01  0.30257627828E+02  0.19999995974E+01 0.  0.
        -13    1    3    3    0    0 -0.28707064983E+02  0.34838978672E+00 -0.11291056399E+03  0.11650332004E+03  0.10566000000E+00 0.  1.
         13    1    4    4    0    0  0.20994686571E+00  0.79143493300E-01 -0.81269725181E-01  0.26097927654E+00  0.10566000000E+00 0.  1.
        -13    1    4    4    0    0  0.11445813475E+02 -0.74124611333E+00 -0.40338348014E+01  0.12158909455E+02  0.10566000000E+00 0.  1.
         14    1    4    4    0    0  0.17051304643E+02  0.31371283330E+00 -0.52287216692E+01  0.17837739096E+02  0.00000000000E+00 0. -1.
<mgrwt>
<rscale>  0 0.81195073E+02</rscale>
<asrwt>0</asrwt>
<pdfrwt beam="1">  1        2 0.18851199E-02 0.81195073E+02</pdfrwt>
<pdfrwt beam="2">  1       -1 0.20693487E-01 0.81195073E+02</pdfrwt>
<totfact> 0.10676493E+05</totfact>
</mgrwt>
</event>
<event>
 8    1  0.2389776E-020  0.8050145E+02  0.7818608E-02  0.1327634E+00
          2   -1    0    0  501    0  0.00000000000E+00  0.00000000000E+00  0.18603996611E+02  0.18603996786E+02  0.25500000000E-02 0. -1.
         -1   -1    0    0    0  501 -0.00000000000E+00 -0.00000000000E+00 -0.87084567937E+02  0.87084568083E+02  0.50400000000E-02 0.  1.
         24    2    1    2    0    0  0.11102230246E-15 -0.71054273576E-14 -0.68480571326E+02  0.10568856487E+03  0.80501453993E+02 0.  0.
         66    2    3    3    0    0  0.35750342503E+00 -0.33922452819E+02 -0.58820751769E+01  0.34488540304E+02  0.19999974811E+01 0.  0.
        -13    1    3    3    0    0 -0.35750342503E+00  0.33922452819E+02 -0.62598496149E+02  0.71200024566E+02  0.10566000000E+00 0.  1.
         13    1    4    4    0    0 -0.43121438097E+00 -0.32352917464E+01 -0.50952126403E+00  0.33051224607E+01  0.10566000000E+00 0. -1.
        -13    1    4    4    0    0  0.40302810104E+00 -0.21655942720E+02 -0.42720337174E+01  0.22077221811E+02  0.10566000000E+00 0.  1.
         14    1    4    4    0    0  0.38568970496E+00 -0.90312183527E+01 -0.11005201955E+01  0.91061960326E+01  0.00000000000E+00 0. -1.
<mgrwt>
<rscale>  0 0.80501454E+02</rscale>
<asrwt>0</asrwt>
<pdfrwt beam="1">  1        2 0.28621534E-02 0.80501454E+02</pdfrwt>
<pdfrwt beam="2">  1       -1 0.13397626E-01 0.80501454E+02</pdfrwt>
<totfact> 0.12015008E+05</totfact>
</mgrwt>
</event>
<event>
 8    1  0.2389776E-020  0.8027419E+02  0.7818608E-02  0.1328275E+00
          2   -1    0    0  501    0  0.00000000000E+00  0.00000000000E+00  0.21166780550E+02  0.21166780703E+02  0.25500000000E-02 0. -1.
         -1   -1    0    0    0  501 -0.00000000000E+00 -0.00000000000E+00 -0.76109182306E+02  0.76109182473E+02  0.50400000000E-02 0.  1.
         24    2    1    2    0    0  0.00000000000E+00  0.88817841970E-15 -0.54942401756E+02  0.97275963176E+02  0.80274189508E+02 0.  0.
         66    2    3    3    0    0 -0.13709286690E+02 -0.47057803438E+01  0.17835121251E+02  0.23069036752E+02  0.19999991116E+01 0.  0.
        -13    1    3    3    0    0  0.13709286690E+02  0.47057803438E+01 -0.72777523007E+02  0.74206926424E+02  0.10566000000E+00 0.  1.
         13    1    4    4    0    0 -0.82619695200E+01 -0.23868178372E+01  0.10990489325E+02  0.13955610319E+02  0.10566000000E+00 0. -1.
        -13    1    4    4    0    0 -0.19076862015E+01 -0.29980521377E+00  0.24267014319E+01  0.31030942114E+01  0.10566000000E+00 0.  1.
        -14    1    4    4    0    0 -0.35396309685E+01 -0.20191572929E+01  0.44179304941E+01  0.60103322219E+01  0.00000000000E+00 0.  1.
<mgrwt>
<rscale>  0 0.80274190E+02</rscale>
<asrwt>0</asrwt>
<pdfrwt beam="1">  1        2 0.32564278E-02 0.80274190E+02</pdfrwt>
<pdfrwt beam="2">  1       -1 0.11709105E-01 0.80274190E+02</pdfrwt>
<totfact> 0.12435904E+05</totfact>
</mgrwt>
</event>
<event>
 8    1  0.2389776E-020  0.7867782E+02  0.7818608E-02  0.1332846E+00
          2   -1    0    0  501    0  0.00000000000E+00  0.00000000000E+00  0.19145262465E+03  0.19145262467E+03  0.25500000000E-02 0. -1.
         -1   -1    0    0    0  501 -0.00000000000E+00 -0.00000000000E+00 -0.80831994122E+01  0.80832009835E+01  0.50400000000E-02 0.  1.
         24    2    1    2    0    0 -0.35527136788E-14 -0.88817841970E-15  0.18336942524E+03  0.19953582565E+03  0.78677821563E+02 0.  0.
         66    2    3    3    0    0 -0.16198468321E+02 -0.66779694561E+01  0.18099764257E+03  0.18185470100E+03  0.20000015188E+01 0.  0.
        -13    1    3    3    0    0  0.16198468321E+02  0.66779694561E+01  0.23717826666E+01  0.17681124654E+02  0.10566000000E+00 0.  1.
         13    1    4    4    0    0 -0.11552768480E+01 -0.63803933735E+00  0.15460035652E+02  0.15516624156E+02  0.10566000000E+00 0. -1.
        -13    1    4    4    0    0 -0.40289563965E+01 -0.22756674408E+01  0.51847381459E+02  0.52053561647E+02  0.10566000000E+00 0.  1.
         14    1    4    4    0    0 -0.11014235076E+02 -0.37642626779E+01  0.11369022546E+03  0.11428451519E+03  0.00000000000E+00 0. -1.
<mgrwt>
<rscale>  0 0.78677822E+02</rscale>
<asrwt>0</asrwt>
<pdfrwt beam="1">  1        2 0.29454250E-01 0.78677822E+02</pdfrwt>
<pdfrwt beam="2">  1       -1 0.12435693E-02 0.78677822E+02</pdfrwt>
<totfact> 0.22704612E+05</totfact>
</mgrwt>
</event>
<event>
 8    1  0.2389776E-020  0.8008219E+02  0.7818608E-02  0.1328818E+00
          2   -1    0    0  501    0  0.00000000000E+00  0.00000000000E+00  0.49672377230E+03  0.49672377230E+03  0.25500000000E-02 0. -1.
         -1   -1    0    0    0  501 -0.00000000000E+00 -0.00000000000E+00 -0.32277264362E+01  0.32277303711E+01  0.50400000000E-02 0.  1.
         24    2    1    2    0    0  0.00000000000E+00  0.00000000000E+00  0.49349604586E+03  0.49995150267E+03  0.80082193691E+02 0.  0.
         66    2    3    3    0    0 -0.32756251200E+02  0.21862255132E+02  0.29120214654E+03  0.29385986515E+03  0.20000007536E+01 0.  0.
        -13    1    3    3    0    0  0.32756251200E+02 -0.21862255132E+02  0.20229389932E+03  0.20609163753E+03  0.10566000000E+00 0.  1.
         13    1    4    4    0    0 -0.88961708031E+01  0.58716765930E+01  0.78965941753E+02  0.79682178446E+02  0.10566000000E+00 0. -1.
        -13    1    4    4    0    0 -0.15549471085E+02  0.10048884635E+02  0.14224256103E+03  0.14344240470E+03  0.10566000000E+00 0.  1.
        -14    1    4    4    0    0 -0.83106093114E+01  0.59416939036E+01  0.69993643756E+02  0.70735282001E+02  0.00000000000E+00 0.  1.
<mgrwt>
<rscale>  0 0.80082194E+02</rscale>
<asrwt>0</asrwt>
<pdfrwt beam="1">  1        2 0.76418990E-01 0.80082194E+02</pdfrwt>
<pdfrwt beam="2">  1       -1 0.49657394E-03 0.80082194E+02</pdfrwt>
<totfact> 0.30306266E+05</totfact>
</mgrwt>
</event>
<event>
 8    1  0.2389776E-020  0.7933771E+02  0.7818608E-02  0.1330941E+00
         -1   -1    0    0    0  501 -0.00000000000E+00  0.00000000000E+00  0.32924971643E+01  0.32925010218E+01  0.50400000000E-02 0.  1.
          2   -1    0    0  501    0  0.00000000000E+00 -0.00000000000E+00 -0.47794031292E+03  0.47794031292E+03  0.25500000000E-02 0. -1.
         24    2    1    2    0    0 -0.35527136788E-14 -0.35527136788E-14 -0.47464781575E+03  0.48123281395E+03  0.79337709945E+02 0.  0.
         66    2    3    3    0    0 -0.20945123573E+02 -0.21109439303E+02 -0.39649395112E+03  0.39761257506E+03  0.19999867548E+01 0.  0.
        -13    1    3    3    0    0  0.20945123573E+02  0.21109439303E+02 -0.78153864636E+02  0.83620238883E+02  0.10566000000E+00 0.  1.
         13    1    4    4    0    0 -0.14259460818E+02 -0.14805539600E+02 -0.28068433622E+03  0.28143603890E+03  0.10566000000E+00 0. -1.
        -13    1    4    4    0    0 -0.93177056671E+00 -0.10127708197E+01 -0.20930284499E+02  0.20975744906E+02  0.10566000000E+00 0.  1.
        -14    1    4    4    0    0 -0.57538921885E+01 -0.52911288836E+01 -0.94879330396E+02  0.95200791261E+02  0.00000000000E+00 0.  1.
<mgrwt>
<rscale>  0 0.79337710E+02</rscale>
<asrwt>0</asrwt>
<pdfrwt beam="1">  1        2 0.73529224E-01 0.79337710E+02</pdfrwt>
<pdfrwt beam="2">  1       -1 0.50653870E-03 0.79337710E+02</pdfrwt>
<totfact> 0.30668575E+05</totfact>
</mgrwt>
</event>
<event>
 8    1  0.2389776E-020  0.7813409E+02  0.7818608E-02  0.1334432E+00
          2   -1    0    0  501    0  0.00000000000E+00  0.00000000000E+00  0.85061843967E+03  0.85061843968E+03  0.25500000000E-02 0. -1.
         -1   -1    0    0    0  501 -0.00000000000E+00 -0.00000000000E+00 -0.17942602739E+01  0.17942673524E+01  0.50400000000E-02 0.  1.
         24    2    1    2    0    0  0.71054273576E-14  0.00000000000E+00  0.84882417940E+03  0.85241270703E+03  0.78134087134E+02 0.  0.
         66    2    3    3    0    0 -0.23015716864E+02 -0.16234503158E+01  0.76827643844E+03  0.76862542547E+03  0.20000002155E+01 0.  0.
        -13    1    3    3    0    0  0.23015716864E+02  0.16234503158E+01  0.80547740960E+02  0.83787281562E+02  0.10566000000E+00 0.  1.
         13    1    4    4    0    0 -0.56691682417E+01 -0.83980076959E+00  0.19296940936E+03  0.19305452299E+03  0.10566000000E+00 0. -1.
        -13    1    4    4    0    0 -0.15807416624E+01 -0.40451490586E+00  0.62897381129E+02  0.62918630734E+02  0.10566000000E+00 0.  1.
         14    1    4    4    0    0 -0.15765806960E+02 -0.37913464035E+00  0.51240964795E+03  0.51265227175E+03  0.00000000000E+00 0. -1.
<mgrwt>
<rscale>  0 0.78134087E+02</rscale>
<asrwt>0</asrwt>
<pdfrwt beam="1">  1        2 0.13086404E+00 0.78134087E+02</pdfrwt>
<pdfrwt beam="2">  1       -1 0.27604129E-03 0.78134087E+02</pdfrwt>
<totfact> 0.36889407E+05</totfact>
</mgrwt>
</event>
<event>
 8    1  0.2389776E-020  0.8038204E+02  0.7818608E-02  0.1327971E+00
         -1   -1    0    0    0  501 -0.00000000000E+00  0.00000000000E+00  0.23160294748E+01  0.23160349587E+01  0.50400000000E-02 0.  1.
          2   -1    0    0  501    0  0.00000000000E+00 -0.00000000000E+00 -0.69745058586E+03  0.69745058586E+03  0.25500000000E-02 0. -1.
         24    2    1    2    0    0  0.00000000000E+00  0.00000000000E+00 -0.69513455638E+03  0.69976662082E+03  0.80382038651E+02 0.  0.
         66    2    3    3    0    0 -0.17435859436E+02 -0.30650280959E+02 -0.51520492665E+03  0.51641414132E+03  0.19999999704E+01 0.  0.
        -13    1    3    3    0    0  0.17435859436E+02  0.30650280959E+02 -0.17992962974E+03  0.18335247950E+03  0.10566000000E+00 0.  1.
         13    1    4    4    0    0 -0.92565372498E+01 -0.16327007275E+02 -0.28818212308E+03  0.28879266244E+03  0.10566000000E+00 0. -1.
        -13    1    4    4    0    0 -0.69041289434E+01 -0.12210641484E+02 -0.19447647751E+03  0.19498173819E+03  0.10566000000E+00 0.  1.
         14    1    4    4    0    0 -0.12751932428E+01 -0.21126322001E+01 -0.32546326059E+02  0.32639740694E+02  0.00000000000E+00 0. -1.
<mgrwt>
<rscale>  0 0.80382039E+02</rscale>
<asrwt>0</asrwt>
<pdfrwt beam="1">  1        2 0.10729992E+00 0.80382039E+02</pdfrwt>
<pdfrwt beam="2">  1       -1 0.35631321E-03 0.80382039E+02</pdfrwt>
<totfact> 0.33012208E+05</totfact>
</mgrwt>
</event>
<event>
 8    1  0.2389776E-020  0.7935270E+02  0.7818608E-02  0.1330898E+00
          2   -1    0    0  501    0  0.00000000000E+00  0.00000000000E+00  0.11239802869E+04  0.11239802869E+04  0.25500000000E-02 0. -1.
         -1   -1    0    0    0  501 -0.00000000000E+00 -0.00000000000E+00 -0.14005651474E+01  0.14005742157E+01  0.50400000000E-02 0.  1.
         24    2    1    2    0    0  0.17763568394E-14  0.00000000000E+00  0.11225797217E+04  0.11253808611E+04  0.79352699271E+02 0.  0.
         66    2    3    3    0    0 -0.94337751688E+01  0.14167679691E+02  0.10695294541E+04  0.10696667576E+04  0.20000000421E+01 0.  0.
        -13    1    3    3    0    0  0.94337751688E+01 -0.14167679691E+02  0.53050267647E+02  0.55714103450E+02  0.10566000000E+00 0.  1.
         13    1    4    4    0    0 -0.20060023039E+01  0.30751179855E+01  0.26527384389E+03  0.26529927217E+03  0.10566000000E+00 0.  1.
        -13    1    4    4    0    0 -0.62024558050E+01  0.97672673265E+01  0.67286625259E+03  0.67296573094E+03  0.10566000000E+00 0. -1.
         14    1    4    4    0    0 -0.12253170599E+01  0.13252943793E+01  0.13138935759E+03  0.13140175453E+03  0.00000000000E+00 0. -1.
<mgrwt>
<rscale>  0 0.79352699E+02</rscale>
<asrwt>0</asrwt>
<pdfrwt beam="1">  1        2 0.17292103E+00 0.79352699E+02</pdfrwt>
<pdfrwt beam="2">  1       -1 0.21547103E-03 0.79352699E+02</pdfrwt>
<totfact> 0.35971380E+05</totfact>
</mgrwt>
</event>
<event>
 8    1  0.2389776E-020  0.8577791E+02  0.7818608E-02  0.1313411E+00
         -1   -1    0    0    0  501 -0.00000000000E+00  0.00000000000E+00  0.21624115718E+01  0.21624174452E+01  0.50400000000E-02 0.  1.
          2   -1    0    0  501    0  0.00000000000E+00 -0.00000000000E+00 -0.85065219890E+03  0.85065219890E+03  0.25500000000E-02 0. -1.
         24    2    1    2    0    0  0.00000000000E+00  0.35527136788E-14 -0.84848978733E+03  0.85281461635E+03  0.85777914747E+02 0.  0.
         66    2    3    3    0    0 -0.83862592933E+01  0.31474182313E+02 -0.70152034367E+03  0.70227896599E+03  0.19999963473E+01 0.  0.
        -13    1    3    3    0    0  0.83862592933E+01 -0.31474182313E+02 -0.14696944366E+03  0.15053565036E+03  0.10566000000E+00 0.  1.
         13    1    4    4    0    0 -0.60205153756E+01  0.21509436766E+02 -0.47997645174E+03  0.48049589787E+03  0.10566000000E+00 0. -1.
        -13    1    4    4    0    0 -0.86944093992E+00  0.40932722069E+01 -0.79759230855E+02  0.79868998213E+02  0.10566000000E+00 0.  1.
         14    1    4    4    0    0 -0.14963029778E+01  0.58714733397E+01 -0.14178466107E+03  0.14191406991E+03  0.00000000000E+00 0. -1.
<mgrwt>
<rscale>  0 0.85777915E+02</rscale>
<asrwt>0</asrwt>
<pdfrwt beam="1">  1        2 0.13086930E+00 0.85777915E+02</pdfrwt>
<pdfrwt beam="2">  1       -1 0.33267984E-03 0.85777915E+02</pdfrwt>
<totfact> 0.28932628E+05</totfact>
</mgrwt>
</event>
<event>
 8    1  0.2389776E-020  0.8027450E+02  0.7818608E-02  0.1328274E+00
         -1   -1    0    0    0  501 -0.00000000000E+00  0.00000000000E+00  0.13060545790E+02  0.13060546762E+02  0.50400000000E-02 0.  1.
          2   -1    0    0  501    0  0.00000000000E+00 -0.00000000000E+00 -0.12334850580E+03  0.12334850582E+03  0.25500000000E-02 0. -1.
         24    2    1    2    0    0  0.00000000000E+00  0.35527136788E-14 -0.11028796001E+03  0.13640905258E+03  0.80274500961E+02 0.  0.
         66    2    3    3    0    0  0.21573387654E+02 -0.20055350992E+02 -0.10144623274E+03  0.10565493963E+03  0.19999935222E+01 0.  0.
        -13    1    3    3    0    0 -0.21573387654E+02  0.20055350992E+02 -0.88417272696E+01  0.30754112951E+02  0.10566000000E+00 0.  1.
         13    1    4    4    0    0  0.32339311121E+01 -0.38795260481E+01 -0.16966009512E+02  0.17702137600E+02  0.10566000000E+00 0. -1.
        -13    1    4    4    0    0  0.85757940277E+01 -0.72920671041E+01 -0.37497258241E+02  0.39150658047E+02  0.10566000000E+00 0.  1.
        -14    1    4    4    0    0  0.97636625140E+01 -0.88837578400E+01 -0.46982964982E+02  0.48802143986E+02  0.00000000000E+00 0.  1.
<mgrwt>
<rscale>  0 0.80274501E+02</rscale>
<asrwt>0</asrwt>
<pdfrwt beam="1">  1        2 0.18976692E-01 0.80274501E+02</pdfrwt>
<pdfrwt beam="2">  1       -1 0.20093149E-02 0.80274501E+02</pdfrwt>
<totfact> 0.18670688E+05</totfact>
</mgrwt>
</event>
<event>
 8    1  0.2389776E-020  0.8307631E+02  0.7818608E-02  0.1320541E+00
          2   -1    0    0  501    0  0.00000000000E+00  0.00000000000E+00  0.23691098027E+03  0.23691098028E+03  0.25500000000E-02 0. -1.
         -1   -1    0    0    0  501 -0.00000000000E+00 -0.00000000000E+00 -0.72829812739E+01  0.72829830178E+01  0.50400000000E-02 0.  1.
         24    2    1    2    0    0  0.00000000000E+00  0.00000000000E+00  0.22962799899E+03  0.24419396330E+03  0.83076313049E+02 0.  0.
         66    2    3    3    0    0 -0.48234227199E+01 -0.17305849403E+02  0.22488813434E+03  0.22561345439E+03  0.20000016044E+01 0.  0.
        -13    1    3    3    0    0  0.48234227199E+01  0.17305849403E+02  0.47398646565E+01  0.18580508908E+02  0.10566000000E+00 0.  1.
         13    1    4    4    0    0 -0.31961726450E+01 -0.11991034481E+02  0.15125949404E+03  0.15176773745E+03  0.10566000000E+00 0. -1.
        -13    1    4    4    0    0 -0.26657133440E+00 -0.18142678386E+00  0.54535148296E+01  0.54640611258E+01  0.10566000000E+00 0.  1.
         14    1    4    4    0    0 -0.13606787406E+01 -0.51333881374E+01  0.68175125463E+02  0.68381655817E+02  0.00000000000E+00 0. -1.
<mgrwt>
<rscale>  0 0.83076313E+02</rscale>
<asrwt>0</asrwt>
<pdfrwt beam="1">  1        2 0.36447843E-01 0.83076313E+02</pdfrwt>
<pdfrwt beam="2">  1       -1 0.11204588E-02 0.83076313E+02</pdfrwt>
<totfact> 0.21197162E+05</totfact>
</mgrwt>
</event>
<event>
 8    1  0.2389776E-020  0.7002519E+02  0.7818608E-02  0.1360007E+00
          2   -1    0    0  501    0  0.00000000000E+00  0.00000000000E+00  0.26033271258E+03  0.26033271259E+03  0.25500000000E-02 0. -1.
         -1   -1    0    0    0  501 -0.00000000000E+00 -0.00000000000E+00 -0.47089030363E+01  0.47089057335E+01  0.50400000000E-02 0.  1.
         24    2    1    2    0    0  0.35527136788E-14 -0.44408920985E-15  0.25562380954E+03  0.26504161832E+03  0.70025191461E+02 0.  0.
         66    2    3    3    0    0  0.31430370107E+02  0.39057688140E+01  0.18415181430E+03  0.18686629956E+03  0.20000020996E+01 0.  0.
        -13    1    3    3    0    0 -0.31430370107E+02 -0.39057688140E+01  0.71471995243E+02  0.78175318759E+02  0.10566000000E+00 0.  1.
         13    1    4    4    0    0  0.14626130215E+02  0.17678591729E+01  0.85526849254E+02  0.86786531895E+02  0.10566000000E+00 0. -1.
        -13    1    4    4    0    0  0.88881114819E+01  0.83327632432E+00  0.55819332446E+02  0.56528770674E+02  0.10566000000E+00 0.  1.
        -14    1    4    4    0    0  0.79161284096E+01  0.13046333167E+01  0.42805632596E+02  0.43550996993E+02  0.00000000000E+00 0.  1.
<mgrwt>
<rscale>  0 0.70025191E+02</rscale>
<asrwt>0</asrwt>
<pdfrwt beam="1">  1        2 0.40051184E-01 0.70025191E+02</pdfrwt>
<pdfrwt beam="2">  1       -1 0.72444688E-03 0.70025191E+02</pdfrwt>
<totfact> 0.34272861E+05</totfact>
</mgrwt>
</event>
<event>
 8    1  0.2389776E-020  0.7821246E+02  0.7818608E-02  0.1334202E+00
         -1   -1    0    0    0  501 -0.00000000000E+00  0.00000000000E+00  0.51034973284E+01  0.51034998170E+01  0.50400000000E-02 0.  1.
          2   -1    0    0  501    0  0.00000000000E+00 -0.00000000000E+00 -0.29965661530E+03  0.29965661531E+03  0.25500000000E-02 0. -1.
         24    2    1    2    0    0  0.00000000000E+00  0.00000000000E+00 -0.29455311797E+03  0.30476011513E+03  0.78212457230E+02 0.  0.
         66    2    3    3    0    0 -0.14848697700E+01  0.38658366128E+02 -0.16893371729E+03  0.17331842044E+03  0.19999793811E+01 0.  0.
        -13    1    3    3    0    0  0.14848697700E+01 -0.38658366128E+02 -0.12561940068E+03  0.13144169469E+03  0.10566000000E+00 0.  1.
         13    1    4    4    0    0 -0.23632898267E+00  0.11453384361E+02 -0.46772768649E+02  0.48155362275E+02  0.10566000000E+00 0. -1.
        -13    1    4    4    0    0  0.27926213160E-01  0.57700203042E+00 -0.29120347848E+01  0.29706601691E+01  0.10566000000E+00 0. -1.
         14    1    4    4    0    0 -0.12764670005E+01  0.26627979737E+02 -0.11924891385E+03  0.12219239799E+03  0.00000000000E+00 0. -1.
<mgrwt>
<rscale>  0 0.78212457E+02</rscale>
<asrwt>0</asrwt>
<pdfrwt beam="1">  1        2 0.46101004E-01 0.78212457E+02</pdfrwt>
<pdfrwt beam="2">  1       -1 0.78515386E-03 0.78212457E+02</pdfrwt>
<totfact> 0.27037596E+05</totfact>
</mgrwt>
</event>
<event>
 8    1  0.2389776E-020  0.8245228E+02  0.7818608E-02  0.1322233E+00
         -1   -1    0    0    0  501 -0.00000000000E+00  0.00000000000E+00  0.16331180970E+01  0.16331258740E+01  0.50400000000E-02 0.  1.
          2   -1    0    0  501    0  0.00000000000E+00 -0.00000000000E+00 -0.10407028853E+04  0.10407028853E+04  0.25500000000E-02 0. -1.
         24    2    1    2    0    0  0.00000000000E+00  0.00000000000E+00 -0.10390697672E+04  0.10423360112E+04  0.82452283665E+02 0.  0.
         66    2    3    3    0    0  0.52770510075E+01  0.22403010285E+02 -0.95185403599E+03  0.95213436445E+03  0.20000002836E+01 0.  0.
        -13    1    3    3    0    0 -0.52770510075E+01 -0.22403010285E+02 -0.87215731237E+02  0.90201646750E+02  0.10566000000E+00 0.  1.
         13    1    4    4    0    0  0.29523120025E+01  0.11768514237E+02 -0.49706359018E+03  0.49721166310E+03  0.10566000000E+00 0. -1.
        -13    1    4    4    0    0  0.12149898178E+01  0.44868648370E+01 -0.22026739636E+03  0.22031646607E+03  0.10566000000E+00 0.  1.
         14    1    4    4    0    0  0.11097491872E+01  0.61476312109E+01 -0.23452304945E+03  0.23460623528E+03  0.00000000000E+00 0. -1.
<mgrwt>
<rscale>  0 0.82452284E+02</rscale>
<asrwt>0</asrwt>
<pdfrwt beam="1">  1        2 0.16010761E+00 0.82452284E+02</pdfrwt>
<pdfrwt beam="2">  1       -1 0.25125037E-03 0.82452284E+02</pdfrwt>
<totfact> 0.32606745E+05</totfact>
</mgrwt>
</event>
<event>
 8    1  0.2389776E-020  0.7957652E+02  0.7818608E-02  0.1330258E+00
         -1   -1    0    0    0  501 -0.00000000000E+00  0.00000000000E+00  0.86167671201E+01  0.86167685941E+01  0.50400000000E-02 0.  1.
          2   -1    0    0  501    0  0.00000000000E+00 -0.00000000000E+00 -0.18372381473E+03  0.18372381474E+03  0.25500000000E-02 0. -1.
         24    2    1    2    0    0 -0.17763568394E-14  0.00000000000E+00 -0.17510704760E+03  0.19234058334E+03  0.79576515867E+02 0.  0.
         66    2    3    3    0    0 -0.12139509862E+02  0.35360830322E+02 -0.12033671053E+03  0.12602650483E+03  0.19999995052E+01 0.  0.
        -13    1    3    3    0    0  0.12139509862E+02 -0.35360830322E+02 -0.54770337076E+02  0.66314078506E+02  0.10566000000E+00 0.  1.
         13    1    4    4    0    0 -0.42298263128E+01  0.13875944753E+02 -0.44753888686E+02  0.47046306869E+02  0.10566000000E+00 0. -1.
        -13    1    4    4    0    0 -0.62788509714E+01  0.17591696632E+02 -0.62740271404E+02  0.65461779534E+02  0.10566000000E+00 0.  1.
        -14    1    4    4    0    0 -0.16308325774E+01  0.38931889371E+01 -0.12842550440E+02  0.13518418428E+02  0.00000000000E+00 0.  1.
<mgrwt>
<rscale>  0 0.79576516E+02</rscale>
<asrwt>0</asrwt>
<pdfrwt beam="1">  1        2 0.28265199E-01 0.79576516E+02</pdfrwt>
<pdfrwt beam="2">  1       -1 0.13256567E-02 0.79576516E+02</pdfrwt>
<totfact> 0.21725741E+05</totfact>
</mgrwt>
</event>
<event>
 8    1  0.2389776E-020  0.7785103E+02  0.7818608E-02  0.1335263E+00
          2   -1    0    0  501    0  0.00000000000E+00  0.00000000000E+00  0.38728775352E+03  0.38728775352E+03  0.25500000000E-02 0. -1.
         -1   -1    0    0    0  501 -0.00000000000E+00 -0.00000000000E+00 -0.39123235788E+01  0.39123268252E+01  0.50400000000E-02 0.  1.
         24    2    1    2    0    0  0.00000000000E+00  0.00000000000E+00  0.38337542994E+03  0.39120008035E+03  0.77851028163E+02 0.  0.
         66    2    3    3    0    0  0.19805083303E+02 -0.55959334328E+01  0.35768663937E+03  0.35828380899E+03  0.20000006497E+01 0.  0.
        -13    1    3    3    0    0 -0.19805083303E+02  0.55959334328E+01  0.25688790568E+02  0.32916271364E+02  0.10566000000E+00 0.  1.
         13    1    4    4    0    0  0.66035983862E+01 -0.17358617925E+01  0.12256652252E+03  0.12275660607E+03  0.10566000000E+00 0. -1.
        -13    1    4    4    0    0  0.62287456452E+01 -0.18098599923E+01  0.12410420852E+03  0.12427364403E+03  0.10566000000E+00 0.  1.
         14    1    4    4    0    0  0.69727392711E+01 -0.20502116480E+01  0.11101590833E+03  0.11125355888E+03  0.00000000000E+00 0. -1.
<mgrwt>
<rscale>  0 0.77851028E+02</rscale>
<asrwt>0</asrwt>
<pdfrwt beam="1">  1        2 0.59582735E-01 0.77851028E+02</pdfrwt>
<pdfrwt beam="2">  1       -1 0.60189615E-03 0.77851028E+02</pdfrwt>
<totfact> 0.29992419E+05</totfact>
</mgrwt>
</event>
<event>
 8    1  0.2389776E-020  0.7969422E+02  0.7818608E-02  0.1329921E+00
         -1   -1    0    0    0  501 -0.00000000000E+00  0.00000000000E+00  0.16768419889E+01  0.16768495631E+01  0.50400000000E-02 0.  1.
          2   -1    0    0  501    0  0.00000000000E+00 -0.00000000000E+00 -0.94689217884E+03  0.94689217885E+03  0.25500000000E-02 0. -1.
         24    2    1    2    0    0  0.00000000000E+00  0.00000000000E+00 -0.94521533685E+03  0.94856902841E+03  0.79694219575E+02 0.  0.
         66    2    3    3    0    0  0.28681522166E+02  0.64216444672E+01 -0.79271051743E+03  0.79325773345E+03  0.19999993829E+01 0.  0.
        -13    1    3    3    0    0 -0.28681522166E+02 -0.64216444672E+01 -0.15250481942E+03  0.15531129496E+03  0.10566000000E+00 0.  1.
         13    1    4    4    0    0  0.16896315553E+02  0.30225225841E+01 -0.45843356651E+03  0.45875480073E+03  0.10566000000E+00 0. -1.
        -13    1    4    4    0    0  0.18703397041E+01  0.30631543070E+00 -0.56541190879E+02  0.56573045081E+02  0.10566000000E+00 0.  1.
         14    1    4    4    0    0  0.99148669083E+01  0.30928064524E+01 -0.27773576004E+03  0.27792988764E+03  0.00000000000E+00 0. -1.
<mgrwt>
<rscale>  0 0.79694220E+02</rscale>
<asrwt>0</asrwt>
<pdfrwt beam="1">  1        2 0.14567529E+00 0.79694220E+02</pdfrwt>
<pdfrwt beam="2">  1       -1 0.25797703E-03 0.79694220E+02</pdfrwt>
<totfact> 0.35465701E+05</totfact>
</mgrwt>
</event>
<event>
 8    1  0.2389776E-020  0.7815882E+02  0.7818608E-02  0.1334359E+00
          2   -1    0    0  501    0  0.00000000000E+00  0.00000000000E+00  0.61111927854E+03  0.61111927854E+03  0.25500000000E-02 0. -1.
         -1   -1    0    0    0  501 -0.00000000000E+00 -0.00000000000E+00 -0.24990193305E+01  0.24990244128E+01  0.50400000000E-02 0.  1.
         24    2    1    2    0    0  0.00000000000E+00  0.00000000000E+00  0.60862025920E+03  0.61361830295E+03  0.78158824229E+02 0.  0.
         66    2    3    3    0    0  0.30762481661E+02 -0.11181599801E+02  0.47176042930E+03  0.47289878527E+03  0.20000006118E+01 0.  0.
        -13    1    3    3    0    0 -0.30762481661E+02  0.11181599801E+02  0.13685982990E+03  0.14071951768E+03  0.10566000000E+00 0.  1.
         13    1    4    4    0    0  0.18704426171E+02 -0.67089449142E+01  0.29197745695E+03  0.29265288659E+03  0.10566000000E+00 0. -1.
        -13    1    4    4    0    0  0.14980004062E+01 -0.74399149949E+00  0.19282895395E+02  0.19355586982E+02  0.10566000000E+00 0.  1.
         14    1    4    4    0    0  0.10560055084E+02 -0.37286633870E+01  0.16050007696E+03  0.16089031170E+03  0.00000000000E+00 0. -1.
<mgrwt>
<rscale>  0 0.78158824E+02</rscale>
<asrwt>0</asrwt>
<pdfrwt beam="1">  1        2 0.94018450E-01 0.78158824E+02</pdfrwt>
<pdfrwt beam="2">  1       -1 0.38446450E-03 0.78158824E+02</pdfrwt>
<totfact> 0.34343271E+05</totfact>
</mgrwt>
</event>
<event>
 8    1  0.2389776E-020  0.7799045E+02  0.7818608E-02  0.1334853E+00
         -1   -1    0    0    0  501 -0.00000000000E+00  0.00000000000E+00  0.70904238189E+01  0.70904256102E+01  0.50400000000E-02 0.  1.
          2   -1    0    0  501    0  0.00000000000E+00 -0.00000000000E+00 -0.21446213009E+03  0.21446213011E+03  0.25500000000E-02 0. -1.
         24    2    1    2    0    0 -0.71054273576E-14 -0.55511151231E-16 -0.20737170627E+03  0.22155255572E+03  0.77990450584E+02 0.  0.
         66    2    3    3    0    0  0.35506999563E+02 -0.32938156975E+00 -0.58144999127E+02  0.68159345960E+02  0.20000019735E+01 0.  0.
        -13    1    3    3    0    0 -0.35506999563E+02  0.32938156975E+00 -0.14922670714E+03  0.15339320976E+03  0.10566000000E+00 0.  1.
         13    1    4    4    0    0  0.10758415391E+02 -0.64954602193E+00 -0.17937957548E+02  0.20927180814E+02  0.10566000000E+00 0. -1.
        -13    1    4    4    0    0  0.19157721172E+02 -0.19361293704E+00 -0.31676492266E+02  0.37019820269E+02  0.10566000000E+00 0.  1.
        -14    1    4    4    0    0  0.55908629998E+01  0.51377738923E+00 -0.85305493134E+01  0.10212344877E+02  0.00000000000E+00 0.  1.
<mgrwt>
<rscale>  0 0.77990451E+02</rscale>
<asrwt>0</asrwt>
<pdfrwt beam="1">  1        2 0.32994169E-01 0.77990451E+02</pdfrwt>
<pdfrwt beam="2">  1       -1 0.10908347E-02 0.77990451E+02</pdfrwt>
<totfact> 0.24168701E+05</totfact>
</mgrwt>
</event>
<event>
 8    1  0.2389776E-020  0.7880596E+02  0.7818608E-02  0.1332475E+00
         -1   -1    0    0    0  501 -0.00000000000E+00  0.00000000000E+00  0.63497550196E+01  0.63497570198E+01  0.50400000000E-02 0.  1.
          2   -1    0    0  501    0  0.00000000000E+00 -0.00000000000E+00 -0.24451249396E+03  0.24451249398E+03  0.25500000000E-02 0. -1.
         24    2    1    2    0    0  0.71054273576E-14  0.00000000000E+00 -0.23816273894E+03  0.25086225100E+03  0.78805956335E+02 0.  0.
         66    2    3    3    0    0  0.32063741423E+02 -0.11076073187E+02 -0.18280988111E+03  0.18594143041E+03  0.19999999182E+01 0.  0.
        -13    1    3    3    0    0 -0.32063741423E+02  0.11076073187E+02 -0.55352857829E+02  0.64920820583E+02  0.10566000000E+00 0.  1.
         13    1    4    4    0    0  0.11458524614E+02 -0.42934043746E+01 -0.67622336772E+02  0.68720613370E+02  0.10566000000E+00 0. -1.
        -13    1    4    4    0    0  0.85615427574E+01 -0.31641347488E+01 -0.51735541466E+02  0.52534647404E+02  0.10566000000E+00 0.  1.
         14    1    4    4    0    0  0.12043674052E+02 -0.36185340640E+01 -0.63452002876E+02  0.64686169638E+02  0.00000000000E+00 0. -1.
<mgrwt>
<rscale>  0 0.78805956E+02</rscale>
<asrwt>0</asrwt>
<pdfrwt beam="1">  1        2 0.37617300E-01 0.78805956E+02</pdfrwt>
<pdfrwt beam="2">  1       -1 0.97688573E-03 0.78805956E+02</pdfrwt>
<totfact> 0.24634071E+05</totfact>
</mgrwt>
</event>
<event>
 8    1  0.2389776E-020  0.7968213E+02  0.7818608E-02  0.1329956E+00
         -1   -1    0    0    0  501 -0.00000000000E+00  0.00000000000E+00  0.42098639084E+02  0.42098639386E+02  0.50400000000E-02 0.  1.
          2   -1    0    0  501    0  0.00000000000E+00 -0.00000000000E+00 -0.37704553660E+02  0.37704553746E+02  0.25500000000E-02 0. -1.
         24    2    1    2    0    0 -0.35527136788E-14  0.71054273576E-14  0.43940854248E+01  0.79803193132E+02  0.79682128783E+02 0.  0.
         66    2    3    3    0    0 -0.16051267205E+02 -0.35190148411E+02 -0.72666365055E+01  0.39405503544E+02  0.19999948458E+01 0.  0.
        -13    1    3    3    0    0  0.16051267205E+02  0.35190148411E+02  0.11660721930E+02  0.40397689588E+02  0.10566000000E+00 0.  1.
         13    1    4    4    0    0 -0.56535409928E+00 -0.18049114123E+01 -0.34298706493E+00  0.19251323659E+01  0.10566000000E+00 0. -1.
        -13    1    4    4    0    0 -0.13550160064E+00 -0.28378757879E+00  0.40341895996E-01  0.33419691474E+00  0.10566000000E+00 0.  1.
         14    1    4    4    0    0 -0.15350411505E+02 -0.33101449420E+02 -0.69639913365E+01  0.37146174263E+02  0.00000000000E+00 0. -1.
<mgrwt>
<rscale>  0 0.79682129E+02</rscale>
<asrwt>0</asrwt>
<pdfrwt beam="1">  1        2 0.58007006E-02 0.79682129E+02</pdfrwt>
<pdfrwt beam="2">  1       -1 0.64767137E-02 0.79682129E+02</pdfrwt>
<totfact> 0.14240338E+05</totfact>
</mgrwt>
</event>
<event>
 8    1  0.2389776E-020  0.8353079E+02  0.7818608E-02  0.1319320E+00
         -1   -1    0    0    0  501 -0.00000000000E+00  0.00000000000E+00  0.28993271210E+02  0.28993271648E+02  0.50400000000E-02 0.  1.
          2   -1    0    0  501    0  0.00000000000E+00 -0.00000000000E+00 -0.60163894221E+02  0.60163894275E+02  0.25500000000E-02 0. -1.
         24    2    1    2    0    0  0.00000000000E+00  0.71054273576E-14 -0.31170623011E+02  0.89157165924E+02  0.83530787717E+02 0.  0.
         66    2    3    3    0    0  0.21473818193E+01 -0.21157305884E+02 -0.53931511214E+02  0.58007333873E+02  0.20000100639E+01 0.  0.
        -13    1    3    3    0    0 -0.21473818193E+01  0.21157305884E+02  0.22760888203E+02  0.31149832051E+02  0.10566000000E+00 0.  1.
         13    1    4    4    0    0  0.10732104271E+01 -0.11336182240E+02 -0.29831750328E+02  0.31931258980E+02  0.10566000000E+00 0. -1.
        -13    1    4    4    0    0 -0.14273646333E+00 -0.26973561962E+01 -0.74603310138E+01  0.79349736621E+01  0.10566000000E+00 0.  1.
        -14    1    4    4    0    0  0.12169078556E+01 -0.71237674478E+01 -0.16639429873E+02  0.18141101231E+02  0.00000000000E+00 0.  1.
<mgrwt>
<rscale>  0 0.83530788E+02</rscale>
<asrwt>0</asrwt>
<pdfrwt beam="1">  1        2 0.92559837E-02 0.83530788E+02</pdfrwt>
<pdfrwt beam="2">  1       -1 0.44605033E-02 0.83530788E+02</pdfrwt>
<totfact> 0.13844412E+05</totfact>
</mgrwt>
</event>
<event>
 8    1  0.2389776E-020  0.8025673E+02  0.7818608E-02  0.1328324E+00
          2   -1    0    0  501    0  0.00000000000E+00  0.00000000000E+00  0.13073188874E+04  0.13073188874E+04  0.25500000000E-02 0. -1.
         -1   -1    0    0    0  501 -0.00000000000E+00 -0.00000000000E+00 -0.12317413938E+01  0.12317517050E+01  0.50400000000E-02 0.  1.
         24    2    1    2    0    0  0.00000000000E+00 -0.17763568394E-14  0.13060871460E+04  0.13085506391E+04  0.80256726485E+02 0.  0.
         66    2    3    3    0    0 -0.44808732129E+01 -0.15833819810E+02  0.12497342014E+04  0.12498441351E+04  0.20000004850E+01 0.  0.
        -13    1    3    3    0    0  0.44808732129E+01  0.15833819810E+02  0.56352944627E+02  0.58706503956E+02  0.10566000000E+00 0.  1.
         13    1    4    4    0    0 -0.79163333140E+00 -0.29490737614E+01  0.23416685786E+03  0.23418678913E+03  0.10566000000E+00 0. -1.
        -13    1    4    4    0    0 -0.28062560358E+01 -0.10616766451E+02  0.77731956828E+03  0.77739713994E+03  0.10566000000E+00 0.  1.
        -14    1    4    4    0    0 -0.88298384575E+00 -0.22679795976E+01  0.23824777522E+03  0.23826020606E+03  0.00000000000E+00 0.  1.
<mgrwt>
<rscale>  0 0.80256726E+02</rscale>
<asrwt>0</asrwt>
<pdfrwt beam="1">  1        2 0.20112710E+00 0.80256726E+02</pdfrwt>
<pdfrwt beam="2">  1       -1 0.18949842E-03 0.80256726E+02</pdfrwt>
<totfact> 0.34292096E+05</totfact>
</mgrwt>
</event>
<event>
 8    1  0.2389776E-020  0.7622152E+02  0.7818608E-02  0.1340130E+00
         -1   -1    0    0    0  501 -0.00000000000E+00  0.00000000000E+00  0.13626700761E+02  0.13626701693E+02  0.50400000000E-02 0.  1.
          2   -1    0    0  501    0  0.00000000000E+00 -0.00000000000E+00 -0.10658706888E+03  0.10658706891E+03  0.25500000000E-02 0. -1.
         24    2    1    2    0    0  0.00000000000E+00  0.00000000000E+00 -0.92960368116E+02  0.12021377060E+03  0.76221523219E+02 0.  0.
         66    2    3    3    0    0 -0.16819511897E+02  0.19535416623E+02 -0.90726049128E+02  0.94338457492E+02  0.20000221656E+01 0.  0.
        -13    1    3    3    0    0  0.16819511897E+02 -0.19535416623E+02 -0.22343189880E+01  0.25875313108E+02  0.10566000000E+00 0.  1.
         13    1    4    4    0    0 -0.79913269823E+01  0.96980233009E+01 -0.42746783844E+02  0.44555714066E+02  0.10566000000E+00 0. -1.
        -13    1    4    4    0    0 -0.25428655070E+01  0.20428280172E+01 -0.11452241412E+02  0.11908161432E+02  0.10566000000E+00 0.  1.
        -14    1    4    4    0    0 -0.62853194078E+01  0.77945653044E+01 -0.36527023872E+02  0.37874581995E+02  0.00000000000E+00 0.  1.
<mgrwt>
<rscale>  0 0.76221523E+02</rscale>
<asrwt>0</asrwt>
<pdfrwt beam="1">  1        2 0.16398010E-01 0.76221523E+02</pdfrwt>
<pdfrwt beam="2">  1       -1 0.20964156E-02 0.76221523E+02</pdfrwt>
<totfact> 0.20535006E+05</totfact>
</mgrwt>
</event>
<event>
 8    1  0.2389776E-020  0.7969340E+02  0.7818608E-02  0.1329924E+00
          2   -1    0    0  501    0  0.00000000000E+00  0.00000000000E+00  0.28159513231E+03  0.28159513232E+03  0.25500000000E-02 0. -1.
         -1   -1    0    0    0  501 -0.00000000000E+00 -0.00000000000E+00 -0.56384466552E+01  0.56384489077E+01  0.50400000000E-02 0.  1.
         24    2    1    2    0    0  0.17763568394E-14  0.00000000000E+00  0.27595668566E+03  0.28723358123E+03  0.79693398900E+02 0.  0.
         66    2    3    3    0    0 -0.13159640012E+02 -0.31849481549E+02  0.20998628667E+03  0.21280461975E+03  0.19999996646E+01 0.  0.
        -13    1    3    3    0    0  0.13159640012E+02  0.31849481549E+02  0.65970398988E+02  0.74428961479E+02  0.10566000000E+00 0.  1.
         13    1    4    4    0    0 -0.10513357152E+02 -0.25711749614E+02  0.17099325409E+03  0.17323489503E+03  0.10566000000E+00 0. -1.
        -13    1    4    4    0    0 -0.24572561253E+01 -0.49587832422E+01  0.32414671835E+02  0.32883882877E+02  0.10566000000E+00 0.  1.
        -14    1    4    4    0    0 -0.18902673458E+00 -0.11789486927E+01  0.65783607450E+01  0.66858418481E+01  0.00000000000E+00 0.  1.
<mgrwt>
<rscale>  0 0.79693399E+02</rscale>
<asrwt>0</asrwt>
<pdfrwt beam="1">  1        2 0.43322340E-01 0.79693399E+02</pdfrwt>
<pdfrwt beam="2">  1       -1 0.86745326E-03 0.79693399E+02</pdfrwt>
<totfact> 0.25168697E+05</totfact>
</mgrwt>
</event>
<event>
 8    1  0.2389776E-020  0.8148333E+02  0.7818608E-02  0.1324894E+00
         -1   -1    0    0    0  501 -0.00000000000E+00  0.00000000000E+00  0.20785303443E+02  0.20785304054E+02  0.50400000000E-02 0.  1.
          2   -1    0    0  501    0  0.00000000000E+00 -0.00000000000E+00 -0.79858510036E+02  0.79858510077E+02  0.25500000000E-02 0. -1.
         24    2    1    2    0    0  0.00000000000E+00  0.00000000000E+00 -0.59073206594E+02  0.10064381413E+03  0.81483333177E+02 0.  0.
         66    2    3    3    0    0  0.23768421272E+01  0.22457138015E+02 -0.71402035303E+02  0.74914772025E+02  0.19999989588E+01 0.  0.
        -13    1    3    3    0    0 -0.23768421272E+01 -0.22457138015E+02  0.12328828709E+02  0.25729042106E+02  0.10566000000E+00 0.  1.
         13    1    4    4    0    0  0.10740489080E+01  0.13976009336E+02 -0.46194237558E+02  0.48274228793E+02  0.10566000000E+00 0.  1.
        -13    1    4    4    0    0  0.50655201319E-01  0.26248148152E+00 -0.57810974261E+00  0.64562945074E+00  0.10566000000E+00 0. -1.
         14    1    4    4    0    0  0.12521380179E+01  0.82186471975E+01 -0.24629688003E+02  0.25994913781E+02  0.00000000000E+00 0. -1.
<mgrwt>
<rscale>  0 0.81483333E+02</rscale>
<asrwt>0</asrwt>
<pdfrwt beam="1">  1        2 0.12285924E-01 0.81483333E+02</pdfrwt>
<pdfrwt beam="2">  1       -1 0.31977391E-02 0.81483333E+02</pdfrwt>
<totfact> 0.15880717E+05</totfact>
</mgrwt>
</event>
<event>
 8    1  0.2389776E-020  0.7817960E+02  0.7818608E-02  0.1334298E+00
          2   -1    0    0  501    0  0.00000000000E+00  0.00000000000E+00  0.51253481992E+03  0.51253481992E+03  0.25500000000E-02 0. -1.
         -1   -1    0    0    0  501 -0.00000000000E+00 -0.00000000000E+00 -0.29812826996E+01  0.29812869598E+01  0.50400000000E-02 0.  1.
         24    2    1    2    0    0 -0.35527136788E-14  0.00000000000E+00  0.50955353722E+03  0.51551610688E+03  0.78179595580E+02 0.  0.
         66    2    3    3    0    0 -0.15665599819E+02 -0.18483276544E+02  0.45699984610E+03  0.45764604430E+03  0.19999990828E+01 0.  0.
        -13    1    3    3    0    0  0.15665599819E+02  0.18483276544E+02  0.52553691111E+02  0.57870062579E+02  0.10566000000E+00 0.  1.
         13    1    4    4    0    0 -0.47612145717E+01 -0.48237079682E+01  0.12426408468E+03  0.12444882976E+03  0.10566000000E+00 0. -1.
        -13    1    4    4    0    0 -0.45821593230E-01 -0.16812933794E+00  0.50793480179E+01  0.50834346082E+01  0.10566000000E+00 0. -1.
        -14    1    4    4    0    0 -0.10858563654E+02 -0.13491439238E+02  0.32765641340E+03  0.32811377993E+03  0.00000000000E+00 0.  1.
<mgrwt>
<rscale>  0 0.78179596E+02</rscale>
<asrwt>0</asrwt>
<pdfrwt beam="1">  1        2 0.78851557E-01 0.78179596E+02</pdfrwt>
<pdfrwt beam="2">  1       -1 0.45865894E-03 0.78179596E+02</pdfrwt>
<totfact> 0.32585621E+05</totfact>
</mgrwt>
</event>
<event>
 8    1  0.2389776E-020  0.8250556E+02  0.7818608E-02  0.1322088E+00
         -1   -1    0    0    0  501 -0.00000000000E+00  0.00000000000E+00  0.68189455042E+01  0.68189473668E+01  0.50400000000E-02 0.  1.
          2   -1    0    0  501    0  0.00000000000E+00 -0.00000000000E+00 -0.24956812530E+03  0.24956812531E+03  0.25500000000E-02 0. -1.
         24    2    1    2    0    0  0.00000000000E+00  0.88817841970E-15 -0.24274917980E+03  0.25638707268E+03  0.82505555848E+02 0.  0.
         66    2    3    3    0    0 -0.20457294263E+02  0.77347611159E+01 -0.23005136380E+03  0.23109728990E+03  0.19999983885E+01 0.  0.
        -13    1    3    3    0    0  0.20457294263E+02 -0.77347611159E+01 -0.12697815995E+02  0.25289782782E+02  0.10566000000E+00 0.  1.
         13    1    4    4    0    0 -0.90446562383E+01  0.42879826756E+01 -0.10106959224E+03  0.10156409918E+03  0.10566000000E+00 0. -1.
        -13    1    4    4    0    0 -0.65523031718E+01  0.16507774487E+01 -0.72940795744E+02  0.73253181438E+02  0.10566000000E+00 0.  1.
         14    1    4    4    0    0 -0.48603348526E+01  0.17960009916E+01 -0.56040975814E+02  0.56280009281E+02  0.00000000000E+00 0. -1.
<mgrwt>
<rscale>  0 0.82505556E+02</rscale>
<asrwt>0</asrwt>
<pdfrwt beam="1">  1        2 0.38395089E-01 0.82505556E+02</pdfrwt>
<pdfrwt beam="2">  1       -1 0.10490689E-02 0.82505556E+02</pdfrwt>
<totfact> 0.21993144E+05</totfact>
</mgrwt>
</event>
<event>
 8    1  0.2389776E-020  0.7007041E+02  0.7818608E-02  0.1359854E+00
          2   -1    0    0  501    0  0.00000000000E+00  0.00000000000E+00  0.58207658760E+03  0.58207658760E+03  0.25500000000E-02 0. -1.
         -1   -1    0    0    0  501 -0.00000000000E+00 -0.00000000000E+00 -0.21087668837E+01  0.21087729065E+01  0.50400000000E-02 0.  1.
         24    2    1    2    0    0  0.00000000000E+00 -0.17763568394E-14  0.57996782071E+03  0.58418536051E+03  0.70070410090E+02 0.  0.
         66    2    3    3    0    0 -0.16535486641E+02  0.10176229281E+02  0.53306918344E+03  0.53342640757E+03  0.20000010628E+01 0.  0.
        -13    1    3    3    0    0  0.16535486641E+02 -0.10176229281E+02  0.46898637273E+02  0.50758952934E+02  0.10566000000E+00 0.  1.
         13    1    4    4    0    0 -0.71873029703E+01  0.45145164476E+01  0.25301740268E+03  0.25315974286E+03  0.10566000000E+00 0. -1.
        -13    1    4    4    0    0 -0.22696307077E+01  0.18703001779E+01  0.75212174652E+02  0.75269725828E+02  0.10566000000E+00 0.  1.
         14    1    4    4    0    0 -0.70785529625E+01  0.37914126558E+01  0.20483960611E+03  0.20499693889E+03  0.00000000000E+00 0. -1.
<mgrwt>
<rscale>  0 0.70070410E+02</rscale>
<asrwt>0</asrwt>
<pdfrwt beam="1">  1        2 0.89550143E-01 0.70070410E+02</pdfrwt>
<pdfrwt beam="2">  1       -1 0.32442651E-03 0.70070410E+02</pdfrwt>
<totfact> 0.44916328E+05</totfact>
</mgrwt>
</event>
<event>
 8    1  0.2389776E-020  0.7976590E+02  0.7818608E-02  0.1329717E+00
          2   -1    0    0  501    0  0.00000000000E+00  0.00000000000E+00  0.11371087175E+02  0.11371087461E+02  0.25500000000E-02 0. -1.
         -1   -1    0    0    0  501 -0.00000000000E+00 -0.00000000000E+00 -0.13988545553E+03  0.13988545562E+03  0.50400000000E-02 0.  1.
         24    2    1    2    0    0  0.00000000000E+00  0.00000000000E+00 -0.12851436836E+03  0.15125654308E+03  0.79765900932E+02 0.  0.
         66    2    3    3    0    0  0.20190904319E+02  0.14540707101E+02 -0.52529257093E+01  0.25508782914E+02  0.19999992459E+01 0.  0.
        -13    1    3    3    0    0 -0.20190904319E+02 -0.14540707101E+02 -0.12326144265E+03  0.12574776017E+03  0.10566000000E+00 0.  1.
         13    1    4    4    0    0  0.56808111707E+01  0.39108764184E+01 -0.83626515753E+00  0.69481705050E+01  0.10566000000E+00 0. -1.
        -13    1    4    4    0    0  0.53522093524E+00  0.54003584037E+00 -0.38498167008E+00  0.85876369293E+00  0.10566000000E+00 0.  1.
         14    1    4    4    0    0  0.13974872214E+02  0.10089794842E+02 -0.40316788816E+01  0.17701848716E+02  0.00000000000E+00 0. -1.
<mgrwt>
<rscale>  0 0.79765901E+02</rscale>
<asrwt>0</asrwt>
<pdfrwt beam="1">  1        2 0.17493981E-02 0.79765901E+02</pdfrwt>
<pdfrwt beam="2">  1       -1 0.21520838E-01 0.79765901E+02</pdfrwt>
<totfact> 0.11058936E+05</totfact>
</mgrwt>
</event>
<event>
 8    1  0.2389776E-020  0.7949485E+02  0.7818608E-02  0.1330491E+00
         -1   -1    0    0    0  501 -0.00000000000E+00  0.00000000000E+00  0.13003101073E+02  0.13003102050E+02  0.50400000000E-02 0.  1.
          2   -1    0    0  501    0  0.00000000000E+00 -0.00000000000E+00 -0.12149853892E+03  0.12149853895E+03  0.25500000000E-02 0. -1.
         24    2    1    2    0    0  0.35527136788E-14  0.00000000000E+00 -0.10849543785E+03  0.13450164100E+03  0.79494851387E+02 0.  0.
         66    2    3    3    0    0 -0.29046661549E+02 -0.87825079244E+01 -0.97650539943E+02  0.10227643398E+03  0.20000010662E+01 0.  0.
        -13    1    3    3    0    0  0.29046661549E+02  0.87825079244E+01 -0.10844897905E+02  0.32225207015E+02  0.10566000000E+00 0.  1.
         13    1    4    4    0    0 -0.85143072677E+01 -0.31727794667E+01 -0.30008785689E+02  0.31354399059E+02  0.10566000000E+00 0. -1.
        -13    1    4    4    0    0 -0.38621805872E+00 -0.66744731799E-01 -0.93358172195E+00  0.10180167559E+01  0.10566000000E+00 0. -1.
         14    1    4    4    0    0 -0.20146136222E+02 -0.55429837260E+01 -0.66708172532E+02  0.69904018167E+02  0.00000000000E+00 0. -1.
<mgrwt>
<rscale>  0 0.79494851E+02</rscale>
<asrwt>0</asrwt>
<pdfrwt beam="1">  1        2 0.18692082E-01 0.79494851E+02</pdfrwt>
<pdfrwt beam="2">  1       -1 0.20004773E-02 0.79494851E+02</pdfrwt>
<totfact> 0.19075508E+05</totfact>
</mgrwt>
</event>
<event>
 8    1  0.2968374E-020  0.8010328E+02  0.7818608E-02  0.1328759E+00
          2   -1    0    0  501    0  0.00000000000E+00  0.00000000000E+00  0.39013026944E+03  0.39013026945E+03  0.25500000000E-02 0. -1.
         -1   -1    0    0    0  501 -0.00000000000E+00 -0.00000000000E+00 -0.41117891422E+01  0.41117922311E+01  0.50400000000E-02 0.  1.
         24    2    1    2    0    0  0.71054273576E-14  0.00000000000E+00  0.38601848030E+03  0.39424206168E+03  0.80103283739E+02 0.  0.
         66    2    3    3    0    0  0.20681240105E+02  0.17317603896E+02  0.33867396162E+03  0.33975235889E+03  0.19999990924E+01 0.  0.
        -13    1    3    3    0    0 -0.20681240105E+02 -0.17317603896E+02  0.47344518678E+02  0.54489702787E+02  0.10566000000E+00 0.  1.
         13    1    4    4    0    0  0.33073338249E+00  0.28481550557E+00  0.63939422528E+01  0.64096931292E+01  0.10566000000E+00 0. -1.
        -13    1    4    4    0    0  0.15409945052E+01  0.18601917545E+01  0.33151098991E+02  0.33239156213E+02  0.10566000000E+00 0.  1.
         14    1    4    4    0    0  0.18809512217E+02  0.15172596636E+02  0.29912892037E+03  0.30010350955E+03  0.00000000000E+00 0. -1.
<mgrwt>
<rscale>  0 0.80103284E+02</rscale>
<asrwt>0</asrwt>
<pdfrwt beam="1">  1        2 0.60020070E-01 0.80103284E+02</pdfrwt>
<pdfrwt beam="2">  1       -1 0.63258289E-03 0.80103284E+02</pdfrwt>
<totfact> 0.27912888E+05</totfact>
</mgrwt>
</event>
<event>
 8    1  0.2389776E-020  0.8040779E+02  0.7818608E-02  0.1327898E+00
          2   -1    0    0  501    0  0.00000000000E+00  0.00000000000E+00  0.24007430761E+03  0.24007430762E+03  0.25500000000E-02 0. -1.
         -1   -1    0    0    0  501 -0.00000000000E+00 -0.00000000000E+00 -0.67327201756E+01  0.67327220621E+01  0.50400000000E-02 0.  1.
         24    2    1    2    0    0  0.35527136788E-14 -0.22204460493E-15  0.23334158743E+03  0.24680702968E+03  0.80407794869E+02 0.  0.
         66    2    3    3    0    0  0.23738176054E+02  0.18280158693E+01  0.21608584513E+03  0.21740270260E+03  0.19999977901E+01 0.  0.
        -13    1    3    3    0    0 -0.23738176054E+02 -0.18280158693E+01  0.17255742304E+02  0.29404327077E+02  0.10566000000E+00 0.  1.
         13    1    4    4    0    0  0.52003148973E+01  0.34416506947E+00  0.48528685821E+02  0.48807850149E+02  0.10566000000E+00 0. -1.
        -13    1    4    4    0    0  0.42608371708E+01  0.10662425275E+01  0.39723917445E+02  0.39966140516E+02  0.10566000000E+00 0.  1.
         14    1    4    4    0    0  0.14277023986E+02  0.41760827235E+00  0.12783324186E+03  0.12862871194E+03  0.00000000000E+00 0. -1.
<mgrwt>
<rscale>  0 0.80407795E+02</rscale>
<asrwt>0</asrwt>
<pdfrwt beam="1">  1        2 0.36934515E-01 0.80407795E+02</pdfrwt>
<pdfrwt beam="2">  1       -1 0.10358031E-02 0.80407795E+02</pdfrwt>
<totfact> 0.23212510E+05</totfact>
</mgrwt>
</event>
<event>
 8    1  0.2389776E-020  0.8014711E+02  0.7818608E-02  0.1328634E+00
         -1   -1    0    0    0  501 -0.00000000000E+00  0.00000000000E+00  0.52060797971E+01  0.52060822367E+01  0.50400000000E-02 0.  1.
          2   -1    0    0  501    0  0.00000000000E+00 -0.00000000000E+00 -0.30846424324E+03  0.30846424325E+03  0.25500000000E-02 0. -1.
         24    2    1    2    0    0  0.00000000000E+00  0.00000000000E+00 -0.30325816345E+03  0.31367032549E+03  0.80147110968E+02 0.  0.
         66    2    3    3    0    0  0.38413490246E+02  0.23186144504E+01 -0.10833381197E+03  0.11498342061E+03  0.19999987237E+01 0.  0.
        -13    1    3    3    0    0 -0.38413490246E+02 -0.23186144504E+01 -0.19492435148E+03  0.19868690488E+03  0.10566000000E+00 0.  1.
         13    1    4    4    0    0  0.90504884730E+01  0.89140181951E+00 -0.25776432089E+02  0.27333890211E+02  0.10566000000E+00 0. -1.
        -13    1    4    4    0    0  0.12878942827E+02 -0.14693556848E+00 -0.35794009230E+02  0.38040912439E+02  0.10566000000E+00 0.  1.
        -14    1    4    4    0    0  0.16484058946E+02  0.15741481994E+01 -0.46763370648E+02  0.49608617963E+02  0.00000000000E+00 0.  1.
<mgrwt>
<rscale>  0 0.80147111E+02</rscale>
<asrwt>0</asrwt>
<pdfrwt beam="1">  1        2 0.47456023E-01 0.80147111E+02</pdfrwt>
<pdfrwt beam="2">  1       -1 0.80093579E-03 0.80147111E+02</pdfrwt>
<totfact> 0.25628746E+05</totfact>
</mgrwt>
</event>
<event>
 8    1  0.2389776E-020  0.8149409E+02  0.7818608E-02  0.1324864E+00
         -1   -1    0    0    0  501 -0.00000000000E+00  0.00000000000E+00  0.71182791983E+01  0.71182809826E+01  0.50400000000E-02 0.  1.
          2   -1    0    0  501    0  0.00000000000E+00 -0.00000000000E+00 -0.23324759828E+03  0.23324759830E+03  0.25500000000E-02 0. -1.
         24    2    1    2    0    0  0.00000000000E+00  0.00000000000E+00 -0.22612931909E+03  0.24036587928E+03  0.81494091640E+02 0.  0.
         66    2    3    3    0    0 -0.34051958558E+02  0.14964248198E+02 -0.16203114868E+03  0.16625750446E+03  0.20000098334E+01 0.  0.
        -13    1    3    3    0    0  0.34051958558E+02 -0.14964248198E+02 -0.64098170402E+02  0.74108374822E+02  0.10566000000E+00 0.  1.
         13    1    4    4    0    0 -0.16242179889E+02  0.65903256204E+01 -0.78352049261E+02  0.80288826039E+02  0.10566000000E+00 0. -1.
        -13    1    4    4    0    0 -0.10784055075E+02  0.53168158773E+01 -0.49089371284E+02  0.50540497743E+02  0.10566000000E+00 0.  1.
        -14    1    4    4    0    0 -0.70257235946E+01  0.30571067002E+01 -0.34589728139E+02  0.35428180678E+02  0.00000000000E+00 0.  1.
<mgrwt>
<rscale>  0 0.81494092E+02</rscale>
<asrwt>0</asrwt>
<pdfrwt beam="1">  1        2 0.35884240E-01 0.81494092E+02</pdfrwt>
<pdfrwt beam="2">  1       -1 0.10951202E-02 0.81494092E+02</pdfrwt>
<totfact> 0.22176835E+05</totfact>
</mgrwt>
</event>
<event>
 8    1  0.2389776E-020  0.8082772E+02  0.7818608E-02  0.1326719E+00
         -1   -1    0    0    0  501 -0.00000000000E+00  0.00000000000E+00  0.36388517950E+01  0.36388552853E+01  0.50400000000E-02 0.  1.
          2   -1    0    0  501    0  0.00000000000E+00 -0.00000000000E+00 -0.44884464798E+03  0.44884464799E+03  0.25500000000E-02 0. -1.
         24    2    1    2    0    0 -0.35527136788E-14  0.00000000000E+00 -0.44520579619E+03  0.45248350327E+03  0.80827716639E+02 0.  0.
         66    2    3    3    0    0  0.25919147134E+02 -0.33187889637E+01 -0.39514449715E+03  0.39601261366E+03  0.20000006933E+01 0.  0.
        -13    1    3    3    0    0 -0.25919147134E+02  0.33187889637E+01 -0.50061299035E+02  0.56470889611E+02  0.10566000000E+00 0.  1.
         13    1    4    4    0    0  0.13254007225E+02 -0.22175768225E+01 -0.21224867391E+03  0.21267368689E+03  0.10566000000E+00 0. -1.
        -13    1    4    4    0    0  0.19590995139E+01  0.10601332410E+00 -0.28596566341E+02  0.28663985771E+02  0.10566000000E+00 0.  1.
         14    1    4    4    0    0  0.10706040395E+02 -0.12072254653E+01 -0.15429925690E+03  0.15467494100E+03  0.00000000000E+00 0. -1.
<mgrwt>
<rscale>  0 0.80827717E+02</rscale>
<asrwt>0</asrwt>
<pdfrwt beam="1">  1        2 0.69052979E-01 0.80827717E+02</pdfrwt>
<pdfrwt beam="2">  1       -1 0.55982398E-03 0.80827717E+02</pdfrwt>
<totfact> 0.28613871E+05</totfact>
</mgrwt>
</event>
<event>
 8    1  0.2389776E-020  0.8016858E+02  0.7818608E-02  0.1328574E+00
          2   -1    0    0  501    0  0.00000000000E+00  0.00000000000E+00  0.10934370929E+02  0.10934371226E+02  0.25500000000E-02 0. -1.
         -1   -1    0    0    0  501 -0.00000000000E+00 -0.00000000000E+00 -0.14694492313E+03  0.14694492321E+03  0.50400000000E-02 0.  1.
         24    2    1    2    0    0  0.35527136788E-14  0.00000000000E+00 -0.13601055220E+03  0.15787929444E+03  0.80168580525E+02 0.  0.
         66    2    3    3    0    0 -0.31580923721E+02  0.16494624185E+01 -0.19621308949E+02  0.37270245950E+02  0.19999997354E+01 0.  0.
        -13    1    3    3    0    0  0.31580923721E+02 -0.16494624185E+01 -0.11638924325E+03  0.12060904849E+03  0.10566000000E+00 0.  1.
         13    1    4    4    0    0 -0.25118647337E+02  0.16489959334E+01 -0.15835410730E+02  0.29739486018E+02  0.10566000000E+00 0. -1.
        -13    1    4    4    0    0 -0.35246986667E+01  0.11111138831E+00 -0.24894526550E+01  0.43179144258E+01  0.10566000000E+00 0.  1.
        -14    1    4    4    0    0 -0.29375777181E+01 -0.11064490329E+00 -0.12964455635E+01  0.32128455057E+01  0.00000000000E+00 0.  1.
<mgrwt>
<rscale>  0 0.80168581E+02</rscale>
<asrwt>0</asrwt>
<pdfrwt beam="1">  1        2 0.16822110E-02 0.80168581E+02</pdfrwt>
<pdfrwt beam="2">  1       -1 0.22606910E-01 0.80168581E+02</pdfrwt>
<totfact> 0.10786184E+05</totfact>
</mgrwt>
</event>
<event>
 8    1  0.2389776E-020  0.7918091E+02  0.7818608E-02  0.1331392E+00
         -1   -1    0    0    0  501 -0.00000000000E+00  0.00000000000E+00  0.64100126031E+02  0.64100126229E+02  0.50400000000E-02 0.  1.
          2   -1    0    0  501    0  0.00000000000E+00 -0.00000000000E+00 -0.24452433355E+02  0.24452433488E+02  0.25500000000E-02 0. -1.
         24    2    1    2    0    0  0.00000000000E+00  0.00000000000E+00  0.39647692676E+02  0.88552559716E+02  0.79180908670E+02 0.  0.
         66    2    3    3    0    0 -0.32071226611E+02  0.23162754647E+02  0.19201503039E+02  0.44020160119E+02  0.19999996708E+01 0.  0.
        -13    1    3    3    0    0  0.32071226611E+02 -0.23162754647E+02  0.20446189637E+02  0.44532399598E+02  0.10566000000E+00 0.  1.
         13    1    4    4    0    0 -0.29629939654E+02  0.21444711208E+02  0.17734895056E+02  0.40649066771E+02  0.10566000000E+00 0. -1.
        -13    1    4    4    0    0 -0.61235244008E+00  0.64708712850E+00  0.26846226510E+00  0.93644716142E+00  0.10566000000E+00 0.  1.
         14    1    4    4    0    0 -0.18289345174E+01  0.10709563113E+01  0.11981457184E+01  0.24346461862E+01  0.00000000000E+00 0. -1.
<mgrwt>
<rscale>  0 0.79180909E+02</rscale>
<asrwt>0</asrwt>
<pdfrwt beam="1">  1        2 0.37619128E-02 0.79180909E+02</pdfrwt>
<pdfrwt beam="2">  1       -1 0.98615580E-02 0.79180909E+02</pdfrwt>
<totfact> 0.13306051E+05</totfact>
</mgrwt>
</event>
<event>
 8    1  0.2389776E-020  0.8443277E+02  0.7818608E-02  0.1316923E+00
          2   -1    0    0  501    0  0.00000000000E+00  0.00000000000E+00  0.13370856019E+04  0.13370856019E+04  0.25500000000E-02 0. -1.
         -1   -1    0    0    0  501 -0.00000000000E+00 -0.00000000000E+00 -0.13329114797E+01  0.13329210083E+01  0.50400000000E-02 0.  1.
         24    2    1    2    0    0 -0.88817841970E-15 -0.35527136788E-14  0.13357526904E+04  0.13384185229E+04  0.84432769143E+02 0.  0.
         66    2    3    3    0    0 -0.70033519552E+01 -0.25890919682E+02  0.11845523867E+04  0.11848576892E+04  0.20000010211E+01 0.  0.
        -13    1    3    3    0    0  0.70033519552E+01  0.25890919682E+02  0.15120030366E+03  0.15356083372E+03  0.10566000000E+00 0.  1.
         13    1    4    4    0    0 -0.14104739145E+01 -0.60630591115E+01  0.28063144202E+03  0.28070049437E+03  0.10566000000E+00 0. -1.
        -13    1    4    4    0    0 -0.25574856580E+01 -0.83811382553E+01  0.41948047253E+03  0.41957199883E+03  0.10566000000E+00 0.  1.
        -14    1    4    4    0    0 -0.30353923828E+01 -0.11446722315E+02  0.48444047219E+03  0.48458519597E+03  0.00000000000E+00 0.  1.
<mgrwt>
<rscale>  0 0.84432769E+02</rscale>
<asrwt>0</asrwt>
<pdfrwt beam="1">  1        2 0.20570460E+00 0.84432769E+02</pdfrwt>
<pdfrwt beam="2">  1       -1 0.20506491E-03 0.84432769E+02</pdfrwt>
<totfact> 0.29903555E+05</totfact>
</mgrwt>
</event>
<event>
 8    1  0.2389776E-020  0.8073014E+02  0.7818608E-02  0.1326992E+00
          2   -1    0    0  501    0  0.00000000000E+00  0.00000000000E+00  0.47471768827E+01  0.47471775676E+01  0.25500000000E-02 0. -1.
         -1   -1    0    0    0  501 -0.00000000000E+00 -0.00000000000E+00 -0.34322271285E+03  0.34322271288E+03  0.50400000000E-02 0.  1.
         24    2    1    2    0    0  0.00000000000E+00  0.00000000000E+00 -0.33847553596E+03  0.34796989045E+03  0.80730144399E+02 0.  0.
         66    2    3    3    0    0  0.95786520817E+01  0.37571481399E+02 -0.12135037975E+03  0.12740989540E+03  0.19999978089E+01 0.  0.
        -13    1    3    3    0    0 -0.95786520817E+01 -0.37571481399E+02 -0.21712515622E+03  0.22055999505E+03  0.10566000000E+00 0.  1.
         13    1    4    4    0    0  0.40958318617E+01  0.16117868102E+02 -0.52668245782E+02  0.55231483672E+02  0.10566000000E+00 0. -1.
        -13    1    4    4    0    0  0.52463249543E+00  0.15437686003E+01 -0.40310530269E+01  0.43495992101E+01  0.10566000000E+00 0.  1.
        -14    1    4    4    0    0  0.49581877246E+01  0.19909844697E+02 -0.64651080939E+02  0.67828812520E+02  0.00000000000E+00 0.  1.
<mgrwt>
<rscale>  0 0.80730144E+02</rscale>
<asrwt>0</asrwt>
<pdfrwt beam="1">  1        2 0.73033523E-03 0.80730144E+02</pdfrwt>
<pdfrwt beam="2">  1       -1 0.52803475E-01 0.80730144E+02</pdfrwt>
<totfact> 0.79715421E+04</totfact>
</mgrwt>
</event>
<event>
 8    1  0.2389776E-020  0.8146081E+02  0.7818608E-02  0.1324956E+00
         -1   -1    0    0    0  501 -0.00000000000E+00  0.00000000000E+00  0.24784338747E+01  0.24784389992E+01  0.50400000000E-02 0.  1.
          2   -1    0    0  501    0  0.00000000000E+00 -0.00000000000E+00 -0.66935991583E+03  0.66935991584E+03  0.25500000000E-02 0. -1.
         24    2    1    2    0    0  0.00000000000E+00  0.00000000000E+00 -0.66688148196E+03  0.67183835484E+03  0.81460812979E+02 0.  0.
         66    2    3    3    0    0  0.28379751192E+02 -0.12726065115E+02 -0.55021903227E+03  0.55110103110E+03  0.20000000334E+01 0.  0.
        -13    1    3    3    0    0 -0.28379751192E+02  0.12726065115E+02 -0.11666244969E+03  0.12073732374E+03  0.10566000000E+00 0.  1.
         13    1    4    4    0    0  0.21157430414E+02 -0.91823631539E+01 -0.40030736149E+03  0.40097125519E+03  0.10566000000E+00 0. -1.
        -13    1    4    4    0    0  0.25719221746E+01 -0.86098608681E+00 -0.47527946316E+02  0.47605387571E+02  0.10566000000E+00 0.  1.
         14    1    4    4    0    0  0.46503986034E+01 -0.26827158747E+01 -0.10238372445E+03  0.10252438834E+03  0.00000000000E+00 0. -1.
<mgrwt>
<rscale>  0 0.81460813E+02</rscale>
<asrwt>0</asrwt>
<pdfrwt beam="1">  1        2 0.10297830E+00 0.81460813E+02</pdfrwt>
<pdfrwt beam="2">  1       -1 0.38129845E-03 0.81460813E+02</pdfrwt>
<totfact> 0.31576266E+05</totfact>
</mgrwt>
</event>
<event>
 8    1  0.2389776E-020  0.7973659E+02  0.7818608E-02  0.1329801E+00
         -1   -1    0    0    0  501 -0.00000000000E+00  0.00000000000E+00  0.25923645664E+02  0.25923646154E+02  0.50400000000E-02 0.  1.
          2   -1    0    0  501    0  0.00000000000E+00 -0.00000000000E+00 -0.61313941177E+02  0.61313941230E+02  0.25500000000E-02 0. -1.
         24    2    1    2    0    0  0.35527136788E-14  0.35527136788E-14 -0.35390295513E+02  0.87237587383E+02  0.79736589067E+02 0.  0.
         66    2    3    3    0    0 -0.31907851565E+02 -0.15573040480E+02 -0.37485833711E+02  0.51670284623E+02  0.20000007053E+01 0.  0.
        -13    1    3    3    0    0  0.31907851565E+02  0.15573040480E+02  0.20955381984E+01  0.35567302760E+02  0.10566000000E+00 0.  1.
         13    1    4    4    0    0 -0.23347991217E+02 -0.11838145713E+02 -0.27884008260E+02  0.38246561525E+02  0.10566000000E+00 0. -1.
        -13    1    4    4    0    0 -0.36973688969E+01 -0.15715025252E+01 -0.47499185407E+01  0.62219809647E+01  0.10566000000E+00 0.  1.
         14    1    4    4    0    0 -0.48624914506E+01 -0.21633922411E+01 -0.48519069098E+01  0.72017421335E+01  0.00000000000E+00 0. -1.
<mgrwt>
<rscale>  0 0.79736589E+02</rscale>
<asrwt>0</asrwt>
<pdfrwt beam="1">  1        2 0.94329140E-02 0.79736589E+02</pdfrwt>
<pdfrwt beam="2">  1       -1 0.39882533E-02 0.79736589E+02</pdfrwt>
<totfact> 0.15785438E+05</totfact>
</mgrwt>
</event>
<event>
 8    1  0.2389776E-020  0.7892733E+02  0.7818608E-02  0.1332123E+00
          2   -1    0    0  501    0  0.00000000000E+00  0.00000000000E+00  0.25021774312E+03  0.25021774313E+03  0.25500000000E-02 0. -1.
         -1   -1    0    0    0  501 -0.00000000000E+00 -0.00000000000E+00 -0.62241011987E+01  0.62241032393E+01  0.50400000000E-02 0.  1.
         24    2    1    2    0    0  0.00000000000E+00  0.00000000000E+00  0.24399364192E+03  0.25644184637E+03  0.78927329061E+02 0.  0.
         66    2    3    3    0    0 -0.15561384579E+02 -0.27609219007E+02  0.19833860077E+03  0.20086469630E+03  0.19999993886E+01 0.  0.
        -13    1    3    3    0    0  0.15561384579E+02  0.27609219007E+02  0.45655041145E+02  0.55577150072E+02  0.10566000000E+00 0.  1.
         13    1    4    4    0    0 -0.10929942490E+02 -0.20234676178E+02  0.14405049402E+03  0.14587481535E+03  0.10566000000E+00 0. -1.
        -13    1    4    4    0    0 -0.21460927821E+00 -0.13189155412E+00  0.18318799965E+01  0.18521341425E+01  0.10566000000E+00 0.  1.
         14    1    4    4    0    0 -0.44168328111E+01 -0.72426512750E+01  0.52456226757E+02  0.53137746802E+02  0.00000000000E+00 0. -1.
<mgrwt>
<rscale>  0 0.78927329E+02</rscale>
<asrwt>0</asrwt>
<pdfrwt beam="1">  1        2 0.38495030E-01 0.78927329E+02</pdfrwt>
<pdfrwt beam="2">  1       -1 0.95755436E-03 0.78927329E+02</pdfrwt>
<totfact> 0.24737741E+05</totfact>
</mgrwt>
</event>
<event>
 8    1  0.2389776E-020  0.8113310E+02  0.7818608E-02  0.1325866E+00
          2   -1    0    0  501    0  0.00000000000E+00  0.00000000000E+00  0.48636375742E+03  0.48636375743E+03  0.25500000000E-02 0. -1.
         -1   -1    0    0    0  501 -0.00000000000E+00 -0.00000000000E+00 -0.33835659898E+01  0.33835697435E+01  0.50400000000E-02 0.  1.
         24    2    1    2    0    0 -0.35527136788E-14  0.00000000000E+00  0.48298019143E+03  0.48974732717E+03  0.81133095322E+02 0.  0.
         66    2    3    3    0    0 -0.29352991857E+02 -0.63059789533E+01  0.40609512214E+03  0.40720831491E+03  0.20000005349E+01 0.  0.
        -13    1    3    3    0    0  0.29352991857E+02  0.63059789533E+01  0.76885069288E+02  0.82539012261E+02  0.10566000000E+00 0.  1.
         13    1    4    4    0    0 -0.11929324218E+02 -0.29995801283E+01  0.16124580151E+03  0.16171433432E+03  0.10566000000E+00 0. -1.
        -13    1    4    4    0    0 -0.11963664677E+01 -0.50112315524E+00  0.15905259300E+02  0.15958410152E+02  0.10566000000E+00 0.  1.
         14    1    4    4    0    0 -0.16227301172E+02 -0.28052756698E+01  0.22894406133E+03  0.22953557043E+03  0.00000000000E+00 0. -1.
<mgrwt>
<rscale>  0 0.81133095E+02</rscale>
<asrwt>0</asrwt>
<pdfrwt beam="1">  1        2 0.74825145E-01 0.81133095E+02</pdfrwt>
<pdfrwt beam="2">  1       -1 0.52054924E-03 0.81133095E+02</pdfrwt>
<totfact> 0.29094842E+05</totfact>
</mgrwt>
</event>
<event>
 8    1  0.2389776E-020  0.8507487E+02  0.7818608E-02  0.1315237E+00
          2   -1    0    0  501    0  0.00000000000E+00  0.00000000000E+00  0.21728042154E+02  0.21728042304E+02  0.25500000000E-02 0. -1.
         -1   -1    0    0    0  501 -0.00000000000E+00 -0.00000000000E+00 -0.83276413742E+02  0.83276413894E+02  0.50400000000E-02 0.  1.
         24    2    1    2    0    0 -0.17763568394E-14  0.00000000000E+00 -0.61548371588E+02  0.10500445620E+03  0.85074871592E+02 0.  0.
         66    2    3    3    0    0 -0.55520752967E+01 -0.18019900392E+02  0.16238606822E+02  0.24964669064E+02  0.19999999398E+01 0.  0.
        -13    1    3    3    0    0  0.55520752967E+01  0.18019900392E+02 -0.77786978410E+02  0.80039787134E+02  0.10566000000E+00 0.  1.
         13    1    4    4    0    0  0.59197775920E-01 -0.30640347629E+00  0.24084025922E+00  0.40811215740E+00  0.10566000000E+00 0. -1.
        -13    1    4    4    0    0 -0.22164897217E+01 -0.67152622204E+01  0.52440819822E+01  0.88044950592E+01  0.10566000000E+00 0. -1.
         14    1    4    4    0    0 -0.33947833509E+01 -0.10998234695E+02  0.10753684580E+02  0.15752061848E+02  0.00000000000E+00 0. -1.
<mgrwt>
<rscale>  0 0.85074872E+02</rscale>
<asrwt>0</asrwt>
<pdfrwt beam="1">  1        2 0.33427758E-02 0.85074872E+02</pdfrwt>
<pdfrwt beam="2">  1       -1 0.12811756E-01 0.85074872E+02</pdfrwt>
<totfact> 0.10578833E+05</totfact>
</mgrwt>
</event>
<event>
 8    1  0.2389776E-020  0.8246219E+02  0.7818608E-02  0.1322206E+00
          2   -1    0    0  501    0  0.00000000000E+00  0.00000000000E+00  0.41615152875E+03  0.41615152876E+03  0.25500000000E-02 0. -1.
         -1   -1    0    0    0  501 -0.00000000000E+00 -0.00000000000E+00 -0.40850563406E+01  0.40850594497E+01  0.50400000000E-02 0.  1.
         24    2    1    2    0    0 -0.35527136788E-14  0.00000000000E+00  0.41206647241E+03  0.42023658821E+03  0.82462187603E+02 0.  0.
         66    2    3    3    0    0 -0.27512505786E+02 -0.19781012678E+02  0.32564371521E+03  0.32740808740E+03  0.19999995562E+01 0.  0.
        -13    1    3    3    0    0  0.27512505786E+02  0.19781012678E+02  0.86422757195E+02  0.92828500809E+02  0.10566000000E+00 0.  1.
         13    1    4    4    0    0 -0.21171113948E+02 -0.15916976444E+02  0.25620702422E+03  0.25757254634E+03  0.10566000000E+00 0. -1.
        -13    1    4    4    0    0 -0.61685657674E+01 -0.36224671498E+01  0.66358994395E+02  0.66743544804E+02  0.10566000000E+00 0.  1.
        -14    1    4    4    0    0 -0.17282607050E+00 -0.24156908406E+00  0.30776966011E+01  0.30919962551E+01  0.00000000000E+00 0.  1.
<mgrwt>
<rscale>  0 0.82462188E+02</rscale>
<asrwt>0</asrwt>
<pdfrwt beam="1">  1        2 0.64023299E-01 0.82462188E+02</pdfrwt>
<pdfrwt beam="2">  1       -1 0.62847058E-03 0.82462188E+02</pdfrwt>
<totfact> 0.26462042E+05</totfact>
</mgrwt>
</event>
<event>
 8    1  0.2389776E-020  0.8235881E+02  0.7818608E-02  0.1322488E+00
          2   -1    0    0  501    0  0.00000000000E+00  0.00000000000E+00  0.93334727335E+01  0.93334730819E+01  0.25500000000E-02 0. -1.
         -1   -1    0    0    0  501 -0.00000000000E+00 -0.00000000000E+00 -0.18168405518E+03  0.18168405525E+03  0.50400000000E-02 0.  1.
         24    2    1    2    0    0  0.00000000000E+00  0.00000000000E+00 -0.17235058245E+03  0.19101752833E+03  0.82358805603E+02 0.  0.
         66    2    3    3    0    0 -0.35662399140E+02 -0.10401330389E+02 -0.12730789262E+03  0.13263217523E+03  0.19999990188E+01 0.  0.
        -13    1    3    3    0    0  0.35662399140E+02  0.10401330389E+02 -0.45042689828E+02  0.58385353106E+02  0.10566000000E+00 0.  1.
         13    1    4    4    0    0 -0.28327929066E+02 -0.85137810192E+01 -0.99863274987E+02  0.10415200856E+03  0.10566000000E+00 0. -1.
        -13    1    4    4    0    0 -0.42304741049E+01 -0.14590824938E+01 -0.16278141735E+02  0.16882384170E+02  0.10566000000E+00 0.  1.
         14    1    4    4    0    0 -0.31039959687E+01 -0.42846687626E+00 -0.11166475895E+02  0.11597782493E+02  0.00000000000E+00 0. -1.
<mgrwt>
<rscale>  0 0.82358806E+02</rscale>
<asrwt>0</asrwt>
<pdfrwt beam="1">  1        2 0.14359190E-02 0.82358806E+02</pdfrwt>
<pdfrwt beam="2">  1       -1 0.27951391E-01 0.82358806E+02</pdfrwt>
<totfact> 0.95159748E+04</totfact>
</mgrwt>
</event>
<event>
 8    1  0.2389776E-020  0.8043044E+02  0.7818608E-02  0.1327834E+00
         -1   -1    0    0    0  501 -0.00000000000E+00  0.00000000000E+00  0.18401149820E+01  0.18401218841E+01  0.50400000000E-02 0.  1.
          2   -1    0    0  501    0  0.00000000000E+00 -0.00000000000E+00 -0.87889113410E+03  0.87889113411E+03  0.25500000000E-02 0. -1.
         24    2    1    2    0    0 -0.35527136788E-14  0.17763568394E-14 -0.87705101912E+03  0.88073125599E+03  0.80430436639E+02 0.  0.
         66    2    3    3    0    0 -0.30212430892E+02  0.10989734311E+02 -0.70289694887E+03  0.70363462533E+03  0.19999997102E+01 0.  0.
        -13    1    3    3    0    0  0.30212430892E+02 -0.10989734311E+02 -0.17415407025E+03  0.17709663066E+03  0.10566000000E+00 0.  1.
         13    1    4    4    0    0 -0.26001176296E+02  0.92155762231E+01 -0.59069461578E+03  0.59133842111E+03  0.10566000000E+00 0. -1.
        -13    1    4    4    0    0 -0.37974350740E+01  0.17275911839E+01 -0.10265155768E+03  0.10273635454E+03  0.10566000000E+00 0.  1.
         14    1    4    4    0    0 -0.41381952189E+00  0.46566903840E-01 -0.95507754087E+01  0.95598496840E+01  0.00000000000E+00 0. -1.
<mgrwt>
<rscale>  0 0.80430437E+02</rscale>
<asrwt>0</asrwt>
<pdfrwt beam="1">  1        2 0.13521369E+00 0.80430437E+02</pdfrwt>
<pdfrwt beam="2">  1       -1 0.28309585E-03 0.80430437E+02</pdfrwt>
<totfact> 0.34367370E+05</totfact>
</mgrwt>
</event>
<event>
 8    1  0.2389776E-020  0.8078239E+02  0.7818608E-02  0.1326846E+00
         -1   -1    0    0    0  501 -0.00000000000E+00  0.00000000000E+00  0.24158752313E+02  0.24158752839E+02  0.50400000000E-02 0.  1.
          2   -1    0    0  501    0  0.00000000000E+00 -0.00000000000E+00 -0.67530333023E+02  0.67530333071E+02  0.25500000000E-02 0. -1.
         24    2    1    2    0    0  0.17763568394E-14  0.88817841970E-15 -0.43371580710E+02  0.91689085910E+02  0.80782389552E+02 0.  0.
         66    2    3    3    0    0  0.13270891954E+02  0.59684923780E+01 -0.64435034271E+02  0.66087919638E+02  0.20000015202E+01 0.  0.
        -13    1    3    3    0    0 -0.13270891954E+02 -0.59684923780E+01  0.21063453561E+02  0.25601166272E+02  0.10566000000E+00 0.  1.
         13    1    4    4    0    0  0.10779234677E+01  0.59589719631E+00 -0.70175224718E+01  0.71255735312E+01  0.10566000000E+00 0. -1.
        -13    1    4    4    0    0  0.19390509535E+01  0.63016563366E+00 -0.11160673534E+02  0.11345872601E+02  0.10566000000E+00 0.  1.
         14    1    4    4    0    0  0.10253917533E+02  0.47424295480E+01 -0.46256838265E+02  0.47616473506E+02  0.00000000000E+00 0. -1.
<mgrwt>
<rscale>  0 0.80782390E+02</rscale>
<asrwt>0</asrwt>
<pdfrwt beam="1">  1        2 0.10389282E-01 0.80782390E+02</pdfrwt>
<pdfrwt beam="2">  1       -1 0.37167312E-02 0.80782390E+02</pdfrwt>
<totfact> 0.15589522E+05</totfact>
</mgrwt>
</event>
<event>
 8    1  0.2389776E-020  0.7974055E+02  0.7818608E-02  0.1329789E+00
         -1   -1    0    0    0  501 -0.00000000000E+00  0.00000000000E+00  0.17681245966E+01  0.17681317798E+01  0.50400000000E-02 0.  1.
          2   -1    0    0  501    0  0.00000000000E+00 -0.00000000000E+00 -0.89905189980E+03  0.89905189981E+03  0.25500000000E-02 0. -1.
         24    2    1    2    0    0 -0.35527136788E-14 -0.35527136788E-14 -0.89728377521E+03  0.90082003159E+03  0.79740554668E+02 0.  0.
         66    2    3    3    0    0 -0.23787200342E+02  0.21589462885E+02 -0.71522770088E+03  0.71595153462E+03  0.20000023543E+01 0.  0.
        -13    1    3    3    0    0  0.23787200342E+02 -0.21589462885E+02 -0.18205607432E+03  0.18486849697E+03  0.10566000000E+00 0.  1.
         13    1    4    4    0    0 -0.79148960881E-01  0.11737073592E+00 -0.41419943708E+01  0.41457595023E+01  0.10566000000E+00 0. -1.
        -13    1    4    4    0    0 -0.54154261297E+00  0.39844538897E+00 -0.12658709806E+02  0.12676991958E+02  0.10566000000E+00 0.  1.
         14    1    4    4    0    0 -0.23166508769E+02  0.21073646760E+02 -0.69842699671E+03  0.69912878316E+03  0.00000000000E+00 0. -1.
<mgrwt>
<rscale>  0 0.79740555E+02</rscale>
<asrwt>0</asrwt>
<pdfrwt beam="1">  1        2 0.13831531E+00 0.79740555E+02</pdfrwt>
<pdfrwt beam="2">  1       -1 0.27202044E-03 0.79740555E+02</pdfrwt>
<totfact> 0.35238422E+05</totfact>
</mgrwt>
</event>
<event>
 8    1  0.2389776E-020  0.7901220E+02  0.7818608E-02  0.1331878E+00
          2   -1    0    0  501    0  0.00000000000E+00  0.00000000000E+00  0.51101283242E+02  0.51101283306E+02  0.25500000000E-02 0. -1.
         -1   -1    0    0    0  501 -0.00000000000E+00 -0.00000000000E+00 -0.30541929990E+02  0.30541930406E+02  0.50400000000E-02 0.  1.
         24    2    1    2    0    0  0.00000000000E+00  0.00000000000E+00  0.20559353252E+02  0.81643213712E+02  0.79012197407E+02 0.  0.
         66    2    3    3    0    0 -0.26750997674E+02  0.29033235742E+02  0.10727308735E+02  0.40958758233E+02  0.20000172854E+01 0.  0.
        -13    1    3    3    0    0  0.26750997674E+02 -0.29033235742E+02  0.98320445167E+01  0.40684455479E+02  0.10566000000E+00 0.  1.
         13    1    4    4    0    0 -0.76575668254E+01  0.83955374468E+01  0.29304296212E+01  0.11735500011E+02  0.10566000000E+00 0. -1.
        -13    1    4    4    0    0 -0.11363527446E+02  0.11150870770E+02  0.46946277882E+01  0.16598866499E+02  0.10566000000E+00 0.  1.
        -14    1    4    4    0    0 -0.77299034018E+01  0.94868275252E+01  0.31022513254E+01  0.12624391723E+02  0.00000000000E+00 0.  1.
<mgrwt>
<rscale>  0 0.79012197E+02</rscale>
<asrwt>0</asrwt>
<pdfrwt beam="1">  1        2 0.78617359E-02 0.79012197E+02</pdfrwt>
<pdfrwt beam="2">  1       -1 0.46987585E-02 0.79012197E+02</pdfrwt>
<totfact> 0.15533150E+05</totfact>
</mgrwt>
</event>
<event>
 8    1  0.2389776E-020  0.7896453E+02  0.7818608E-02  0.1332016E+00
          2   -1    0    0  501    0  0.00000000000E+00  0.00000000000E+00  0.63363585597E+02  0.63363585649E+02  0.25500000000E-02 0. -1.
         -1   -1    0    0    0  501 -0.00000000000E+00 -0.00000000000E+00 -0.24601656451E+02  0.24601656968E+02  0.50400000000E-02 0.  1.
         24    2    1    2    0    0  0.71054273576E-14  0.00000000000E+00  0.38761929146E+02  0.87965242616E+02  0.78964528476E+02 0.  0.
         66    2    3    3    0    0  0.34105399338E+02  0.19184821617E+02  0.13756052617E+02  0.41526673845E+02  0.20000031452E+01 0.  0.
        -13    1    3    3    0    0 -0.34105399338E+02 -0.19184821617E+02  0.25005876529E+02  0.46438568771E+02  0.10566000000E+00 0.  1.
         13    1    4    4    0    0  0.24896481665E+02  0.13701173485E+02  0.10407643656E+02  0.30263627751E+02  0.10566000000E+00 0. -1.
        -13    1    4    4    0    0  0.19479421267E+01  0.10139474357E+01  0.35865384916E+00  0.22276365391E+01  0.10566000000E+00 0.  1.
        -14    1    4    4    0    0  0.72609755466E+01  0.44697006958E+01  0.29897551115E+01  0.90354095549E+01  0.00000000000E+00 0.  1.
<mgrwt>
<rscale>  0 0.78964528E+02</rscale>
<asrwt>0</asrwt>
<pdfrwt beam="1">  1        2 0.97482440E-02 0.78964528E+02</pdfrwt>
<pdfrwt beam="2">  1       -1 0.37848703E-02 0.78964528E+02</pdfrwt>
<totfact> 0.16332693E+05</totfact>
</mgrwt>
</event>
<event>
 8    1  0.2389776E-020  0.7996966E+02  0.7818608E-02  0.1329138E+00
         -1   -1    0    0    0  501 -0.00000000000E+00  0.00000000000E+00  0.34611406213E+01  0.34611442908E+01  0.50400000000E-02 0.  1.
          2   -1    0    0  501    0  0.00000000000E+00 -0.00000000000E+00 -0.46192451695E+03  0.46192451696E+03  0.25500000000E-02 0. -1.
         24    2    1    2    0    0  0.00000000000E+00  0.00000000000E+00 -0.45846337633E+03  0.46538566125E+03  0.79969658374E+02 0.  0.
         66    2    3    3    0    0  0.10955408421E+02 -0.25442002915E+02 -0.39697960906E+03  0.39794990450E+03  0.19999999879E+01 0.  0.
        -13    1    3    3    0    0 -0.10955408421E+02  0.25442002915E+02 -0.61483767275E+02  0.67435756749E+02  0.10566000000E+00 0.  1.
         13    1    4    4    0    0  0.11125480738E+01 -0.28957037455E+01 -0.42701739520E+02  0.42814396942E+02  0.10566000000E+00 0. -1.
        -13    1    4    4    0    0  0.92758551757E+01 -0.21420350126E+02 -0.32967633854E+03  0.33050169779E+03  0.10566000000E+00 0.  1.
        -14    1    4    4    0    0  0.56700517098E+00 -0.11259490437E+01 -0.24601531002E+02  0.24633809770E+02  0.00000000000E+00 0.  1.
<mgrwt>
<rscale>  0 0.79969658E+02</rscale>
<asrwt>0</asrwt>
<pdfrwt beam="1">  1        2 0.71065262E-01 0.79969658E+02</pdfrwt>
<pdfrwt beam="2">  1       -1 0.53248382E-03 0.79969658E+02</pdfrwt>
<totfact> 0.29705784E+05</totfact>
</mgrwt>
</event>
<event>
 8    1  0.2389776E-020  0.7745090E+02  0.7818608E-02  0.1336445E+00
          2   -1    0    0  501    0  0.00000000000E+00  0.00000000000E+00  0.32719841485E+02  0.32719841584E+02  0.25500000000E-02 0. -1.
         -1   -1    0    0    0  501 -0.00000000000E+00 -0.00000000000E+00 -0.45833360745E+02  0.45833361022E+02  0.50400000000E-02 0.  1.
         24    2    1    2    0    0  0.00000000000E+00  0.35527136788E-14 -0.13113519260E+02  0.78553202606E+02  0.77450895749E+02 0.  0.
         66    2    3    3    0    0  0.14764967202E+02  0.18765379000E+02  0.24327403869E+02  0.34146248260E+02  0.19999964247E+01 0.  0.
        -13    1    3    3    0    0 -0.14764967202E+02 -0.18765379000E+02 -0.37440923129E+02  0.44406954346E+02  0.10566000000E+00 0.  1.
         13    1    4    4    0    0  0.70442339913E+01  0.91133163569E+01  0.12600632688E+02  0.17072225271E+02  0.10566000000E+00 0. -1.
        -13    1    4    4    0    0  0.68632143888E+01  0.84631451665E+01  0.10785831253E+02  0.15332118501E+02  0.10566000000E+00 0.  1.
        -14    1    4    4    0    0  0.85751882213E+00  0.11889174766E+01  0.94093992842E+00  0.17419044880E+01  0.00000000000E+00 0.  1.
<mgrwt>
<rscale>  0 0.77450896E+02</rscale>
<asrwt>0</asrwt>
<pdfrwt beam="1">  1        2 0.50338217E-02 0.77450896E+02</pdfrwt>
<pdfrwt beam="2">  1       -1 0.70512864E-02 0.77450896E+02</pdfrwt>
<totfact> 0.14979528E+05</totfact>
</mgrwt>
</event>
<event>
 8    1  0.2389776E-020  0.8022200E+02  0.7818608E-02  0.1328423E+00
         -1   -1    0    0    0  501 -0.00000000000E+00  0.00000000000E+00  0.10158487849E+03  0.10158487862E+03  0.50400000000E-02 0.  1.
          2   -1    0    0  501    0  0.00000000000E+00 -0.00000000000E+00 -0.15837912723E+02  0.15837912929E+02  0.25500000000E-02 0. -1.
         24    2    1    2    0    0  0.35527136788E-14  0.00000000000E+00  0.85746965771E+02  0.11742279155E+03  0.80222003440E+02 0.  0.
         66    2    3    3    0    0  0.21919965097E+02 -0.33157530633E+02  0.35297035177E+02  0.53195746088E+02  0.20000005037E+01 0.  0.
        -13    1    3    3    0    0 -0.21919965097E+02  0.33157530633E+02  0.50449930595E+02  0.64227045460E+02  0.10566000000E+00 0.  1.
         13    1    4    4    0    0  0.12605804551E+02 -0.19743258432E+02  0.20142956615E+02  0.30894213490E+02  0.10566000000E+00 0. -1.
        -13    1    4    4    0    0  0.11317502255E+01 -0.13897280563E+01  0.13180970483E+01  0.22272733348E+01  0.10566000000E+00 0. -1.
         14    1    4    4    0    0  0.81824103197E+01 -0.12024544145E+02  0.13835981513E+02  0.20074259263E+02  0.00000000000E+00 0. -1.
<mgrwt>
<rscale>  0 0.80222003E+02</rscale>
<asrwt>0</asrwt>
<pdfrwt beam="1">  1        2 0.24366018E-02 0.80222003E+02</pdfrwt>
<pdfrwt beam="2">  1       -1 0.15628444E-01 0.80222003E+02</pdfrwt>
<totfact> 0.11731661E+05</totfact>
</mgrwt>
</event>
<event>
 8    1  0.2389776E-020  0.7607078E+02  0.7818608E-02  0.1340587E+00
          2   -1    0    0  501    0  0.00000000000E+00  0.00000000000E+00  0.35542879696E+03  0.35542879697E+03  0.25500000000E-02 0. -1.
         -1   -1    0    0    0  501 -0.00000000000E+00 -0.00000000000E+00 -0.40702677919E+01  0.40702709123E+01  0.50400000000E-02 0.  1.
         24    2    1    2    0    0 -0.35527136788E-14  0.00000000000E+00  0.35135852917E+03  0.35949906788E+03  0.76070781437E+02 0.  0.
         66    2    3    3    0    0 -0.31539312010E+02 -0.20963251119E+02  0.16048690741E+03  0.16490674210E+03  0.20000094712E+01 0.  0.
        -13    1    3    3    0    0  0.31539312010E+02  0.20963251119E+02  0.19087162175E+03  0.19459232578E+03  0.10566000000E+00 0.  1.
         13    1    4    4    0    0 -0.21805136770E+02 -0.14177778781E+02  0.11246006441E+03  0.11542855216E+03  0.10566000000E+00 0. -1.
        -13    1    4    4    0    0 -0.68945982708E+01 -0.52538733472E+01  0.34751823035E+02  0.35816742436E+02  0.10566000000E+00 0.  1.
        -14    1    4    4    0    0 -0.28395769691E+01 -0.15315989908E+01  0.13275019965E+02  0.13661447504E+02  0.00000000000E+00 0.  1.
<mgrwt>
<rscale>  0 0.76070781E+02</rscale>
<asrwt>0</asrwt>
<pdfrwt beam="1">  1        2 0.54681356E-01 0.76070781E+02</pdfrwt>
<pdfrwt beam="2">  1       -1 0.62619525E-03 0.76070781E+02</pdfrwt>
<totfact> 0.30903616E+05</totfact>
</mgrwt>
</event>
<event>
 8    1  0.2389776E-020  0.7937027E+02  0.7818608E-02  0.1330848E+00
         -1   -1    0    0    0  501 -0.00000000000E+00  0.00000000000E+00  0.19990940803E+02  0.19990941439E+02  0.50400000000E-02 0.  1.
          2   -1    0    0  501    0  0.00000000000E+00 -0.00000000000E+00 -0.78781170717E+02  0.78781170759E+02  0.25500000000E-02 0. -1.
         24    2    1    2    0    0 -0.22204460493E-15 -0.35527136788E-14 -0.58790229914E+02  0.98772112197E+02  0.79370265305E+02 0.  0.
         66    2    3    3    0    0  0.14074070864E+01  0.21892131972E+02 -0.70530585494E+02  0.73890525628E+02  0.20000126210E+01 0.  0.
        -13    1    3    3    0    0 -0.14074070864E+01 -0.21892131972E+02  0.11740355580E+02  0.24881586569E+02  0.10566000000E+00 0.  1.
         13    1    4    4    0    0  0.13717217984E+00  0.36576402222E+01 -0.11126042136E+02  0.11713117683E+02  0.10566000000E+00 0.  1.
        -13    1    4    4    0    0 -0.18074429531E+00  0.98206306954E+01 -0.31639557895E+02  0.33129295851E+02  0.10566000000E+00 0. -1.
         14    1    4    4    0    0  0.14509792018E+01  0.84138610547E+01 -0.27764985463E+02  0.29048112095E+02  0.00000000000E+00 0. -1.
<mgrwt>
<rscale>  0 0.79370265E+02</rscale>
<asrwt>0</asrwt>
<pdfrwt beam="1">  1        2 0.12120180E-01 0.79370265E+02</pdfrwt>
<pdfrwt beam="2">  1       -1 0.30755295E-02 0.79370265E+02</pdfrwt>
<totfact> 0.16988222E+05</totfact>
</mgrwt>
</event>
<event>
 8    1  0.2389776E-020  0.8125622E+02  0.7818608E-02  0.1325524E+00
         -1   -1    0    0    0  501 -0.00000000000E+00  0.00000000000E+00  0.39103851155E+01  0.39103883635E+01  0.50400000000E-02 0.  1.
          2   -1    0    0  501    0  0.00000000000E+00 -0.00000000000E+00 -0.42211766191E+03  0.42211766192E+03  0.25500000000E-02 0. -1.
         24    2    1    2    0    0  0.00000000000E+00  0.00000000000E+00 -0.41820727679E+03  0.42602805028E+03  0.81256219839E+02 0.  0.
         66    2    3    3    0    0  0.20664900408E+02  0.34933671250E+02 -0.21506562051E+03  0.21887124210E+03  0.19999987225E+01 0.  0.
        -13    1    3    3    0    0 -0.20664900408E+02 -0.34933671250E+02 -0.20314165628E+03  0.20715680818E+03  0.10566000000E+00 0.  1.
         13    1    4    4    0    0  0.16071448074E+02  0.28170024806E+02 -0.17047303521E+03  0.17353071382E+03  0.10566000000E+00 0. -1.
        -13    1    4    4    0    0  0.38907726559E+01  0.54358928316E+01 -0.35352506413E+02  0.35979131680E+02  0.10566000000E+00 0.  1.
         14    1    4    4    0    0  0.70267967790E+00  0.13277536129E+01 -0.92400788868E+01  0.93613965956E+01  0.00000000000E+00 0. -1.
<mgrwt>
<rscale>  0 0.81256220E+02</rscale>
<asrwt>0</asrwt>
<pdfrwt beam="1">  1        2 0.64941143E-01 0.81256220E+02</pdfrwt>
<pdfrwt beam="2">  1       -1 0.60159829E-03 0.81256220E+02</pdfrwt>
<totfact> 0.27637606E+05</totfact>
</mgrwt>
</event>
<event>
 8    1  0.2389776E-020  0.7716792E+02  0.7818608E-02  0.1337286E+00
          2   -1    0    0  501    0  0.00000000000E+00  0.00000000000E+00  0.12942734315E+03  0.12942734318E+03  0.25500000000E-02 0. -1.
         -1   -1    0    0    0  501 -0.00000000000E+00 -0.00000000000E+00 -0.11502376183E+02  0.11502377287E+02  0.50400000000E-02 0.  1.
         24    2    1    2    0    0  0.00000000000E+00  0.00000000000E+00  0.11792496697E+03  0.14092972047E+03  0.77167922582E+02 0.  0.
         66    2    3    3    0    0 -0.35451694992E+02  0.68086923742E+01  0.83743513528E+02  0.91214894779E+02  0.20000004452E+01 0.  0.
        -13    1    3    3    0    0  0.35451694992E+02 -0.68086923742E+01  0.34181453444E+02  0.49714825688E+02  0.10566000000E+00 0.  1.
         13    1    4    4    0    0 -0.19862353314E+02  0.31020143488E+01  0.45635327202E+02  0.49867121684E+02  0.10566000000E+00 0. -1.
        -13    1    4    4    0    0 -0.53846686379E+01  0.12278653616E+01  0.14093219137E+02  0.15137116613E+02  0.10566000000E+00 0.  1.
         14    1    4    4    0    0 -0.10204673040E+02  0.24788126637E+01  0.24014967190E+02  0.26210656482E+02  0.00000000000E+00 0. -1.
<mgrwt>
<rscale>  0 0.77167923E+02</rscale>
<asrwt>0</asrwt>
<pdfrwt beam="1">  1        2 0.19911900E-01 0.77167923E+02</pdfrwt>
<pdfrwt beam="2">  1       -1 0.17695963E-02 0.77167923E+02</pdfrwt>
<totfact> 0.21041821E+05</totfact>
</mgrwt>
</event>
<event>
 8    1  0.2389776E-020  0.7434004E+02  0.7818608E-02  0.1345927E+00
          2   -1    0    0  501    0  0.00000000000E+00  0.00000000000E+00  0.79215113476E+03  0.79215113476E+03  0.25500000000E-02 0. -1.
         -1   -1    0    0    0  501 -0.00000000000E+00 -0.00000000000E+00 -0.17441212545E+01  0.17441285365E+01  0.50400000000E-02 0.  1.
         24    2    1    2    0    0 -0.17763568394E-14  0.17763568394E-14  0.79040701350E+03  0.79389526330E+03  0.74340043667E+02 0.  0.
         66    2    3    3    0    0 -0.12688790312E+02 -0.11072316892E+02  0.74903520356E+03  0.74922716033E+03  0.20000000610E+01 0.  0.
        -13    1    3    3    0    0  0.12688790312E+02  0.11072316892E+02  0.41371809940E+02  0.44668102967E+02  0.10566000000E+00 0.  1.
         13    1    4    4    0    0 -0.80328163271E+01 -0.73696624169E+01  0.49847572674E+03  0.49859492514E+03  0.10566000000E+00 0. -1.
        -13    1    4    4    0    0 -0.30334981695E+01 -0.20249405372E+01  0.13568743409E+03  0.13573648526E+03  0.10566000000E+00 0.  1.
        -14    1    4    4    0    0 -0.16224758150E+01 -0.16777139376E+01  0.11487204273E+03  0.11489574993E+03  0.00000000000E+00 0.  1.
<mgrwt>
<rscale>  0 0.74340044E+02</rscale>
<asrwt>0</asrwt>
<pdfrwt beam="1">  1        2 0.12186933E+00 0.74340044E+02</pdfrwt>
<pdfrwt beam="2">  1       -1 0.26832707E-03 0.74340044E+02</pdfrwt>
<totfact> 0.41480873E+05</totfact>
</mgrwt>
</event>
<event>
 8    1  0.2389776E-020  0.7997257E+02  0.7818608E-02  0.1329129E+00
          2   -1    0    0  501    0  0.00000000000E+00  0.00000000000E+00  0.15472565633E+02  0.15472565843E+02  0.25500000000E-02 0. -1.
         -1   -1    0    0    0  501 -0.00000000000E+00 -0.00000000000E+00 -0.10333793138E+03  0.10333793150E+03  0.50400000000E-02 0.  1.
         24    2    1    2    0    0 -0.71054273576E-14  0.00000000000E+00 -0.87865365745E+02  0.11881049734E+03  0.79972568931E+02 0.  0.
         66    2    3    3    0    0  0.39039354782E+02 -0.28371828194E+01 -0.32003014834E+02  0.50599543373E+02  0.20000007459E+01 0.  0.
        -13    1    3    3    0    0 -0.39039354782E+02  0.28371828194E+01 -0.55862350911E+02  0.68210953970E+02  0.10566000000E+00 0.  1.
         13    1    4    4    0    0  0.95576409467E+01 -0.71909742079E+00 -0.74192640277E+01  0.12121148638E+02  0.10566000000E+00 0. -1.
        -13    1    4    4    0    0  0.16219830098E+02 -0.19019183878E+01 -0.13956163786E+02  0.21482221804E+02  0.10566000000E+00 0.  1.
        -14    1    4    4    0    0  0.13261883737E+02 -0.21616701081E+00 -0.10627587020E+02  0.16996172931E+02  0.00000000000E+00 0.  1.
<mgrwt>
<rscale>  0 0.79972569E+02</rscale>
<asrwt>0</asrwt>
<pdfrwt beam="1">  1        2 0.23803948E-02 0.79972569E+02</pdfrwt>
<pdfrwt beam="2">  1       -1 0.15898143E-01 0.79972569E+02</pdfrwt>
<totfact> 0.11779540E+05</totfact>
</mgrwt>
</event>
<event>
 8    1  0.2389776E-020  0.8014975E+02  0.7818608E-02  0.1328627E+00
          2   -1    0    0  501    0  0.00000000000E+00  0.00000000000E+00  0.85131588147E+03  0.85131588148E+03  0.25500000000E-02 0. -1.
         -1   -1    0    0    0  501 -0.00000000000E+00 -0.00000000000E+00 -0.18864826614E+01  0.18864893939E+01  0.50400000000E-02 0.  1.
         24    2    1    2    0    0  0.00000000000E+00  0.35527136788E-14  0.84942939881E+03  0.85320237087E+03  0.80149747934E+02 0.  0.
         66    2    3    3    0    0  0.14390261220E+01 -0.27167999349E+02  0.73784660978E+03  0.73835072327E+03  0.20000006225E+01 0.  0.
        -13    1    3    3    0    0 -0.14390261220E+01  0.27167999349E+02  0.11158278903E+03  0.11485164760E+03  0.10566000000E+00 0.  1.
         13    1    4    4    0    0 -0.20048672812E+00 -0.40599305697E+01  0.96544647381E+02  0.96630240262E+02  0.10566000000E+00 0. -1.
        -13    1    4    4    0    0  0.37738165088E+00 -0.34628966540E+01  0.93504770917E+02  0.93569692842E+02  0.10566000000E+00 0. -1.
         14    1    4    4    0    0  0.12621311993E+01 -0.19645172125E+02  0.54779719149E+03  0.54815079017E+03  0.00000000000E+00 0. -1.
<mgrwt>
<rscale>  0 0.80149748E+02</rscale>
<asrwt>0</asrwt>
<pdfrwt beam="1">  1        2 0.13097177E+00 0.80149748E+02</pdfrwt>
<pdfrwt beam="2">  1       -1 0.29022842E-03 0.80149748E+02</pdfrwt>
<totfact> 0.34534746E+05</totfact>
</mgrwt>
</event>
<event>
 8    1  0.2389776E-020  0.7904699E+02  0.7818608E-02  0.1331778E+00
          2   -1    0    0  501    0  0.00000000000E+00  0.00000000000E+00  0.79145113002E+02  0.79145113043E+02  0.25500000000E-02 0. -1.
         -1   -1    0    0    0  501 -0.00000000000E+00 -0.00000000000E+00 -0.19737246912E+02  0.19737247555E+02  0.50400000000E-02 0.  1.
         24    2    1    2    0    0  0.00000000000E+00 -0.17763568394E-14  0.59407866090E+02  0.98882360598E+02  0.79046990354E+02 0.  0.
         66    2    3    3    0    0  0.30342861623E+01 -0.15033612092E+02  0.75255514597E+02  0.76828437766E+02  0.19999968051E+01 0.  0.
        -13    1    3    3    0    0 -0.30342861623E+01  0.15033612092E+02 -0.15847648507E+02  0.22053922832E+02  0.10566000000E+00 0.  1.
         13    1    4    4    0    0  0.16094939705E+01 -0.64049245934E+01  0.36610790323E+02  0.37201809929E+02  0.10566000000E+00 0. -1.
        -13    1    4    4    0    0  0.95060753753E+00 -0.69016944065E+01  0.31410155004E+02  0.32173685549E+02  0.10566000000E+00 0.  1.
         14    1    4    4    0    0  0.47418465428E+00 -0.17269930924E+01  0.72345692695E+01  0.74529422876E+01  0.00000000000E+00 0. -1.
<mgrwt>
<rscale>  0 0.79046990E+02</rscale>
<asrwt>0</asrwt>
<pdfrwt beam="1">  1        2 0.12176171E-01 0.79046990E+02</pdfrwt>
<pdfrwt beam="2">  1       -1 0.30364996E-02 0.79046990E+02</pdfrwt>
<totfact> 0.17196191E+05</totfact>
</mgrwt>
</event>
<event>
 8    1  0.2389776E-020  0.8540262E+02  0.7818608E-02  0.1314383E+00
          2   -1    0    0  501    0  0.00000000000E+00  0.00000000000E+00  0.25487908727E+03  0.25487908728E+03  0.25500000000E-02 0. -1.
         -1   -1    0    0    0  501 -0.00000000000E+00 -0.00000000000E+00 -0.71539866368E+01  0.71539884121E+01  0.50400000000E-02 0.  1.
         24    2    1    2    0    0 -0.71054273576E-14 -0.17763568394E-14  0.24772510063E+03  0.26203307570E+03  0.85402618663E+02 0.  0.
         66    2    3    3    0    0 -0.31657556692E+02 -0.85500869969E+01  0.20773744355E+03  0.21031916300E+03  0.19999970696E+01 0.  0.
        -13    1    3    3    0    0  0.31657556692E+02  0.85500869969E+01  0.39987657082E+02  0.51713912696E+02  0.10566000000E+00 0.  1.
         13    1    4    4    0    0 -0.19299172653E+02 -0.57533550695E+01  0.13266473767E+03  0.13418458534E+03  0.10566000000E+00 0. -1.
        -13    1    4    4    0    0 -0.12191301437E+02 -0.27583327858E+01  0.74061310012E+02  0.75108754717E+02  0.10566000000E+00 0.  1.
         14    1    4    4    0    0 -0.16708260199E+00 -0.38399141585E-01  0.10113958747E+01  0.10258229406E+01  0.00000000000E+00 0. -1.
<mgrwt>
<rscale>  0 0.85402619E+02</rscale>
<asrwt>0</asrwt>
<pdfrwt beam="1">  1        2 0.39212166E-01 0.85402619E+02</pdfrwt>
<pdfrwt beam="2">  1       -1 0.11006135E-02 0.85402619E+02</pdfrwt>
<totfact> 0.20229928E+05</totfact>
</mgrwt>
</event>
<event>
 8    1  0.2389776E-020  0.7939293E+02  0.7818608E-02  0.1330783E+00
         -1   -1    0    0    0  501 -0.00000000000E+00  0.00000000000E+00  0.13053486805E+01  0.13053584103E+01  0.50400000000E-02 0.  1.
          2   -1    0    0  501    0  0.00000000000E+00 -0.00000000000E+00 -0.12071896085E+04  0.12071896085E+04  0.25500000000E-02 0. -1.
         24    2    1    2    0    0 -0.44408920985E-15 -0.17763568394E-14 -0.12058842598E+04  0.12084949669E+04  0.79392927730E+02 0.  0.
         66    2    3    3    0    0 -0.37260770780E+01 -0.10409986488E+02 -0.11832588608E+04  0.11833122087E+04  0.19999988786E+01 0.  0.
        -13    1    3    3    0    0  0.37260770780E+01  0.10409986488E+02 -0.22625398995E+02  0.25182758244E+02  0.10566000000E+00 0.  1.
         13    1    4    4    0    0 -0.17556813632E+01 -0.67059128926E+01 -0.77851654639E+03  0.77854741400E+03  0.10566000000E+00 0. -1.
        -13    1    4    4    0    0 -0.25001452028E+00 -0.39683105516E+00 -0.28975062179E+02  0.28979050614E+02  0.10566000000E+00 0.  1.
         14    1    4    4    0    0 -0.17203811945E+01 -0.33072425402E+01 -0.37576725227E+03  0.37578574406E+03  0.00000000000E+00 0. -1.
<mgrwt>
<rscale>  0 0.79392928E+02</rscale>
<asrwt>0</asrwt>
<pdfrwt beam="1">  1        2 0.18572059E+00 0.79392928E+02</pdfrwt>
<pdfrwt beam="2">  1       -1 0.20082459E-03 0.79392928E+02</pdfrwt>
<totfact> 0.35713501E+05</totfact>
</mgrwt>
</event>
<event>
 8    1  0.2389776E-020  0.7419301E+02  0.7818608E-02  0.1346388E+00
          2   -1    0    0  501    0  0.00000000000E+00  0.00000000000E+00  0.18176464231E+03  0.18176464233E+03  0.25500000000E-02 0. -1.
         -1   -1    0    0    0  501 -0.00000000000E+00 -0.00000000000E+00 -0.75710580472E+01  0.75710597248E+01  0.50400000000E-02 0.  1.
         24    2    1    2    0    0  0.00000000000E+00  0.17763568394E-14  0.17419358426E+03  0.18933570205E+03  0.74193013643E+02 0.  0.
         66    2    3    3    0    0  0.25164689409E+02 -0.10797302858E+02  0.15092266160E+03  0.15339978204E+03  0.20000002990E+01 0.  0.
        -13    1    3    3    0    0 -0.25164689409E+02  0.10797302858E+02  0.23270922661E+02  0.35935920019E+02  0.10566000000E+00 0.  1.
         13    1    4    4    0    0  0.10762649508E+02 -0.43856795615E+01  0.64866596902E+02  0.65899585487E+02  0.10566000000E+00 0. -1.
        -13    1    4    4    0    0  0.27617607445E+01 -0.95627321852E+00  0.18879605201E+02  0.19104775253E+02  0.10566000000E+00 0.  1.
        -14    1    4    4    0    0  0.11640279156E+02 -0.54553500781E+01  0.67176459500E+02  0.68395421295E+02  0.00000000000E+00 0.  1.
<mgrwt>
<rscale>  0 0.74193014E+02</rscale>
<asrwt>0</asrwt>
<pdfrwt beam="1">  1        2 0.27963791E-01 0.74193014E+02</pdfrwt>
<pdfrwt beam="2">  1       -1 0.11647783E-02 0.74193014E+02</pdfrwt>
<totfact> 0.26027286E+05</totfact>
</mgrwt>
</event>
<event>
 8    1  0.2389776E-020  0.8076889E+02  0.7818608E-02  0.1326883E+00
         -1   -1    0    0    0  501 -0.00000000000E+00  0.00000000000E+00  0.15784727197E+01  0.15784807659E+01  0.50400000000E-02 0.  1.
          2   -1    0    0  501    0  0.00000000000E+00 -0.00000000000E+00 -0.10332135674E+04  0.10332135674E+04  0.25500000000E-02 0. -1.
         24    2    1    2    0    0 -0.17763568394E-14  0.71054273576E-14 -0.10316350946E+04  0.10347920481E+04  0.80768894865E+02 0.  0.
         66    2    3    3    0    0  0.12670743647E+02 -0.25083193467E+02 -0.88727281294E+03  0.88771997777E+03  0.20000009215E+01 0.  0.
        -13    1    3    3    0    0 -0.12670743647E+02  0.25083193467E+02 -0.14436228169E+03  0.14707207036E+03  0.10566000000E+00 0.  1.
         13    1    4    4    0    0  0.57724006772E+01 -0.10157355575E+02 -0.36788670711E+03  0.36807218438E+03  0.10566000000E+00 0. -1.
        -13    1    4    4    0    0  0.12238831630E+01 -0.28545567674E+01 -0.84231887870E+02  0.84289195526E+02  0.10566000000E+00 0.  1.
        -14    1    4    4    0    0  0.56744598064E+01 -0.12071281124E+02 -0.43515421796E+03  0.43535859786E+03  0.00000000000E+00 0.  1.
<mgrwt>
<rscale>  0 0.80768895E+02</rscale>
<asrwt>0</asrwt>
<pdfrwt beam="1">  1        2 0.15895539E+00 0.80768895E+02</pdfrwt>
<pdfrwt beam="2">  1       -1 0.24284340E-03 0.80768895E+02</pdfrwt>
<totfact> 0.34400454E+05</totfact>
</mgrwt>
</event>
<event>
 8    1  0.2389776E-020  0.7990386E+02  0.7818608E-02  0.1329324E+00
          2   -1    0    0  501    0  0.00000000000E+00  0.00000000000E+00  0.42189115294E+02  0.42189115371E+02  0.25500000000E-02 0. -1.
         -1   -1    0    0    0  501 -0.00000000000E+00 -0.00000000000E+00 -0.37833378537E+02  0.37833378872E+02  0.50400000000E-02 0.  1.
         24    2    1    2    0    0  0.00000000000E+00  0.17763568394E-14  0.43557367568E+01  0.80022494243E+02  0.79903861873E+02 0.  0.
         66    2    3    3    0    0  0.36417129679E+02 -0.11187817630E+02  0.14145913372E+02  0.40687607443E+02  0.19999842254E+01 0.  0.
        -13    1    3    3    0    0 -0.36417129679E+02  0.11187817630E+02 -0.97901766150E+01  0.39334886800E+02  0.10566000000E+00 0.  1.
         13    1    4    4    0    0  0.79047633600E+00 -0.29287003876E+00  0.58237405682E+00  0.10300239196E+01  0.10566000000E+00 0. -1.
        -13    1    4    4    0    0  0.28859355369E+02 -0.88097161525E+01  0.10614103091E+02  0.31986619695E+02  0.10566000000E+00 0.  1.
        -14    1    4    4    0    0  0.67672979740E+01 -0.20852314383E+01  0.29494362242E+01  0.76709638287E+01  0.00000000000E+00 0.  1.
<mgrwt>
<rscale>  0 0.79903862E+02</rscale>
<asrwt>0</asrwt>
<pdfrwt beam="1">  1        2 0.64906331E-02 0.79903862E+02</pdfrwt>
<pdfrwt beam="2">  1       -1 0.58205198E-02 0.79903862E+02</pdfrwt>
<totfact> 0.14460962E+05</totfact>
</mgrwt>
</event>
<event>
 8    1  0.2389776E-020  0.8154067E+02  0.7818608E-02  0.1324735E+00
         -1   -1    0    0    0  501 -0.00000000000E+00  0.00000000000E+00  0.10174916674E+03  0.10174916687E+03  0.50400000000E-02 0.  1.
          2   -1    0    0  501    0  0.00000000000E+00 -0.00000000000E+00 -0.16336450160E+02  0.16336450359E+02  0.25500000000E-02 0. -1.
         24    2    1    2    0    0  0.00000000000E+00  0.00000000000E+00  0.85412716583E+02  0.11808561723E+03  0.81540669863E+02 0.  0.
         66    2    3    3    0    0  0.32142893828E+02  0.16748701480E+02  0.69690342454E+02  0.78577531507E+02  0.20000003567E+01 0.  0.
        -13    1    3    3    0    0 -0.32142893828E+02 -0.16748701480E+02  0.15722374129E+02  0.39508085720E+02  0.10566000000E+00 0.  1.
         13    1    4    4    0    0  0.13225165512E+01  0.89336985124E+00  0.38289242347E+01  0.41495764302E+01  0.10566000000E+00 0.  1.
        -13    1    4    4    0    0  0.12929361396E+02  0.68730441252E+01  0.27223333253E+02  0.30911618513E+02  0.10566000000E+00 0. -1.
         14    1    4    4    0    0  0.17891015882E+02  0.89822875039E+01  0.38638084966E+02  0.43516336564E+02  0.00000000000E+00 0. -1.
<mgrwt>
<rscale>  0 0.81540670E+02</rscale>
<asrwt>0</asrwt>
<pdfrwt beam="1">  1        2 0.25133000E-02 0.81540670E+02</pdfrwt>
<pdfrwt beam="2">  1       -1 0.15653718E-01 0.81540670E+02</pdfrwt>
<totfact> 0.11260229E+05</totfact>
</mgrwt>
</event>
<event>
 8    1  0.2389776E-020  0.7829317E+02  0.7818608E-02  0.1333966E+00
          2   -1    0    0  501    0  0.00000000000E+00  0.00000000000E+00  0.81838069692E+03  0.81838069693E+03  0.25500000000E-02 0. -1.
         -1   -1    0    0    0  501 -0.00000000000E+00 -0.00000000000E+00 -0.18725423225E+01  0.18725491051E+01  0.50400000000E-02 0.  1.
         24    2    1    2    0    0 -0.17763568394E-14 -0.44408920985E-15  0.81650815460E+03  0.82025324603E+03  0.78293174013E+02 0.  0.
         66    2    3    3    0    0  0.10779993634E+02 -0.33038142522E+01  0.80098704247E+03  0.80106888946E+03  0.20000004312E+01 0.  0.
        -13    1    3    3    0    0 -0.10779993634E+02  0.33038142522E+01  0.15521112132E+02  0.19184356575E+02  0.10566000000E+00 0.  1.
         13    1    4    4    0    0  0.24417405326E+01 -0.42399205194E+00  0.14656067032E+03  0.14658166022E+03  0.10566000000E+00 0. -1.
        -13    1    4    4    0    0  0.11205454637E+01 -0.82068643060E+00  0.85436456333E+02  0.85447810874E+02  0.10566000000E+00 0.  1.
         14    1    4    4    0    0  0.72177076374E+01 -0.20591357697E+01  0.56898991582E+03  0.56903941836E+03  0.00000000000E+00 0. -1.
<mgrwt>
<rscale>  0 0.78293174E+02</rscale>
<asrwt>0</asrwt>
<pdfrwt beam="1">  1        2 0.12590462E+00 0.78293174E+02</pdfrwt>
<pdfrwt beam="2">  1       -1 0.28808419E-03 0.78293174E+02</pdfrwt>
<totfact> 0.36481493E+05</totfact>
</mgrwt>
</event>
<event>
 8    1  0.2389776E-020  0.7996805E+02  0.7818608E-02  0.1329142E+00
          2   -1    0    0  501    0  0.00000000000E+00  0.00000000000E+00  0.18638128237E+04  0.18638128237E+04  0.25500000000E-02 0. -1.
         -1   -1    0    0    0  501 -0.00000000000E+00 -0.00000000000E+00 -0.85776228317E+00  0.85777708994E+00  0.50400000000E-02 0.  1.
         24    2    1    2    0    0  0.55511151231E-16  0.00000000000E+00  0.18629550614E+04  0.18646706008E+04  0.79968047358E+02 0.  0.
         66    2    3    3    0    0 -0.31467771477E+00 -0.10379434119E+02  0.18317970017E+04  0.18318275266E+04  0.19999983995E+01 0.  0.
        -13    1    3    3    0    0  0.31467771477E+00  0.10379434119E+02  0.31158059665E+02  0.32843074169E+02  0.10566000000E+00 0.  1.
         13    1    4    4    0    0 -0.45535376009E+00 -0.44868982337E+01  0.86855829125E+03  0.86857000643E+03  0.10566000000E+00 0. -1.
        -13    1    4    4    0    0 -0.27120100188E+00 -0.43274981437E+01  0.63429833349E+03  0.63431316226E+03  0.10566000000E+00 0.  1.
         14    1    4    4    0    0  0.41187704720E+00 -0.15650377419E+01  0.32894037699E+03  0.32894435791E+03  0.00000000000E+00 0. -1.
<mgrwt>
<rscale>  0 0.79968047E+02</rscale>
<asrwt>0</asrwt>
<pdfrwt beam="1">  1        2 0.28674036E+00 0.79968047E+02</pdfrwt>
<pdfrwt beam="2">  1       -1 0.13196460E-03 0.79968047E+02</pdfrwt>
<totfact> 0.29494079E+05</totfact>
</mgrwt>
</event>
<event>
 8    1  0.2389776E-020  0.8506251E+02  0.7818608E-02  0.1315269E+00
         -1   -1    0    0    0  501 -0.00000000000E+00  0.00000000000E+00  0.66932217476E+02  0.66932217666E+02  0.50400000000E-02 0.  1.
          2   -1    0    0  501    0  0.00000000000E+00 -0.00000000000E+00 -0.27025960077E+02  0.27025960197E+02  0.25500000000E-02 0. -1.
         24    2    1    2    0    0  0.00000000000E+00  0.35527136788E-14  0.39906257399E+02  0.93958177863E+02  0.85062505299E+02 0.  0.
         66    2    3    3    0    0  0.10066480419E+02  0.25865256969E+02 -0.15598429020E+02  0.31900729280E+02  0.19999986610E+01 0.  0.
        -13    1    3    3    0    0 -0.10066480419E+02 -0.25865256969E+02  0.55504686419E+02  0.62057448583E+02  0.10566000000E+00 0.  1.
         13    1    4    4    0    0  0.25776550239E+01  0.67661693642E+01 -0.34715448019E+01  0.80304508363E+01  0.10566000000E+00 0.  1.
        -13    1    4    4    0    0  0.35650840381E+01  0.10491840490E+02 -0.60238513418E+01  0.12612949302E+02  0.10566000000E+00 0. -1.
         14    1    4    4    0    0  0.39237413566E+01  0.86072471141E+01 -0.61030328766E+01  0.11257329142E+02  0.00000000000E+00 0. -1.
<mgrwt>
<rscale>  0 0.85062505E+02</rscale>
<asrwt>0</asrwt>
<pdfrwt beam="1">  1        2 0.41578400E-02 0.85062505E+02</pdfrwt>
<pdfrwt beam="2">  1       -1 0.10297264E-01 0.85062505E+02</pdfrwt>
<totfact> 0.11076877E+05</totfact>
</mgrwt>
</event>
<event>
 8    1  0.2389776E-020  0.7943418E+02  0.7818608E-02  0.1330665E+00
          2   -1    0    0  501    0  0.00000000000E+00  0.00000000000E+00  0.83937522629E+01  0.83937526503E+01  0.25500000000E-02 0. -1.
         -1   -1    0    0    0  501 -0.00000000000E+00 -0.00000000000E+00 -0.18793112401E+03  0.18793112408E+03  0.50400000000E-02 0.  1.
         24    2    1    2    0    0 -0.71054273576E-14  0.00000000000E+00 -0.17953737175E+03  0.19632487673E+03  0.79434182619E+02 0.  0.
         66    2    3    3    0    0  0.32281107413E+02  0.19657811469E+02 -0.59865402942E+02  0.70826308093E+02  0.20000002943E+01 0.  0.
        -13    1    3    3    0    0 -0.32281107413E+02 -0.19657811469E+02 -0.11967196881E+03  0.12549856863E+03  0.10566000000E+00 0.  1.
         13    1    4    4    0    0  0.32958921212E+01  0.15345950658E+01 -0.56943294512E+01  0.67568068512E+01  0.10566000000E+00 0. -1.
        -13    1    4    4    0    0  0.43673816126E+01  0.21917388806E+01 -0.76580956701E+01  0.90848959707E+01  0.10566000000E+00 0. -1.
         14    1    4    4    0    0  0.24617833679E+02  0.15931477523E+02 -0.46512977821E+02  0.54984605272E+02  0.00000000000E+00 0. -1.
<mgrwt>
<rscale>  0 0.79434183E+02</rscale>
<asrwt>0</asrwt>
<pdfrwt beam="1">  1        2 0.12913467E-02 0.79434183E+02</pdfrwt>
<pdfrwt beam="2">  1       -1 0.28912478E-01 0.79434183E+02</pdfrwt>
<totfact> 0.10330706E+05</totfact>
</mgrwt>
</event>
<event>
 8    1  0.2389776E-020  0.8159204E+02  0.7818608E-02  0.1324593E+00
          2   -1    0    0  501    0  0.00000000000E+00  0.00000000000E+00  0.27296052337E+03  0.27296052338E+03  0.25500000000E-02 0. -1.
         -1   -1    0    0    0  501 -0.00000000000E+00 -0.00000000000E+00 -0.60972729177E+01  0.60972750007E+01  0.50400000000E-02 0.  1.
         24    2    1    2    0    0  0.00000000000E+00 -0.35527136788E-14  0.26686325045E+03  0.27905779838E+03  0.81592036352E+02 0.  0.
         66    2    3    3    0    0  0.30960631991E+02  0.23534304689E+02  0.17538386796E+03  0.17965501765E+03  0.19999997042E+01 0.  0.
        -13    1    3    3    0    0 -0.30960631991E+02 -0.23534304689E+02  0.91479382494E+02  0.99402780725E+02  0.10566000000E+00 0.  1.
         13    1    4    4    0    0  0.94200302679E+01  0.68701240238E+01  0.55958622965E+02  0.57160425318E+02  0.10566000000E+00 0. -1.
        -13    1    4    4    0    0  0.10544042681E+01  0.97773746803E+00  0.57874889714E+01  0.59643886146E+01  0.10566000000E+00 0.  1.
         14    1    4    4    0    0  0.20486197455E+02  0.15686443197E+02  0.11363775602E+03  0.11653020372E+03  0.00000000000E+00 0. -1.
<mgrwt>
<rscale>  0 0.81592036E+02</rscale>
<asrwt>0</asrwt>
<pdfrwt beam="1">  1        2 0.41993926E-01 0.81592036E+02</pdfrwt>
<pdfrwt beam="2">  1       -1 0.93804216E-03 0.81592036E+02</pdfrwt>
<totfact> 0.23393627E+05</totfact>
</mgrwt>
</event>
<event>
 8    1  0.2389776E-020  0.7897890E+02  0.7818608E-02  0.1331974E+00
         -1   -1    0    0    0  501 -0.00000000000E+00  0.00000000000E+00  0.44420001533E+01  0.44420030126E+01  0.50400000000E-02 0.  1.
          2   -1    0    0  501    0  0.00000000000E+00 -0.00000000000E+00 -0.35106166778E+03  0.35106166779E+03  0.25500000000E-02 0. -1.
         24    2    1    2    0    0  0.00000000000E+00  0.88817841970E-15 -0.34661966762E+03  0.35550367080E+03  0.78978895712E+02 0.  0.
         66    2    3    3    0    0 -0.35324429275E+02 -0.60098470811E+01 -0.24785857929E+03  0.25044322487E+03  0.19999977203E+01 0.  0.
        -13    1    3    3    0    0  0.35324429275E+02  0.60098470811E+01 -0.98761088329E+02  0.10506044592E+03  0.10566000000E+00 0.  1.
         13    1    4    4    0    0 -0.26012874847E+01 -0.89713296459E+00 -0.19113070189E+02  0.19310415848E+02  0.10566000000E+00 0.  1.
        -13    1    4    4    0    0 -0.17535357382E+02 -0.31102017563E+01 -0.12086858040E+03  0.12217359373E+03  0.10566000000E+00 0. -1.
         14    1    4    4    0    0 -0.15187784408E+02 -0.20025123602E+01 -0.10787692870E+03  0.10895921529E+03  0.00000000000E+00 0. -1.
<mgrwt>
<rscale>  0 0.78978896E+02</rscale>
<asrwt>0</asrwt>
<pdfrwt beam="1">  1        2 0.54009465E-01 0.78978896E+02</pdfrwt>
<pdfrwt beam="2">  1       -1 0.68338514E-03 0.78978896E+02</pdfrwt>
<totfact> 0.27900311E+05</totfact>
</mgrwt>
</event>
<event>
 8    1  0.2389776E-020  0.7427414E+02  0.7818608E-02  0.1346134E+00
         -1   -1    0    0    0  501 -0.00000000000E+00  0.00000000000E+00  0.27238418925E+01  0.27238465553E+01  0.50400000000E-02 0.  1.
          2   -1    0    0  501    0  0.00000000000E+00 -0.00000000000E+00 -0.50632919786E+03  0.50632919787E+03  0.25500000000E-02 0. -1.
         24    2    1    2    0    0  0.35527136788E-14  0.17763568394E-14 -0.50360535597E+03  0.50905304442E+03  0.74274137328E+02 0.  0.
         66    2    3    3    0    0 -0.19707371405E+02 -0.14970541140E+02 -0.44150666347E+03  0.44220428704E+03  0.19999992849E+01 0.  0.
        -13    1    3    3    0    0  0.19707371405E+02  0.14970541140E+02 -0.62098692494E+02  0.66848757380E+02  0.10566000000E+00 0.  1.
         13    1    4    4    0    0 -0.16882933201E+02 -0.12755244977E+02 -0.38224461765E+03  0.38282984287E+03  0.10566000000E+00 0. -1.
        -13    1    4    4    0    0 -0.12027241789E+01 -0.12629695210E+01 -0.31934352921E+02  0.31982115283E+02  0.10566000000E+00 0.  1.
        -14    1    4    4    0    0 -0.16217140252E+01 -0.95232664225E+00 -0.27327692906E+02  0.27392328889E+02  0.00000000000E+00 0.  1.
<mgrwt>
<rscale>  0 0.74274137E+02</rscale>
<asrwt>0</asrwt>
<pdfrwt beam="1">  1        2 0.77896725E-01 0.74274137E+02</pdfrwt>
<pdfrwt beam="2">  1       -1 0.41905336E-03 0.74274137E+02</pdfrwt>
<totfact> 0.37073450E+05</totfact>
</mgrwt>
</event>
<event>
 8    1  0.2389776E-020  0.7991331E+02  0.7818608E-02  0.1329298E+00
         -1   -1    0    0    0  501 -0.00000000000E+00  0.00000000000E+00  0.16634023065E+03  0.16634023072E+03  0.50400000000E-02 0.  1.
          2   -1    0    0  501    0  0.00000000000E+00 -0.00000000000E+00 -0.95980034051E+01  0.95980037438E+01  0.25500000000E-02 0. -1.
         24    2    1    2    0    0  0.00000000000E+00 -0.17763568394E-14  0.15674222724E+03  0.17593823447E+03  0.79913306443E+02 0.  0.
         66    2    3    3    0    0 -0.21930703657E+02  0.15466115176E+02  0.13318800602E+02  0.30025771139E+02  0.20000003576E+01 0.  0.
        -13    1    3    3    0    0  0.21930703657E+02 -0.15466115176E+02  0.14342342664E+03  0.14591246333E+03  0.10566000000E+00 0.  1.
         13    1    4    4    0    0 -0.52065718600E+01  0.31965866654E+01  0.35419689775E+01  0.70628085855E+01  0.10566000000E+00 0. -1.
        -13    1    4    4    0    0 -0.66622951854E+01  0.42531503588E+01  0.40316994996E+01  0.88736255275E+01  0.10566000000E+00 0.  1.
         14    1    4    4    0    0 -0.10061836612E+02  0.80163781523E+01  0.57451321252E+01  0.14089337026E+02  0.00000000000E+00 0. -1.
<mgrwt>
<rscale>  0 0.79913306E+02</rscale>
<asrwt>0</asrwt>
<pdfrwt beam="1">  1        2 0.14766160E-02 0.79913306E+02</pdfrwt>
<pdfrwt beam="2">  1       -1 0.25590803E-01 0.79913306E+02</pdfrwt>
<totfact> 0.10527669E+05</totfact>
</mgrwt>
</event>
<event>
 8    1  0.2389776E-020  0.8060166E+02  0.7818608E-02  0.1327353E+00
          2   -1    0    0  501    0  0.00000000000E+00  0.00000000000E+00  0.48225395329E+03  0.48225395330E+03  0.25500000000E-02 0. -1.
         -1   -1    0    0    0  501 -0.00000000000E+00 -0.00000000000E+00 -0.33678436746E+01  0.33678474458E+01  0.50400000000E-02 0.  1.
         24    2    1    2    0    0 -0.71054273576E-14  0.00000000000E+00  0.47888610962E+03  0.48562180074E+03  0.80601658630E+02 0.  0.
         66    2    3    3    0    0 -0.36441845630E+02 -0.95345277880E+00  0.34276207398E+03  0.34470096685E+03  0.19999996570E+01 0.  0.
        -13    1    3    3    0    0  0.36441845630E+02  0.95345277880E+00  0.13612403563E+03  0.14092083390E+03  0.10566000000E+00 0.  1.
         13    1    4    4    0    0 -0.24708088849E+01 -0.42517837198E+00  0.21867857248E+02  0.22011361108E+02  0.10566000000E+00 0. -1.
        -13    1    4    4    0    0 -0.84045355241E+01 -0.22810247726E+00  0.83740136523E+02  0.84161213615E+02  0.10566000000E+00 0.  1.
         14    1    4    4    0    0 -0.25566501221E+02 -0.30017192956E+00  0.23715408021E+03  0.23852839212E+03  0.00000000000E+00 0. -1.
<mgrwt>
<rscale>  0 0.80601659E+02</rscale>
<asrwt>0</asrwt>
<pdfrwt beam="1">  1        2 0.74192862E-01 0.80601659E+02</pdfrwt>
<pdfrwt beam="2">  1       -1 0.51813047E-03 0.80601659E+02</pdfrwt>
<totfact> 0.29516744E+05</totfact>
</mgrwt>
</event>
<event>
 8    1  0.2389776E-020  0.8046673E+02  0.7818608E-02  0.1327732E+00
          2   -1    0    0  501    0  0.00000000000E+00  0.00000000000E+00  0.11706510496E+03  0.11706510499E+03  0.25500000000E-02 0. -1.
         -1   -1    0    0    0  501 -0.00000000000E+00 -0.00000000000E+00 -0.13827550687E+02  0.13827551606E+02  0.50400000000E-02 0.  1.
         24    2    1    2    0    0 -0.17763568394E-14 -0.35527136788E-14  0.10323755427E+03  0.13089265659E+03  0.80466731871E+02 0.  0.
         66    2    3    3    0    0  0.15873718056E+02  0.20655064375E+02  0.10147316682E+03  0.10478268079E+03  0.20000000574E+01 0.  0.
        -13    1    3    3    0    0 -0.15873718056E+02 -0.20655064375E+02  0.17643874526E+01  0.26109975801E+02  0.10566000000E+00 0.  1.
         13    1    4    4    0    0  0.54623123462E+01  0.68067187985E+01  0.36146968317E+02  0.37185787063E+02  0.10566000000E+00 0. -1.
        -13    1    4    4    0    0  0.34920761972E+00  0.19860904111E+00  0.15988021327E+01  0.16518849257E+01  0.10566000000E+00 0.  1.
         14    1    4    4    0    0  0.10062198090E+02  0.13649736535E+02  0.63727396371E+02  0.65945008804E+02  0.00000000000E+00 0. -1.
<mgrwt>
<rscale>  0 0.80466732E+02</rscale>
<asrwt>0</asrwt>
<pdfrwt beam="1">  1        2 0.18010016E-01 0.80466732E+02</pdfrwt>
<pdfrwt beam="2">  1       -1 0.21273156E-02 0.80466732E+02</pdfrwt>
<totfact> 0.18263462E+05</totfact>
</mgrwt>
</event>
<event>
 8    1  0.2389776E-020  0.7729127E+02  0.7818608E-02  0.1336919E+00
          2   -1    0    0  501    0  0.00000000000E+00  0.00000000000E+00  0.15541714443E+03  0.15541714445E+03  0.25500000000E-02 0. -1.
         -1   -1    0    0    0  501 -0.00000000000E+00 -0.00000000000E+00 -0.96095243552E+01  0.96095256769E+01  0.50400000000E-02 0.  1.
         24    2    1    2    0    0 -0.35527136788E-14  0.00000000000E+00  0.14580762007E+03  0.16502667013E+03  0.77291265881E+02 0.  0.
         66    2    3    3    0    0 -0.24749800834E+02  0.22369375387E+02  0.11449365669E+03  0.11927170249E+03  0.19999991275E+01 0.  0.
        -13    1    3    3    0    0  0.24749800834E+02 -0.22369375387E+02  0.31313963388E+02  0.45754967639E+02  0.10566000000E+00 0.  1.
         13    1    4    4    0    0 -0.56977452133E+01  0.47009663063E+01  0.25151134754E+02  0.26213624857E+02  0.10566000000E+00 0. -1.
        -13    1    4    4    0    0 -0.41840095814E+00  0.46625490399E+00  0.15222425866E+01  0.16494967492E+01  0.10566000000E+00 0.  1.
        -14    1    4    4    0    0 -0.18633654662E+02  0.17202154177E+02  0.87820279346E+02  0.91408580882E+02  0.00000000000E+00 0.  1.
<mgrwt>
<rscale>  0 0.77291266E+02</rscale>
<asrwt>0</asrwt>
<pdfrwt beam="1">  1        2 0.23910329E-01 0.77291266E+02</pdfrwt>
<pdfrwt beam="2">  1       -1 0.14783885E-02 0.77291266E+02</pdfrwt>
<totfact> 0.22195450E+05</totfact>
</mgrwt>
</event>
<event>
 8    1  0.2389776E-020  0.8475659E+02  0.7818608E-02  0.1316070E+00
         -1   -1    0    0    0  501 -0.00000000000E+00  0.00000000000E+00  0.54404951943E+02  0.54404952177E+02  0.50400000000E-02 0.  1.
          2   -1    0    0  501    0  0.00000000000E+00 -0.00000000000E+00 -0.33010231151E+02  0.33010231249E+02  0.25500000000E-02 0. -1.
         24    2    1    2    0    0  0.00000000000E+00  0.00000000000E+00  0.21394720793E+02  0.87415183426E+02  0.84756593936E+02 0.  0.
         66    2    3    3    0    0  0.23905584540E+02  0.14937240601E+02 -0.21900257390E+02  0.35752194461E+02  0.20000015131E+01 0.  0.
        -13    1    3    3    0    0 -0.23905584540E+02 -0.14937240601E+02  0.43294978182E+02  0.51662988965E+02  0.10566000000E+00 0.  1.
         13    1    4    4    0    0  0.10910007464E+02  0.63255341275E+01 -0.93851131001E+01  0.15720437551E+02  0.10566000000E+00 0. -1.
        -13    1    4    4    0    0  0.82980405215E+01  0.60606750104E+01 -0.77554667069E+01  0.12874303319E+02  0.10566000000E+00 0.  1.
         14    1    4    4    0    0  0.46975365551E+01  0.25510314629E+01 -0.47596775828E+01  0.71574535907E+01  0.00000000000E+00 0. -1.
<mgrwt>
<rscale>  0 0.84756594E+02</rscale>
<asrwt>0</asrwt>
<pdfrwt beam="1">  1        2 0.50784971E-02 0.84756594E+02</pdfrwt>
<pdfrwt beam="2">  1       -1 0.83699927E-02 0.84756594E+02</pdfrwt>
<totfact> 0.11663175E+05</totfact>
</mgrwt>
</event>
<event>
 8    1  0.2389776E-020  0.8069491E+02  0.7818608E-02  0.1327091E+00
          2   -1    0    0  501    0  0.00000000000E+00  0.00000000000E+00  0.37030612101E+03  0.37030612102E+03  0.25500000000E-02 0. -1.
         -1   -1    0    0    0  501 -0.00000000000E+00 -0.00000000000E+00 -0.43961370759E+01  0.43961399650E+01  0.50400000000E-02 0.  1.
         24    2    1    2    0    0  0.00000000000E+00  0.00000000000E+00  0.36590998393E+03  0.37470226098E+03  0.80694907173E+02 0.  0.
         66    2    3    3    0    0 -0.32364390533E+02 -0.72779538415E+01  0.28951133026E+03  0.29141247869E+03  0.20000006831E+01 0.  0.
        -13    1    3    3    0    0  0.32364390533E+02  0.72779538415E+01  0.76398653673E+02  0.83289782289E+02  0.10566000000E+00 0.  1.
         13    1    4    4    0    0 -0.79272847118E+01 -0.13941659189E+01  0.67683382678E+02  0.68160377025E+02  0.10566000000E+00 0. -1.
        -13    1    4    4    0    0 -0.51138703826E+00 -0.30663641725E+00  0.47647895429E+01  0.48031162821E+01  0.10566000000E+00 0.  1.
        -14    1    4    4    0    0 -0.23925718783E+02 -0.55771515054E+01  0.21706315804E+03  0.21844898539E+03  0.00000000000E+00 0.  1.
<mgrwt>
<rscale>  0 0.80694907E+02</rscale>
<asrwt>0</asrwt>
<pdfrwt beam="1">  1        2 0.56970175E-01 0.80694907E+02</pdfrwt>
<pdfrwt beam="2">  1       -1 0.67632898E-03 0.80694907E+02</pdfrwt>
<totfact> 0.26880188E+05</totfact>
</mgrwt>
</event>
<event>
 8    1  0.2389776E-020  0.8090460E+02  0.7818608E-02  0.1326504E+00
          2   -1    0    0  501    0  0.00000000000E+00  0.00000000000E+00  0.97362136735E+02  0.97362136769E+02  0.25500000000E-02 0. -1.
         -1   -1    0    0    0  501 -0.00000000000E+00 -0.00000000000E+00 -0.16807237433E+02  0.16807238189E+02  0.50400000000E-02 0.  1.
         24    2    1    2    0    0  0.35527136788E-14  0.00000000000E+00  0.80554899302E+02  0.11416937496E+03  0.80904600467E+02 0.  0.
         66    2    3    3    0    0 -0.29458903030E+02  0.23607029762E+02  0.60715824600E+02  0.71522934650E+02  0.20000005259E+01 0.  0.
        -13    1    3    3    0    0  0.29458903030E+02 -0.23607029762E+02  0.19839074702E+02  0.42646440308E+02  0.10566000000E+00 0.  1.
         13    1    4    4    0    0 -0.11737488542E+02  0.10263628375E+02  0.26225281178E+02  0.30510444795E+02  0.10566000000E+00 0. -1.
        -13    1    4    4    0    0 -0.55429742075E+01  0.38972906957E+01  0.10316608087E+02  0.12343297950E+02  0.10566000000E+00 0.  1.
         14    1    4    4    0    0 -0.12178440280E+02  0.94461106914E+01  0.24173935336E+02  0.28669191905E+02  0.00000000000E+00 0. -1.
<mgrwt>
<rscale>  0 0.80904600E+02</rscale>
<asrwt>0</asrwt>
<pdfrwt beam="1">  1        2 0.14978790E-01 0.80904600E+02</pdfrwt>
<pdfrwt beam="2">  1       -1 0.25857289E-02 0.80904600E+02</pdfrwt>
<totfact> 0.17071607E+05</totfact>
</mgrwt>
</event>
<event>
 8    1  0.2389776E-020  0.7938292E+02  0.7818608E-02  0.1330812E+00
          2   -1    0    0  501    0  0.00000000000E+00  0.00000000000E+00  0.15279892470E+03  0.15279892472E+03  0.25500000000E-02 0. -1.
         -1   -1    0    0    0  501 -0.00000000000E+00 -0.00000000000E+00 -0.10310358547E+02  0.10310359779E+02  0.50400000000E-02 0.  1.
         24    2    1    2    0    0  0.71054273576E-14 -0.35527136788E-14  0.14248856615E+03  0.16310928450E+03  0.79382915077E+02 0.  0.
         66    2    3    3    0    0 -0.34540275407E+02  0.19419980996E+02  0.74988191079E+02  0.84837462712E+02  0.19999977377E+01 0.  0.
        -13    1    3    3    0    0  0.34540275407E+02 -0.19419980996E+02  0.67500375075E+02  0.78271821790E+02  0.10566000000E+00 0.  1.
         13    1    4    4    0    0 -0.55519464027E+01  0.35796289486E+01  0.12539529244E+02  0.14173524966E+02  0.10566000000E+00 0.  1.
        -13    1    4    4    0    0 -0.19781578043E+02  0.11599022312E+02  0.43105076213E+02  0.48825269153E+02  0.10566000000E+00 0. -1.
        -14    1    4    4    0    0 -0.92067509616E+01  0.42413297352E+01  0.19343585622E+02  0.21838668593E+02  0.00000000000E+00 0.  1.
<mgrwt>
<rscale>  0 0.79382915E+02</rscale>
<asrwt>0</asrwt>
<pdfrwt beam="1">  1        2 0.23507525E-01 0.79382915E+02</pdfrwt>
<pdfrwt beam="2">  1       -1 0.15862092E-02 0.79382915E+02</pdfrwt>
<totfact> 0.20567978E+05</totfact>
</mgrwt>
</event>
<event>
 8    1  0.2389776E-020  0.7667643E+02  0.7818608E-02  0.1338757E+00
         -1   -1    0    0    0  501 -0.00000000000E+00  0.00000000000E+00  0.64188659847E+01  0.64188679634E+01  0.50400000000E-02 0.  1.
          2   -1    0    0  501    0  0.00000000000E+00 -0.00000000000E+00 -0.22898412804E+03  0.22898412806E+03  0.25500000000E-02 0. -1.
         24    2    1    2    0    0 -0.35527136788E-14 -0.35527136788E-14 -0.22256526206E+03  0.23540299602E+03  0.76676428323E+02 0.  0.
         66    2    3    3    0    0 -0.29499819885E+02 -0.21848969161E+02 -0.77699472028E+02  0.85958273425E+02  0.19999975096E+01 0.  0.
        -13    1    3    3    0    0  0.29499819885E+02  0.21848969161E+02 -0.14486579003E+03  0.14944472259E+03  0.10566000000E+00 0.  1.
         13    1    4    4    0    0 -0.40031148560E+01 -0.26802863851E+01 -0.10150113795E+02  0.11235872808E+02  0.10566000000E+00 0. -1.
        -13    1    4    4    0    0 -0.23143283932E+02 -0.16858302893E+02 -0.59848383039E+02  0.66344962763E+02  0.10566000000E+00 0.  1.
        -14    1    4    4    0    0 -0.23534210972E+01 -0.23103798820E+01 -0.77009751935E+01  0.83774378536E+01  0.00000000000E+00 0.  1.
<mgrwt>
<rscale>  0 0.76676428E+02</rscale>
<asrwt>0</asrwt>
<pdfrwt beam="1">  1        2 0.35228321E-01 0.76676428E+02</pdfrwt>
<pdfrwt beam="2">  1       -1 0.98751818E-03 0.76676428E+02</pdfrwt>
<totfact> 0.25860297E+05</totfact>
</mgrwt>
</event>
<event>
 8    1  0.2389776E-020  0.7959792E+02  0.7818608E-02  0.1330196E+00
          2   -1    0    0  501    0  0.00000000000E+00  0.00000000000E+00  0.79264635447E+02  0.79264635488E+02  0.25500000000E-02 0. -1.
         -1   -1    0    0    0  501 -0.00000000000E+00 -0.00000000000E+00 -0.19983150175E+02  0.19983150811E+02  0.50400000000E-02 0.  1.
         24    2    1    2    0    0  0.00000000000E+00 -0.17763568394E-14  0.59281485272E+02  0.99247786299E+02  0.79597918246E+02 0.  0.
         66    2    3    3    0    0  0.17210635708E+02  0.12458154639E+02  0.71583354014E+02  0.74696640968E+02  0.20000003760E+01 0.  0.
        -13    1    3    3    0    0 -0.17210635708E+02 -0.12458154639E+02 -0.12301868742E+02  0.24551145331E+02  0.10566000000E+00 0.  1.
         13    1    4    4    0    0  0.74963196359E+01  0.52910045229E+01  0.30916939144E+02  0.32249927551E+02  0.10566000000E+00 0. -1.
        -13    1    4    4    0    0  0.55668103554E+01  0.31866292374E+01  0.21599226323E+02  0.22531793653E+02  0.10566000000E+00 0.  1.
        -14    1    4    4    0    0  0.41475057166E+01  0.39805208789E+01  0.19067188546E+02  0.19914919763E+02  0.00000000000E+00 0.  1.
<mgrwt>
<rscale>  0 0.79597918E+02</rscale>
<asrwt>0</asrwt>
<pdfrwt beam="1">  1        2 0.12194560E-01 0.79597918E+02</pdfrwt>
<pdfrwt beam="2">  1       -1 0.30743308E-02 0.79597918E+02</pdfrwt>
<totfact> 0.16883950E+05</totfact>
</mgrwt>
</event>
<event>
 8    1  0.2389776E-020  0.7988147E+02  0.7818608E-02  0.1329388E+00
          2   -1    0    0  501    0  0.00000000000E+00  0.00000000000E+00  0.20326746871E+04  0.20326746871E+04  0.25500000000E-02 0. -1.
         -1   -1    0    0    0  501 -0.00000000000E+00 -0.00000000000E+00 -0.78480142190E+00  0.78481760519E+00  0.50400000000E-02 0.  1.
         24    2    1    2    0    0  0.22204460493E-15  0.00000000000E+00  0.20318898857E+04  0.20334595047E+04  0.79881473205E+02 0.  0.
         66    2    3    3    0    0  0.19215257515E+01 -0.16713433350E+02  0.19380106141E+04  0.19380846657E+04  0.20000060702E+01 0.  0.
        -13    1    3    3    0    0 -0.19215257515E+01  0.16713433350E+02  0.93879271616E+02  0.95374839023E+02  0.10566000000E+00 0.  1.
         13    1    4    4    0    0  0.19176617888E+01 -0.12800234756E+02  0.14588476511E+04  0.14589050702E+04  0.10566000000E+00 0. -1.
        -13    1    4    4    0    0  0.29670356646E+00 -0.72276523226E+00  0.96564802232E+02  0.96568020673E+02  0.10566000000E+00 0.  1.
         14    1    4    4    0    0 -0.29283960369E+00 -0.31904333616E+01  0.38259816074E+03  0.38261157487E+03  0.00000000000E+00 0. -1.
<mgrwt>
<rscale>  0 0.79881473E+02</rscale>
<asrwt>0</asrwt>
<pdfrwt beam="1">  1        2 0.31271638E+00 0.79881473E+02</pdfrwt>
<pdfrwt beam="2">  1       -1 0.12074101E-03 0.79881473E+02</pdfrwt>
<totfact> 0.27444174E+05</totfact>
</mgrwt>
</event>
<event>
 8    1  0.2389776E-020  0.7918372E+02  0.7818608E-02  0.1331384E+00
         -1   -1    0    0    0  501 -0.00000000000E+00  0.00000000000E+00  0.18317616485E+02  0.18317617178E+02  0.50400000000E-02 0.  1.
          2   -1    0    0  501    0  0.00000000000E+00 -0.00000000000E+00 -0.85574199551E+02  0.85574199589E+02  0.25500000000E-02 0. -1.
         24    2    1    2    0    0  0.17763568394E-14 -0.17763568394E-14 -0.67256583066E+02  0.10389181677E+03  0.79183720710E+02 0.  0.
         66    2    3    3    0    0 -0.12223556605E+02  0.93451396867E+01 -0.81476259732E+02  0.82940507969E+02  0.19999976027E+01 0.  0.
        -13    1    3    3    0    0  0.12223556605E+02 -0.93451396867E+01  0.14219676666E+02  0.20951308798E+02  0.10566000000E+00 0.  1.
         13    1    4    4    0    0 -0.64414330419E+01  0.52849623737E+01 -0.47487433793E+02  0.48212969408E+02  0.10566000000E+00 0. -1.
        -13    1    4    4    0    0 -0.22616706443E+01  0.21277019011E+01 -0.14445223105E+02  0.14775584728E+02  0.10566000000E+00 0.  1.
         14    1    4    4    0    0 -0.35204529192E+01  0.19324754118E+01 -0.19543602835E+02  0.19951953833E+02  0.00000000000E+00 0. -1.
<mgrwt>
<rscale>  0 0.79183721E+02</rscale>
<asrwt>0</asrwt>
<pdfrwt beam="1">  1        2 0.13165261E-01 0.79183721E+02</pdfrwt>
<pdfrwt beam="2">  1       -1 0.28180950E-02 0.79183721E+02</pdfrwt>
<totfact> 0.17465960E+05</totfact>
</mgrwt>
</event>
<event>
 8    1  0.2389776E-020  0.8009175E+02  0.7818608E-02  0.1328791E+00
         -1   -1    0    0    0  501 -0.00000000000E+00  0.00000000000E+00  0.99895975573E+02  0.99895975700E+02  0.50400000000E-02 0.  1.
          2   -1    0    0  501    0  0.00000000000E+00 -0.00000000000E+00 -0.16053419976E+02  0.16053420178E+02  0.25500000000E-02 0. -1.
         24    2    1    2    0    0  0.35527136788E-14  0.17763568394E-14  0.83842555597E+02  0.11594939588E+03  0.80091749110E+02 0.  0.
         66    2    3    3    0    0 -0.18236272883E+02  0.13607151483E+02 -0.57161087494E+01  0.23545490421E+02  0.19999999491E+01 0.  0.
        -13    1    3    3    0    0  0.18236272883E+02 -0.13607151483E+02  0.89558664346E+02  0.92403905457E+02  0.10566000000E+00 0.  1.
         13    1    4    4    0    0 -0.76696317420E+01  0.53680997170E+01 -0.23380784459E+01  0.96497419906E+01  0.10566000000E+00 0. -1.
        -13    1    4    4    0    0 -0.36897450216E+01  0.31636095888E+01 -0.19117652664E+01  0.52238543648E+01  0.10566000000E+00 0.  1.
        -14    1    4    4    0    0 -0.68768961199E+01  0.50754421768E+01 -0.14662650371E+01  0.86718940660E+01  0.00000000000E+00 0.  1.
<mgrwt>
<rscale>  0 0.80091749E+02</rscale>
<asrwt>0</asrwt>
<pdfrwt beam="1">  1        2 0.24697569E-02 0.80091749E+02</pdfrwt>
<pdfrwt beam="2">  1       -1 0.15368612E-01 0.80091749E+02</pdfrwt>
<totfact> 0.11821821E+05</totfact>
</mgrwt>
</event>
<event>
 8    1  0.2389776E-020  0.8039824E+02  0.7818608E-02  0.1327925E+00
         -1   -1    0    0    0  501 -0.00000000000E+00  0.00000000000E+00  0.40732760676E+01  0.40732791857E+01  0.50400000000E-02 0.  1.
          2   -1    0    0  501    0  0.00000000000E+00 -0.00000000000E+00 -0.39672458992E+03  0.39672458993E+03  0.25500000000E-02 0. -1.
         24    2    1    2    0    0  0.00000000000E+00  0.00000000000E+00 -0.39265131385E+03  0.40079786911E+03  0.80398243863E+02 0.  0.
         66    2    3    3    0    0  0.30762627898E+02 -0.41653405239E+01 -0.32357076606E+03  0.32506265548E+03  0.20000004946E+01 0.  0.
        -13    1    3    3    0    0 -0.30762627898E+02  0.41653405239E+01 -0.69080547792E+02  0.75735213633E+02  0.10566000000E+00 0.  1.
         13    1    4    4    0    0  0.13479430640E+02 -0.23050235798E+01 -0.14674471848E+03  0.14738056774E+03  0.10566000000E+00 0. -1.
        -13    1    4    4    0    0  0.11634484170E+02 -0.93180430111E+00 -0.12291650498E+03  0.12346946117E+03  0.10566000000E+00 0.  1.
         14    1    4    4    0    0  0.56487130879E+01 -0.92851264303E+00 -0.53909542609E+02  0.54212626569E+02  0.00000000000E+00 0. -1.
<mgrwt>
<rscale>  0 0.80398244E+02</rscale>
<asrwt>0</asrwt>
<pdfrwt beam="1">  1        2 0.61034522E-01 0.80398244E+02</pdfrwt>
<pdfrwt beam="2">  1       -1 0.62665841E-03 0.80398244E+02</pdfrwt>
<totfact> 0.27809239E+05</totfact>
</mgrwt>
</event>
<event>
 8    1  0.2389776E-020  0.8005049E+02  0.7818608E-02  0.1328908E+00
         -1   -1    0    0    0  501 -0.00000000000E+00  0.00000000000E+00  0.11840677920E+03  0.11840677931E+03  0.50400000000E-02 0.  1.
          2   -1    0    0  501    0  0.00000000000E+00 -0.00000000000E+00 -0.13529799871E+02  0.13529800112E+02  0.25500000000E-02 0. -1.
         24    2    1    2    0    0  0.00000000000E+00  0.00000000000E+00  0.10487697933E+03  0.13193657942E+03  0.80050485294E+02 0.  0.
         66    2    3    3    0    0  0.25780216679E+02  0.26103924779E+02  0.26204670961E+02  0.45130025929E+02  0.19999998310E+01 0.  0.
        -13    1    3    3    0    0 -0.25780216679E+02 -0.26103924779E+02  0.78672308370E+02  0.86806553492E+02  0.10566000000E+00 0.  1.
         13    1    4    4    0    0  0.90483948287E+01  0.90158767629E+01  0.93641084887E+01  0.15838471347E+02  0.10566000000E+00 0. -1.
        -13    1    4    4    0    0  0.16134559820E+02  0.16548936164E+02  0.16584197015E+02  0.28447109931E+02  0.10566000000E+00 0.  1.
        -14    1    4    4    0    0  0.59726203014E+00  0.53911185178E+00  0.25636545657E+00  0.84444465105E+00  0.00000000000E+00 0.  1.
<mgrwt>
<rscale>  0 0.80050485E+02</rscale>
<asrwt>0</asrwt>
<pdfrwt beam="1">  1        2 0.20815078E-02 0.80050485E+02</pdfrwt>
<pdfrwt beam="2">  1       -1 0.18216427E-01 0.80050485E+02</pdfrwt>
<totfact> 0.11401205E+05</totfact>
</mgrwt>
</event>
<event>
 8    1  0.2389776E-020  0.7342757E+02  0.7818608E-02  0.1348811E+00
         -1   -1    0    0    0  501 -0.00000000000E+00  0.00000000000E+00  0.13160894621E+01  0.13160991125E+01  0.50400000000E-02 0.  1.
          2   -1    0    0  501    0  0.00000000000E+00 -0.00000000000E+00 -0.10241683163E+04  0.10241683163E+04  0.25500000000E-02 0. -1.
         24    2    1    2    0    0  0.00000000000E+00  0.00000000000E+00 -0.10228522269E+04  0.10254844154E+04  0.73427571888E+02 0.  0.
         66    2    3    3    0    0 -0.12724074538E+02  0.34308156498E+01 -0.98996677036E+03  0.99005650297E+03  0.20000200711E+01 0.  0.
        -13    1    3    3    0    0  0.12724074538E+02 -0.34308156498E+01 -0.32885456509E+02  0.35427912481E+02  0.10566000000E+00 0.  1.
         13    1    4    4    0    0 -0.71330040440E+01  0.17313383679E+01 -0.49311472450E+03  0.49316936235E+03  0.10566000000E+00 0. -1.
        -13    1    4    4    0    0 -0.12516367899E+00 -0.18917269516E-01 -0.19832866101E+02  0.19833551513E+02  0.10566000000E+00 0. -1.
         14    1    4    4    0    0 -0.54659068151E+01  0.17183945515E+01 -0.47701917976E+03  0.47705358910E+03  0.00000000000E+00 0. -1.
<mgrwt>
<rscale>  0 0.73427572E+02</rscale>
<asrwt>0</asrwt>
<pdfrwt beam="1">  1        2 0.15756372E+00 0.73427572E+02</pdfrwt>
<pdfrwt beam="2">  1       -1 0.20247686E-03 0.73427572E+02</pdfrwt>
<totfact> 0.44005200E+05</totfact>
</mgrwt>
</event>
<event>
 8    1  0.2389776E-020  0.8036506E+02  0.7818608E-02  0.1328019E+00
         -1   -1    0    0    0  501 -0.00000000000E+00  0.00000000000E+00  0.39435990156E+02  0.39435990478E+02  0.50400000000E-02 0.  1.
          2   -1    0    0  501    0  0.00000000000E+00 -0.00000000000E+00 -0.40943201202E+02  0.40943201281E+02  0.25500000000E-02 0. -1.
         24    2    1    2    0    0  0.00000000000E+00  0.00000000000E+00 -0.15072110456E+01  0.80379191759E+02  0.80365059464E+02 0.  0.
         66    2    3    3    0    0 -0.35636122909E+02  0.12055753000E+02 -0.14804897059E+02  0.40477887849E+02  0.19999978546E+01 0.  0.
        -13    1    3    3    0    0  0.35636122909E+02 -0.12055753000E+02  0.13297686013E+02  0.39901303910E+02  0.10566000000E+00 0.  1.
         13    1    4    4    0    0 -0.73899443715E+01  0.18170560969E+01 -0.31378804859E+01  0.82322796753E+01  0.10566000000E+00 0. -1.
        -13    1    4    4    0    0 -0.59939100489E+01  0.22703565757E+01 -0.20801011036E+01  0.67393962112E+01  0.10566000000E+00 0.  1.
         14    1    4    4    0    0 -0.22252268488E+02  0.79683403274E+01 -0.95869154695E+01  0.25506211962E+02  0.00000000000E+00 0. -1.
<mgrwt>
<rscale>  0 0.80365059E+02</rscale>
<asrwt>0</asrwt>
<pdfrwt beam="1">  1        2 0.62989541E-02 0.80365059E+02</pdfrwt>
<pdfrwt beam="2">  1       -1 0.60670754E-02 0.80365059E+02</pdfrwt>
<totfact> 0.14144824E+05</totfact>
</mgrwt>
</event>
<event>
 8    1  0.2389776E-020  0.8385944E+02  0.7818608E-02  0.1318442E+00
         -1   -1    0    0    0  501 -0.00000000000E+00  0.00000000000E+00  0.20206663262E+01  0.20206726116E+01  0.50400000000E-02 0.  1.
          2   -1    0    0  501    0  0.00000000000E+00 -0.00000000000E+00 -0.87005888375E+03  0.87005888376E+03  0.25500000000E-02 0. -1.
         24    2    1    2    0    0  0.00000000000E+00  0.00000000000E+00 -0.86803821743E+03  0.87207955637E+03  0.83859440268E+02 0.  0.
         66    2    3    3    0    0 -0.12846346429E+02 -0.20311104010E+02 -0.79126994958E+03  0.79163735553E+03  0.20000018688E+01 0.  0.
        -13    1    3    3    0    0  0.12846346429E+02  0.20311104010E+02 -0.76768267850E+02  0.80442200836E+02  0.10566000000E+00 0.  1.
         13    1    4    4    0    0 -0.77910666992E+00 -0.20469687248E+01 -0.78649509220E+02  0.78680070874E+02  0.10566000000E+00 0. -1.
        -13    1    4    4    0    0 -0.20638697908E+01 -0.28595980700E+01 -0.12575267932E+03  0.12580216365E+03  0.10566000000E+00 0.  1.
        -14    1    4    4    0    0 -0.10003369968E+02 -0.15404537216E+02 -0.58686776104E+03  0.58715512101E+03  0.00000000000E+00 0.  1.
<mgrwt>
<rscale>  0 0.83859440E+02</rscale>
<asrwt>0</asrwt>
<pdfrwt beam="1">  1        2 0.13385491E+00 0.83859440E+02</pdfrwt>
<pdfrwt beam="2">  1       -1 0.31087292E-03 0.83859440E+02</pdfrwt>
<totfact> 0.30788011E+05</totfact>
</mgrwt>
</event>
<event>
 8    1  0.2389776E-020  0.7456249E+02  0.7818608E-02  0.1345231E+00
          2   -1    0    0  501    0  0.00000000000E+00  0.00000000000E+00  0.51676060569E+01  0.51676066860E+01  0.25500000000E-02 0. -1.
         -1   -1    0    0    0  501 -0.00000000000E+00 -0.00000000000E+00 -0.26896226630E+03  0.26896226635E+03  0.50400000000E-02 0.  1.
         24    2    1    2    0    0 -0.35527136788E-14  0.00000000000E+00 -0.26379466024E+03  0.27412987303E+03  0.74562487327E+02 0.  0.
         66    2    3    3    0    0  0.30403505078E+02 -0.21244355638E+02 -0.14482846533E+03  0.14951581900E+03  0.19999981737E+01 0.  0.
        -13    1    3    3    0    0 -0.30403505078E+02  0.21244355638E+02 -0.11896619491E+03  0.12461405403E+03  0.10566000000E+00 0.  1.
         13    1    4    4    0    0  0.24152055962E+01 -0.16264734613E+01 -0.12842301844E+02  0.13168694494E+02  0.10566000000E+00 0. -1.
        -13    1    4    4    0    0  0.10446912841E+02 -0.74676580960E+01 -0.46957811519E+02  0.48682143872E+02  0.10566000000E+00 0.  1.
         14    1    4    4    0    0  0.17541386641E+02 -0.12150224081E+02 -0.85028351971E+02  0.87664980633E+02  0.00000000000E+00 0. -1.
<mgrwt>
<rscale>  0 0.74562487E+02</rscale>
<asrwt>0</asrwt>
<pdfrwt beam="1">  1        2 0.79501657E-03 0.74562487E+02</pdfrwt>
<pdfrwt beam="2">  1       -1 0.41378800E-01 0.74562487E+02</pdfrwt>
<totfact> 0.10794596E+05</totfact>
</mgrwt>
</event>
<event>
 8    1  0.2389776E-020  0.7846175E+02  0.7818608E-02  0.1333474E+00
         -1   -1    0    0    0  501 -0.00000000000E+00  0.00000000000E+00  0.31739888698E+02  0.31739889098E+02  0.50400000000E-02 0.  1.
          2   -1    0    0  501    0  0.00000000000E+00 -0.00000000000E+00 -0.48489822370E+02  0.48489822437E+02  0.25500000000E-02 0. -1.
         24    2    1    2    0    0 -0.35527136788E-14  0.00000000000E+00 -0.16749933673E+02  0.80229711535E+02  0.78461750777E+02 0.  0.
         66    2    3    3    0    0 -0.19171760726E+02 -0.24237271973E+02 -0.33049828456E+02  0.45291201321E+02  0.19999985394E+01 0.  0.
        -13    1    3    3    0    0  0.19171760726E+02  0.24237271973E+02  0.16299894783E+02  0.34938510214E+02  0.10566000000E+00 0.  1.
         13    1    4    4    0    0 -0.33585734209E+00 -0.43411996696E+00 -0.90781982405E+00  0.10660962285E+01  0.10566000000E+00 0. -1.
        -13    1    4    4    0    0 -0.61515522312E+01 -0.86260840113E+01 -0.11438479133E+02  0.15591692953E+02  0.10566000000E+00 0. -1.
         14    1    4    4    0    0 -0.12684351152E+02 -0.15177067995E+02 -0.20703529499E+02  0.28633412140E+02  0.00000000000E+00 0. -1.
<mgrwt>
<rscale>  0 0.78461751E+02</rscale>
<asrwt>0</asrwt>
<pdfrwt beam="1">  1        2 0.74599727E-02 0.78461751E+02</pdfrwt>
<pdfrwt beam="2">  1       -1 0.48830598E-02 0.78461751E+02</pdfrwt>
<totfact> 0.15654678E+05</totfact>
</mgrwt>
</event>
<event>
 8    1  0.2389776E-020  0.8106276E+02  0.7818608E-02  0.1326062E+00
         -1   -1    0    0    0  501 -0.00000000000E+00  0.00000000000E+00  0.26864803945E+02  0.26864804418E+02  0.50400000000E-02 0.  1.
          2   -1    0    0  501    0  0.00000000000E+00 -0.00000000000E+00 -0.61150376296E+02  0.61150376349E+02  0.25500000000E-02 0. -1.
         24    2    1    2    0    0  0.17763568394E-14  0.00000000000E+00 -0.34285572351E+02  0.88015180767E+02  0.81062763177E+02 0.  0.
         66    2    3    3    0    0 -0.12706081613E+02  0.15261337155E+02 -0.55486032430E+02  0.58966538917E+02  0.19999988387E+01 0.  0.
        -13    1    3    3    0    0  0.12706081613E+02 -0.15261337155E+02  0.21200460079E+02  0.29048641849E+02  0.10566000000E+00 0.  1.
         13    1    4    4    0    0 -0.64339172964E+01  0.89311567914E+01 -0.28880514038E+02  0.30907217742E+02  0.10566000000E+00 0. -1.
        -13    1    4    4    0    0 -0.30039957135E+01  0.31696191668E+01 -0.13013613575E+02  0.13727191199E+02  0.10566000000E+00 0.  1.
         14    1    4    4    0    0 -0.32681686033E+01  0.31605611965E+01 -0.13591904817E+02  0.14332129976E+02  0.00000000000E+00 0. -1.
<mgrwt>
<rscale>  0 0.81062763E+02</rscale>
<asrwt>0</asrwt>
<pdfrwt beam="1">  1        2 0.94077501E-02 0.81062763E+02</pdfrwt>
<pdfrwt beam="2">  1       -1 0.41330468E-02 0.81062763E+02</pdfrwt>
<totfact> 0.15083307E+05</totfact>
</mgrwt>
</event>
<event>
 8    1  0.2389776E-020  0.8023099E+02  0.7818608E-02  0.1328397E+00
          2   -1    0    0  501    0  0.00000000000E+00  0.00000000000E+00  0.75241188857E+03  0.75241188858E+03  0.25500000000E-02 0. -1.
         -1   -1    0    0    0  501 -0.00000000000E+00 -0.00000000000E+00 -0.21387893555E+01  0.21387952938E+01  0.50400000000E-02 0.  1.
         24    2    1    2    0    0 -0.35527136788E-14  0.17763568394E-14  0.75027309922E+03  0.75455068387E+03  0.80230986040E+02 0.  0.
         66    2    3    3    0    0 -0.19755844186E+02  0.11185518306E+02  0.68612929731E+03  0.68650769976E+03  0.20000016178E+01 0.  0.
        -13    1    3    3    0    0  0.19755844186E+02 -0.11185518306E+02  0.64143801912E+02  0.68042984113E+02  0.10566000000E+00 0.  1.
         13    1    4    4    0    0 -0.48384282647E+01  0.34015954000E+01  0.16195807833E+03  0.16206607153E+03  0.10566000000E+00 0. -1.
        -13    1    4    4    0    0 -0.10109150029E+02  0.50667827732E+01  0.35961337246E+03  0.35979112832E+03  0.10566000000E+00 0.  1.
         14    1    4    4    0    0 -0.48082658921E+01  0.27171401327E+01  0.16455784651E+03  0.16465049991E+03  0.00000000000E+00 0. -1.
<mgrwt>
<rscale>  0 0.80230986E+02</rscale>
<asrwt>0</asrwt>
<pdfrwt beam="1">  1        2 0.11575578E+00 0.80230986E+02</pdfrwt>
<pdfrwt beam="2">  1       -1 0.32904467E-03 0.80230986E+02</pdfrwt>
<totfact> 0.33721056E+05</totfact>
</mgrwt>
</event>
<event>
 8    1  0.2389776E-020  0.7960167E+02  0.7818608E-02  0.1330186E+00
          2   -1    0    0  501    0  0.00000000000E+00  0.00000000000E+00  0.18769108721E+03  0.18769108722E+03  0.25500000000E-02 0. -1.
         -1   -1    0    0    0  501 -0.00000000000E+00 -0.00000000000E+00 -0.84399646571E+01  0.84399661620E+01  0.50400000000E-02 0.  1.
         24    2    1    2    0    0  0.35527136788E-14  0.00000000000E+00  0.17925112255E+03  0.19613105338E+03  0.79601665604E+02 0.  0.
         66    2    3    3    0    0 -0.85021337994E+01  0.18674097447E+02  0.17363914068E+03  0.17485868400E+03  0.19999999125E+01 0.  0.
        -13    1    3    3    0    0  0.85021337994E+01 -0.18674097447E+02  0.56119818650E+01  0.21272369381E+02  0.10566000000E+00 0.  1.
         13    1    4    4    0    0 -0.65742037455E+01  0.13733453555E+02  0.12869228973E+03  0.12958990895E+03  0.10566000000E+00 0. -1.
        -13    1    4    4    0    0 -0.12099359095E+01  0.39616748501E+01  0.36667305026E+02  0.36900694227E+02  0.10566000000E+00 0.  1.
        -14    1    4    4    0    0 -0.71799414444E+00  0.97896904165E+00  0.82795459249E+01  0.83680808253E+01  0.00000000000E+00 0.  1.
<mgrwt>
<rscale>  0 0.79601666E+02</rscale>
<asrwt>0</asrwt>
<pdfrwt beam="1">  1        2 0.28875553E-01 0.79601666E+02</pdfrwt>
<pdfrwt beam="2">  1       -1 0.12984562E-02 0.79601666E+02</pdfrwt>
<totfact> 0.21866681E+05</totfact>
</mgrwt>
</event>
<event>
 8    1  0.2389776E-020  0.7962440E+02  0.7818608E-02  0.1330121E+00
         -1   -1    0    0    0  501 -0.00000000000E+00  0.00000000000E+00  0.13491044302E+02  0.13491045243E+02  0.50400000000E-02 0.  1.
          2   -1    0    0  501    0  0.00000000000E+00 -0.00000000000E+00 -0.11748618847E+03  0.11748618850E+03  0.25500000000E-02 0. -1.
         24    2    1    2    0    0  0.00000000000E+00  0.00000000000E+00 -0.10399514417E+03  0.13097723374E+03  0.79624404222E+02 0.  0.
         66    2    3    3    0    0 -0.17633051087E+02  0.28904042354E+02 -0.86402740777E+02  0.92821343288E+02  0.20000002453E+01 0.  0.
        -13    1    3    3    0    0  0.17633051087E+02 -0.28904042354E+02 -0.17592403390E+02  0.38155890451E+02  0.10566000000E+00 0.  1.
         13    1    4    4    0    0 -0.12465963542E+02  0.19638812390E+02 -0.57628913881E+02  0.62146488865E+02  0.10566000000E+00 0. -1.
        -13    1    4    4    0    0 -0.29830221659E+01  0.59889770423E+01 -0.17850009698E+02  0.19063060549E+02  0.10566000000E+00 0.  1.
        -14    1    4    4    0    0 -0.21840653788E+01  0.32762529223E+01 -0.10923817198E+02  0.11611793874E+02  0.00000000000E+00 0.  1.
<mgrwt>
<rscale>  0 0.79624404E+02</rscale>
<asrwt>0</asrwt>
<pdfrwt beam="1">  1        2 0.18074798E-01 0.79624404E+02</pdfrwt>
<pdfrwt beam="2">  1       -1 0.20755454E-02 0.79624404E+02</pdfrwt>
<totfact> 0.18803608E+05</totfact>
</mgrwt>
</event>
<event>
 8    1  0.2389776E-020  0.7474937E+02  0.7818608E-02  0.1344649E+00
          2   -1    0    0  501    0  0.00000000000E+00  0.00000000000E+00  0.30099249954E+03  0.30099249955E+03  0.25500000000E-02 0. -1.
         -1   -1    0    0    0  501 -0.00000000000E+00 -0.00000000000E+00 -0.46408684770E+01  0.46408712138E+01  0.50400000000E-02 0.  1.
         24    2    1    2    0    0  0.00000000000E+00 -0.35527136788E-14  0.29635163106E+03  0.30563337076E+03  0.74749368500E+02 0.  0.
         66    2    3    3    0    0 -0.47014525064E+01 -0.25079919593E+02  0.25979023769E+03  0.26104802932E+03  0.19999973565E+01 0.  0.
        -13    1    3    3    0    0  0.47014525064E+01  0.25079919593E+02  0.36561393372E+02  0.44585341446E+02  0.10566000000E+00 0.  1.
         13    1    4    4    0    0 -0.21195705917E+01 -0.74969188932E+01  0.79149877194E+02  0.79532449958E+02  0.10566000000E+00 0. -1.
        -13    1    4    4    0    0 -0.68963588990E+00 -0.31205114436E+01  0.29287459539E+02  0.29461494185E+02  0.10566000000E+00 0. -1.
         14    1    4    4    0    0 -0.18922460247E+01 -0.14462489256E+02  0.15135290095E+03  0.15205408517E+03  0.00000000000E+00 0. -1.
<mgrwt>
<rscale>  0 0.74749369E+02</rscale>
<asrwt>0</asrwt>
<pdfrwt beam="1">  1        2 0.46306549E-01 0.74749369E+02</pdfrwt>
<pdfrwt beam="2">  1       -1 0.71397981E-03 0.74749369E+02</pdfrwt>
<totfact> 0.30477828E+05</totfact>
</mgrwt>
</event>
<event>
 8    1  0.2389776E-020  0.7779583E+02  0.7818608E-02  0.1335426E+00
         -1   -1    0    0    0  501 -0.00000000000E+00  0.00000000000E+00  0.22411283745E+01  0.22411340416E+01  0.50400000000E-02 0.  1.
          2   -1    0    0  501    0  0.00000000000E+00 -0.00000000000E+00 -0.67512678114E+03  0.67512678115E+03  0.25500000000E-02 0. -1.
         24    2    1    2    0    0  0.17763568394E-14  0.00000000000E+00 -0.67288565277E+03  0.67736791519E+03  0.77795827822E+02 0.  0.
         66    2    3    3    0    0  0.91210472343E+01 -0.84801246521E+01 -0.65728266476E+03  0.65740368679E+03  0.19999986621E+01 0.  0.
        -13    1    3    3    0    0 -0.91210472343E+01  0.84801246521E+01 -0.15602988011E+02  0.19964228401E+02  0.10566000000E+00 0.  1.
         13    1    4    4    0    0  0.54675590265E+01 -0.48951287983E+01 -0.39296321744E+03  0.39303175179E+03  0.10566000000E+00 0. -1.
        -13    1    4    4    0    0  0.16828736368E+01 -0.11393589961E+01 -0.80854876461E+02  0.80880482282E+02  0.10566000000E+00 0.  1.
        -14    1    4    4    0    0  0.19706145711E+01 -0.24456368577E+01 -0.18346457086E+03  0.18349145272E+03  0.00000000000E+00 0.  1.
<mgrwt>
<rscale>  0 0.77795828E+02</rscale>
<asrwt>0</asrwt>
<pdfrwt beam="1">  1        2 0.10386550E+00 0.77795828E+02</pdfrwt>
<pdfrwt beam="2">  1       -1 0.34478996E-03 0.77795828E+02</pdfrwt>
<totfact> 0.35663516E+05</totfact>
</mgrwt>
</event>
<event>
 8    1  0.2389776E-020  0.7944497E+02  0.7818608E-02  0.1330634E+00
         -1   -1    0    0    0  501 -0.00000000000E+00  0.00000000000E+00  0.20679502475E+03  0.20679502481E+03  0.50400000000E-02 0.  1.
          2   -1    0    0  501    0  0.00000000000E+00 -0.00000000000E+00 -0.76301436037E+01  0.76301440298E+01  0.25500000000E-02 0. -1.
         24    2    1    2    0    0  0.00000000000E+00  0.00000000000E+00  0.19916488115E+03  0.21442516884E+03  0.79444969322E+02 0.  0.
         66    2    3    3    0    0  0.35945614765E+01 -0.36220699148E+02  0.14240714532E+03  0.14699882637E+03  0.19999992658E+01 0.  0.
        -13    1    3    3    0    0 -0.35945614765E+01  0.36220699148E+02  0.56757735831E+02  0.67426342476E+02  0.10566000000E+00 0.  1.
         13    1    4    4    0    0  0.21849536563E+01 -0.20978835652E+02  0.81387708414E+02  0.84076487870E+02  0.10566000000E+00 0. -1.
        -13    1    4    4    0    0  0.65018570363E+00 -0.77233322484E+01  0.28378500927E+02  0.29418074059E+02  0.10566000000E+00 0.  1.
         14    1    4    4    0    0  0.75942211657E+00 -0.75185312474E+01  0.32640935975E+02  0.33504264436E+02  0.00000000000E+00 0. -1.
<mgrwt>
<rscale>  0 0.79444969E+02</rscale>
<asrwt>0</asrwt>
<pdfrwt beam="1">  1        2 0.11738684E-02 0.79444969E+02</pdfrwt>
<pdfrwt beam="2">  1       -1 0.31814615E-01 0.79444969E+02</pdfrwt>
<totfact> 0.10035487E+05</totfact>
</mgrwt>
</event>
<event>
 8    1  0.2389776E-020  0.8085191E+02  0.7818608E-02  0.1326651E+00
         -1   -1    0    0    0  501 -0.00000000000E+00  0.00000000000E+00  0.83613599947E+01  0.83613615136E+01  0.50400000000E-02 0.  1.
          2   -1    0    0  501    0  0.00000000000E+00 -0.00000000000E+00 -0.19545357109E+03  0.19545357110E+03  0.25500000000E-02 0. -1.
         24    2    1    2    0    0 -0.35527136788E-14  0.00000000000E+00 -0.18709221109E+03  0.20381493262E+03  0.80851909726E+02 0.  0.
         66    2    3    3    0    0  0.20584672828E+02 -0.20301927929E+01 -0.18108776949E+03  0.18227624832E+03  0.20000013476E+01 0.  0.
        -13    1    3    3    0    0 -0.20584672828E+02  0.20301927929E+01 -0.60044416043E+01  0.21538684297E+02  0.10566000000E+00 0.  1.
         13    1    4    4    0    0  0.11677027627E+02 -0.21124133770E+01 -0.10237692280E+03  0.10306241192E+03  0.10566000000E+00 0. -1.
        -13    1    4    4    0    0  0.41257345600E+01 -0.50280263003E-01 -0.35741895084E+02  0.35979416922E+02  0.10566000000E+00 0.  1.
         14    1    4    4    0    0  0.47819106413E+01  0.13250084709E+00 -0.42968951605E+02  0.43234419482E+02  0.00000000000E+00 0. -1.
<mgrwt>
<rscale>  0 0.80851910E+02</rscale>
<asrwt>0</asrwt>
<pdfrwt beam="1">  1        2 0.30069777E-01 0.80851910E+02</pdfrwt>
<pdfrwt beam="2">  1       -1 0.12863634E-02 0.80851910E+02</pdfrwt>
<totfact> 0.21279754E+05</totfact>
</mgrwt>
</event>
<event>
 8    1  0.2389776E-020  0.7392232E+02  0.7818608E-02  0.1347241E+00
          2   -1    0    0  501    0  0.00000000000E+00  0.00000000000E+00  0.33074594165E+03  0.33074594166E+03  0.25500000000E-02 0. -1.
         -1   -1    0    0    0  501 -0.00000000000E+00 -0.00000000000E+00 -0.41304422084E+01  0.41304452833E+01  0.50400000000E-02 0.  1.
         24    2    1    2    0    0  0.00000000000E+00 -0.71054273576E-14  0.32661549944E+03  0.33487638694E+03  0.73922324480E+02 0.  0.
         66    2    3    3    0    0  0.10440917355E+02  0.35012187766E+02  0.18793005140E+03  0.19145905637E+03  0.19999994726E+01 0.  0.
        -13    1    3    3    0    0 -0.10440917355E+02 -0.35012187766E+02  0.13868544804E+03  0.14341733057E+03  0.10566000000E+00 0.  1.
         13    1    4    4    0    0  0.62940525507E+01  0.19944738706E+02  0.11008846965E+03  0.11205752993E+03  0.10566000000E+00 0. -1.
        -13    1    4    4    0    0  0.41014628130E+01  0.13975562425E+02  0.72825825611E+02  0.74268098012E+02  0.10566000000E+00 0.  1.
        -14    1    4    4    0    0  0.45401990959E-01  0.10918866344E+01  0.50157561336E+01  0.51334284211E+01  0.00000000000E+00 0.  1.
<mgrwt>
<rscale>  0 0.73922324E+02</rscale>
<asrwt>0</asrwt>
<pdfrwt beam="1">  1        2 0.50884007E-01 0.73922324E+02</pdfrwt>
<pdfrwt beam="2">  1       -1 0.63545269E-03 0.73922324E+02</pdfrwt>
<totfact> 0.32449739E+05</totfact>
</mgrwt>
</event>
<event>
 8    1  0.2389776E-020  0.7923105E+02  0.7818608E-02  0.1331248E+00
          2   -1    0    0  501    0  0.00000000000E+00  0.00000000000E+00  0.14426729278E+02  0.14426729503E+02  0.25500000000E-02 0. -1.
         -1   -1    0    0    0  501 -0.00000000000E+00 -0.00000000000E+00 -0.10878346566E+03  0.10878346578E+03  0.50400000000E-02 0.  1.
         24    2    1    2    0    0  0.00000000000E+00  0.55511151231E-16 -0.94356736382E+02  0.12321019528E+03  0.79231045179E+02 0.  0.
         66    2    3    3    0    0  0.26960249577E+02  0.34113554769E+00 -0.21269135849E+01  0.27120014679E+02  0.20000010077E+01 0.  0.
        -13    1    3    3    0    0 -0.26960249577E+02 -0.34113554769E+00 -0.92229822797E+02  0.96090180601E+02  0.10566000000E+00 0.  1.
         13    1    4    4    0    0  0.15445389973E+02  0.40038199947E-02 -0.89113160393E+00  0.15471437135E+02  0.10566000000E+00 0. -1.
        -13    1    4    4    0    0  0.23951988720E+01  0.28871645391E+00  0.17112288082E+00  0.24209051826E+01  0.10566000000E+00 0.  1.
         14    1    4    4    0    0  0.91196607321E+01  0.48415273787E-01 -0.14069048618E+01  0.92276723608E+01  0.00000000000E+00 0. -1.
<mgrwt>
<rscale>  0 0.79231045E+02</rscale>
<asrwt>0</asrwt>
<pdfrwt beam="1">  1        2 0.22194969E-02 0.79231045E+02</pdfrwt>
<pdfrwt beam="2">  1       -1 0.16735917E-01 0.79231045E+02</pdfrwt>
<totfact> 0.11922701E+05</totfact>
</mgrwt>
</event>
<event>
 8    1  0.2389776E-020  0.8039792E+02  0.7818608E-02  0.1327926E+00
         -1   -1    0    0    0  501 -0.00000000000E+00  0.00000000000E+00  0.91344023492E+01  0.91344037396E+01  0.50400000000E-02 0.  1.
          2   -1    0    0  501    0  0.00000000000E+00 -0.00000000000E+00 -0.17690881308E+03  0.17690881310E+03  0.25500000000E-02 0. -1.
         24    2    1    2    0    0  0.00000000000E+00  0.00000000000E+00 -0.16777441073E+03  0.18604321684E+03  0.80397920591E+02 0.  0.
         66    2    3    3    0    0 -0.15616168821E+02 -0.14516319509E+02 -0.16273036477E+03  0.16413336005E+03  0.20000009844E+01 0.  0.
        -13    1    3    3    0    0  0.15616168821E+02  0.14516319509E+02 -0.50440459657E+01  0.21909856788E+02  0.10566000000E+00 0.  1.
         13    1    4    4    0    0 -0.31845410420E+01 -0.32134514235E+01 -0.31071757178E+02  0.31399567352E+02  0.10566000000E+00 0. -1.
        -13    1    4    4    0    0 -0.49797769466E+01 -0.43983961294E+01 -0.46843378645E+02  0.47312338283E+02  0.10566000000E+00 0.  1.
        -14    1    4    4    0    0 -0.74518508325E+01 -0.69044719561E+01 -0.84815228945E+02  0.85421454417E+02  0.00000000000E+00 0.  1.
<mgrwt>
<rscale>  0 0.80397921E+02</rscale>
<asrwt>0</asrwt>
<pdfrwt beam="1">  1        2 0.27216738E-01 0.80397921E+02</pdfrwt>
<pdfrwt beam="2">  1       -1 0.14052929E-02 0.80397921E+02</pdfrwt>
<totfact> 0.20874113E+05</totfact>
</mgrwt>
</event>
<event>
 8    1  0.2389776E-020  0.8558011E+02  0.7818608E-02  0.1313922E+00
         -1   -1    0    0    0  501 -0.00000000000E+00  0.00000000000E+00  0.18832576748E+01  0.18832644188E+01  0.50400000000E-02 0.  1.
          2   -1    0    0  501    0  0.00000000000E+00 -0.00000000000E+00 -0.97224370940E+03  0.97224370941E+03  0.25500000000E-02 0. -1.
         24    2    1    2    0    0  0.00000000000E+00 -0.35527136788E-14 -0.97036045173E+03  0.97412697383E+03  0.85580107826E+02 0.  0.
         66    2    3    3    0    0 -0.32160994160E+01 -0.23680171484E+02 -0.88914939401E+03  0.88947273071E+03  0.19999997081E+01 0.  0.
        -13    1    3    3    0    0  0.32160994160E+01  0.23680171484E+02 -0.81211057720E+02  0.84654243112E+02  0.10566000000E+00 0.  1.
         13    1    4    4    0    0 -0.11470081468E+01 -0.13899422061E+02 -0.51299860737E+03  0.51318816422E+03  0.10566000000E+00 0. -1.
        -13    1    4    4    0    0 -0.16863311772E+01 -0.78664752489E+01 -0.28944831109E+03  0.28956011656E+03  0.10566000000E+00 0.  1.
         14    1    4    4    0    0 -0.38276009203E+00 -0.19142741738E+01 -0.86702475550E+02  0.86724449940E+02  0.00000000000E+00 0. -1.
<mgrwt>
<rscale>  0 0.85580108E+02</rscale>
<asrwt>0</asrwt>
<pdfrwt beam="1">  1        2 0.14957555E+00 0.85580108E+02</pdfrwt>
<pdfrwt beam="2">  1       -1 0.28973325E-03 0.85580108E+02</pdfrwt>
<totfact> 0.29512777E+05</totfact>
</mgrwt>
</event>
<event>
 8    1  0.2389776E-020  0.8100655E+02  0.7818608E-02  0.1326219E+00
          2   -1    0    0  501    0  0.00000000000E+00  0.00000000000E+00  0.40073516056E+03  0.40073516057E+03  0.25500000000E-02 0. -1.
         -1   -1    0    0    0  501 -0.00000000000E+00 -0.00000000000E+00 -0.40937622864E+01  0.40937653888E+01  0.50400000000E-02 0.  1.
         24    2    1    2    0    0 -0.88817841970E-15 -0.35527136788E-14  0.39664139827E+03  0.40482892596E+03  0.81006545828E+02 0.  0.
         66    2    3    3    0    0  0.70760485670E+01  0.30839598244E+02  0.32460757086E+03  0.32615215213E+03  0.19999998418E+01 0.  0.
        -13    1    3    3    0    0 -0.70760485670E+01 -0.30839598244E+02  0.72033827415E+02  0.78676773824E+02  0.10566000000E+00 0.  1.
         13    1    4    4    0    0  0.47973255520E+01  0.21984646197E+02  0.22633013814E+03  0.22744599710E+03  0.10566000000E+00 0. -1.
        -13    1    4    4    0    0  0.50572790111E+00  0.18917514690E+01  0.17397225709E+02  0.17507401598E+02  0.10566000000E+00 0.  1.
         14    1    4    4    0    0  0.17729951138E+01  0.69632005776E+01  0.80880207007E+02  0.81198753436E+02  0.00000000000E+00 0. -1.
<mgrwt>
<rscale>  0 0.81006546E+02</rscale>
<asrwt>0</asrwt>
<pdfrwt beam="1">  1        2 0.61651577E-01 0.81006546E+02</pdfrwt>
<pdfrwt beam="2">  1       -1 0.62980968E-03 0.81006546E+02</pdfrwt>
<totfact> 0.27362747E+05</totfact>
</mgrwt>
</event>
<event>
 8    1  0.2389776E-020  0.7611143E+02  0.7818608E-02  0.1340463E+00
          2   -1    0    0  501    0  0.00000000000E+00  0.00000000000E+00  0.17547533258E+03  0.17547533260E+03  0.25500000000E-02 0. -1.
         -1   -1    0    0    0  501 -0.00000000000E+00 -0.00000000000E+00 -0.82532243546E+01  0.82532258935E+01  0.50400000000E-02 0.  1.
         24    2    1    2    0    0  0.00000000000E+00  0.17763568394E-14  0.16722210822E+03  0.18372855849E+03  0.76111429668E+02 0.  0.
         66    2    3    3    0    0  0.10769360468E+02  0.14395616468E+02  0.16456339941E+03  0.16555459924E+03  0.20000008497E+01 0.  0.
        -13    1    3    3    0    0 -0.10769360468E+02 -0.14395616468E+02  0.26587088101E+01  0.18173959254E+02  0.10566000000E+00 0.  1.
         13    1    4    4    0    0  0.31021770035E+01  0.50650219221E+01  0.57017459593E+02  0.57326083171E+02  0.10566000000E+00 0. -1.
        -13    1    4    4    0    0  0.20514254095E+01  0.20234742522E+01  0.29393357658E+02  0.29534444852E+02  0.10566000000E+00 0.  1.
         14    1    4    4    0    0  0.56157580548E+01  0.73071202940E+01  0.78152582163E+02  0.78694071215E+02  0.00000000000E+00 0. -1.
<mgrwt>
<rscale>  0 0.76111430E+02</rscale>
<asrwt>0</asrwt>
<pdfrwt beam="1">  1        2 0.26996203E-01 0.76111430E+02</pdfrwt>
<pdfrwt beam="2">  1       -1 0.12697270E-02 0.76111430E+02</pdfrwt>
<totfact> 0.24055062E+05</totfact>
</mgrwt>
</event>
<event>
 8    1  0.2389776E-020  0.7628552E+02  0.7818608E-02  0.1339936E+00
         -1   -1    0    0    0  501 -0.00000000000E+00  0.00000000000E+00  0.31426320193E+01  0.31426360608E+01  0.50400000000E-02 0.  1.
          2   -1    0    0  501    0  0.00000000000E+00 -0.00000000000E+00 -0.46294605185E+03  0.46294605186E+03  0.25500000000E-02 0. -1.
         24    2    1    2    0    0  0.00000000000E+00  0.17763568394E-14 -0.45980341983E+03  0.46608868792E+03  0.76285517085E+02 0.  0.
         66    2    3    3    0    0  0.34184158217E+02  0.11105091824E+02 -0.30758035158E+03  0.30967975784E+03  0.19999995634E+01 0.  0.
        -13    1    3    3    0    0 -0.34184158217E+02 -0.11105091824E+02 -0.15222306825E+03  0.15640893008E+03  0.10566000000E+00 0.  1.
         13    1    4    4    0    0  0.62268677248E+01  0.14961589790E+01 -0.54551276714E+02  0.54925998657E+02  0.10566000000E+00 0. -1.
        -13    1    4    4    0    0  0.33367693483E+01  0.15819550708E+01 -0.30401363357E+02  0.30625000727E+02  0.10566000000E+00 0.  1.
         14    1    4    4    0    0  0.24620521144E+02  0.80269777745E+01 -0.22262771151E+03  0.22412875846E+03  0.00000000000E+00 0. -1.
<mgrwt>
<rscale>  0 0.76285517E+02</rscale>
<asrwt>0</asrwt>
<pdfrwt beam="1">  1        2 0.71222416E-01 0.76285517E+02</pdfrwt>
<pdfrwt beam="2">  1       -1 0.48348253E-03 0.76285517E+02</pdfrwt>
<totfact> 0.33609040E+05</totfact>
</mgrwt>
</event>
<event>
 8    1  0.2389776E-020  0.8006565E+02  0.7818608E-02  0.1328865E+00
         -1   -1    0    0    0  501 -0.00000000000E+00  0.00000000000E+00  0.19869526233E+01  0.19869590153E+01  0.50400000000E-02 0.  1.
          2   -1    0    0  501    0  0.00000000000E+00 -0.00000000000E+00 -0.80657413517E+03  0.80657413517E+03  0.25500000000E-02 0. -1.
         24    2    1    2    0    0  0.35527136788E-14  0.17763568394E-14 -0.80458718254E+03  0.80856109419E+03  0.80065652550E+02 0.  0.
         66    2    3    3    0    0  0.11269724021E+02  0.11461185936E+02 -0.77252914623E+03  0.77269893699E+03  0.19999963132E+01 0.  0.
        -13    1    3    3    0    0 -0.11269724021E+02 -0.11461185936E+02 -0.32058036310E+02  0.35862157194E+02  0.10566000000E+00 0.  1.
         13    1    4    4    0    0  0.54920772315E+01  0.47390807974E+01 -0.35790785732E+03  0.35798137842E+03  0.10566000000E+00 0. -1.
        -13    1    4    4    0    0  0.17525509297E+01  0.26824367385E+01 -0.16494628333E+03  0.16497743619E+03  0.10566000000E+00 0.  1.
        -14    1    4    4    0    0  0.40250958593E+01  0.40396683997E+01 -0.24967500558E+03  0.24974012238E+03  0.00000000000E+00 0.  1.
<mgrwt>
<rscale>  0 0.80065653E+02</rscale>
<asrwt>0</asrwt>
<pdfrwt beam="1">  1        2 0.12408807E+00 0.80065653E+02</pdfrwt>
<pdfrwt beam="2">  1       -1 0.30568616E-03 0.80065653E+02</pdfrwt>
<totfact> 0.34340364E+05</totfact>
</mgrwt>
</event>
<event>
 8    1  0.2389776E-020  0.8001116E+02  0.7818608E-02  0.1329020E+00
         -1   -1    0    0    0  501 -0.00000000000E+00  0.00000000000E+00  0.25035153476E+02  0.25035153983E+02  0.50400000000E-02 0.  1.
          2   -1    0    0  501    0  0.00000000000E+00 -0.00000000000E+00 -0.63927958772E+02  0.63927958823E+02  0.25500000000E-02 0. -1.
         24    2    1    2    0    0  0.00000000000E+00  0.00000000000E+00 -0.38892805296E+02  0.88963112807E+02  0.80011156325E+02 0.  0.
         66    2    3    3    0    0 -0.72392261606E+01 -0.23406718656E+02 -0.54587019084E+02  0.59866714678E+02  0.20000000504E+01 0.  0.
        -13    1    3    3    0    0  0.72392261606E+01  0.23406718656E+02  0.15694213788E+02  0.29096398129E+02  0.10566000000E+00 0.  1.
         13    1    4    4    0    0 -0.24430801111E+00 -0.89008461944E+00 -0.22389038159E+01  0.24240031697E+01  0.10566000000E+00 0. -1.
        -13    1    4    4    0    0 -0.26677943708E+01 -0.70877229109E+01 -0.15060558399E+02  0.16857773465E+02  0.10566000000E+00 0.  1.
        -14    1    4    4    0    0 -0.43271237787E+01 -0.15428911125E+02 -0.37287556869E+02  0.40584938043E+02  0.00000000000E+00 0.  1.
<mgrwt>
<rscale>  0 0.80011156E+02</rscale>
<asrwt>0</asrwt>
<pdfrwt beam="1">  1        2 0.98350705E-02 0.80011156E+02</pdfrwt>
<pdfrwt beam="2">  1       -1 0.38515622E-02 0.80011156E+02</pdfrwt>
<totfact> 0.15792467E+05</totfact>
</mgrwt>
</event>
<event>
 8    1  0.2389776E-020  0.7678445E+02  0.7818608E-02  0.1338433E+00
          2   -1    0    0  501    0  0.00000000000E+00  0.00000000000E+00  0.12670431329E+03  0.12670431331E+03  0.25500000000E-02 0. -1.
         -1   -1    0    0    0  501 -0.00000000000E+00 -0.00000000000E+00 -0.11633091142E+02  0.11633092234E+02  0.50400000000E-02 0.  1.
         24    2    1    2    0    0  0.00000000000E+00  0.00000000000E+00  0.11507122214E+03  0.13833740555E+03  0.76784448995E+02 0.  0.
         66    2    3    3    0    0 -0.29401248472E+02 -0.22098541261E+02  0.77242814523E+02  0.85575880504E+02  0.19999977520E+01 0.  0.
        -13    1    3    3    0    0  0.29401248472E+02  0.22098541261E+02  0.37828407621E+02  0.52761525042E+02  0.10566000000E+00 0.  1.
         13    1    4    4    0    0 -0.13583596759E+02 -0.94637744046E+01  0.33457352608E+02  0.37329381651E+02  0.10566000000E+00 0. -1.
        -13    1    4    4    0    0 -0.15296045660E+01 -0.14100978219E+01  0.49651303280E+01  0.53843986855E+01  0.10566000000E+00 0.  1.
         14    1    4    4    0    0 -0.14288047147E+02 -0.11224669035E+02  0.38820331587E+02  0.42862100168E+02  0.00000000000E+00 0. -1.
<mgrwt>
<rscale>  0 0.76784449E+02</rscale>
<asrwt>0</asrwt>
<pdfrwt beam="1">  1        2 0.19492971E-01 0.76784449E+02</pdfrwt>
<pdfrwt beam="2">  1       -1 0.17897065E-02 0.76784449E+02</pdfrwt>
<totfact> 0.21184068E+05</totfact>
</mgrwt>
</event>
<event>
 8    1  0.2389776E-020  0.6980237E+02  0.7818608E-02  0.1360766E+00
         -1   -1    0    0    0  501 -0.00000000000E+00  0.00000000000E+00  0.33367214178E+02  0.33367214558E+02  0.50400000000E-02 0.  1.
          2   -1    0    0  501    0  0.00000000000E+00 -0.00000000000E+00 -0.36505672091E+02  0.36505672181E+02  0.25500000000E-02 0. -1.
         24    2    1    2    0    0  0.00000000000E+00  0.00000000000E+00 -0.31384579138E+01  0.69872886739E+02  0.69802366601E+02 0.  0.
         66    2    3    3    0    0 -0.20689152940E+02 -0.53446039609E+01 -0.29157056089E+02  0.36204140758E+02  0.20000118338E+01 0.  0.
        -13    1    3    3    0    0  0.20689152940E+02  0.53446039609E+01  0.26018598175E+02  0.33668745981E+02  0.10566000000E+00 0.  1.
         13    1    4    4    0    0 -0.10132355387E+02 -0.24518307301E+01 -0.15599060261E+02  0.18762141260E+02  0.10566000000E+00 0. -1.
        -13    1    4    4    0    0 -0.83837156152E+01 -0.21824943002E+01 -0.11168884113E+02  0.14135243374E+02  0.10566000000E+00 0.  1.
        -14    1    4    4    0    0 -0.21730819383E+01 -0.71027893065E+00 -0.23891117156E+01  0.33067561234E+01  0.00000000000E+00 0.  1.
<mgrwt>
<rscale>  0 0.69802367E+02</rscale>
<asrwt>0</asrwt>
<pdfrwt beam="1">  1        2 0.56162572E-02 0.69802367E+02</pdfrwt>
<pdfrwt beam="2">  1       -1 0.51334176E-02 0.69802367E+02</pdfrwt>
<totfact> 0.20339051E+05</totfact>
</mgrwt>
</event>
<event>
 8    1  0.2389776E-020  0.8162910E+02  0.7818608E-02  0.1324491E+00
         -1   -1    0    0    0  501 -0.00000000000E+00  0.00000000000E+00  0.63450906308E+01  0.63450926325E+01  0.50400000000E-02 0.  1.
          2   -1    0    0  501    0  0.00000000000E+00 -0.00000000000E+00 -0.26253797175E+03  0.26253797177E+03  0.25500000000E-02 0. -1.
         24    2    1    2    0    0  0.71054273576E-14 -0.88817841970E-15 -0.25619288112E+03  0.26888306440E+03  0.81629100095E+02 0.  0.
         66    2    3    3    0    0 -0.35220337962E+02  0.50384400707E+01 -0.19388449945E+03  0.19713208061E+03  0.19999980765E+01 0.  0.
        -13    1    3    3    0    0  0.35220337962E+02 -0.50384400707E+01 -0.62308381669E+02  0.71750983790E+02  0.10566000000E+00 0.  1.
         13    1    4    4    0    0 -0.46230105781E+01  0.70758844186E+00 -0.25619971124E+02  0.26043559524E+02  0.10566000000E+00 0. -1.
        -13    1    4    4    0    0 -0.30340329779E+02  0.42754807200E+01 -0.16557582682E+03  0.16838699753E+03  0.10566000000E+00 0.  1.
        -14    1    4    4    0    0 -0.25699760456E+00  0.55370908839E-01 -0.26887015065E+01  0.27015235511E+01  0.00000000000E+00 0.  1.
<mgrwt>
<rscale>  0 0.81629100E+02</rscale>
<asrwt>0</asrwt>
<pdfrwt beam="1">  1        2 0.40390449E-01 0.81629100E+02</pdfrwt>
<pdfrwt beam="2">  1       -1 0.97616815E-03 0.81629100E+02</pdfrwt>
<totfact> 0.23038152E+05</totfact>
</mgrwt>
</event>
<event>
 8    1  0.2389776E-020  0.7696882E+02  0.7818608E-02  0.1337880E+00
         -1   -1    0    0    0  501 -0.00000000000E+00  0.00000000000E+00  0.71372924477E+01  0.71372942272E+01  0.50400000000E-02 0.  1.
          2   -1    0    0  501    0  0.00000000000E+00 -0.00000000000E+00 -0.20750859503E+03  0.20750859504E+03  0.25500000000E-02 0. -1.
         24    2    1    2    0    0  0.00000000000E+00  0.17763568394E-14 -0.20037130258E+03  0.21464588927E+03  0.76968817602E+02 0.  0.
         66    2    3    3    0    0  0.33031519136E+02 -0.14403145959E+02 -0.13772123000E+03  0.14237158797E+03  0.19999997065E+01 0.  0.
        -13    1    3    3    0    0 -0.33031519136E+02  0.14403145959E+02 -0.62650072579E+02  0.72274301298E+02  0.10566000000E+00 0.  1.
         13    1    4    4    0    0  0.22800210602E+02 -0.99984302062E+01 -0.93884268899E+02  0.97129219707E+02  0.10566000000E+00 0.  1.
        -13    1    4    4    0    0  0.31321665878E+01 -0.15015841679E+01 -0.11874905315E+02  0.12372944792E+02  0.10566000000E+00 0. -1.
        -14    1    4    4    0    0  0.70991419465E+01 -0.29031315854E+01 -0.31962055785E+02  0.32869423472E+02  0.00000000000E+00 0.  1.
<mgrwt>
<rscale>  0 0.76968818E+02</rscale>
<asrwt>0</asrwt>
<pdfrwt beam="1">  1        2 0.31924395E-01 0.76968818E+02</pdfrwt>
<pdfrwt beam="2">  1       -1 0.10980453E-02 0.76968818E+02</pdfrwt>
<totfact> 0.24734459E+05</totfact>
</mgrwt>
</event>
<event>
 8    1  0.2389776E-020  0.7740357E+02  0.7818608E-02  0.1336585E+00
          2   -1    0    0  501    0  0.00000000000E+00  0.00000000000E+00  0.75992579126E+01  0.75992583404E+01  0.25500000000E-02 0. -1.
         -1   -1    0    0    0  501 -0.00000000000E+00 -0.00000000000E+00 -0.19710188781E+03  0.19710188787E+03  0.50400000000E-02 0.  1.
         24    2    1    2    0    0  0.00000000000E+00 -0.71054273576E-14 -0.18950262989E+03  0.20470114621E+03  0.77403569191E+02 0.  0.
         66    2    3    3    0    0 -0.93763303713E+01 -0.37432356774E+02 -0.87955602349E+02  0.96069167162E+02  0.19999974296E+01 0.  0.
        -13    1    3    3    0    0  0.93763303713E+01  0.37432356774E+02 -0.10154702755E+03  0.10863197905E+03  0.10566000000E+00 0.  1.
         13    1    4    4    0    0 -0.10620022075E+01 -0.53321183719E+01 -0.11558480852E+02  0.12773761336E+02  0.10566000000E+00 0.  1.
        -13    1    4    4    0    0 -0.62241344769E+00 -0.42574141189E+01 -0.10086926569E+02  0.10966778247E+02  0.10566000000E+00 0.  1.
         14    1    4    4    0    0 -0.76919147161E+01 -0.27842824284E+02 -0.66310194928E+02  0.72328627579E+02  0.00000000000E+00 0. -1.
<mgrwt>
<rscale>  0 0.77403569E+02</rscale>
<asrwt>0</asrwt>
<pdfrwt beam="1">  1        2 0.11691168E-02 0.77403569E+02</pdfrwt>
<pdfrwt beam="2">  1       -1 0.30323364E-01 0.77403569E+02</pdfrwt>
<totfact> 0.10879877E+05</totfact>
</mgrwt>
</event>
<event>
 8    1  0.2389776E-020  0.7953380E+02  0.7818608E-02  0.1330380E+00
          2   -1    0    0  501    0  0.00000000000E+00  0.00000000000E+00  0.89907368116E+03  0.89907368116E+03  0.25500000000E-02 0. -1.
         -1   -1    0    0    0  501 -0.00000000000E+00 -0.00000000000E+00 -0.17589249954E+01  0.17589322161E+01  0.50400000000E-02 0.  1.
         24    2    1    2    0    0  0.00000000000E+00 -0.35527136788E-14  0.89731475616E+03  0.90083261338E+03  0.79533802234E+02 0.  0.
         66    2    3    3    0    0 -0.13986658012E+02  0.17092250798E+02  0.82316292990E+03  0.82346158429E+03  0.20000008594E+01 0.  0.
        -13    1    3    3    0    0  0.13986658012E+02 -0.17092250798E+02  0.74151826265E+02  0.77371029088E+02  0.10566000000E+00 0.  1.
         13    1    4    4    0    0 -0.10164161457E+01  0.10667367948E+01  0.40644471466E+02  0.40671307502E+02  0.10566000000E+00 0. -1.
        -13    1    4    4    0    0 -0.12309674848E+01  0.17945456923E+01  0.84108292420E+02  0.84136506304E+02  0.10566000000E+00 0.  1.
         14    1    4    4    0    0 -0.11739274382E+02  0.14230968311E+02  0.69841016601E+03  0.69865377048E+03  0.00000000000E+00 0. -1.
<mgrwt>
<rscale>  0 0.79533802E+02</rscale>
<asrwt>0</asrwt>
<pdfrwt beam="1">  1        2 0.13831901E+00 0.79533802E+02</pdfrwt>
<pdfrwt beam="2">  1       -1 0.27060443E-03 0.79533802E+02</pdfrwt>
<totfact> 0.35476773E+05</totfact>
</mgrwt>
</event>
<event>
 8    1  0.2389776E-020  0.8058310E+02  0.7818608E-02  0.1327405E+00
         -1   -1    0    0    0  501 -0.00000000000E+00  0.00000000000E+00  0.14683032798E+03  0.14683032806E+03  0.50400000000E-02 0.  1.
          2   -1    0    0  501    0  0.00000000000E+00 -0.00000000000E+00 -0.11056359936E+02  0.11056360230E+02  0.25500000000E-02 0. -1.
         24    2    1    2    0    0 -0.35527136788E-14  0.00000000000E+00  0.13577396804E+03  0.15788668829E+03  0.80583099609E+02 0.  0.
         66    2    3    3    0    0  0.20291798752E+02  0.32512896870E+02  0.92128925591E+02  0.99802727909E+02  0.20000019874E+01 0.  0.
        -13    1    3    3    0    0 -0.20291798752E+02 -0.32512896870E+02  0.43645042450E+02  0.58083960384E+02  0.10566000000E+00 0.  1.
         13    1    4    4    0    0  0.31432665248E+01  0.49490338666E+01  0.13066857518E+02  0.14322255063E+02  0.10566000000E+00 0. -1.
        -13    1    4    4    0    0  0.89215746103E+01  0.14692069070E+02  0.43758923087E+02  0.47013890510E+02  0.10566000000E+00 0.  1.
        -14    1    4    4    0    0  0.82269576173E+01  0.12871793933E+02  0.35303144985E+02  0.38466582335E+02  0.00000000000E+00 0.  1.
<mgrwt>
<rscale>  0 0.80583100E+02</rscale>
<asrwt>0</asrwt>
<pdfrwt beam="1">  1        2 0.17009786E-02 0.80583100E+02</pdfrwt>
<pdfrwt beam="2">  1       -1 0.22589280E-01 0.80583100E+02</pdfrwt>
<totfact> 0.10648670E+05</totfact>
</mgrwt>
</event>
<event>
 8    1  0.2389776E-020  0.7870176E+02  0.7818608E-02  0.1332777E+00
         -1   -1    0    0    0  501 -0.00000000000E+00  0.00000000000E+00  0.11481215967E+02  0.11481217073E+02  0.50400000000E-02 0.  1.
          2   -1    0    0  501    0  0.00000000000E+00 -0.00000000000E+00 -0.13487175537E+03  0.13487175540E+03  0.25500000000E-02 0. -1.
         24    2    1    2    0    0  0.35527136788E-14  0.00000000000E+00 -0.12339053941E+03  0.14635297247E+03  0.78701761962E+02 0.  0.
         66    2    3    3    0    0 -0.23762775626E+02  0.13584052637E+02 -0.11424300310E+03  0.11749323276E+03  0.19999991586E+01 0.  0.
        -13    1    3    3    0    0  0.23762775626E+02 -0.13584052637E+02 -0.91475363094E+01  0.28859739709E+02  0.10566000000E+00 0.  1.
         13    1    4    4    0    0 -0.10859433368E+02  0.64178725012E+01 -0.53405058116E+02  0.54874655142E+02  0.10566000000E+00 0. -1.
        -13    1    4    4    0    0 -0.66983463730E+01  0.32035923653E+01 -0.32805930856E+02  0.33635860499E+02  0.10566000000E+00 0.  1.
        -14    1    4    4    0    0 -0.62049958852E+01  0.39625877704E+01 -0.28032014126E+02  0.28982717121E+02  0.00000000000E+00 0.  1.
<mgrwt>
<rscale>  0 0.78701762E+02</rscale>
<asrwt>0</asrwt>
<pdfrwt beam="1">  1        2 0.20749500E-01 0.78701762E+02</pdfrwt>
<pdfrwt beam="2">  1       -1 0.17663411E-02 0.78701762E+02</pdfrwt>
<totfact> 0.20226564E+05</totfact>
</mgrwt>
</event>
<event>
 8    1  0.2389776E-020  0.7979796E+02  0.7818608E-02  0.1329626E+00
         -1   -1    0    0    0  501 -0.00000000000E+00  0.00000000000E+00  0.13658295575E+02  0.13658296505E+02  0.50400000000E-02 0.  1.
          2   -1    0    0  501    0  0.00000000000E+00 -0.00000000000E+00 -0.11655398025E+03  0.11655398028E+03  0.25500000000E-02 0. -1.
         24    2    1    2    0    0 -0.88817841970E-15  0.71054273576E-14 -0.10289568468E+03  0.13021227678E+03  0.79797964261E+02 0.  0.
         66    2    3    3    0    0  0.45413973888E+01 -0.39480022956E+02 -0.56799584260E+02  0.69350481374E+02  0.19999979729E+01 0.  0.
        -13    1    3    3    0    0 -0.45413973888E+01  0.39480022956E+02 -0.46096100417E+02  0.60861795410E+02  0.10566000000E+00 0.  1.
         13    1    4    4    0    0  0.40058209474E+01 -0.34294778455E+02 -0.48760456773E+02  0.59747566808E+02  0.10566000000E+00 0. -1.
        -13    1    4    4    0    0  0.11886899146E+00 -0.20244474477E+01 -0.26103020648E+01  0.33071677023E+01  0.10566000000E+00 0.  1.
        -14    1    4    4    0    0  0.41670744989E+00 -0.31607970532E+01 -0.54288254215E+01  0.62957468633E+01  0.00000000000E+00 0.  1.
<mgrwt>
<rscale>  0 0.79797964E+02</rscale>
<asrwt>0</asrwt>
<pdfrwt beam="1">  1        2 0.17931381E-01 0.79797964E+02</pdfrwt>
<pdfrwt beam="2">  1       -1 0.21012764E-02 0.79797964E+02</pdfrwt>
<totfact> 0.18650655E+05</totfact>
</mgrwt>
</event>
<event>
 8    1  0.2389776E-020  0.7789361E+02  0.7818608E-02  0.1335138E+00
         -1   -1    0    0    0  501 -0.00000000000E+00  0.00000000000E+00  0.24267709068E+01  0.24267761404E+01  0.50400000000E-02 0.  1.
          2   -1    0    0  501    0  0.00000000000E+00 -0.00000000000E+00 -0.62504949079E+03  0.62504949080E+03  0.25500000000E-02 0. -1.
         24    2    1    2    0    0  0.17763568394E-14  0.00000000000E+00 -0.62262271989E+03  0.62747626694E+03  0.77893608549E+02 0.  0.
         66    2    3    3    0    0  0.15237387468E+02 -0.12764844780E+01 -0.59983752767E+03  0.60003572143E+03  0.19999998832E+01 0.  0.
        -13    1    3    3    0    0 -0.15237387468E+02  0.12764844780E+01 -0.22785192211E+02  0.27440545505E+02  0.10566000000E+00 0.  1.
         13    1    4    4    0    0  0.61338179396E+01 -0.63194878345E+00 -0.26611033163E+03  0.26618178534E+03  0.10566000000E+00 0. -1.
        -13    1    4    4    0    0  0.98136575426E+00 -0.18451412097E+00 -0.50250902804E+02  0.50260934341E+02  0.10566000000E+00 0.  1.
         14    1    4    4    0    0  0.81222037744E+01 -0.46002157357E+00 -0.28347629324E+03  0.28359300175E+03  0.00000000000E+00 0. -1.
<mgrwt>
<rscale>  0 0.77893609E+02</rscale>
<asrwt>0</asrwt>
<pdfrwt beam="1">  1        2 0.96161332E-01 0.77893609E+02</pdfrwt>
<pdfrwt beam="2">  1       -1 0.37335027E-03 0.77893609E+02</pdfrwt>
<totfact> 0.34858536E+05</totfact>
</mgrwt>
</event>
<event>
 8    1  0.2389776E-020  0.8307489E+02  0.7818608E-02  0.1320545E+00
         -1   -1    0    0    0  501 -0.00000000000E+00  0.00000000000E+00  0.15105348911E+02  0.15105349752E+02  0.50400000000E-02 0.  1.
          2   -1    0    0  501    0  0.00000000000E+00 -0.00000000000E+00 -0.11422173171E+03  0.11422173174E+03  0.25500000000E-02 0. -1.
         24    2    1    2    0    0  0.00000000000E+00  0.00000000000E+00 -0.99116382798E+02  0.12932708149E+03  0.83074885901E+02 0.  0.
         66    2    3    3    0    0  0.17931485591E+02 -0.36496490842E+02 -0.36578660227E+02  0.54731438669E+02  0.19999938892E+01 0.  0.
        -13    1    3    3    0    0 -0.17931485591E+02  0.36496490842E+02 -0.62537722572E+02  0.74595642820E+02  0.10566000000E+00 0.  1.
         13    1    4    4    0    0  0.14391831997E+02 -0.28433283359E+02 -0.28152342719E+02  0.42522252944E+02  0.10566000000E+00 0. -1.
        -13    1    4    4    0    0  0.28141687042E+01 -0.57969842674E+01 -0.64184547936E+01  0.90957296610E+01  0.10566000000E+00 0.  1.
        -14    1    4    4    0    0  0.72548488960E+00 -0.22662232152E+01 -0.20078627142E+01  0.31134560644E+01  0.00000000000E+00 0.  1.
<mgrwt>
<rscale>  0 0.83074886E+02</rscale>
<asrwt>0</asrwt>
<pdfrwt beam="1">  1        2 0.17572574E-01 0.83074886E+02</pdfrwt>
<pdfrwt beam="2">  1       -1 0.23239000E-02 0.83074886E+02</pdfrwt>
<totfact> 0.16647361E+05</totfact>
</mgrwt>
</event>
<event>
 8    1  0.2389776E-020  0.7676328E+02  0.7818608E-02  0.1338496E+00
          2   -1    0    0  501    0  0.00000000000E+00  0.00000000000E+00  0.11680753301E+03  0.11680753304E+03  0.25500000000E-02 0. -1.
         -1   -1    0    0    0  501 -0.00000000000E+00 -0.00000000000E+00 -0.12611774546E+02  0.12611775553E+02  0.50400000000E-02 0.  1.
         24    2    1    2    0    0  0.71054273576E-14  0.00000000000E+00  0.10419575846E+03  0.12941930859E+03  0.76763281289E+02 0.  0.
         66    2    3    3    0    0 -0.25652622524E+02  0.27759337876E+02  0.63125192633E+02  0.73603178096E+02  0.19999997987E+01 0.  0.
        -13    1    3    3    0    0  0.25652622524E+02 -0.27759337876E+02  0.41070565829E+02  0.55816130493E+02  0.10566000000E+00 0.  1.
         13    1    4    4    0    0 -0.15423274094E+02  0.16522089068E+02  0.35907398329E+02  0.42428872596E+02  0.10566000000E+00 0. -1.
        -13    1    4    4    0    0 -0.48205466075E+01  0.54328681478E+01  0.12766634912E+02  0.14688494032E+02  0.10566000000E+00 0.  1.
        -14    1    4    4    0    0 -0.54088018223E+01  0.58043806599E+01  0.14451159392E+02  0.16485811468E+02  0.00000000000E+00 0.  1.
<mgrwt>
<rscale>  0 0.76763281E+02</rscale>
<asrwt>0</asrwt>
<pdfrwt beam="1">  1        2 0.17970389E-01 0.76763281E+02</pdfrwt>
<pdfrwt beam="2">  1       -1 0.19402731E-02 0.76763281E+02</pdfrwt>
<totfact> 0.20691529E+05</totfact>
</mgrwt>
</event>
<event>
 8    1  0.2389776E-020  0.8034265E+02  0.7818608E-02  0.1328082E+00
          2   -1    0    0  501    0  0.00000000000E+00  0.00000000000E+00  0.35422530419E+02  0.35422530511E+02  0.25500000000E-02 0. -1.
         -1   -1    0    0    0  501 -0.00000000000E+00 -0.00000000000E+00 -0.45556747941E+02  0.45556748220E+02  0.50400000000E-02 0.  1.
         24    2    1    2    0    0  0.11102230246E-15  0.00000000000E+00 -0.10134217522E+02  0.80979278731E+02  0.80342648817E+02 0.  0.
         66    2    3    3    0    0  0.82765318790E+00  0.33447701983E+02  0.17293331324E+02  0.37715952721E+02  0.20000009001E+01 0.  0.
        -13    1    3    3    0    0 -0.82765318790E+00 -0.33447701983E+02 -0.27427548846E+02  0.43263326010E+02  0.10566000000E+00 0.  1.
         13    1    4    4    0    0  0.39180392227E+00  0.72491476828E+01  0.33703593358E+01  0.80046323169E+01  0.10566000000E+00 0. -1.
        -13    1    4    4    0    0  0.12624823129E+00  0.22648144339E+01  0.75779409490E+00  0.23938961886E+01  0.10566000000E+00 0.  1.
         14    1    4    4    0    0  0.30960103434E+00  0.23933739866E+02  0.13165177893E+02  0.27317424215E+02  0.00000000000E+00 0. -1.
<mgrwt>
<rscale>  0 0.80342649E+02</rscale>
<asrwt>0</asrwt>
<pdfrwt beam="1">  1        2 0.54496200E-02 0.80342649E+02</pdfrwt>
<pdfrwt beam="2">  1       -1 0.70087306E-02 0.80342649E+02</pdfrwt>
<totfact> 0.13743173E+05</totfact>
</mgrwt>
</event>
<event>
 8    1  0.2389776E-020  0.8092050E+02  0.7818608E-02  0.1326459E+00
         -1   -1    0    0    0  501 -0.00000000000E+00  0.00000000000E+00  0.26454292487E+02  0.26454292967E+02  0.50400000000E-02 0.  1.
          2   -1    0    0  501    0  0.00000000000E+00 -0.00000000000E+00 -0.61881512898E+02  0.61881512951E+02  0.25500000000E-02 0. -1.
         24    2    1    2    0    0  0.00000000000E+00  0.00000000000E+00 -0.35427220411E+02  0.88335805918E+02  0.80920495927E+02 0.  0.
         66    2    3    3    0    0  0.35611994266E+02  0.13844987767E+02 -0.32780845326E+01  0.38401089301E+02  0.19999998579E+01 0.  0.
        -13    1    3    3    0    0 -0.35611994266E+02 -0.13844987767E+02 -0.32149135879E+02  0.49934716617E+02  0.10566000000E+00 0.  1.
         13    1    4    4    0    0  0.27913199035E+02  0.11397041740E+02 -0.27406642463E+01  0.30274769121E+02  0.10566000000E+00 0. -1.
        -13    1    4    4    0    0  0.91422818690E+00  0.42323105731E+00 -0.23365424539E+00  0.10395653166E+01  0.10566000000E+00 0.  1.
         14    1    4    4    0    0  0.67845670435E+01  0.20247149698E+01 -0.30376604085E+00  0.70867548627E+01  0.00000000000E+00 0. -1.
<mgrwt>
<rscale>  0 0.80920496E+02</rscale>
<asrwt>0</asrwt>
<pdfrwt beam="1">  1        2 0.95202327E-02 0.80920496E+02</pdfrwt>
<pdfrwt beam="2">  1       -1 0.40698912E-02 0.80920496E+02</pdfrwt>
<totfact> 0.15197855E+05</totfact>
</mgrwt>
</event>
<event>
 8    1  0.2389776E-020  0.8019916E+02  0.7818608E-02  0.1328487E+00
          2   -1    0    0  501    0  0.00000000000E+00  0.00000000000E+00  0.20810605468E+03  0.20810605469E+03  0.25500000000E-02 0. -1.
         -1   -1    0    0    0  501 -0.00000000000E+00 -0.00000000000E+00 -0.77267144707E+01  0.77267161144E+01  0.50400000000E-02 0.  1.
         24    2    1    2    0    0  0.35527136788E-14  0.00000000000E+00  0.20037934020E+03  0.21583277081E+03  0.80199158179E+02 0.  0.
         66    2    3    3    0    0 -0.29307991342E+02 -0.18425563049E+02  0.15457903089E+03  0.15842075788E+03  0.20000020616E+01 0.  0.
        -13    1    3    3    0    0  0.29307991342E+02  0.18425563049E+02  0.45800309319E+02  0.57412012924E+02  0.10566000000E+00 0.  1.
         13    1    4    4    0    0 -0.10363498075E+02 -0.73136275987E+01  0.57840148553E+02  0.59214737943E+02  0.10566000000E+00 0. -1.
        -13    1    4    4    0    0 -0.16087719291E+02 -0.95947710469E+01  0.80919227412E+02  0.83059056535E+02  0.10566000000E+00 0.  1.
        -14    1    4    4    0    0 -0.28567739761E+01 -0.15171644031E+01  0.15819654920E+02  0.16146963404E+02  0.00000000000E+00 0.  1.
<mgrwt>
<rscale>  0 0.80199158E+02</rscale>
<asrwt>0</asrwt>
<pdfrwt beam="1">  1        2 0.32016310E-01 0.80199158E+02</pdfrwt>
<pdfrwt beam="2">  1       -1 0.11887257E-02 0.80199158E+02</pdfrwt>
<totfact> 0.22219966E+05</totfact>
</mgrwt>
</event>
<event>
 8    1  0.2389776E-020  0.7978430E+02  0.7818608E-02  0.1329665E+00
         -1   -1    0    0    0  501 -0.00000000000E+00  0.00000000000E+00  0.33330079845E+02  0.33330080226E+02  0.50400000000E-02 0.  1.
          2   -1    0    0  501    0  0.00000000000E+00 -0.00000000000E+00 -0.47746165417E+02  0.47746165485E+02  0.25500000000E-02 0. -1.
         24    2    1    2    0    0  0.00000000000E+00  0.00000000000E+00 -0.14416085572E+02  0.81076245711E+02  0.79784297298E+02 0.  0.
         66    2    3    3    0    0 -0.14851986586E+02 -0.35782008290E+02 -0.16769364271E+02  0.42262811084E+02  0.19999999650E+01 0.  0.
        -13    1    3    3    0    0  0.14851986586E+02  0.35782008290E+02  0.23532786987E+01  0.38813434627E+02  0.10566000000E+00 0.  1.
         13    1    4    4    0    0 -0.24410156961E+01 -0.59069948051E+01 -0.26163238113E+01  0.69070586777E+01  0.10566000000E+00 0. -1.
        -13    1    4    4    0    0 -0.76107590405E+00 -0.30075418719E+01 -0.10918088680E+01  0.32905554672E+01  0.10566000000E+00 0.  1.
        -14    1    4    4    0    0 -0.11649894986E+02 -0.26867471613E+02 -0.13061231591E+02  0.32065196939E+02  0.00000000000E+00 0.  1.
<mgrwt>
<rscale>  0 0.79784297E+02</rscale>
<asrwt>0</asrwt>
<pdfrwt beam="1">  1        2 0.73455639E-02 0.79784297E+02</pdfrwt>
<pdfrwt beam="2">  1       -1 0.51277046E-02 0.79784297E+02</pdfrwt>
<totfact> 0.14904727E+05</totfact>
</mgrwt>
</event>
<event>
 8    1  0.2389776E-020  0.8114909E+02  0.7818608E-02  0.1325822E+00
         -1   -1    0    0    0  501 -0.00000000000E+00  0.00000000000E+00  0.32153738213E+01  0.32153777713E+01  0.50400000000E-02 0.  1.
          2   -1    0    0  501    0  0.00000000000E+00 -0.00000000000E+00 -0.51200657332E+03  0.51200657333E+03  0.25500000000E-02 0. -1.
         24    2    1    2    0    0  0.00000000000E+00  0.00000000000E+00 -0.50879119950E+03  0.51522195110E+03  0.81149086289E+02 0.  0.
         66    2    3    3    0    0 -0.17146337010E+02 -0.28418998832E+02 -0.40245083106E+03  0.40382212394E+03  0.19999983799E+01 0.  0.
        -13    1    3    3    0    0  0.17146337010E+02  0.28418998832E+02 -0.10634036844E+03  0.11139982716E+03  0.10566000000E+00 0.  1.
         13    1    4    4    0    0 -0.12837855511E+02 -0.19958993661E+02 -0.28448393443E+03  0.28547205131E+03  0.10566000000E+00 0. -1.
        -13    1    4    4    0    0 -0.62080642785E+00 -0.16509458750E+01 -0.20417943690E+02  0.20494258012E+02  0.10566000000E+00 0.  1.
         14    1    4    4    0    0 -0.36876750707E+01 -0.68090592965E+01 -0.97548952935E+02  0.97855814619E+02  0.00000000000E+00 0. -1.
<mgrwt>
<rscale>  0 0.81149086E+02</rscale>
<asrwt>0</asrwt>
<pdfrwt beam="1">  1        2 0.78770178E-01 0.81149086E+02</pdfrwt>
<pdfrwt beam="2">  1       -1 0.49467361E-03 0.81149086E+02</pdfrwt>
<totfact> 0.29560897E+05</totfact>
</mgrwt>
</event>
<event>
 8    1  0.2389776E-020  0.7889054E+02  0.7818608E-02  0.1332230E+00
          2   -1    0    0  501    0  0.00000000000E+00  0.00000000000E+00  0.28414234077E+03  0.28414234078E+03  0.25500000000E-02 0. -1.
         -1   -1    0    0    0  501 -0.00000000000E+00 -0.00000000000E+00 -0.54758787315E+01  0.54758810509E+01  0.50400000000E-02 0.  1.
         24    2    1    2    0    0  0.00000000000E+00  0.35527136788E-14  0.27866646204E+03  0.28961822184E+03  0.78890540322E+02 0.  0.
         66    2    3    3    0    0  0.25915350316E+02 -0.26504356224E+02  0.18865388909E+03  0.19227162079E+03  0.20000033409E+01 0.  0.
        -13    1    3    3    0    0 -0.25915350316E+02  0.26504356224E+02  0.90012572954E+02  0.97346601043E+02  0.10566000000E+00 0.  1.
         13    1    4    4    0    0  0.82845382171E+01 -0.77287915005E+01  0.57727944677E+02  0.58829368109E+02  0.10566000000E+00 0.  1.
        -13    1    4    4    0    0  0.88637703705E+01 -0.84542904042E+01  0.62527928125E+02  0.63716515999E+02  0.10566000000E+00 0. -1.
        -14    1    4    4    0    0  0.87670417282E+01 -0.10321274319E+02  0.68398016286E+02  0.69725736683E+02  0.00000000000E+00 0.  1.
<mgrwt>
<rscale>  0 0.78890540E+02</rscale>
<asrwt>0</asrwt>
<pdfrwt beam="1">  1        2 0.43714206E-01 0.78890540E+02</pdfrwt>
<pdfrwt beam="2">  1       -1 0.84244306E-03 0.78890540E+02</pdfrwt>
<totfact> 0.25930132E+05</totfact>
</mgrwt>
</event>
<event>
 8    1  0.2389776E-020  0.8122240E+02  0.7818608E-02  0.1325618E+00
         -1   -1    0    0    0  501 -0.00000000000E+00  0.00000000000E+00  0.35617066359E+01  0.35617102018E+01  0.50400000000E-02 0.  1.
          2   -1    0    0  501    0  0.00000000000E+00 -0.00000000000E+00 -0.46305572037E+03  0.46305572038E+03  0.25500000000E-02 0. -1.
         24    2    1    2    0    0  0.00000000000E+00  0.00000000000E+00 -0.45949401373E+03  0.46661743058E+03  0.81222397542E+02 0.  0.
         66    2    3    3    0    0  0.18082186368E+02  0.99468546934E+01 -0.43065962868E+03  0.43115846404E+03  0.19999904349E+01 0.  0.
        -13    1    3    3    0    0 -0.18082186368E+02 -0.99468546934E+01 -0.28834385058E+02  0.35458966536E+02  0.10566000000E+00 0.  1.
         13    1    4    4    0    0  0.59825881897E+01  0.25219254176E+01 -0.12761496894E+03  0.12778005686E+03  0.10566000000E+00 0.  1.
        -13    1    4    4    0    0  0.10043055681E+02  0.58034733099E+01 -0.25102497550E+03  0.25129284264E+03  0.10566000000E+00 0. -1.
        -14    1    4    4    0    0  0.20565424971E+01  0.16214559658E+01 -0.52019684229E+02  0.52085564543E+02  0.00000000000E+00 0.  1.
<mgrwt>
<rscale>  0 0.81222398E+02</rscale>
<asrwt>0</asrwt>
<pdfrwt beam="1">  1        2 0.71239294E-01 0.81222398E+02</pdfrwt>
<pdfrwt beam="2">  1       -1 0.54795551E-03 0.81222398E+02</pdfrwt>
<totfact> 0.28547890E+05</totfact>
</mgrwt>
</event>
<event>
 8    1  0.2389776E-020  0.7161270E+02  0.7818608E-02  0.1354693E+00
          2   -1    0    0  501    0  0.00000000000E+00  0.00000000000E+00  0.98969478361E+02  0.98969478394E+02  0.25500000000E-02 0. -1.
         -1   -1    0    0    0  501 -0.00000000000E+00 -0.00000000000E+00 -0.12954445263E+02  0.12954446243E+02  0.50400000000E-02 0.  1.
         24    2    1    2    0    0  0.00000000000E+00  0.22204460493E-15  0.86015033098E+02  0.11192392464E+03  0.71612701299E+02 0.  0.
         66    2    3    3    0    0  0.25793935842E+02 -0.18947805997E+01  0.81678983682E+02  0.85699321527E+02  0.20000037685E+01 0.  0.
        -13    1    3    3    0    0 -0.25793935842E+02  0.18947805997E+01  0.43360494157E+01  0.26224603110E+02  0.10566000000E+00 0.  1.
         13    1    4    4    0    0  0.10595100375E+02 -0.15850783135E+01  0.33856959875E+02  0.35511596997E+02  0.10566000000E+00 0. -1.
        -13    1    4    4    0    0  0.88778643714E+01  0.20824302461E+00  0.27335547836E+02  0.28742010724E+02  0.10566000000E+00 0.  1.
         14    1    4    4    0    0  0.63209710952E+01 -0.51794531074E+00  0.20486475971E+02  0.21445713806E+02  0.00000000000E+00 0. -1.
<mgrwt>
<rscale>  0 0.71612701E+02</rscale>
<asrwt>0</asrwt>
<pdfrwt beam="1">  1        2 0.15226074E-01 0.71612701E+02</pdfrwt>
<pdfrwt beam="2">  1       -1 0.19929916E-02 0.71612701E+02</pdfrwt>
<totfact> 0.23728938E+05</totfact>
</mgrwt>
</event>
<event>
 8    1  0.2389776E-020  0.8051937E+02  0.7818608E-02  0.1327584E+00
          2   -1    0    0  501    0  0.00000000000E+00  0.00000000000E+00  0.19221187726E+04  0.19221187726E+04  0.25500000000E-02 0. -1.
         -1   -1    0    0    0  501 -0.00000000000E+00 -0.00000000000E+00 -0.84325048325E+00  0.84326554484E+00  0.50400000000E-02 0.  1.
         24    2    1    2    0    0  0.00000000000E+00  0.35527136788E-14  0.19212755221E+04  0.19229620381E+04  0.80519365792E+02 0.  0.
         66    2    3    3    0    0  0.21799979372E+01 -0.18857123043E+02  0.18084481502E+04  0.18085488811E+04  0.20000003180E+01 0.  0.
        -13    1    3    3    0    0 -0.21799979372E+01  0.18857123043E+02  0.11282737194E+03  0.11441315704E+03  0.10566000000E+00 0.  1.
         13    1    4    4    0    0  0.12604620854E+01 -0.12036862383E+02  0.11395342466E+04  0.11395985193E+04  0.10566000000E+00 0. -1.
        -13    1    4    4    0    0 -0.16625774755E+00 -0.84377419769E+00  0.11135391147E+03  0.11135728248E+03  0.10566000000E+00 0.  1.
        -14    1    4    4    0    0  0.10857935993E+01 -0.59764864620E+01  0.55755999206E+03  0.55759307931E+03  0.00000000000E+00 0.  1.
<mgrwt>
<rscale>  0 0.80519366E+02</rscale>
<asrwt>0</asrwt>
<pdfrwt beam="1">  1        2 0.29571147E+00 0.80519366E+02</pdfrwt>
<pdfrwt beam="2">  1       -1 0.12973161E-03 0.80519366E+02</pdfrwt>
<totfact> 0.28267170E+05</totfact>
</mgrwt>
</event>
<event>
 8    1  0.2389776E-020  0.7951566E+02  0.7818608E-02  0.1330432E+00
         -1   -1    0    0    0  501 -0.00000000000E+00  0.00000000000E+00  0.10783295597E+01  0.10783413379E+01  0.50400000000E-02 0.  1.
          2   -1    0    0  501    0  0.00000000000E+00 -0.00000000000E+00 -0.14658565650E+04  0.14658565650E+04  0.25500000000E-02 0. -1.
         24    2    1    2    0    0 -0.35527136788E-14  0.00000000000E+00 -0.14647782354E+04  0.14669349063E+04  0.79515661472E+02 0.  0.
         66    2    3    3    0    0 -0.17228136885E+02 -0.14981493249E+02 -0.13327571853E+04  0.13329542261E+04  0.19999993468E+01 0.  0.
        -13    1    3    3    0    0  0.17228136885E+02  0.14981493249E+02 -0.13202105012E+03  0.13398068024E+03  0.10566000000E+00 0.  1.
         13    1    4    4    0    0 -0.55715797404E+01 -0.43383448185E+01 -0.43125592605E+03  0.43131374735E+03  0.10566000000E+00 0. -1.
        -13    1    4    4    0    0 -0.10392162414E+01 -0.10859311258E+01 -0.10997600249E+03  0.10998632417E+03  0.10566000000E+00 0.  1.
         14    1    4    4    0    0 -0.10617340903E+02 -0.95572173044E+01 -0.79152525674E+03  0.79165415453E+03  0.00000000000E+00 0. -1.
<mgrwt>
<rscale>  0 0.79515661E+02</rscale>
<asrwt>0</asrwt>
<pdfrwt beam="1">  1        2 0.22551480E+00 0.79515661E+02</pdfrwt>
<pdfrwt beam="2">  1       -1 0.16589893E-03 0.79515661E+02</pdfrwt>
<totfact> 0.34061613E+05</totfact>
</mgrwt>
</event>
<event>
 8    1  0.2389776E-020  0.8184800E+02  0.7818608E-02  0.1323887E+00
          2   -1    0    0  501    0  0.00000000000E+00  0.00000000000E+00  0.12184853143E+02  0.12184853409E+02  0.25500000000E-02 0. -1.
         -1   -1    0    0    0  501 -0.00000000000E+00 -0.00000000000E+00 -0.13744719499E+03  0.13744719508E+03  0.50400000000E-02 0.  1.
         24    2    1    2    0    0  0.00000000000E+00 -0.17763568394E-14 -0.12526234185E+03  0.14963204849E+03  0.81848003340E+02 0.  0.
         66    2    3    3    0    0  0.19941660001E+02 -0.14648693164E+02 -0.31331118811E+01  0.25021398902E+02  0.19999994859E+01 0.  0.
        -13    1    3    3    0    0 -0.19941660001E+02  0.14648693164E+02 -0.12212922997E+03  0.12461064959E+03  0.10566000000E+00 0.  1.
         13    1    4    4    0    0  0.18473482430E+02 -0.13801965255E+02 -0.26793440642E+01  0.23215379528E+02  0.10566000000E+00 0. -1.
        -13    1    4    4    0    0  0.13136279597E+01 -0.59693087599E+00 -0.43904423409E+00  0.15119089795E+01  0.10566000000E+00 0.  1.
         14    1    4    4    0    0  0.15454961131E+00 -0.24979703324E+00 -0.14723582843E-01  0.29411039435E+00  0.00000000000E+00 0. -1.
<mgrwt>
<rscale>  0 0.81848003E+02</rscale>
<asrwt>0</asrwt>
<pdfrwt beam="1">  1        2 0.18745929E-02 0.81848003E+02</pdfrwt>
<pdfrwt beam="2">  1       -1 0.21145721E-01 0.81848003E+02</pdfrwt>
<totfact> 0.10408009E+05</totfact>
</mgrwt>
</event>
<event>
 8    1  0.2389776E-020  0.7971098E+02  0.7818608E-02  0.1329874E+00
         -1   -1    0    0    0  501 -0.00000000000E+00  0.00000000000E+00  0.18649087400E+01  0.18649155504E+01  0.50400000000E-02 0.  1.
          2   -1    0    0  501    0  0.00000000000E+00 -0.00000000000E+00 -0.85176127001E+03  0.85176127001E+03  0.25500000000E-02 0. -1.
         24    2    1    2    0    0  0.00000000000E+00  0.88817841970E-15 -0.84989636127E+03  0.85362618556E+03  0.79710976539E+02 0.  0.
         66    2    3    3    0    0 -0.32892182576E+02  0.52502572543E+01 -0.65910197065E+03  0.65994611036E+03  0.19999964408E+01 0.  0.
        -13    1    3    3    0    0  0.32892182576E+02 -0.52502572543E+01 -0.19079439062E+03  0.19368007520E+03  0.10566000000E+00 0.  1.
         13    1    4    4    0    0 -0.18847515699E+02  0.36364283529E+01 -0.38348695658E+03  0.38396706824E+03  0.10566000000E+00 0. -1.
        -13    1    4    4    0    0 -0.46295536838E+01  0.83894926026E-01 -0.90601590044E+02  0.90719893564E+02  0.10566000000E+00 0.  1.
        -14    1    4    4    0    0 -0.94151131930E+01  0.15299339754E+01 -0.18501342402E+03  0.18525914855E+03  0.00000000000E+00 0.  1.
<mgrwt>
<rscale>  0 0.79710977E+02</rscale>
<asrwt>0</asrwt>
<pdfrwt beam="1">  1        2 0.13103988E+00 0.79710977E+02</pdfrwt>
<pdfrwt beam="2">  1       -1 0.28691024E-03 0.79710977E+02</pdfrwt>
<totfact> 0.35033134E+05</totfact>
</mgrwt>
</event>
<event>
 8    1  0.2389776E-020  0.7947931E+02  0.7818608E-02  0.1330536E+00
          2   -1    0    0  501    0  0.00000000000E+00  0.00000000000E+00  0.73039691272E+02  0.73039691316E+02  0.25500000000E-02 0. -1.
         -1   -1    0    0    0  501 -0.00000000000E+00 -0.00000000000E+00 -0.21621668324E+02  0.21621668912E+02  0.50400000000E-02 0.  1.
         24    2    1    2    0    0  0.00000000000E+00 -0.17763568394E-14  0.51418022947E+02  0.94661360228E+02  0.79479305712E+02 0.  0.
         66    2    3    3    0    0 -0.50515603287E+01  0.88663509457E+01  0.71437797794E+02  0.72190646181E+02  0.20000003698E+01 0.  0.
        -13    1    3    3    0    0  0.50515603287E+01 -0.88663509457E+01 -0.20019774847E+02  0.22470714047E+02  0.10566000000E+00 0.  1.
         13    1    4    4    0    0 -0.17003532582E+01  0.31238982351E+01  0.24153455900E+02  0.24414146255E+02  0.10566000000E+00 0. -1.
        -13    1    4    4    0    0 -0.22606311071E+01  0.25042968099E+01  0.20683151778E+02  0.20956762322E+02  0.10566000000E+00 0.  1.
         14    1    4    4    0    0 -0.10905759634E+01  0.32381559007E+01  0.26601190116E+02  0.26819737604E+02  0.00000000000E+00 0. -1.
<mgrwt>
<rscale>  0 0.79479306E+02</rscale>
<asrwt>0</asrwt>
<pdfrwt beam="1">  1        2 0.11236876E-01 0.79479306E+02</pdfrwt>
<pdfrwt beam="2">  1       -1 0.33264106E-02 0.79479306E+02</pdfrwt>
<totfact> 0.16606804E+05</totfact>
</mgrwt>
</event>
<event>
 8    1  0.2389776E-020  0.7897836E+02  0.7818608E-02  0.1331976E+00
          2   -1    0    0  501    0  0.00000000000E+00  0.00000000000E+00  0.65572985809E+03  0.65572985810E+03  0.25500000000E-02 0. -1.
         -1   -1    0    0    0  501 -0.00000000000E+00 -0.00000000000E+00 -0.23781037099E+01  0.23781090506E+01  0.50400000000E-02 0.  1.
         24    2    1    2    0    0  0.00000000000E+00  0.00000000000E+00  0.65335175438E+03  0.65810796715E+03  0.78978360763E+02 0.  0.
         66    2    3    3    0    0 -0.28586589929E+02  0.38976909723E+01  0.55125211390E+03  0.55201021567E+03  0.20000005974E+01 0.  0.
        -13    1    3    3    0    0  0.28586589929E+02 -0.38976909723E+01  0.10209964048E+03  0.10609775148E+03  0.10566000000E+00 0.  1.
         13    1    4    4    0    0 -0.17998513369E+02  0.22417328979E+01  0.33755176089E+03  0.33803871715E+03  0.10566000000E+00 0. -1.
        -13    1    4    4    0    0 -0.33538708903E+01  0.96374043205E+00  0.65080370656E+02  0.65173944597E+02  0.10566000000E+00 0.  1.
         14    1    4    4    0    0 -0.72342056703E+01  0.69221764228E+00  0.14861998235E+03  0.14879755391E+03  0.00000000000E+00 0. -1.
<mgrwt>
<rscale>  0 0.78978361E+02</rscale>
<asrwt>0</asrwt>
<pdfrwt beam="1">  1        2 0.10088142E+00 0.78978361E+02</pdfrwt>
<pdfrwt beam="2">  1       -1 0.36586288E-03 0.78978361E+02</pdfrwt>
<totfact> 0.34048902E+05</totfact>
</mgrwt>
</event>
<event>
 8    1  0.2389776E-020  0.7908709E+02  0.7818608E-02  0.1331662E+00
          2   -1    0    0  501    0  0.00000000000E+00  0.00000000000E+00  0.35504383821E+03  0.35504383822E+03  0.25500000000E-02 0. -1.
         -1   -1    0    0    0  501 -0.00000000000E+00 -0.00000000000E+00 -0.44042203229E+01  0.44042232067E+01  0.50400000000E-02 0.  1.
         24    2    1    2    0    0  0.17763568394E-14  0.00000000000E+00  0.35063961789E+03  0.35944806143E+03  0.79087086372E+02 0.  0.
         66    2    3    3    0    0 -0.11352289957E+02 -0.27059539235E+02  0.29573107766E+03  0.29719011330E+03  0.19999996744E+01 0.  0.
        -13    1    3    3    0    0  0.11352289957E+02  0.27059539235E+02  0.54908540228E+02  0.62257948126E+02  0.10566000000E+00 0.  1.
         13    1    4    4    0    0 -0.94013968894E+01 -0.23078276341E+02  0.24859789780E+03  0.24984378931E+03  0.10566000000E+00 0. -1.
        -13    1    4    4    0    0 -0.80606062055E+00 -0.23997709995E+01  0.27206277997E+02  0.27324007046E+02  0.10566000000E+00 0.  1.
         14    1    4    4    0    0 -0.11448324471E+01 -0.15814918951E+01  0.19926901862E+02  0.20022316943E+02  0.00000000000E+00 0. -1.
<mgrwt>
<rscale>  0 0.79087086E+02</rscale>
<asrwt>0</asrwt>
<pdfrwt beam="1">  1        2 0.54622138E-01 0.79087086E+02</pdfrwt>
<pdfrwt beam="2">  1       -1 0.67757247E-03 0.79087086E+02</pdfrwt>
<totfact> 0.27912611E+05</totfact>
</mgrwt>
</event>
<event>
 8    1  0.2389776E-020  0.7721713E+02  0.7818608E-02  0.1337140E+00
          2   -1    0    0  501    0  0.00000000000E+00  0.00000000000E+00  0.79479555789E+01  0.79479559879E+01  0.25500000000E-02 0. -1.
         -1   -1    0    0    0  501 -0.00000000000E+00 -0.00000000000E+00 -0.18754777469E+03  0.18754777476E+03  0.50400000000E-02 0.  1.
         24    2    1    2    0    0  0.00000000000E+00  0.00000000000E+00 -0.17959981911E+03  0.19549573074E+03  0.77217133559E+02 0.  0.
         66    2    3    3    0    0 -0.18527437530E+02  0.27085909985E+02 -0.38489203421E+02  0.50619474976E+02  0.20000014445E+01 0.  0.
        -13    1    3    3    0    0  0.18527437530E+02 -0.27085909985E+02 -0.14111061569E+03  0.14487625577E+03  0.10566000000E+00 0.  1.
         13    1    4    4    0    0 -0.11201326203E+02  0.15458151746E+02 -0.21723189815E+02  0.28919410504E+02  0.10566000000E+00 0. -1.
        -13    1    4    4    0    0 -0.49028054560E+01  0.70760034715E+01 -0.10896445978E+02  0.13887081243E+02  0.10566000000E+00 0.  1.
        -14    1    4    4    0    0 -0.24233058714E+01  0.45517547670E+01 -0.58695676271E+01  0.78129832289E+01  0.00000000000E+00 0.  1.
<mgrwt>
<rscale>  0 0.77217134E+02</rscale>
<asrwt>0</asrwt>
<pdfrwt beam="1">  1        2 0.12227626E-02 0.77217134E+02</pdfrwt>
<pdfrwt beam="2">  1       -1 0.28853501E-01 0.77217134E+02</pdfrwt>
<totfact> 0.11107371E+05</totfact>
</mgrwt>
</event>
<event>
 8    1  0.2389776E-020  0.8278438E+02  0.7818608E-02  0.1321330E+00
          2   -1    0    0  501    0  0.00000000000E+00  0.00000000000E+00  0.27289918747E+02  0.27289918866E+02  0.25500000000E-02 0. -1.
         -1   -1    0    0    0  501 -0.00000000000E+00 -0.00000000000E+00 -0.62781912364E+02  0.62781912567E+02  0.50400000000E-02 0.  1.
         24    2    1    2    0    0  0.00000000000E+00  0.00000000000E+00 -0.35491993618E+02  0.90071831432E+02  0.82784377793E+02 0.  0.
         66    2    3    3    0    0  0.32439598742E+01  0.37703762918E+02  0.42422743431E+00  0.37898245083E+02  0.19999994041E+01 0.  0.
        -13    1    3    3    0    0 -0.32439598742E+01 -0.37703762918E+02 -0.35916221052E+02  0.52173586349E+02  0.10566000000E+00 0.  1.
         13    1    4    4    0    0  0.43570944757E+00  0.74145358357E+01  0.53107332827E+00  0.74470388274E+01  0.10566000000E+00 0. -1.
        -13    1    4    4    0    0  0.11987426665E+01  0.12495503910E+02  0.63583047018E+00  0.12569409150E+02  0.10566000000E+00 0.  1.
        -14    1    4    4    0    0  0.16095077602E+01  0.17793723172E+02 -0.74267636414E+00  0.17881797106E+02  0.00000000000E+00 0.  1.
<mgrwt>
<rscale>  0 0.82784378E+02</rscale>
<asrwt>0</asrwt>
<pdfrwt beam="1">  1        2 0.41984491E-02 0.82784378E+02</pdfrwt>
<pdfrwt beam="2">  1       -1 0.96587558E-02 0.82784378E+02</pdfrwt>
<totfact> 0.11989412E+05</totfact>
</mgrwt>
</event>
<event>
 8    1  0.2389776E-020  0.7977460E+02  0.7818608E-02  0.1329692E+00
         -1   -1    0    0    0  501 -0.00000000000E+00  0.00000000000E+00  0.16656448712E+02  0.16656449475E+02  0.50400000000E-02 0.  1.
          2   -1    0    0  501    0  0.00000000000E+00 -0.00000000000E+00 -0.95518357304E+02  0.95518357338E+02  0.25500000000E-02 0. -1.
         24    2    1    2    0    0  0.00000000000E+00 -0.35527136788E-14 -0.78861908592E+02  0.11217480681E+03  0.79774599069E+02 0.  0.
         66    2    3    3    0    0 -0.26316102886E+02 -0.19160739466E+02 -0.71806843789E+02  0.78866304724E+02  0.19999994729E+01 0.  0.
        -13    1    3    3    0    0  0.26316102886E+02  0.19160739466E+02 -0.70550648025E+01  0.33308502088E+02  0.10566000000E+00 0.  1.
         13    1    4    4    0    0 -0.65447384596E+01 -0.55896203205E+01 -0.19411245530E+02  0.21234054580E+02  0.10566000000E+00 0. -1.
        -13    1    4    4    0    0 -0.37358884749E+01 -0.21033669011E+01 -0.91629171352E+01  0.10116878445E+02  0.10566000000E+00 0.  1.
         14    1    4    4    0    0 -0.16035475951E+02 -0.11467752244E+02 -0.43232681124E+02  0.47515371699E+02  0.00000000000E+00 0. -1.
<mgrwt>
<rscale>  0 0.79774599E+02</rscale>
<asrwt>0</asrwt>
<pdfrwt beam="1">  1        2 0.14695132E-01 0.79774599E+02</pdfrwt>
<pdfrwt beam="2">  1       -1 0.25625307E-02 0.79774599E+02</pdfrwt>
<totfact> 0.17634664E+05</totfact>
</mgrwt>
</event>
<event>
 8    1  0.2389776E-020  0.7884968E+02  0.7818608E-02  0.1332348E+00
          2   -1    0    0  501    0  0.00000000000E+00  0.00000000000E+00  0.45020613725E+01  0.45020620947E+01  0.25500000000E-02 0. -1.
         -1   -1    0    0    0  501 -0.00000000000E+00 -0.00000000000E+00 -0.34524586277E+03  0.34524586281E+03  0.50400000000E-02 0.  1.
         24    2    1    2    0    0  0.00000000000E+00  0.00000000000E+00 -0.34074380140E+03  0.34974792490E+03  0.78849684731E+02 0.  0.
         66    2    3    3    0    0  0.39308453935E+02  0.26754669983E+01 -0.17058801515E+03  0.17509021556E+03  0.19999995375E+01 0.  0.
        -13    1    3    3    0    0 -0.39308453935E+02 -0.26754669983E+01 -0.17015578625E+03  0.17465770934E+03  0.10566000000E+00 0.  1.
         13    1    4    4    0    0  0.25999294830E+02  0.18994177822E+01 -0.10924033317E+03  0.11230775875E+03  0.10566000000E+00 0. -1.
        -13    1    4    4    0    0  0.26884366511E+01  0.30641126535E+00 -0.13251188780E+02  0.13525041501E+02  0.10566000000E+00 0.  1.
         14    1    4    4    0    0  0.10620722453E+02  0.46963795073E+00 -0.48096493196E+02  0.49257415310E+02  0.00000000000E+00 0. -1.
<mgrwt>
<rscale>  0 0.78849685E+02</rscale>
<asrwt>0</asrwt>
<pdfrwt beam="1">  1        2 0.69262516E-03 0.78849685E+02</pdfrwt>
<pdfrwt beam="2">  1       -1 0.53114727E-01 0.78849685E+02</pdfrwt>
<totfact> 0.84465118E+04</totfact>
</mgrwt>
</event>
<event>
 8    1  0.2389776E-020  0.7950095E+02  0.7818608E-02  0.1330474E+00
         -1   -1    0    0    0  501 -0.00000000000E+00  0.00000000000E+00  0.12510731841E+01  0.12510833360E+01  0.50400000000E-02 0.  1.
          2   -1    0    0  501    0  0.00000000000E+00 -0.00000000000E+00 -0.12629905986E+04  0.12629905986E+04  0.25500000000E-02 0. -1.
         24    2    1    2    0    0 -0.35527136788E-14 -0.44408920985E-15 -0.12617395255E+04  0.12642416820E+04  0.79500945619E+02 0.  0.
         66    2    3    3    0    0  0.20241384460E+02  0.30694678327E+01 -0.11726351927E+04  0.11728155995E+04  0.19999987790E+01 0.  0.
        -13    1    3    3    0    0 -0.20241384460E+02 -0.30694678327E+01 -0.89104332805E+02  0.91426082528E+02  0.10566000000E+00 0.  1.
         13    1    4    4    0    0  0.82556983935E+01  0.70744463068E+00 -0.47536755794E+03  0.47543977888E+03  0.10566000000E+00 0. -1.
        -13    1    4    4    0    0  0.60441879951E+01  0.93179125845E+00 -0.31563481558E+03  0.31569407409E+03  0.10566000000E+00 0.  1.
        -14    1    4    4    0    0  0.59414980715E+01  0.14302319436E+01 -0.38163281913E+03  0.38168174649E+03  0.00000000000E+00 0.  1.
<mgrwt>
<rscale>  0 0.79500946E+02</rscale>
<asrwt>0</asrwt>
<pdfrwt beam="1">  1        2 0.19430523E+00 0.79500946E+02</pdfrwt>
<pdfrwt beam="2">  1       -1 0.19247459E-03 0.79500946E+02</pdfrwt>
<totfact> 0.35365149E+05</totfact>
</mgrwt>
</event>
<event>
 8    1  0.2389776E-020  0.8073943E+02  0.7818608E-02  0.1326966E+00
          2   -1    0    0  501    0  0.00000000000E+00  0.00000000000E+00  0.20110901444E+04  0.20110901444E+04  0.25500000000E-02 0. -1.
         -1   -1    0    0    0  501 -0.00000000000E+00 -0.00000000000E+00 -0.81035565562E+00  0.81037132858E+00  0.50400000000E-02 0.  1.
         24    2    1    2    0    0  0.00000000000E+00  0.00000000000E+00  0.20102797887E+04  0.20119005157E+04  0.80739433743E+02 0.  0.
         66    2    3    3    0    0  0.99723812355E+01  0.10908321836E+02  0.19411989067E+04  0.19412562003E+04  0.20000003107E+01 0.  0.
        -13    1    3    3    0    0 -0.99723812355E+01 -0.10908321836E+02  0.69080881994E+02  0.70644315369E+02  0.10566000000E+00 0.  1.
         13    1    4    4    0    0  0.17739669404E+01  0.12023586983E+01  0.32294246874E+03  0.32294959653E+03  0.10566000000E+00 0.  1.
        -13    1    4    4    0    0  0.44319883930E+01  0.45354370506E+01  0.82355593022E+03  0.82358035071E+03  0.10566000000E+00 0. -1.
        -14    1    4    4    0    0  0.37664259021E+01  0.51705260866E+01  0.79470050775E+03  0.79472625307E+03  0.00000000000E+00 0.  1.
<mgrwt>
<rscale>  0 0.80739434E+02</rscale>
<asrwt>0</asrwt>
<pdfrwt beam="1">  1        2 0.30939395E+00 0.80739434E+02</pdfrwt>
<pdfrwt beam="2">  1       -1 0.12467313E-03 0.80739434E+02</pdfrwt>
<totfact> 0.26963292E+05</totfact>
</mgrwt>
</event>
<event>
 8    1  0.2389776E-020  0.8057205E+02  0.7818608E-02  0.1327436E+00
          2   -1    0    0  501    0  0.00000000000E+00  0.00000000000E+00  0.75935670038E+01  0.75935674319E+01  0.25500000000E-02 0. -1.
         -1   -1    0    0    0  501 -0.00000000000E+00 -0.00000000000E+00 -0.21372878327E+03  0.21372878333E+03  0.50400000000E-02 0.  1.
         24    2    1    2    0    0  0.00000000000E+00  0.00000000000E+00 -0.20613521627E+03  0.22132235076E+03  0.80572051987E+02 0.  0.
         66    2    3    3    0    0  0.23948929179E+02 -0.23973746121E+02 -0.43411103030E+02  0.55107309611E+02  0.19999985989E+01 0.  0.
        -13    1    3    3    0    0 -0.23948929179E+02  0.23973746121E+02 -0.16272411324E+03  0.16621504115E+03  0.10566000000E+00 0.  1.
         13    1    4    4    0    0  0.11899718295E+02 -0.11602310726E+02 -0.20545330021E+02  0.26426098073E+02  0.10566000000E+00 0. -1.
        -13    1    4    4    0    0  0.26653763463E+01 -0.20989274354E+01 -0.47951761079E+01  0.58749132239E+01  0.10566000000E+00 0.  1.
        -14    1    4    4    0    0  0.93838345373E+01 -0.10272507960E+02 -0.18070596901E+02  0.22806298314E+02  0.00000000000E+00 0.  1.
<mgrwt>
<rscale>  0 0.80572052E+02</rscale>
<asrwt>0</asrwt>
<pdfrwt beam="1">  1        2 0.11682413E-02 0.80572052E+02</pdfrwt>
<pdfrwt beam="2">  1       -1 0.32881347E-01 0.80572052E+02</pdfrwt>
<totfact> 0.95823424E+04</totfact>
</mgrwt>
</event>
<event>
 8    1  0.2389776E-020  0.8003757E+02  0.7818608E-02  0.1328945E+00
          2   -1    0    0  501    0  0.00000000000E+00  0.00000000000E+00  0.17899444361E+04  0.17899444361E+04  0.25500000000E-02 0. -1.
         -1   -1    0    0    0  501 -0.00000000000E+00 -0.00000000000E+00 -0.89471519379E+00  0.89472938903E+00  0.50400000000E-02 0.  1.
         24    2    1    2    0    0  0.35527136788E-14 -0.44408920985E-15  0.17890497209E+04  0.17908391655E+04  0.80037571061E+02 0.  0.
         66    2    3    3    0    0 -0.18296503262E+02  0.34003962743E+01  0.16871604658E+04  0.16872642834E+04  0.20000024453E+01 0.  0.
        -13    1    3    3    0    0  0.18296503262E+02 -0.34003962743E+01  0.10188925510E+03  0.10357488207E+03  0.10566000000E+00 0.  1.
         13    1    4    4    0    0 -0.43806358961E+01  0.71740994468E+00  0.42555301184E+03  0.42557617614E+03  0.10566000000E+00 0. -1.
        -13    1    4    4    0    0 -0.92598726937E+01  0.10842137997E+01  0.85626214556E+03  0.85631290651E+03  0.10566000000E+00 0.  1.
        -14    1    4    4    0    0 -0.46559946725E+01  0.15987725299E+01  0.40534530839E+03  0.40537520077E+03  0.00000000000E+00 0.  1.
<mgrwt>
<rscale>  0 0.80037571E+02</rscale>
<asrwt>0</asrwt>
<pdfrwt beam="1">  1        2 0.27537327E+00 0.80037571E+02</pdfrwt>
<pdfrwt beam="2">  1       -1 0.13765098E-03 0.80037571E+02</pdfrwt>
<totfact> 0.30298044E+05</totfact>
</mgrwt>
</event>
<event>
 8    1  0.2389776E-020  0.8019452E+02  0.7818608E-02  0.1328500E+00
         -1   -1    0    0    0  501 -0.00000000000E+00  0.00000000000E+00  0.55422525195E+02  0.55422525424E+02  0.50400000000E-02 0.  1.
          2   -1    0    0  501    0  0.00000000000E+00 -0.00000000000E+00 -0.29009688279E+02  0.29009688391E+02  0.25500000000E-02 0. -1.
         24    2    1    2    0    0  0.00000000000E+00  0.00000000000E+00  0.26412836917E+02  0.84432213815E+02  0.80194518365E+02 0.  0.
         66    2    3    3    0    0 -0.37218685134E+02  0.14180386446E+02  0.85687994118E+01  0.40788947194E+02  0.20000017465E+01 0.  0.
        -13    1    3    3    0    0  0.37218685134E+02 -0.14180386446E+02  0.17844037505E+02  0.43643266621E+02  0.10566000000E+00 0.  1.
         13    1    4    4    0    0 -0.14102893982E+02  0.56217039143E+01  0.40833289055E+01  0.15721956385E+02  0.10566000000E+00 0. -1.
        -13    1    4    4    0    0 -0.11392153990E+02  0.38142716874E+01  0.20748798258E+01  0.12192051975E+02  0.10566000000E+00 0.  1.
         14    1    4    4    0    0 -0.11723637162E+02  0.47444108442E+01  0.24105906805E+01  0.12874938834E+02  0.00000000000E+00 0. -1.
<mgrwt>
<rscale>  0 0.80194518E+02</rscale>
<asrwt>0</asrwt>
<pdfrwt beam="1">  1        2 0.44630290E-02 0.80194518E+02</pdfrwt>
<pdfrwt beam="2">  1       -1 0.85265423E-02 0.80194518E+02</pdfrwt>
<totfact> 0.13275596E+05</totfact>
</mgrwt>
</event>
<event>
 8    1  0.2389776E-020  0.7588859E+02  0.7818608E-02  0.1341141E+00
          2   -1    0    0  501    0  0.00000000000E+00  0.00000000000E+00  0.30337847457E+03  0.30337847458E+03  0.25500000000E-02 0. -1.
         -1   -1    0    0    0  501 -0.00000000000E+00 -0.00000000000E+00 -0.47457851598E+01  0.47457878360E+01  0.50400000000E-02 0.  1.
         24    2    1    2    0    0 -0.35527136788E-14  0.17763568394E-14  0.29863268941E+03  0.30812426242E+03  0.75888588770E+02 0.  0.
         66    2    3    3    0    0  0.15712633954E+02  0.91400332464E+01  0.28453036489E+03  0.28511744181E+03  0.20000017351E+01 0.  0.
        -13    1    3    3    0    0 -0.15712633954E+02 -0.91400332464E+01  0.14102324523E+02  0.23006820609E+02  0.10566000000E+00 0.  1.
         13    1    4    4    0    0  0.23377874298E+01  0.13616855661E+01  0.36535600787E+02  0.36635784781E+02  0.10566000000E+00 0. -1.
        -13    1    4    4    0    0  0.92412086968E+00  0.27024919039E+00  0.20376925964E+02  0.20399934063E+02  0.10566000000E+00 0.  1.
        -14    1    4    4    0    0  0.12450725655E+02  0.75080984900E+01  0.22761783814E+03  0.22808172297E+03  0.00000000000E+00 0.  1.
<mgrwt>
<rscale>  0 0.75888589E+02</rscale>
<asrwt>0</asrwt>
<pdfrwt beam="1">  1        2 0.46673629E-01 0.75888589E+02</pdfrwt>
<pdfrwt beam="2">  1       -1 0.73012074E-03 0.75888589E+02</pdfrwt>
<totfact> 0.29384232E+05</totfact>
</mgrwt>
</event>
<event>
 8    1  0.2389776E-020  0.7841520E+02  0.7818608E-02  0.1333610E+00
          2   -1    0    0  501    0  0.00000000000E+00  0.00000000000E+00  0.11989274885E+03  0.11989274887E+03  0.25500000000E-02 0. -1.
         -1   -1    0    0    0  501 -0.00000000000E+00 -0.00000000000E+00 -0.12821758790E+02  0.12821759781E+02  0.50400000000E-02 0.  1.
         24    2    1    2    0    0  0.00000000000E+00  0.00000000000E+00  0.10707099006E+03  0.13271450865E+03  0.78415201942E+02 0.  0.
         66    2    3    3    0    0  0.23322794012E+02 -0.20972461574E+02  0.93313619917E+02  0.98464351542E+02  0.19999993883E+01 0.  0.
        -13    1    3    3    0    0 -0.23322794012E+02  0.20972461574E+02  0.13757370138E+02  0.34250157112E+02  0.10566000000E+00 0.  1.
         13    1    4    4    0    0  0.99652795747E+01 -0.88409764083E+01  0.39927528017E+02  0.42091428087E+02  0.10566000000E+00 0. -1.
        -13    1    4    4    0    0  0.51325654141E+00 -0.83719720351E+00  0.24344978227E+01  0.26272181332E+01  0.10566000000E+00 0.  1.
        -14    1    4    4    0    0  0.12844257896E+02 -0.11294287962E+02  0.50951594077E+02  0.53745705321E+02  0.00000000000E+00 0.  1.
<mgrwt>
<rscale>  0 0.78415202E+02</rscale>
<asrwt>0</asrwt>
<pdfrwt beam="1">  1        2 0.18445038E-01 0.78415202E+02</pdfrwt>
<pdfrwt beam="2">  1       -1 0.19725784E-02 0.78415202E+02</pdfrwt>
<totfact> 0.19704257E+05</totfact>
</mgrwt>
</event>
<event>
 8    1  0.2389776E-020  0.7962057E+02  0.7818608E-02  0.1330132E+00
         -1   -1    0    0    0  501 -0.00000000000E+00  0.00000000000E+00  0.21975736557E+01  0.21975794352E+01  0.50400000000E-02 0.  1.
          2   -1    0    0  501    0  0.00000000000E+00 -0.00000000000E+00 -0.72118482879E+03  0.72118482879E+03  0.25500000000E-02 0. -1.
         24    2    1    2    0    0  0.00000000000E+00  0.00000000000E+00 -0.71898725513E+03  0.72338240823E+03  0.79620572032E+02 0.  0.
         66    2    3    3    0    0 -0.17927534742E+02  0.20444168436E+02 -0.62358586015E+03  0.62418161260E+03  0.20000004202E+01 0.  0.
        -13    1    3    3    0    0  0.17927534742E+02 -0.20444168436E+02 -0.95401394985E+02  0.99200795632E+02  0.10566000000E+00 0.  1.
         13    1    4    4    0    0 -0.68158305118E+01  0.78230478634E+01 -0.22801472236E+03  0.22825069639E+03  0.10566000000E+00 0. -1.
        -13    1    4    4    0    0 -0.59778539964E+01  0.64094262697E+01 -0.22144811936E+03  0.22162151569E+03  0.10566000000E+00 0.  1.
        -14    1    4    4    0    0 -0.51338502337E+01  0.62116943027E+01 -0.17412301842E+03  0.17430940052E+03  0.00000000000E+00 0.  1.
<mgrwt>
<rscale>  0 0.79620572E+02</rscale>
<asrwt>0</asrwt>
<pdfrwt beam="1">  1        2 0.11095132E+00 0.79620572E+02</pdfrwt>
<pdfrwt beam="2">  1       -1 0.33808927E-03 0.79620572E+02</pdfrwt>
<totfact> 0.34093640E+05</totfact>
</mgrwt>
</event>
<event>
 8    1  0.2389776E-020  0.7852437E+02  0.7818608E-02  0.1333292E+00
          2   -1    0    0  501    0  0.00000000000E+00  0.00000000000E+00  0.38542975016E+03  0.38542975017E+03  0.25500000000E-02 0. -1.
         -1   -1    0    0    0  501 -0.00000000000E+00 -0.00000000000E+00 -0.39994794508E+01  0.39994826264E+01  0.50400000000E-02 0.  1.
         24    2    1    2    0    0  0.71054273576E-14 -0.17763568394E-14  0.38143027071E+03  0.38942923279E+03  0.78524365275E+02 0.  0.
         66    2    3    3    0    0  0.37242019547E+02 -0.10079091516E+02  0.15543632434E+03  0.16016556130E+03  0.19999994723E+01 0.  0.
        -13    1    3    3    0    0 -0.37242019547E+02  0.10079091516E+02  0.22599394637E+03  0.22926367149E+03  0.10566000000E+00 0.  1.
         13    1    4    4    0    0  0.79736086459E+01 -0.28058464050E+01  0.33653491600E+02  0.34698989464E+02  0.10566000000E+00 0. -1.
        -13    1    4    4    0    0  0.15675962857E+02 -0.33535143656E+01  0.63944791869E+02  0.65923663743E+02  0.10566000000E+00 0.  1.
         14    1    4    4    0    0  0.13592448044E+02 -0.39197307459E+01  0.57838040867E+02  0.59542908094E+02  0.00000000000E+00 0. -1.
<mgrwt>
<rscale>  0 0.78524365E+02</rscale>
<asrwt>0</asrwt>
<pdfrwt beam="1">  1        2 0.59296894E-01 0.78524365E+02</pdfrwt>
<pdfrwt beam="2">  1       -1 0.61530469E-03 0.78524365E+02</pdfrwt>
<totfact> 0.29276883E+05</totfact>
</mgrwt>
</event>
<event>
 8    1  0.2389776E-020  0.7854917E+02  0.7818608E-02  0.1333220E+00
          2   -1    0    0  501    0  0.00000000000E+00  0.00000000000E+00  0.23284067519E+03  0.23284067521E+03  0.25500000000E-02 0. -1.
         -1   -1    0    0    0  501 -0.00000000000E+00 -0.00000000000E+00 -0.66246712279E+01  0.66246731451E+01  0.50400000000E-02 0.  1.
         24    2    1    2    0    0  0.00000000000E+00  0.00000000000E+00  0.22621600396E+03  0.23946534835E+03  0.78549173207E+02 0.  0.
         66    2    3    3    0    0 -0.63629790629E+01 -0.32806530821E+02  0.17593590639E+03  0.17909271098E+03  0.20000004535E+01 0.  0.
        -13    1    3    3    0    0  0.63629790629E+01  0.32806530821E+02  0.50280097576E+02  0.60372637373E+02  0.10566000000E+00 0.  1.
         13    1    4    4    0    0 -0.54381852514E+01 -0.26545813862E+02  0.13928040264E+03  0.14189184549E+03  0.10566000000E+00 0. -1.
        -13    1    4    4    0    0 -0.65094402492E+00 -0.50806943783E+01  0.28709715322E+02  0.29163266302E+02  0.10566000000E+00 0.  1.
        -14    1    4    4    0    0 -0.27384978657E+00 -0.11800225814E+01  0.79457884246E+01  0.80375991868E+01  0.00000000000E+00 0.  1.
<mgrwt>
<rscale>  0 0.78549173E+02</rscale>
<asrwt>0</asrwt>
<pdfrwt beam="1">  1        2 0.35821634E-01 0.78549173E+02</pdfrwt>
<pdfrwt beam="2">  1       -1 0.10191806E-02 0.78549173E+02</pdfrwt>
<totfact> 0.24417438E+05</totfact>
</mgrwt>
</event>
<event>
 8    1  0.2389776E-020  0.8115393E+02  0.7818608E-02  0.1325808E+00
          2   -1    0    0  501    0  0.00000000000E+00  0.00000000000E+00  0.16627170026E+02  0.16627170221E+02  0.25500000000E-02 0. -1.
         -1   -1    0    0    0  501 -0.00000000000E+00 -0.00000000000E+00 -0.99024083280E+02  0.99024083408E+02  0.50400000000E-02 0.  1.
         24    2    1    2    0    0  0.00000000000E+00  0.44408920985E-15 -0.82396913254E+02  0.11565125363E+03  0.81153934915E+02 0.  0.
         66    2    3    3    0    0 -0.31773671463E+02 -0.39058420138E+01 -0.57487094712E+01  0.32586338609E+02  0.20000008224E+01 0.  0.
        -13    1    3    3    0    0  0.31773671463E+02  0.39058420138E+01 -0.76648203783E+02  0.83064915020E+02  0.10566000000E+00 0.  1.
         13    1    4    4    0    0 -0.55983196400E+01 -0.76829086590E+00 -0.37676723909E+00  0.56643244288E+01  0.10566000000E+00 0. -1.
        -13    1    4    4    0    0 -0.11340197927E+02 -0.18295094287E+01 -0.24291432752E+01  0.11741341272E+02  0.10566000000E+00 0.  1.
         14    1    4    4    0    0 -0.14835153896E+02 -0.13080417192E+01 -0.29427989569E+01  0.15180672908E+02  0.00000000000E+00 0. -1.
<mgrwt>
<rscale>  0 0.81153935E+02</rscale>
<asrwt>0</asrwt>
<pdfrwt beam="1">  1        2 0.25580262E-02 0.81153935E+02</pdfrwt>
<pdfrwt beam="2">  1       -1 0.15234474E-01 0.81153935E+02</pdfrwt>
<totfact> 0.11461565E+05</totfact>
</mgrwt>
</event>
<event>
 8    1  0.2389776E-020  0.8041566E+02  0.7818608E-02  0.1327876E+00
          2   -1    0    0  501    0  0.00000000000E+00  0.00000000000E+00  0.31145647232E+02  0.31145647337E+02  0.25500000000E-02 0. -1.
         -1   -1    0    0    0  501 -0.00000000000E+00 -0.00000000000E+00 -0.51906755837E+02  0.51906756082E+02  0.50400000000E-02 0.  1.
         24    2    1    2    0    0  0.35527136788E-14  0.88817841970E-15 -0.20761108605E+02  0.83052403418E+02  0.80415658196E+02 0.  0.
         66    2    3    3    0    0  0.30771322475E+02  0.76206214779E+01  0.15115117890E+02  0.35176909163E+02  0.19999977152E+01 0.  0.
        -13    1    3    3    0    0 -0.30771322475E+02 -0.76206214779E+01 -0.35876226496E+02  0.47875494255E+02  0.10566000000E+00 0.  1.
         13    1    4    4    0    0  0.17538480414E+02  0.42043760958E+01  0.86640797504E+01  0.20008810947E+02  0.10566000000E+00 0. -1.
        -13    1    4    4    0    0  0.44984447305E+01  0.17938766789E+01  0.22900045736E+01  0.53581044703E+01  0.10566000000E+00 0.  1.
         14    1    4    4    0    0  0.87343973312E+01  0.16223687032E+01  0.41610335664E+01  0.98099937456E+01  0.00000000000E+00 0. -1.
<mgrwt>
<rscale>  0 0.80415658E+02</rscale>
<asrwt>0</asrwt>
<pdfrwt beam="1">  1        2 0.47916381E-02 0.80415658E+02</pdfrwt>
<pdfrwt beam="2">  1       -1 0.79856548E-02 0.80415658E+02</pdfrwt>
<totfact> 0.13360087E+05</totfact>
</mgrwt>
</event>
<event>
 8    1  0.2389776E-020  0.8230528E+02  0.7818608E-02  0.1322634E+00
          2   -1    0    0  501    0  0.00000000000E+00  0.00000000000E+00  0.48889658591E+02  0.48889658657E+02  0.25500000000E-02 0. -1.
         -1   -1    0    0    0  501 -0.00000000000E+00 -0.00000000000E+00 -0.34640042240E+02  0.34640042607E+02  0.50400000000E-02 0.  1.
         24    2    1    2    0    0  0.00000000000E+00  0.00000000000E+00  0.14249616350E+02  0.83529701264E+02  0.82305281891E+02 0.  0.
         66    2    3    3    0    0  0.39412441723E+02 -0.17909706398E+01  0.18920223742E+02  0.43800947498E+02  0.19999992339E+01 0.  0.
        -13    1    3    3    0    0 -0.39412441723E+02  0.17909706398E+01 -0.46706073914E+01  0.39728753766E+02  0.10566000000E+00 0.  1.
         13    1    4    4    0    0  0.11126714109E+02  0.69068901542E-01  0.49489840036E+01  0.12178347346E+02  0.10566000000E+00 0. -1.
        -13    1    4    4    0    0  0.15818161802E+02 -0.14758470905E+01  0.74490166621E+01  0.17546833922E+02  0.10566000000E+00 0.  1.
         14    1    4    4    0    0  0.12467565812E+02 -0.38419245086E+00  0.65222230760E+01  0.14075766230E+02  0.00000000000E+00 0. -1.
<mgrwt>
<rscale>  0 0.82305282E+02</rscale>
<asrwt>0</asrwt>
<pdfrwt beam="1">  1        2 0.75214859E-02 0.82305282E+02</pdfrwt>
<pdfrwt beam="2">  1       -1 0.53292374E-02 0.82305282E+02</pdfrwt>
<totfact> 0.13753931E+05</totfact>
</mgrwt>
</event>
<event>
 8    1  0.2389776E-020  0.7893655E+02  0.7818608E-02  0.1332097E+00
         -1   -1    0    0    0  501 -0.00000000000E+00  0.00000000000E+00  0.17483516727E+03  0.17483516735E+03  0.50400000000E-02 0.  1.
          2   -1    0    0  501    0  0.00000000000E+00 -0.00000000000E+00 -0.89097897325E+01  0.89097900974E+01  0.25500000000E-02 0. -1.
         24    2    1    2    0    0  0.00000000000E+00  0.00000000000E+00  0.16592537754E+03  0.18374495744E+03  0.78936547137E+02 0.  0.
         66    2    3    3    0    0 -0.17694855719E+02  0.32586185896E+02  0.51718764309E+02  0.63669443286E+02  0.19999991434E+01 0.  0.
        -13    1    3    3    0    0  0.17694855719E+02 -0.32586185896E+02  0.11420661323E+03  0.12007551416E+03  0.10566000000E+00 0.  1.
         13    1    4    4    0    0 -0.48191312211E+01  0.95855129828E+01  0.15314200081E+02  0.18698715812E+02  0.10566000000E+00 0. -1.
        -13    1    4    4    0    0 -0.58322257175E+01  0.11170842915E+02  0.18506936594E+02  0.22390186564E+02  0.10566000000E+00 0.  1.
        -14    1    4    4    0    0 -0.70434987805E+01  0.11829829999E+02  0.17897627634E+02  0.22580540910E+02  0.00000000000E+00 0.  1.
<mgrwt>
<rscale>  0 0.78936547E+02</rscale>
<asrwt>0</asrwt>
<pdfrwt beam="1">  1        2 0.13707370E-02 0.78936547E+02</pdfrwt>
<pdfrwt beam="2">  1       -1 0.26897716E-01 0.78936547E+02</pdfrwt>
<totfact> 0.10714305E+05</totfact>
</mgrwt>
</event>
<event>
 8    1  0.2389776E-020  0.8602030E+02  0.7818608E-02  0.1312786E+00
         -1   -1    0    0    0  501 -0.00000000000E+00  0.00000000000E+00  0.57036031161E+01  0.57036053429E+01  0.50400000000E-02 0.  1.
          2   -1    0    0  501    0  0.00000000000E+00 -0.00000000000E+00 -0.32433405848E+03  0.32433405849E+03  0.25500000000E-02 0. -1.
         24    2    1    2    0    0 -0.88817841970E-15  0.00000000000E+00 -0.31863045536E+03  0.33003766383E+03  0.86020302620E+02 0.  0.
         66    2    3    3    0    0  0.59403678354E+01  0.42409839236E+02 -0.17374951932E+03  0.17896026901E+03  0.19999963436E+01 0.  0.
        -13    1    3    3    0    0 -0.59403678354E+01 -0.42409839236E+02 -0.14488093604E+03  0.15107739482E+03  0.10566000000E+00 0.  1.
         13    1    4    4    0    0  0.19514628899E+01  0.14760018550E+02 -0.60213687730E+02  0.62027136877E+02  0.10566000000E+00 0. -1.
        -13    1    4    4    0    0  0.26854284920E+01  0.21526448737E+02 -0.90208957126E+02  0.92780744938E+02  0.10566000000E+00 0.  1.
        -14    1    4    4    0    0  0.13034764535E+01  0.61233719490E+01 -0.23326874465E+02  0.24152387195E+02  0.00000000000E+00 0.  1.
<mgrwt>
<rscale>  0 0.86020303E+02</rscale>
<asrwt>0</asrwt>
<pdfrwt beam="1">  1        2 0.49897533E-01 0.86020303E+02</pdfrwt>
<pdfrwt beam="2">  1       -1 0.87747783E-03 0.86020303E+02</pdfrwt>
<totfact> 0.21670041E+05</totfact>
</mgrwt>
</event>
<event>
 8    1  0.2389776E-020  0.8058961E+02  0.7818608E-02  0.1327386E+00
          2   -1    0    0  501    0  0.00000000000E+00  0.00000000000E+00  0.18489103649E+03  0.18489103651E+03  0.25500000000E-02 0. -1.
         -1   -1    0    0    0  501 -0.00000000000E+00 -0.00000000000E+00 -0.87817728287E+01  0.87817742749E+01  0.50400000000E-02 0.  1.
         24    2    1    2    0    0 -0.17763568394E-14  0.00000000000E+00  0.17610926366E+03  0.19367281078E+03  0.80589607823E+02 0.  0.
         66    2    3    3    0    0  0.11508132604E+02  0.34926724720E+02  0.12754995144E+03  0.13276032288E+03  0.20000003680E+01 0.  0.
        -13    1    3    3    0    0 -0.11508132604E+02 -0.34926724720E+02  0.48559312216E+02  0.60912487904E+02  0.10566000000E+00 0.  1.
         13    1    4    4    0    0  0.52894836738E+01  0.15337293650E+02  0.57142986298E+02  0.59401542583E+02  0.10566000000E+00 0. -1.
        -13    1    4    4    0    0  0.57354356744E+01  0.16398121202E+02  0.59333129945E+02  0.61824146371E+02  0.10566000000E+00 0.  1.
        -14    1    4    4    0    0  0.48321325600E+00  0.31913098673E+01  0.11073835200E+02  0.11534633924E+02  0.00000000000E+00 0.  1.
<mgrwt>
<rscale>  0 0.80589608E+02</rscale>
<asrwt>0</asrwt>
<pdfrwt beam="1">  1        2 0.28444774E-01 0.80589608E+02</pdfrwt>
<pdfrwt beam="2">  1       -1 0.13510421E-02 0.80589608E+02</pdfrwt>
<totfact> 0.21056867E+05</totfact>
</mgrwt>
</event>
<event>
 8    1  0.2389776E-020  0.8964912E+02  0.7818608E-02  0.1303704E+00
         -1   -1    0    0    0  501 -0.00000000000E+00  0.00000000000E+00  0.30721742154E+01  0.30721783495E+01  0.50400000000E-02 0.  1.
          2   -1    0    0  501    0  0.00000000000E+00 -0.00000000000E+00 -0.65401238230E+03  0.65401238231E+03  0.25500000000E-02 0. -1.
         24    2    1    2    0    0  0.17763568394E-14 -0.88817841970E-15 -0.65094020809E+03  0.65708456066E+03  0.89649123528E+02 0.  0.
         66    2    3    3    0    0  0.13352444098E+02  0.65622858308E+01 -0.63537495674E+03  0.63555226927E+03  0.19999921143E+01 0.  0.
        -13    1    3    3    0    0 -0.13352444098E+02 -0.65622858308E+01 -0.15565251351E+02  0.21532291387E+02  0.10566000000E+00 0.  1.
         13    1    4    4    0    0  0.88753566814E+01  0.44899416793E+01 -0.45645966703E+03  0.45656803471E+03  0.10566000000E+00 0. -1.
        -13    1    4    4    0    0  0.31224539086E+01  0.16806108208E+01 -0.12282725452E+03  0.12287847569E+03  0.10566000000E+00 0.  1.
        -14    1    4    4    0    0  0.13546335079E+01  0.39173333071E+00 -0.56088035190E+02  0.56105758870E+02  0.00000000000E+00 0.  1.
<mgrwt>
<rscale>  0 0.89649124E+02</rscale>
<asrwt>0</asrwt>
<pdfrwt beam="1">  1        2 0.10061718E+00 0.89649124E+02</pdfrwt>
<pdfrwt beam="2">  1       -1 0.47264303E-03 0.89649124E+02</pdfrwt>
<totfact> 0.24432882E+05</totfact>
</mgrwt>
</event>
<event>
 8    1  0.2389776E-020  0.8904546E+02  0.7818608E-02  0.1305180E+00
          2   -1    0    0  501    0  0.00000000000E+00  0.00000000000E+00  0.85092631873E+03  0.85092631873E+03  0.25500000000E-02 0. -1.
         -1   -1    0    0    0  501 -0.00000000000E+00 -0.00000000000E+00 -0.23295449818E+01  0.23295504338E+01  0.50400000000E-02 0.  1.
         24    2    1    2    0    0 -0.17763568394E-14  0.00000000000E+00  0.84859677375E+03  0.85325586917E+03  0.89045459475E+02 0.  0.
         66    2    3    3    0    0  0.15899973429E+02  0.10272200641E+02  0.81042096055E+03  0.81064447236E+03  0.19999994116E+01 0.  0.
        -13    1    3    3    0    0 -0.15899973429E+02 -0.10272200641E+02  0.38175813196E+02  0.42611396812E+02  0.10566000000E+00 0.  1.
         13    1    4    4    0    0  0.23761049217E+01  0.15492003725E+01  0.12326474817E+03  0.12329742577E+03  0.10566000000E+00 0. -1.
        -13    1    4    4    0    0  0.58869749800E+01  0.45349956464E+01  0.34449928811E+03  0.34457944415E+03  0.10566000000E+00 0.  1.
        -14    1    4    4    0    0  0.76368935268E+01  0.41880046225E+01  0.34265692428E+03  0.34276760244E+03  0.00000000000E+00 0.  1.
<mgrwt>
<rscale>  0 0.89045459E+02</rscale>
<asrwt>0</asrwt>
<pdfrwt beam="1">  1        2 0.13091170E+00 0.89045459E+02</pdfrwt>
<pdfrwt beam="2">  1       -1 0.35839206E-03 0.89045459E+02</pdfrwt>
<totfact> 0.26234235E+05</totfact>
</mgrwt>
</event>
<event>
 8    1  0.2389776E-020  0.8014900E+02  0.7818608E-02  0.1328629E+00
          2   -1    0    0  501    0  0.00000000000E+00  0.00000000000E+00  0.60519904484E+01  0.60519909856E+01  0.25500000000E-02 0. -1.
         -1   -1    0    0    0  501 -0.00000000000E+00 -0.00000000000E+00 -0.26536153033E+03  0.26536153038E+03  0.50400000000E-02 0.  1.
         24    2    1    2    0    0 -0.14210854715E-13 -0.88817841970E-15 -0.25930953989E+03  0.27141352137E+03  0.80148999403E+02 0.  0.
         66    2    3    3    0    0 -0.35786481407E+02 -0.52000670374E+01 -0.71449741717E+02  0.80104797362E+02  0.20000050579E+01 0.  0.
        -13    1    3    3    0    0  0.35786481407E+02  0.52000670374E+01 -0.18785979817E+03  0.19130872401E+03  0.10566000000E+00 0.  1.
         13    1    4    4    0    0 -0.27393116908E+01  0.10546244458E+00 -0.54232780595E+01  0.60776689456E+01  0.10566000000E+00 0. -1.
        -13    1    4    4    0    0 -0.23997513242E+02 -0.37972338949E+01 -0.48395655514E+02  0.54152103040E+02  0.10566000000E+00 0.  1.
         14    1    4    4    0    0 -0.90496564747E+01 -0.15082955871E+01 -0.17630808143E+02  0.19875025375E+02  0.00000000000E+00 0. -1.
<mgrwt>
<rscale>  0 0.80148999E+02</rscale>
<asrwt>0</asrwt>
<pdfrwt beam="1">  1        2 0.93107570E-03 0.80148999E+02</pdfrwt>
<pdfrwt beam="2">  1       -1 0.40824842E-01 0.80148999E+02</pdfrwt>
<totfact> 0.90205156E+04</totfact>
</mgrwt>
</event>
<event>
 8    1  0.2389776E-020  0.7888606E+02  0.7818608E-02  0.1332243E+00
         -1   -1    0    0    0  501 -0.00000000000E+00  0.00000000000E+00  0.13113219801E+03  0.13113219810E+03  0.50400000000E-02 0.  1.
          2   -1    0    0  501    0  0.00000000000E+00 -0.00000000000E+00 -0.11864001187E+02  0.11864001462E+02  0.25500000000E-02 0. -1.
         24    2    1    2    0    0 -0.35527136788E-14  0.88817841970E-15  0.11926819682E+03  0.14299619957E+03  0.78886059083E+02 0.  0.
         66    2    3    3    0    0 -0.25212225326E+02  0.68862171734E+01  0.61849383498E+01  0.26931946658E+02  0.19999988848E+01 0.  0.
        -13    1    3    3    0    0  0.25212225326E+02 -0.68862171734E+01  0.11308325847E+03  0.11606425291E+03  0.10566000000E+00 0.  1.
         13    1    4    4    0    0 -0.93247440523E+01  0.27263091602E+01  0.18462228474E+01  0.98895559110E+01  0.10566000000E+00 0. -1.
        -13    1    4    4    0    0 -0.22833536538E+01  0.77504000449E+00  0.11092878661E+01  0.26563272619E+01  0.10566000000E+00 0.  1.
        -14    1    4    4    0    0 -0.13604127620E+02  0.33848680087E+01  0.32294276363E+01  0.14386063485E+02  0.00000000000E+00 0.  1.
<mgrwt>
<rscale>  0 0.78886059E+02</rscale>
<asrwt>0</asrwt>
<pdfrwt beam="1">  1        2 0.18252310E-02 0.78886059E+02</pdfrwt>
<pdfrwt beam="2">  1       -1 0.20174184E-01 0.78886059E+02</pdfrwt>
<totfact> 0.11551263E+05</totfact>
</mgrwt>
</event>
<event>
 8    1  0.2389776E-020  0.8112936E+02  0.7818608E-02  0.1325877E+00
          2   -1    0    0  501    0  0.00000000000E+00  0.00000000000E+00  0.38733477098E+02  0.38733477182E+02  0.25500000000E-02 0. -1.
         -1   -1    0    0    0  501 -0.00000000000E+00 -0.00000000000E+00 -0.42482456909E+02  0.42482457208E+02  0.50400000000E-02 0.  1.
         24    2    1    2    0    0  0.35527136788E-14 -0.35527136788E-14 -0.37489798110E+01  0.81215934390E+02  0.81129360587E+02 0.  0.
         66    2    3    3    0    0 -0.28047990010E+02 -0.28638254932E+02  0.41846693224E+01  0.40352829494E+02  0.20000004175E+01 0.  0.
        -13    1    3    3    0    0  0.28047990010E+02  0.28638254932E+02 -0.79336491334E+01  0.40863104896E+02  0.10566000000E+00 0.  1.
         13    1    4    4    0    0 -0.30029553316E+01 -0.33228557445E+01  0.71257459425E-01  0.44805527208E+01  0.10566000000E+00 0. -1.
        -13    1    4    4    0    0 -0.58516093871E+01 -0.59706482036E+01  0.15270485851E+01  0.84990007534E+01  0.10566000000E+00 0.  1.
         14    1    4    4    0    0 -0.19193425291E+02 -0.19344750984E+02  0.25863632778E+01  0.27373276020E+02  0.00000000000E+00 0. -1.
<mgrwt>
<rscale>  0 0.81129361E+02</rscale>
<asrwt>0</asrwt>
<pdfrwt beam="1">  1        2 0.59589965E-02 0.81129361E+02</pdfrwt>
<pdfrwt beam="2">  1       -1 0.65357626E-02 0.81129361E+02</pdfrwt>
<totfact> 0.13621888E+05</totfact>
</mgrwt>
</event>
<event>
 8    1  0.2389776E-020  0.8142306E+02  0.7818608E-02  0.1325061E+00
         -1   -1    0    0    0  501 -0.00000000000E+00  0.00000000000E+00  0.36795456901E+02  0.36795457246E+02  0.50400000000E-02 0.  1.
          2   -1    0    0  501    0  0.00000000000E+00 -0.00000000000E+00 -0.45044382914E+02  0.45044382986E+02  0.25500000000E-02 0. -1.
         24    2    1    2    0    0 -0.35527136788E-14  0.35527136788E-14 -0.82489260126E+01  0.81839840232E+02  0.81423059810E+02 0.  0.
         66    2    3    3    0    0 -0.20753844498E+02 -0.31477009319E+02 -0.19499002332E+02  0.42493943898E+02  0.19999997541E+01 0.  0.
        -13    1    3    3    0    0  0.20753844498E+02  0.31477009319E+02  0.11250076319E+02  0.39345896334E+02  0.10566000000E+00 0.  1.
         13    1    4    4    0    0 -0.14905499649E+02 -0.23270962919E+02 -0.13683617810E+02  0.30837707363E+02  0.10566000000E+00 0. -1.
        -13    1    4    4    0    0 -0.96904880406E+00 -0.14091838506E+01 -0.71029393294E+00  0.18548682477E+01  0.10566000000E+00 0.  1.
        -14    1    4    4    0    0 -0.48792960443E+01 -0.67968625492E+01 -0.51050905884E+01  0.98013682879E+01  0.00000000000E+00 0.  1.
<mgrwt>
<rscale>  0 0.81423060E+02</rscale>
<asrwt>0</asrwt>
<pdfrwt beam="1">  1        2 0.69299051E-02 0.81423060E+02</pdfrwt>
<pdfrwt beam="2">  1       -1 0.56608396E-02 0.81423060E+02</pdfrwt>
<totfact> 0.13919651E+05</totfact>
</mgrwt>
</event>
<event>
 8    1  0.2389776E-020  0.7967022E+02  0.7818608E-02  0.1329990E+00
         -1   -1    0    0    0  501 -0.00000000000E+00  0.00000000000E+00  0.10494963920E+02  0.10494965130E+02  0.50400000000E-02 0.  1.
          2   -1    0    0  501    0  0.00000000000E+00 -0.00000000000E+00 -0.15119974200E+03  0.15119974202E+03  0.25500000000E-02 0. -1.
         24    2    1    2    0    0  0.00000000000E+00  0.88817841970E-15 -0.14070477808E+03  0.16169470715E+03  0.79670218692E+02 0.  0.
         66    2    3    3    0    0 -0.32338267029E+02  0.51357242895E+01 -0.11635109331E+03  0.12088720411E+03  0.20000062945E+01 0.  0.
        -13    1    3    3    0    0  0.32338267029E+02 -0.51357242895E+01 -0.24353684769E+02  0.40807503039E+02  0.10566000000E+00 0.  1.
         13    1    4    4    0    0 -0.10157556238E+02  0.92187002842E+00 -0.36293433012E+02  0.37699472634E+02  0.10566000000E+00 0. -1.
        -13    1    4    4    0    0 -0.96675559478E+00  0.12110438140E+00 -0.28305753167E+01  0.29954304048E+01  0.10566000000E+00 0.  1.
         14    1    4    4    0    0 -0.21213955197E+02  0.40927498797E+01 -0.77227084981E+02  0.80192301073E+02  0.00000000000E+00 0. -1.
<mgrwt>
<rscale>  0 0.79670219E+02</rscale>
<asrwt>0</asrwt>
<pdfrwt beam="1">  1        2 0.23261497E-01 0.79670219E+02</pdfrwt>
<pdfrwt beam="2">  1       -1 0.16146100E-02 0.79670219E+02</pdfrwt>
<totfact> 0.20302789E+05</totfact>
</mgrwt>
</event>
<event>
 8    1  0.2389776E-020  0.8014855E+02  0.7818608E-02  0.1328630E+00
         -1   -1    0    0    0  501 -0.00000000000E+00  0.00000000000E+00  0.16487753755E+01  0.16487830786E+01  0.50400000000E-02 0.  1.
          2   -1    0    0  501    0  0.00000000000E+00 -0.00000000000E+00 -0.97402213839E+03  0.97402213840E+03  0.25500000000E-02 0. -1.
         24    2    1    2    0    0  0.00000000000E+00  0.00000000000E+00 -0.97237336302E+03  0.97567092147E+03  0.80148548993E+02 0.  0.
         66    2    3    3    0    0 -0.21369513118E+02  0.16470587174E+02 -0.84678610632E+03  0.84721818097E+03  0.19999969091E+01 0.  0.
        -13    1    3    3    0    0  0.21369513118E+02 -0.16470587174E+02 -0.12558725670E+03  0.12845274050E+03  0.10566000000E+00 0.  1.
         13    1    4    4    0    0 -0.25278921746E+01  0.20004379860E+01 -0.10331472167E+03  0.10336505632E+03  0.10566000000E+00 0. -1.
        -13    1    4    4    0    0 -0.18635018412E+02  0.14504749057E+02 -0.73803411273E+03  0.73841181896E+03  0.10566000000E+00 0.  1.
        -14    1    4    4    0    0 -0.20660253159E+00 -0.34599869231E-01 -0.54372719210E+01  0.54413056981E+01  0.00000000000E+00 0.  1.
<mgrwt>
<rscale>  0 0.80148549E+02</rscale>
<asrwt>0</asrwt>
<pdfrwt beam="1">  1        2 0.14984910E+00 0.80148549E+02</pdfrwt>
<pdfrwt beam="2">  1       -1 0.25365912E-03 0.80148549E+02</pdfrwt>
<totfact> 0.35014809E+05</totfact>
</mgrwt>
</event>
<event>
 8    1  0.2389776E-020  0.7809841E+02  0.7818608E-02  0.1334536E+00
          2   -1    0    0  501    0  0.00000000000E+00  0.00000000000E+00  0.54889484711E+03  0.54889484711E+03  0.25500000000E-02 0. -1.
         -1   -1    0    0    0  501 -0.00000000000E+00 -0.00000000000E+00 -0.27780167260E+01  0.27780212979E+01  0.50400000000E-02 0.  1.
         24    2    1    2    0    0  0.00000000000E+00  0.00000000000E+00  0.54611683038E+03  0.55167286841E+03  0.78098407892E+02 0.  0.
         66    2    3    3    0    0 -0.92874008709E+01  0.24024266369E+02  0.48031820653E+03  0.48101247459E+03  0.20000006498E+01 0.  0.
        -13    1    3    3    0    0  0.92874008709E+01 -0.24024266369E+02  0.65798623856E+02  0.70660393821E+02  0.10566000000E+00 0.  1.
         13    1    4    4    0    0 -0.55833116003E+01  0.13256561859E+02  0.28271266835E+03  0.28307838810E+03  0.10566000000E+00 0. -1.
        -13    1    4    4    0    0 -0.54770299080E+00  0.21670634167E+01  0.39525372703E+02  0.39588664966E+02  0.10566000000E+00 0.  1.
         14    1    4    4    0    0 -0.31563862798E+01  0.86006410932E+01  0.15808016547E+03  0.15834542152E+03  0.00000000000E+00 0. -1.
<mgrwt>
<rscale>  0 0.78098408E+02</rscale>
<asrwt>0</asrwt>
<pdfrwt beam="1">  1        2 0.84445409E-01 0.78098408E+02</pdfrwt>
<pdfrwt beam="2">  1       -1 0.42738730E-03 0.78098408E+02</pdfrwt>
<totfact> 0.33367961E+05</totfact>
</mgrwt>
</event>
<event>
 8    1  0.2389776E-020  0.7912999E+02  0.7818608E-02  0.1331539E+00
          2   -1    0    0  501    0  0.00000000000E+00  0.00000000000E+00  0.19176241058E+04  0.19176241058E+04  0.25500000000E-02 0. -1.
         -1   -1    0    0    0  501 -0.00000000000E+00 -0.00000000000E+00 -0.81630894472E+00  0.81632450338E+00  0.50400000000E-02 0.  1.
         24    2    1    2    0    0  0.00000000000E+00  0.17763568394E-14  0.19168077969E+04  0.19184404303E+04  0.79129985113E+02 0.  0.
         66    2    3    3    0    0 -0.83438404659E+01  0.10244763071E+02  0.18625150904E+04  0.18625630289E+04  0.20000000530E+01 0.  0.
        -13    1    3    3    0    0  0.83438404659E+01 -0.10244763071E+02  0.54292706516E+02  0.55877401416E+02  0.10566000000E+00 0.  1.
         13    1    4    4    0    0 -0.98083676677E+00  0.17439088694E+01  0.34026807705E+03  0.34027397591E+03  0.10566000000E+00 0. -1.
        -13    1    4    4    0    0 -0.14798440575E+01  0.11194510112E+01  0.22212238148E+03  0.22213015695E+03  0.10566000000E+00 0.  1.
         14    1    4    4    0    0 -0.58831596417E+01  0.73814031901E+01  0.13001246318E+04  0.13001588961E+04  0.00000000000E+00 0. -1.
<mgrwt>
<rscale>  0 0.79129985E+02</rscale>
<asrwt>0</asrwt>
<pdfrwt beam="1">  1        2 0.29501888E+00 0.79129985E+02</pdfrwt>
<pdfrwt beam="2">  1       -1 0.12558728E-03 0.79129985E+02</pdfrwt>
<totfact> 0.29636410E+05</totfact>
</mgrwt>
</event>
<event>
 8    1  0.2389776E-020  0.8225428E+02  0.7818608E-02  0.1322773E+00
         -1   -1    0    0    0  501 -0.00000000000E+00  0.00000000000E+00  0.54835115087E+01  0.54835138249E+01  0.50400000000E-02 0.  1.
          2   -1    0    0  501    0  0.00000000000E+00 -0.00000000000E+00 -0.30845951151E+03  0.30845951152E+03  0.25500000000E-02 0. -1.
         24    2    1    2    0    0  0.00000000000E+00  0.00000000000E+00 -0.30297600000E+03  0.31394302534E+03  0.82254280048E+02 0.  0.
         66    2    3    3    0    0  0.34835877451E+02 -0.12962918803E+02 -0.21854567606E+03  0.22169300428E+03  0.20000001246E+01 0.  0.
        -13    1    3    3    0    0 -0.34835877451E+02  0.12962918803E+02 -0.84430323935E+02  0.92250021059E+02  0.10566000000E+00 0.  1.
         13    1    4    4    0    0  0.25303544007E+01 -0.73677516890E+00 -0.16739886486E+02  0.16946400640E+02  0.10566000000E+00 0. -1.
        -13    1    4    4    0    0  0.32232836897E+01 -0.82385603314E+00 -0.17949246308E+02  0.18255270570E+02  0.10566000000E+00 0.  1.
        -14    1    4    4    0    0  0.29082239360E+02 -0.11402287601E+02 -0.18385654327E+03  0.18649133307E+03  0.00000000000E+00 0.  1.
<mgrwt>
<rscale>  0 0.82254280E+02</rscale>
<asrwt>0</asrwt>
<pdfrwt beam="1">  1        2 0.47455296E-01 0.82254280E+02</pdfrwt>
<pdfrwt beam="2">  1       -1 0.84361758E-03 0.82254280E+02</pdfrwt>
<totfact> 0.23941067E+05</totfact>
</mgrwt>
</event>
<event>
 8    1  0.2389776E-020  0.7914878E+02  0.7818608E-02  0.1331485E+00
          2   -1    0    0  501    0  0.00000000000E+00  0.00000000000E+00  0.12483143404E+02  0.12483143665E+02  0.25500000000E-02 0. -1.
         -1   -1    0    0    0  501 -0.00000000000E+00 -0.00000000000E+00 -0.12545976589E+03  0.12545976599E+03  0.50400000000E-02 0.  1.
         24    2    1    2    0    0  0.17763568394E-14  0.00000000000E+00 -0.11297662248E+03  0.13794290965E+03  0.79148778235E+02 0.  0.
         66    2    3    3    0    0 -0.14547487787E+02 -0.35137538303E+02 -0.37604223552E+02  0.53519656438E+02  0.19999993380E+01 0.  0.
        -13    1    3    3    0    0  0.14547487787E+02  0.35137538303E+02 -0.75372398931E+02  0.84423253216E+02  0.10566000000E+00 0.  1.
         13    1    4    4    0    0 -0.11782496811E+02 -0.29623410901E+02 -0.31160220113E+02  0.44579638693E+02  0.10566000000E+00 0. -1.
        -13    1    4    4    0    0 -0.46255937228E+00 -0.12249396292E+01 -0.11240418686E+01  0.17288934109E+01  0.10566000000E+00 0. -1.
         14    1    4    4    0    0 -0.23024316042E+01 -0.42891877721E+01 -0.53199615712E+01  0.72111243337E+01  0.00000000000E+00 0. -1.
<mgrwt>
<rscale>  0 0.79148778E+02</rscale>
<asrwt>0</asrwt>
<pdfrwt beam="1">  1        2 0.19204837E-02 0.79148778E+02</pdfrwt>
<pdfrwt beam="2">  1       -1 0.19301502E-01 0.79148778E+02</pdfrwt>
<totfact> 0.11574856E+05</totfact>
</mgrwt>
</event>
<event>
 8    1  0.2389776E-020  0.8135066E+02  0.7818608E-02  0.1325262E+00
         -1   -1    0    0    0  501 -0.00000000000E+00  0.00000000000E+00  0.14811845769E+01  0.14811931516E+01  0.50400000000E-02 0.  1.
          2   -1    0    0  501    0  0.00000000000E+00 -0.00000000000E+00 -0.11169962784E+04  0.11169962784E+04  0.25500000000E-02 0. -1.
         24    2    1    2    0    0 -0.17763568394E-14 -0.17763568394E-14 -0.11155150938E+04  0.11184774716E+04  0.81350659665E+02 0.  0.
         66    2    3    3    0    0 -0.12744306968E+02 -0.14637348840E+02 -0.10491811862E+04  0.10493625831E+04  0.20000002813E+01 0.  0.
        -13    1    3    3    0    0  0.12744306968E+02  0.14637348840E+02 -0.66333907654E+02  0.69114888482E+02  0.10566000000E+00 0.  1.
         13    1    4    4    0    0 -0.70327316046E+01 -0.82524445589E+01 -0.61059932624E+03  0.61069559563E+03  0.10566000000E+00 0. -1.
        -13    1    4    4    0    0 -0.38302850986E+01 -0.35495590983E+01 -0.25246258557E+03  0.25251661080E+03  0.10566000000E+00 0.  1.
        -14    1    4    4    0    0 -0.18812902647E+01 -0.28353451826E+01 -0.18611927436E+03  0.18615037664E+03  0.00000000000E+00 0.  1.
<mgrwt>
<rscale>  0 0.81350660E+02</rscale>
<asrwt>0</asrwt>
<pdfrwt beam="1">  1        2 0.17184491E+00 0.81350660E+02</pdfrwt>
<pdfrwt beam="2">  1       -1 0.22787610E-03 0.81350660E+02</pdfrwt>
<totfact> 0.33731479E+05</totfact>
</mgrwt>
</event>
<event>
 8    1  0.2389776E-020  0.7908487E+02  0.7818608E-02  0.1331669E+00
         -1   -1    0    0    0  501 -0.00000000000E+00  0.00000000000E+00  0.65212612147E+02  0.65212612341E+02  0.50400000000E-02 0.  1.
          2   -1    0    0  501    0  0.00000000000E+00 -0.00000000000E+00 -0.23977020582E+02  0.23977020718E+02  0.25500000000E-02 0. -1.
         24    2    1    2    0    0 -0.35527136788E-14  0.00000000000E+00  0.41235591564E+02  0.89189633059E+02  0.79084869815E+02 0.  0.
         66    2    3    3    0    0 -0.20812086322E+02 -0.13653259232E+02 -0.13983450264E+02  0.28619771170E+02  0.19999989599E+01 0.  0.
        -13    1    3    3    0    0  0.20812086322E+02  0.13653259232E+02  0.55219041829E+02  0.60569861889E+02  0.10566000000E+00 0.  1.
         13    1    4    4    0    0 -0.10302313256E+02 -0.59708050840E+01 -0.58741036805E+01  0.13277967836E+02  0.10566000000E+00 0.  1.
        -13    1    4    4    0    0 -0.36890478739E+01 -0.26631008648E+01 -0.30119729757E+01  0.54575017796E+01  0.10566000000E+00 0. -1.
        -14    1    4    4    0    0 -0.68207251920E+01 -0.50193532830E+01 -0.50973736081E+01  0.98843015547E+01  0.00000000000E+00 0.  1.
<mgrwt>
<rscale>  0 0.79084870E+02</rscale>
<asrwt>0</asrwt>
<pdfrwt beam="1">  1        2 0.36887724E-02 0.79084870E+02</pdfrwt>
<pdfrwt beam="2">  1       -1 0.10032710E-01 0.79084870E+02</pdfrwt>
<totfact> 0.13300612E+05</totfact>
</mgrwt>
</event>
<event>
 8    1  0.2389776E-020  0.7958186E+02  0.7818608E-02  0.1330242E+00
         -1   -1    0    0    0  501 -0.00000000000E+00  0.00000000000E+00  0.22032482288E+02  0.22032482865E+02  0.50400000000E-02 0.  1.
          2   -1    0    0  501    0  0.00000000000E+00 -0.00000000000E+00 -0.71862895967E+02  0.71862896012E+02  0.25500000000E-02 0. -1.
         24    2    1    2    0    0 -0.35527136788E-14 -0.35527136788E-14 -0.49830413679E+02  0.93895378877E+02  0.79581857525E+02 0.  0.
         66    2    3    3    0    0 -0.21596067696E+02 -0.21451782630E+02 -0.55121091923E+02  0.62999237399E+02  0.20000050468E+01 0.  0.
        -13    1    3    3    0    0  0.21596067696E+02  0.21451782630E+02  0.52906782443E+01  0.30896141478E+02  0.10566000000E+00 0.  1.
         13    1    4    4    0    0 -0.16165203678E+01 -0.17510371687E+01 -0.38566404653E+01  0.45347666952E+01  0.10566000000E+00 0. -1.
        -13    1    4    4    0    0 -0.32546533027E+01 -0.37962300475E+01 -0.10134227698E+02  0.11301232931E+02  0.10566000000E+00 0.  1.
         14    1    4    4    0    0 -0.16724894025E+02 -0.15904515414E+02 -0.41130223760E+02  0.47163237773E+02  0.00000000000E+00 0. -1.
<mgrwt>
<rscale>  0 0.79581858E+02</rscale>
<asrwt>0</asrwt>
<pdfrwt beam="1">  1        2 0.11055830E-01 0.79581858E+02</pdfrwt>
<pdfrwt beam="2">  1       -1 0.33896128E-02 0.79581858E+02</pdfrwt>
<totfact> 0.16482814E+05</totfact>
</mgrwt>
</event>
<event>
 8    1  0.2389776E-020  0.8186447E+02  0.7818608E-02  0.1323842E+00
          2   -1    0    0  501    0  0.00000000000E+00  0.00000000000E+00  0.18037648187E+03  0.18037648188E+03  0.25500000000E-02 0. -1.
         -1   -1    0    0    0  501 -0.00000000000E+00 -0.00000000000E+00 -0.92886151698E+01  0.92886165371E+01  0.50400000000E-02 0.  1.
         24    2    1    2    0    0  0.00000000000E+00  0.00000000000E+00  0.17108786670E+03  0.18966509842E+03  0.81864469878E+02 0.  0.
         66    2    3    3    0    0  0.42890409113E+01  0.24597230323E+02  0.16066917147E+03  0.16260996978E+03  0.19999997348E+01 0.  0.
        -13    1    3    3    0    0 -0.42890409113E+01 -0.24597230323E+02  0.10418695222E+02  0.27055128639E+02  0.10566000000E+00 0.  1.
         13    1    4    4    0    0  0.14046332726E+01  0.12529255432E+02  0.79831380872E+02  0.80820886981E+02  0.10566000000E+00 0. -1.
        -13    1    4    4    0    0  0.23402601680E+01  0.10890792619E+02  0.72038509523E+02  0.72894747409E+02  0.10566000000E+00 0.  1.
        -14    1    4    4    0    0  0.54414747076E+00  0.11771822718E+01  0.87992810786E+01  0.88943353923E+01  0.00000000000E+00 0.  1.
<mgrwt>
<rscale>  0 0.81864470E+02</rscale>
<asrwt>0</asrwt>
<pdfrwt beam="1">  1        2 0.27750227E-01 0.81864470E+02</pdfrwt>
<pdfrwt beam="2">  1       -1 0.14290179E-02 0.81864470E+02</pdfrwt>
<totfact> 0.20030034E+05</totfact>
</mgrwt>
</event>
<event>
 8    1  0.2389776E-020  0.7932559E+02  0.7818608E-02  0.1330976E+00
          2   -1    0    0  501    0  0.00000000000E+00  0.00000000000E+00  0.14339319282E+03  0.14339319285E+03  0.25500000000E-02 0. -1.
         -1   -1    0    0    0  501 -0.00000000000E+00 -0.00000000000E+00 -0.10970794676E+02  0.10970795834E+02  0.50400000000E-02 0.  1.
         24    2    1    2    0    0 -0.88817841970E-15 -0.71054273576E-14  0.13242239815E+03  0.15436398868E+03  0.79325591520E+02 0.  0.
         66    2    3    3    0    0  0.36137781325E+01  0.34131307874E+02  0.10483643964E+03  0.11032989007E+03  0.19999992448E+01 0.  0.
        -13    1    3    3    0    0 -0.36137781325E+01 -0.34131307874E+02  0.27585958510E+02  0.44034098611E+02  0.10566000000E+00 0.  1.
         13    1    4    4    0    0  0.26605010545E+01  0.18512653259E+02  0.58006994078E+02  0.60947675284E+02  0.10566000000E+00 0. -1.
        -13    1    4    4    0    0  0.70752805191E+00  0.69669250981E+01  0.21950954420E+02  0.23041141579E+02  0.10566000000E+00 0.  1.
        -14    1    4    4    0    0  0.24574902606E+00  0.86517295175E+01  0.24878491139E+02  0.26341073205E+02  0.00000000000E+00 0.  1.
<mgrwt>
<rscale>  0 0.79325592E+02</rscale>
<asrwt>0</asrwt>
<pdfrwt beam="1">  1        2 0.22060490E-01 0.79325592E+02</pdfrwt>
<pdfrwt beam="2">  1       -1 0.16878148E-02 0.79325592E+02</pdfrwt>
<totfact> 0.20192059E+05</totfact>
</mgrwt>
</event>
<event>
 8    1  0.2389776E-020  0.8324766E+02  0.7818608E-02  0.1320080E+00
         -1   -1    0    0    0  501 -0.00000000000E+00  0.00000000000E+00  0.83779998120E+02  0.83779998272E+02  0.50400000000E-02 0.  1.
          2   -1    0    0  501    0  0.00000000000E+00 -0.00000000000E+00 -0.20679677790E+02  0.20679677947E+02  0.25500000000E-02 0. -1.
         24    2    1    2    0    0  0.88817841970E-15  0.00000000000E+00  0.63100320330E+02  0.10445967622E+03  0.83247663812E+02 0.  0.
         66    2    3    3    0    0  0.34370276087E+01 -0.36422697670E+02  0.67208676619E+01  0.37250451320E+02  0.19999992637E+01 0.  0.
        -13    1    3    3    0    0 -0.34370276087E+01  0.36422697670E+02  0.56379452668E+02  0.67209224899E+02  0.10566000000E+00 0.  1.
         13    1    4    4    0    0 -0.84676514039E-02 -0.26836118619E+00  0.80252386741E-01  0.29948941308E+00  0.10566000000E+00 0. -1.
        -13    1    4    4    0    0  0.24862937374E+00 -0.95022855515E+01  0.16920151390E+01  0.96555334671E+01  0.10566000000E+00 0. -1.
         14    1    4    4    0    0  0.31968658864E+01 -0.26652050933E+02  0.49486001361E+01  0.27295428440E+02  0.00000000000E+00 0. -1.
<mgrwt>
<rscale>  0 0.83247664E+02</rscale>
<asrwt>0</asrwt>
<pdfrwt beam="1">  1        2 0.31814889E-02 0.83247664E+02</pdfrwt>
<pdfrwt beam="2">  1       -1 0.12889230E-01 0.83247664E+02</pdfrwt>
<totfact> 0.11147419E+05</totfact>
</mgrwt>
</event>
<event>
 8    1  0.2389776E-020  0.8101319E+02  0.7818608E-02  0.1326200E+00
         -1   -1    0    0    0  501 -0.00000000000E+00  0.00000000000E+00  0.14770254559E+02  0.14770255419E+02  0.50400000000E-02 0.  1.
          2   -1    0    0  501    0  0.00000000000E+00 -0.00000000000E+00 -0.11108706248E+03  0.11108706251E+03  0.25500000000E-02 0. -1.
         24    2    1    2    0    0 -0.35527136788E-14  0.00000000000E+00 -0.96316807922E+02  0.12585731793E+03  0.81013190211E+02 0.  0.
         66    2    3    3    0    0  0.30790542456E+02  0.19680983511E+02 -0.21128365651E+02  0.42258803398E+02  0.20000032080E+01 0.  0.
        -13    1    3    3    0    0 -0.30790542456E+02 -0.19680983511E+02 -0.75188442271E+02  0.83598514531E+02  0.10566000000E+00 0.  1.
         13    1    4    4    0    0  0.59692076471E+01  0.31125040223E+01 -0.39400274461E+01  0.78009038922E+01  0.10566000000E+00 0. -1.
        -13    1    4    4    0    0  0.65432453138E+01  0.48749725894E+01 -0.43917366835E+01  0.92670346992E+01  0.10566000000E+00 0.  1.
         14    1    4    4    0    0  0.18278089496E+02  0.11693506900E+02 -0.12796601521E+02  0.25190864807E+02  0.00000000000E+00 0. -1.
<mgrwt>
<rscale>  0 0.81013190E+02</rscale>
<asrwt>0</asrwt>
<pdfrwt beam="1">  1        2 0.17090317E-01 0.81013190E+02</pdfrwt>
<pdfrwt beam="2">  1       -1 0.22723470E-02 0.81013190E+02</pdfrwt>
<totfact> 0.17661452E+05</totfact>
</mgrwt>
</event>
<event>
 8    1  0.2389776E-020  0.8514418E+02  0.7818608E-02  0.1315056E+00
          2   -1    0    0  501    0  0.00000000000E+00  0.00000000000E+00  0.87713466166E+03  0.87713466166E+03  0.25500000000E-02 0. -1.
         -1   -1    0    0    0  501 -0.00000000000E+00 -0.00000000000E+00 -0.20662509077E+01  0.20662570545E+01  0.50400000000E-02 0.  1.
         24    2    1    2    0    0  0.00000000000E+00  0.00000000000E+00  0.87506841075E+03  0.87920091872E+03  0.85144183468E+02 0.  0.
         66    2    3    3    0    0 -0.27426405186E+02  0.21853545084E+02  0.68658560387E+03  0.68748351005E+03  0.20000019225E+01 0.  0.
        -13    1    3    3    0    0  0.27426405186E+02 -0.21853545084E+02  0.18848280688E+03  0.19171740867E+03  0.10566000000E+00 0.  1.
         13    1    4    4    0    0 -0.17820063661E+02  0.14542376432E+02  0.46710313936E+03  0.46766910241E+03  0.10566000000E+00 0. -1.
        -13    1    4    4    0    0 -0.33064916746E+01  0.25261273886E+01  0.73670765702E+02  0.73788258483E+02  0.10566000000E+00 0.  1.
         14    1    4    4    0    0 -0.62998498508E+01  0.47850412640E+01  0.14581169881E+03  0.14602614916E+03  0.00000000000E+00 0. -1.
<mgrwt>
<rscale>  0 0.85144183E+02</rscale>
<asrwt>0</asrwt>
<pdfrwt beam="1">  1        2 0.13494354E+00 0.85144183E+02</pdfrwt>
<pdfrwt beam="2">  1       -1 0.31788584E-03 0.85144183E+02</pdfrwt>
<totfact> 0.29620227E+05</totfact>
</mgrwt>
</event>
<event>
 8    1  0.2389776E-020  0.8040621E+02  0.7818608E-02  0.1327903E+00
          2   -1    0    0  501    0  0.00000000000E+00  0.00000000000E+00  0.92155290719E+01  0.92155294247E+01  0.25500000000E-02 0. -1.
         -1   -1    0    0    0  501 -0.00000000000E+00 -0.00000000000E+00 -0.17538759639E+03  0.17538759646E+03  0.50400000000E-02 0.  1.
         24    2    1    2    0    0  0.35527136788E-14  0.35527136788E-14 -0.16617206732E+03  0.18460312589E+03  0.80406207040E+02 0.  0.
         66    2    3    3    0    0 -0.24311895927E+02 -0.31903822353E+02 -0.77820748628E+02  0.87572775776E+02  0.19999939490E+01 0.  0.
        -13    1    3    3    0    0  0.24311895927E+02  0.31903822353E+02 -0.88351318690E+02  0.97030350110E+02  0.10566000000E+00 0.  1.
         13    1    4    4    0    0 -0.12832935426E+02 -0.16036096977E+02 -0.41058297837E+02  0.45908992836E+02  0.10566000000E+00 0. -1.
        -13    1    4    4    0    0 -0.10034276885E+01 -0.17328751587E+01 -0.34287289171E+01  0.39720359344E+01  0.10566000000E+00 0.  1.
         14    1    4    4    0    0 -0.10475532813E+02 -0.14134850218E+02 -0.33333721874E+02  0.37691747006E+02  0.00000000000E+00 0. -1.
<mgrwt>
<rscale>  0 0.80406207E+02</rscale>
<asrwt>0</asrwt>
<pdfrwt beam="1">  1        2 0.14177739E-02 0.80406207E+02</pdfrwt>
<pdfrwt beam="2">  1       -1 0.26982705E-01 0.80406207E+02</pdfrwt>
<totfact> 0.10215392E+05</totfact>
</mgrwt>
</event>
<event>
 8    1  0.2389776E-020  0.8414217E+02  0.7818608E-02  0.1317691E+00
         -1   -1    0    0    0  501 -0.00000000000E+00  0.00000000000E+00  0.12856195657E+02  0.12856196645E+02  0.50400000000E-02 0.  1.
          2   -1    0    0  501    0  0.00000000000E+00 -0.00000000000E+00 -0.13767495029E+03  0.13767495031E+03  0.25500000000E-02 0. -1.
         24    2    1    2    0    0  0.00000000000E+00  0.00000000000E+00 -0.12481875463E+03  0.15053114696E+03  0.84142169550E+02 0.  0.
         66    2    3    3    0    0 -0.15652024076E+02  0.35004465355E+02 -0.93310668080E+02  0.10090182967E+03  0.20000001200E+01 0.  0.
        -13    1    3    3    0    0  0.15652024076E+02 -0.35004465355E+02 -0.31508086554E+02  0.49629317291E+02  0.10566000000E+00 0.  1.
         13    1    4    4    0    0 -0.11784922597E+02  0.25122084145E+02 -0.67378092444E+02  0.72868525564E+02  0.10566000000E+00 0. -1.
        -13    1    4    4    0    0 -0.59109446488E+00  0.17417140767E+01 -0.37494701831E+01  0.41776370452E+01  0.10566000000E+00 0.  1.
         14    1    4    4    0    0 -0.32760070141E+01  0.81406671326E+01 -0.22183105453E+02  0.23855667059E+02  0.00000000000E+00 0. -1.
<mgrwt>
<rscale>  0 0.84142170E+02</rscale>
<asrwt>0</asrwt>
<pdfrwt beam="1">  1        2 0.21180761E-01 0.84142170E+02</pdfrwt>
<pdfrwt beam="2">  1       -1 0.19778764E-02 0.84142170E+02</pdfrwt>
<totfact> 0.17037077E+05</totfact>
</mgrwt>
</event>
<event>
 8    1  0.2389776E-020  0.7873050E+02  0.7818608E-02  0.1332693E+00
          2   -1    0    0  501    0  0.00000000000E+00  0.00000000000E+00  0.73093734061E+03  0.73093734062E+03  0.25500000000E-02 0. -1.
         -1   -1    0    0    0  501 -0.00000000000E+00 -0.00000000000E+00 -0.21200457878E+01  0.21200517786E+01  0.50400000000E-02 0.  1.
         24    2    1    2    0    0  0.00000000000E+00  0.00000000000E+00  0.72881729483E+03  0.73305739240E+03  0.78730497967E+02 0.  0.
         66    2    3    3    0    0  0.26882801535E+02 -0.17604213273E+02  0.57594774712E+03  0.57684694741E+03  0.19999949085E+01 0.  0.
        -13    1    3    3    0    0 -0.26882801535E+02  0.17604213273E+02  0.15286954771E+03  0.15621044499E+03  0.10566000000E+00 0.  1.
         13    1    4    4    0    0  0.37573794596E+01 -0.29769022044E+01  0.78547378998E+02  0.78693594140E+02  0.10566000000E+00 0.  1.
        -13    1    4    4    0    0  0.90793499507E+01 -0.56771732120E+01  0.20291387035E+03  0.20319624710E+03  0.10566000000E+00 0.  1.
         14    1    4    4    0    0  0.14046072125E+02 -0.89501378562E+01  0.29448649777E+03  0.29495710617E+03  0.00000000000E+00 0. -1.
<mgrwt>
<rscale>  0 0.78730498E+02</rscale>
<asrwt>0</asrwt>
<pdfrwt beam="1">  1        2 0.11245189E+00 0.78730498E+02</pdfrwt>
<pdfrwt beam="2">  1       -1 0.32616138E-03 0.78730498E+02</pdfrwt>
<totfact> 0.35204784E+05</totfact>
</mgrwt>
</event>
<event>
 8    1  0.2389776E-020  0.7901623E+02  0.7818608E-02  0.1331867E+00
         -1   -1    0    0    0  501 -0.00000000000E+00  0.00000000000E+00  0.32684001527E+02  0.32684001916E+02  0.50400000000E-02 0.  1.
          2   -1    0    0  501    0  0.00000000000E+00 -0.00000000000E+00 -0.47757040903E+02  0.47757040971E+02  0.25500000000E-02 0. -1.
         24    2    1    2    0    0  0.00000000000E+00  0.00000000000E+00 -0.15073039376E+02  0.80441042887E+02  0.79016231654E+02 0.  0.
         66    2    3    3    0    0 -0.19599484610E+02  0.25518137909E+02 -0.30835610953E+02  0.44611097505E+02  0.19999896084E+01 0.  0.
        -13    1    3    3    0    0  0.19599484610E+02 -0.25518137909E+02  0.15762571578E+02  0.35829945382E+02  0.10566000000E+00 0.  1.
         13    1    4    4    0    0 -0.11180976736E+02  0.15957632620E+02 -0.18253961717E+02  0.26699785805E+02  0.10566000000E+00 0. -1.
        -13    1    4    4    0    0 -0.13753876343E+01  0.16866234298E+01 -0.23449143320E+01  0.32009650105E+01  0.10566000000E+00 0. -1.
         14    1    4    4    0    0 -0.70431202393E+01  0.78738818587E+01 -0.10236734904E+02  0.14710346690E+02  0.00000000000E+00 0. -1.
<mgrwt>
<rscale>  0 0.79016232E+02</rscale>
<asrwt>0</asrwt>
<pdfrwt beam="1">  1        2 0.73472371E-02 0.79016232E+02</pdfrwt>
<pdfrwt beam="2">  1       -1 0.50283080E-02 0.79016232E+02</pdfrwt>
<totfact> 0.15305979E+05</totfact>
</mgrwt>
</event>
<event>
 8    1  0.2389776E-020  0.7331392E+02  0.7818608E-02  0.1349173E+00
          2   -1    0    0  501    0  0.00000000000E+00  0.00000000000E+00  0.11183489987E+03  0.11183489990E+03  0.25500000000E-02 0. -1.
         -1   -1    0    0    0  501 -0.00000000000E+00 -0.00000000000E+00 -0.12015323687E+02  0.12015324744E+02  0.50400000000E-02 0.  1.
         24    2    1    2    0    0  0.00000000000E+00 -0.17763568394E-14  0.99819576185E+02  0.12385022465E+03  0.73313916517E+02 0.  0.
         66    2    3    3    0    0  0.25464296376E+02  0.10821393049E+02  0.90497218343E+02  0.94653470422E+02  0.19999994103E+01 0.  0.
        -13    1    3    3    0    0 -0.25464296376E+02 -0.10821393049E+02  0.93223578420E+01  0.29196754224E+02  0.10566000000E+00 0.  1.
         13    1    4    4    0    0  0.13040409939E+02  0.53508833274E+01  0.46620282250E+02  0.48704682782E+02  0.10566000000E+00 0. -1.
        -13    1    4    4    0    0  0.11226536871E+02  0.51014583064E+01  0.38451335950E+02  0.40380396325E+02  0.10566000000E+00 0.  1.
        -14    1    4    4    0    0  0.11973495660E+01  0.36905141540E+00  0.54256001435E+01  0.55683913159E+01  0.00000000000E+00 0.  1.
<mgrwt>
<rscale>  0 0.73313917E+02</rscale>
<asrwt>0</asrwt>
<pdfrwt beam="1">  1        2 0.17205369E-01 0.73313917E+02</pdfrwt>
<pdfrwt beam="2">  1       -1 0.18485115E-02 0.73313917E+02</pdfrwt>
<totfact> 0.23076284E+05</totfact>
</mgrwt>
</event>
<event>
 8    1  0.2389776E-020  0.7776930E+02  0.7818608E-02  0.1335504E+00
          2   -1    0    0  501    0  0.00000000000E+00  0.00000000000E+00  0.17879493944E+02  0.17879494126E+02  0.25500000000E-02 0. -1.
         -1   -1    0    0    0  501 -0.00000000000E+00 -0.00000000000E+00 -0.84567038029E+02  0.84567038179E+02  0.50400000000E-02 0.  1.
         24    2    1    2    0    0  0.00000000000E+00 -0.22204460493E-15 -0.66687544084E+02  0.10244653231E+03  0.77769296289E+02 0.  0.
         66    2    3    3    0    0  0.38118084885E+02  0.11599466136E+01 -0.23536357206E+02  0.44858599849E+02  0.19999996165E+01 0.  0.
        -13    1    3    3    0    0 -0.38118084885E+02 -0.11599466136E+01 -0.43151186878E+02  0.57587932456E+02  0.10566000000E+00 0.  1.
         13    1    4    4    0    0  0.15718375992E+02 -0.30231803367E-01 -0.10463348092E+02  0.18882824871E+02  0.10566000000E+00 0. -1.
        -13    1    4    4    0    0  0.36813031623E+01  0.48520170075E+00 -0.21657169327E+01  0.42998729669E+01  0.10566000000E+00 0.  1.
         14    1    4    4    0    0  0.18718405731E+02  0.70497671622E+00 -0.10907292181E+02  0.21675902011E+02  0.00000000000E+00 0. -1.
<mgrwt>
<rscale>  0 0.77769296E+02</rscale>
<asrwt>0</asrwt>
<pdfrwt beam="1">  1        2 0.27506914E-02 0.77769296E+02</pdfrwt>
<pdfrwt beam="2">  1       -1 0.13010313E-01 0.77769296E+02</pdfrwt>
<totfact> 0.13166141E+05</totfact>
</mgrwt>
</event>
<event>
 8    1  0.2389776E-020  0.7918434E+02  0.7818608E-02  0.1331382E+00
         -1   -1    0    0    0  501 -0.00000000000E+00  0.00000000000E+00  0.22504421957E+02  0.22504422521E+02  0.50400000000E-02 0.  1.
          2   -1    0    0  501    0  0.00000000000E+00 -0.00000000000E+00 -0.69654753369E+02  0.69654753416E+02  0.25500000000E-02 0. -1.
         24    2    1    2    0    0  0.00000000000E+00  0.00000000000E+00 -0.47150331412E+02  0.92159175937E+02  0.79184341616E+02 0.  0.
         66    2    3    3    0    0  0.13440292188E+02 -0.17067959120E+02 -0.62078064302E+02  0.65800020870E+02  0.19999990836E+01 0.  0.
        -13    1    3    3    0    0 -0.13440292188E+02  0.17067959120E+02  0.14927732890E+02  0.26359155068E+02  0.10566000000E+00 0.  1.
         13    1    4    4    0    0  0.99593449800E+00 -0.16321377481E+01 -0.51488090997E+01  0.54933740391E+01  0.10566000000E+00 0. -1.
        -13    1    4    4    0    0  0.27877403348E+01 -0.44195089759E+01 -0.13733928151E+02  0.14694744035E+02  0.10566000000E+00 0.  1.
         14    1    4    4    0    0  0.96566173552E+01 -0.11016312396E+02 -0.43195327052E+02  0.45611902796E+02  0.00000000000E+00 0. -1.
<mgrwt>
<rscale>  0 0.79184342E+02</rscale>
<asrwt>0</asrwt>
<pdfrwt beam="1">  1        2 0.10716116E-01 0.79184342E+02</pdfrwt>
<pdfrwt beam="2">  1       -1 0.34622188E-02 0.79184342E+02</pdfrwt>
<totfact> 0.16580436E+05</totfact>
</mgrwt>
</event>
<event>
 8    1  0.2389776E-020  0.7770412E+02  0.7818608E-02  0.1335696E+00
          2   -1    0    0  501    0  0.00000000000E+00  0.00000000000E+00  0.76088917075E+02  0.76088917117E+02  0.25500000000E-02 0. -1.
         -1   -1    0    0    0  501 -0.00000000000E+00 -0.00000000000E+00 -0.19838401253E+02  0.19838401893E+02  0.50400000000E-02 0.  1.
         24    2    1    2    0    0  0.71054273576E-14  0.00000000000E+00  0.56250515822E+02  0.95927319010E+02  0.77704118309E+02 0.  0.
         66    2    3    3    0    0 -0.29815191187E+02  0.23958888947E+02  0.36379448924E+02  0.52824599272E+02  0.19999997919E+01 0.  0.
        -13    1    3    3    0    0  0.29815191187E+02 -0.23958888947E+02  0.19871066898E+02  0.43102719738E+02  0.10566000000E+00 0.  1.
         13    1    4    4    0    0 -0.27819651805E+01  0.15972580614E+01  0.28209163016E+01  0.42730897951E+01  0.10566000000E+00 0. -1.
        -13    1    4    4    0    0 -0.98544182097E+01  0.80959392143E+01  0.12496051629E+02  0.17855426636E+02  0.10566000000E+00 0.  1.
         14    1    4    4    0    0 -0.17178807797E+02  0.14265691671E+02  0.21062480993E+02  0.30696082841E+02  0.00000000000E+00 0. -1.
<mgrwt>
<rscale>  0 0.77704118E+02</rscale>
<asrwt>0</asrwt>
<pdfrwt beam="1">  1        2 0.11705987E-01 0.77704118E+02</pdfrwt>
<pdfrwt beam="2">  1       -1 0.30520618E-02 0.77704118E+02</pdfrwt>
<totfact> 0.17829733E+05</totfact>
</mgrwt>
</event>
<event>
 8    1  0.2389776E-020  0.8083404E+02  0.7818608E-02  0.1326701E+00
         -1   -1    0    0    0  501 -0.00000000000E+00  0.00000000000E+00  0.17488510028E+02  0.17488510755E+02  0.50400000000E-02 0.  1.
          2   -1    0    0  501    0  0.00000000000E+00 -0.00000000000E+00 -0.93406204497E+02  0.93406204532E+02  0.25500000000E-02 0. -1.
         24    2    1    2    0    0  0.00000000000E+00  0.00000000000E+00 -0.75917694469E+02  0.11089471529E+03  0.80834037045E+02 0.  0.
         66    2    3    3    0    0  0.33186982414E+01 -0.23083719160E+02 -0.83226215422E+02  0.86455044854E+02  0.19999997378E+01 0.  0.
        -13    1    3    3    0    0 -0.33186982414E+01  0.23083719160E+02  0.73085209533E+01  0.24439670432E+02  0.10566000000E+00 0.  1.
         13    1    4    4    0    0  0.17539811030E+01 -0.10994891055E+02 -0.38846725460E+02  0.40410930724E+02  0.10566000000E+00 0. -1.
        -13    1    4    4    0    0  0.90701942931E+00 -0.41068504046E+01 -0.17366491294E+02  0.17868830079E+02  0.10566000000E+00 0.  1.
         14    1    4    4    0    0  0.65769770901E+00 -0.79819777006E+01 -0.27012998668E+02  0.28175284051E+02  0.00000000000E+00 0. -1.
<mgrwt>
<rscale>  0 0.80834037E+02</rscale>
<asrwt>0</asrwt>
<pdfrwt beam="1">  1        2 0.14370185E-01 0.80834037E+02</pdfrwt>
<pdfrwt beam="2">  1       -1 0.26905401E-02 0.80834037E+02</pdfrwt>
<totfact> 0.16917078E+05</totfact>
</mgrwt>
</event>
<event>
 8    1  0.2389776E-020  0.7928956E+02  0.7818608E-02  0.1331080E+00
         -1   -1    0    0    0  501 -0.00000000000E+00  0.00000000000E+00  0.42049657087E+01  0.42049687291E+01  0.50400000000E-02 0.  1.
          2   -1    0    0  501    0  0.00000000000E+00 -0.00000000000E+00 -0.37377425218E+03  0.37377425218E+03  0.25500000000E-02 0. -1.
         24    2    1    2    0    0 -0.35527136788E-14 -0.35527136788E-14 -0.36956928647E+03  0.37797922091E+03  0.79289557589E+02 0.  0.
         66    2    3    3    0    0 -0.21885348031E+02  0.26187127002E+02 -0.28083379153E+03  0.28290696784E+03  0.19999768149E+01 0.  0.
        -13    1    3    3    0    0  0.21885348031E+02 -0.26187127002E+02 -0.88735494935E+02  0.95072253073E+02  0.10566000000E+00 0.  1.
         13    1    4    4    0    0 -0.10730049377E+02  0.13014344130E+02 -0.13517254007E+03  0.13622090099E+03  0.10566000000E+00 0. -1.
        -13    1    4    4    0    0 -0.24654855151E+01  0.32299411539E+01 -0.38648786759E+02  0.38861948235E+02  0.10566000000E+00 0.  1.
        -14    1    4    4    0    0 -0.86898131393E+01  0.99428417181E+01 -0.10701246470E+03  0.10782411861E+03  0.00000000000E+00 0.  1.
<mgrwt>
<rscale>  0 0.79289558E+02</rscale>
<asrwt>0</asrwt>
<pdfrwt beam="1">  1        2 0.57503705E-01 0.79289558E+02</pdfrwt>
<pdfrwt beam="2">  1       -1 0.64691833E-03 0.79289558E+02</pdfrwt>
<totfact> 0.28236827E+05</totfact>
</mgrwt>
</event>
<event>
 8    1  0.2389776E-020  0.8054378E+02  0.7818608E-02  0.1327515E+00
          2   -1    0    0  501    0  0.00000000000E+00  0.00000000000E+00  0.66326362768E+03  0.66326362769E+03  0.25500000000E-02 0. -1.
         -1   -1    0    0    0  501 -0.00000000000E+00 -0.00000000000E+00 -0.24452169166E+01  0.24452221107E+01  0.50400000000E-02 0.  1.
         24    2    1    2    0    0 -0.17763568394E-14  0.35527136788E-14  0.66081841077E+03  0.66570884980E+03  0.80543781215E+02 0.  0.
         66    2    3    3    0    0 -0.13759896169E+02  0.19692713526E+02  0.59749993976E+03  0.59798604977E+03  0.20000005996E+01 0.  0.
        -13    1    3    3    0    0  0.13759896169E+02 -0.19692713526E+02  0.63318471008E+02  0.67722800027E+02  0.10566000000E+00 0.  1.
         13    1    4    4    0    0 -0.36544533282E+01  0.62906515090E+01  0.19404921648E+03  0.19418557337E+03  0.10566000000E+00 0. -1.
        -13    1    4    4    0    0 -0.43825535631E+00  0.62955914779E+00  0.21774698992E+02  0.21788462376E+02  0.10566000000E+00 0. -1.
         14    1    4    4    0    0 -0.96671874844E+01  0.12772502869E+02  0.38167602429E+03  0.38201201403E+03  0.00000000000E+00 0. -1.
<mgrwt>
<rscale>  0 0.80543781E+02</rscale>
<asrwt>0</asrwt>
<pdfrwt beam="1">  1        2 0.10204064E+00 0.80543781E+02</pdfrwt>
<pdfrwt beam="2">  1       -1 0.37618731E-03 0.80543781E+02</pdfrwt>
<totfact> 0.32447589E+05</totfact>
</mgrwt>
</event>
<event>
 8    1  0.2389776E-020  0.7783867E+02  0.7818608E-02  0.1335299E+00
          2   -1    0    0  501    0  0.00000000000E+00  0.00000000000E+00  0.49979402196E+03  0.49979402197E+03  0.25500000000E-02 0. -1.
         -1   -1    0    0    0  501 -0.00000000000E+00 -0.00000000000E+00 -0.30306754434E+01  0.30306796341E+01  0.50400000000E-02 0.  1.
         24    2    1    2    0    0  0.00000000000E+00  0.00000000000E+00  0.49676334652E+03  0.50282470160E+03  0.77838667110E+02 0.  0.
         66    2    3    3    0    0  0.77074257292E+01 -0.15377512474E+02  0.47388476961E+03  0.47420106195E+03  0.19999978321E+01 0.  0.
        -13    1    3    3    0    0 -0.77074257292E+01  0.15377512474E+02  0.22878576915E+02  0.28623639652E+02  0.10566000000E+00 0.  1.
         13    1    4    4    0    0  0.46732927423E+01 -0.88245819631E+01  0.27108564149E+03  0.27126951377E+03  0.10566000000E+00 0. -1.
        -13    1    4    4    0    0  0.18831238086E+01 -0.30015923401E+01  0.86790591186E+02  0.86862958701E+02  0.10566000000E+00 0.  1.
        -14    1    4    4    0    0  0.11510091782E+01 -0.35513381704E+01  0.11600853693E+03  0.11606858948E+03  0.00000000000E+00 0.  1.
<mgrwt>
<rscale>  0 0.77838667E+02</rscale>
<asrwt>0</asrwt>
<pdfrwt beam="1">  1        2 0.76891387E-01 0.77838667E+02</pdfrwt>
<pdfrwt beam="2">  1       -1 0.46625809E-03 0.77838667E+02</pdfrwt>
<totfact> 0.32696972E+05</totfact>
</mgrwt>
</event>
<event>
 8    1  0.2389776E-020  0.7959621E+02  0.7818608E-02  0.1330201E+00
          2   -1    0    0  501    0  0.00000000000E+00  0.00000000000E+00  0.34854262202E+01  0.34854271530E+01  0.25500000000E-02 0. -1.
         -1   -1    0    0    0  501 -0.00000000000E+00 -0.00000000000E+00 -0.45443192780E+03  0.45443192782E+03  0.50400000000E-02 0.  1.
         24    2    1    2    0    0  0.00000000000E+00  0.00000000000E+00 -0.45094650158E+03  0.45791735498E+03  0.79596210372E+02 0.  0.
         66    2    3    3    0    0 -0.39008904662E+02 -0.48078872862E+01 -0.26064425105E+03  0.26359862674E+03  0.19999980977E+01 0.  0.
        -13    1    3    3    0    0  0.39008904662E+02  0.48078872862E+01 -0.19030225053E+03  0.19431872823E+03  0.10566000000E+00 0.  1.
         13    1    4    4    0    0 -0.60150775236E+01 -0.37451026400E+00 -0.37365158762E+02  0.37848218834E+02  0.10566000000E+00 0.  1.
        -13    1    4    4    0    0 -0.20831101806E+02 -0.30269422873E+01 -0.14472983494E+03  0.14625263577E+03  0.10566000000E+00 0. -1.
         14    1    4    4    0    0 -0.12162725333E+02 -0.14064347349E+01 -0.78549257345E+02  0.79497772143E+02  0.00000000000E+00 0. -1.
<mgrwt>
<rscale>  0 0.79596210E+02</rscale>
<asrwt>0</asrwt>
<pdfrwt beam="1">  1        2 0.53621985E-03 0.79596210E+02</pdfrwt>
<pdfrwt beam="2">  1       -1 0.69912558E-01 0.79596210E+02</pdfrwt>
<totfact> 0.71650183E+04</totfact>
</mgrwt>
</event>
<event>
 8    1  0.2389776E-020  0.7976022E+02  0.7818608E-02  0.1329733E+00
          2   -1    0    0  501    0  0.00000000000E+00  0.00000000000E+00  0.19812495652E+03  0.19812495654E+03  0.25500000000E-02 0. -1.
         -1   -1    0    0    0  501 -0.00000000000E+00 -0.00000000000E+00 -0.80273731401E+01  0.80273747223E+01  0.50400000000E-02 0.  1.
         24    2    1    2    0    0  0.00000000000E+00  0.00000000000E+00  0.19009758338E+03  0.20615233126E+03  0.79760218634E+02 0.  0.
         66    2    3    3    0    0 -0.10723215988E+01 -0.25539192143E+02  0.17414201088E+03  0.17601943118E+03  0.19999983315E+01 0.  0.
        -13    1    3    3    0    0  0.10723215988E+01  0.25539192143E+02  0.15955572503E+02  0.30132900074E+02  0.10566000000E+00 0.  1.
         13    1    4    4    0    0 -0.31450227212E+00 -0.80018297249E+01  0.51635670852E+02  0.52253055978E+02  0.10566000000E+00 0.  1.
        -13    1    4    4    0    0 -0.15140810518E+00 -0.15004181422E+02  0.10546799141E+03  0.10653007444E+03  0.10566000000E+00 0. -1.
        -14    1    4    4    0    0 -0.60641122151E+00 -0.25331809966E+01  0.17038348612E+02  0.17236300762E+02  0.00000000000E+00 0.  1.
<mgrwt>
<rscale>  0 0.79760219E+02</rscale>
<asrwt>0</asrwt>
<pdfrwt beam="1">  1        2 0.30480761E-01 0.79760219E+02</pdfrwt>
<pdfrwt beam="2">  1       -1 0.12349807E-02 0.79760219E+02</pdfrwt>
<totfact> 0.22161428E+05</totfact>
</mgrwt>
</event>
<event>
 8    1  0.2389776E-020  0.7495044E+02  0.7818608E-02  0.1344025E+00
         -1   -1    0    0    0  501 -0.00000000000E+00  0.00000000000E+00  0.35102107843E+02  0.35102108205E+02  0.50400000000E-02 0.  1.
          2   -1    0    0  501    0  0.00000000000E+00 -0.00000000000E+00 -0.40008768739E+02  0.40008768820E+02  0.25500000000E-02 0. -1.
         24    2    1    2    0    0  0.00000000000E+00  0.00000000000E+00 -0.49066608961E+01  0.75110877025E+02  0.74950440468E+02 0.  0.
         66    2    3    3    0    0  0.14344370115E+02  0.23893705755E+02 -0.27522956352E+02  0.39219678760E+02  0.19999867358E+01 0.  0.
        -13    1    3    3    0    0 -0.14344370115E+02 -0.23893705755E+02  0.22616295456E+02  0.35891198265E+02  0.10566000000E+00 0.  1.
         13    1    4    4    0    0  0.32292115080E+01  0.52189046543E+01 -0.64395483090E+01  0.88962755810E+01  0.10566000000E+00 0.  1.
        -13    1    4    4    0    0  0.50298990637E+01  0.82624725333E+01 -0.10514361358E+02  0.14287452389E+02  0.10566000000E+00 0. -1.
         14    1    4    4    0    0  0.60852595438E+01  0.10412328568E+02 -0.10569046685E+02  0.16035950790E+02  0.00000000000E+00 0. -1.
<mgrwt>
<rscale>  0 0.74950440E+02</rscale>
<asrwt>0</asrwt>
<pdfrwt beam="1">  1        2 0.61551952E-02 0.74950440E+02</pdfrwt>
<pdfrwt beam="2">  1       -1 0.54003243E-02 0.74950440E+02</pdfrwt>
<totfact> 0.17055470E+05</totfact>
</mgrwt>
</event>
<event>
 8    1  0.2389776E-020  0.7648132E+02  0.7818608E-02  0.1339344E+00
         -1   -1    0    0    0  501 -0.00000000000E+00  0.00000000000E+00  0.14867804879E+02  0.14867805733E+02  0.50400000000E-02 0.  1.
          2   -1    0    0  501    0  0.00000000000E+00 -0.00000000000E+00 -0.98356681681E+02  0.98356681714E+02  0.25500000000E-02 0. -1.
         24    2    1    2    0    0  0.00000000000E+00  0.00000000000E+00 -0.83488876802E+02  0.11322448745E+03  0.76481318033E+02 0.  0.
         66    2    3    3    0    0  0.13166444861E+02 -0.35162439817E+02 -0.31243103849E+02  0.48886439609E+02  0.19999988381E+01 0.  0.
        -13    1    3    3    0    0 -0.13166444861E+02  0.35162439817E+02 -0.52245772953E+02  0.64338047838E+02  0.10566000000E+00 0.  1.
         13    1    4    4    0    0  0.73414786947E+01 -0.21059122871E+02 -0.18022193479E+02  0.28673935679E+02  0.10566000000E+00 0. -1.
        -13    1    4    4    0    0  0.16268963171E+01 -0.51079755371E+01 -0.47069643811E+01  0.71347658290E+01  0.10566000000E+00 0.  1.
         14    1    4    4    0    0  0.41980698488E+01 -0.89953414090E+01 -0.85139459891E+01  0.13077738100E+02  0.00000000000E+00 0. -1.
<mgrwt>
<rscale>  0 0.76481318E+02</rscale>
<asrwt>0</asrwt>
<pdfrwt beam="1">  1        2 0.15131797E-01 0.76481318E+02</pdfrwt>
<pdfrwt beam="2">  1       -1 0.22873547E-02 0.76481318E+02</pdfrwt>
<totfact> 0.19898177E+05</totfact>
</mgrwt>
</event>
<event>
 8    1  0.2389776E-020  0.7936477E+02  0.7818608E-02  0.1330864E+00
          2   -1    0    0  501    0  0.00000000000E+00  0.00000000000E+00  0.13721372087E+03  0.13721372090E+03  0.25500000000E-02 0. -1.
         -1   -1    0    0    0  501 -0.00000000000E+00 -0.00000000000E+00 -0.11476195643E+02  0.11476196750E+02  0.50400000000E-02 0.  1.
         24    2    1    2    0    0 -0.35527136788E-14  0.71054273576E-14  0.12573752523E+03  0.14868991765E+03  0.79364767743E+02 0.  0.
         66    2    3    3    0    0 -0.20731797704E+02  0.25099563830E+02  0.10533792309E+03  0.11027181681E+03  0.20000003180E+01 0.  0.
        -13    1    3    3    0    0  0.20731797704E+02 -0.25099563830E+02  0.20399602144E+02  0.38418100840E+02  0.10566000000E+00 0.  1.
         13    1    4    4    0    0 -0.97038311114E+00  0.95471532070E+00  0.43962297798E+01  0.46033819132E+01  0.10566000000E+00 0.  1.
        -13    1    4    4    0    0 -0.10694757059E+02  0.12336638720E+02  0.50273644764E+02  0.52858499840E+02  0.10566000000E+00 0.  1.
         14    1    4    4    0    0 -0.90666575335E+01  0.11808209790E+02  0.50668048541E+02  0.52809935052E+02  0.00000000000E+00 0. -1.
<mgrwt>
<rscale>  0 0.79364768E+02</rscale>
<asrwt>0</asrwt>
<pdfrwt beam="1">  1        2 0.21109801E-01 0.79364768E+02</pdfrwt>
<pdfrwt beam="2">  1       -1 0.17655688E-02 0.79364768E+02</pdfrwt>
<totfact> 0.19887502E+05</totfact>
</mgrwt>
</event>
<event>
 8    1  0.2389776E-020  0.8094988E+02  0.7818608E-02  0.1326377E+00
          2   -1    0    0  501    0  0.00000000000E+00  0.00000000000E+00  0.51714566183E+02  0.51714566246E+02  0.25500000000E-02 0. -1.
         -1   -1    0    0    0  501 -0.00000000000E+00 -0.00000000000E+00 -0.31678129493E+02  0.31678129894E+02  0.50400000000E-02 0.  1.
         24    2    1    2    0    0  0.00000000000E+00  0.00000000000E+00  0.20036436690E+02  0.83392696140E+02  0.80949879396E+02 0.  0.
         66    2    3    3    0    0  0.19678155010E+02 -0.11619831775E+01  0.46412109888E+02  0.50464481943E+02  0.20000010010E+01 0.  0.
        -13    1    3    3    0    0 -0.19678155010E+02  0.11619831775E+01 -0.26375673198E+02  0.32928214197E+02  0.10566000000E+00 0.  1.
         13    1    4    4    0    0  0.81791006729E+01 -0.86894900694E+00  0.19123818029E+02  0.20817885105E+02  0.10566000000E+00 0. -1.
        -13    1    4    4    0    0  0.83102892771E+01 -0.76598988629E+00  0.18933060117E+02  0.20691050670E+02  0.10566000000E+00 0.  1.
        -14    1    4    4    0    0  0.31887650602E+01  0.47295571568E+00  0.83552317414E+01  0.89555461682E+01  0.00000000000E+00 0.  1.
<mgrwt>
<rscale>  0 0.80949879E+02</rscale>
<asrwt>0</asrwt>
<pdfrwt beam="1">  1        2 0.79560871E-02 0.80949879E+02</pdfrwt>
<pdfrwt beam="2">  1       -1 0.48735585E-02 0.80949879E+02</pdfrwt>
<totfact> 0.14574899E+05</totfact>
</mgrwt>
</event>
<event>
 8    1  0.2389776E-020  0.8229950E+02  0.7818608E-02  0.1322650E+00
          2   -1    0    0  501    0  0.00000000000E+00  0.00000000000E+00  0.59634011774E+02  0.59634011828E+02  0.25500000000E-02 0. -1.
         -1   -1    0    0    0  501 -0.00000000000E+00 -0.00000000000E+00 -0.28394901353E+02  0.28394901800E+02  0.50400000000E-02 0.  1.
         24    2    1    2    0    0  0.00000000000E+00  0.00000000000E+00  0.31239110421E+02  0.88028913628E+02  0.82299499480E+02 0.  0.
         66    2    3    3    0    0 -0.85208059585E+01  0.60021079000E+01  0.58181048641E+02  0.59141050562E+02  0.20000017873E+01 0.  0.
        -13    1    3    3    0    0  0.85208059585E+01 -0.60021079000E+01 -0.26941938220E+02  0.28887863066E+02  0.10566000000E+00 0.  1.
         13    1    4    4    0    0 -0.38226932372E+01  0.27088888951E+01  0.24987176781E+02  0.25422848584E+02  0.10566000000E+00 0. -1.
        -13    1    4    4    0    0 -0.15437592374E+01  0.67950767057E+00  0.67192969846E+01  0.69285668980E+01  0.10566000000E+00 0.  1.
         14    1    4    4    0    0 -0.31543534839E+01  0.26137113343E+01  0.26474574876E+02  0.26789635080E+02  0.00000000000E+00 0. -1.
<mgrwt>
<rscale>  0 0.82299499E+02</rscale>
<asrwt>0</asrwt>
<pdfrwt beam="1">  1        2 0.91744633E-02 0.82299499E+02</pdfrwt>
<pdfrwt beam="2">  1       -1 0.43684464E-02 0.82299499E+02</pdfrwt>
<totfact> 0.14388329E+05</totfact>
</mgrwt>
</event>
<event>
 8    1  0.2389776E-020  0.7844698E+02  0.7818608E-02  0.1333517E+00
         -1   -1    0    0    0  501 -0.00000000000E+00  0.00000000000E+00  0.11558231280E+01  0.11558341164E+01  0.50400000000E-02 0.  1.
          2   -1    0    0  501    0  0.00000000000E+00 -0.00000000000E+00 -0.13310642912E+04  0.13310642912E+04  0.25500000000E-02 0. -1.
         24    2    1    2    0    0 -0.88817841970E-15  0.00000000000E+00 -0.13299084680E+04  0.13322201253E+04  0.78446981171E+02 0.  0.
         66    2    3    3    0    0 -0.79621758570E+01 -0.12778264746E+02 -0.12799982498E+04  0.12800883563E+04  0.20000034536E+01 0.  0.
        -13    1    3    3    0    0  0.79621758570E+01  0.12778264746E+02 -0.49910218211E+02  0.52131769011E+02  0.10566000000E+00 0.  1.
         13    1    4    4    0    0 -0.42792609501E+01 -0.78145443748E+01 -0.70319476655E+03  0.70325121404E+03  0.10566000000E+00 0. -1.
        -13    1    4    4    0    0 -0.25870282839E+01 -0.39798083887E+01 -0.42534273785E+03  0.42536923654E+03  0.10566000000E+00 0.  1.
        -14    1    4    4    0    0 -0.10958866230E+01 -0.98391198238E+00 -0.15146074544E+03  0.15146790570E+03  0.00000000000E+00 0.  1.
<mgrwt>
<rscale>  0 0.78446981E+02</rscale>
<asrwt>0</asrwt>
<pdfrwt beam="1">  1        2 0.20477790E+00 0.78446981E+02</pdfrwt>
<pdfrwt beam="2">  1       -1 0.17782085E-03 0.78446981E+02</pdfrwt>
<totfact> 0.36245515E+05</totfact>
</mgrwt>
</event>
<event>
 8    1  0.2389776E-020  0.7888232E+02  0.7818608E-02  0.1332254E+00
         -1   -1    0    0    0  501 -0.00000000000E+00  0.00000000000E+00  0.95189372938E+00  0.95190707196E+00  0.50400000000E-02 0.  1.
          2   -1    0    0  501    0  0.00000000000E+00 -0.00000000000E+00 -0.16342097904E+04  0.16342097904E+04  0.25500000000E-02 0. -1.
         24    2    1    2    0    0  0.00000000000E+00  0.35527136788E-14 -0.16332578967E+04  0.16351616975E+04  0.78882316453E+02 0.  0.
         66    2    3    3    0    0  0.64262505707E+01  0.18241901028E+02 -0.15290814982E+04  0.15292051177E+04  0.20000005157E+01 0.  0.
        -13    1    3    3    0    0 -0.64262505707E+01 -0.18241901028E+02 -0.10417639843E+03  0.10595657980E+03  0.10566000000E+00 0.  1.
         13    1    4    4    0    0  0.52646386779E+00  0.18570171199E+01 -0.13003120013E+03  0.13004556835E+03  0.10566000000E+00 0. -1.
        -13    1    4    4    0    0  0.12973858324E+00  0.31982504700E+00 -0.49222366011E+02  0.49223689418E+02  0.10566000000E+00 0.  1.
         14    1    4    4    0    0  0.57700481197E+01  0.16065058861E+02 -0.13498279321E+04  0.13499358599E+04  0.00000000000E+00 0. -1.
<mgrwt>
<rscale>  0 0.78882316E+02</rscale>
<asrwt>0</asrwt>
<pdfrwt beam="1">  1        2 0.25141465E+00 0.78882316E+02</pdfrwt>
<pdfrwt beam="2">  1       -1 0.14644752E-03 0.78882316E+02</pdfrwt>
<totfact> 0.33208852E+05</totfact>
</mgrwt>
</event>
<event>
 8    1  0.2389776E-020  0.8018955E+02  0.7818608E-02  0.1328514E+00
         -1   -1    0    0    0  501 -0.00000000000E+00  0.00000000000E+00  0.16845731707E+02  0.16845732461E+02  0.50400000000E-02 0.  1.
          2   -1    0    0  501    0  0.00000000000E+00 -0.00000000000E+00 -0.95430159729E+02  0.95430159764E+02  0.25500000000E-02 0. -1.
         24    2    1    2    0    0  0.35527136788E-14  0.35527136788E-14 -0.78584428023E+02  0.11227589222E+03  0.80189548241E+02 0.  0.
         66    2    3    3    0    0 -0.20194508458E+02  0.31282081095E+02 -0.60046057965E+02  0.70681792908E+02  0.20000005075E+01 0.  0.
        -13    1    3    3    0    0  0.20194508458E+02 -0.31282081095E+02 -0.18538370058E+02  0.41594099317E+02  0.10566000000E+00 0.  1.
         13    1    4    4    0    0 -0.54378750375E+00  0.63282150148E+00 -0.14084543223E+01  0.16404497907E+01  0.10566000000E+00 0. -1.
        -13    1    4    4    0    0 -0.17653326290E+01  0.19850541837E+01 -0.44346195920E+01  0.51704791233E+01  0.10566000000E+00 0. -1.
         14    1    4    4    0    0 -0.17885388326E+02  0.28664205410E+02 -0.54202984050E+02  0.63870863994E+02  0.00000000000E+00 0. -1.
<mgrwt>
<rscale>  0 0.80189548E+02</rscale>
<asrwt>0</asrwt>
<pdfrwt beam="1">  1        2 0.14681563E-01 0.80189548E+02</pdfrwt>
<pdfrwt beam="2">  1       -1 0.25916512E-02 0.80189548E+02</pdfrwt>
<totfact> 0.17386567E+05</totfact>
</mgrwt>
</event>
<event>
 8    1  0.2389776E-020  0.8335404E+02  0.7818608E-02  0.1319794E+00
         -1   -1    0    0    0  501 -0.00000000000E+00  0.00000000000E+00  0.14485309610E+02  0.14485310487E+02  0.50400000000E-02 0.  1.
          2   -1    0    0  501    0  0.00000000000E+00 -0.00000000000E+00 -0.11991279082E+03  0.11991279084E+03  0.25500000000E-02 0. -1.
         24    2    1    2    0    0 -0.71054273576E-14  0.00000000000E+00 -0.10542748121E+03  0.13439810133E+03  0.83354039180E+02 0.  0.
         66    2    3    3    0    0 -0.29967262503E+02 -0.54838817555E+01 -0.69440171583E+01  0.31310208559E+02  0.20000011721E+01 0.  0.
        -13    1    3    3    0    0  0.29967262503E+02  0.54838817555E+01 -0.98483464048E+02  0.10308789277E+03  0.10566000000E+00 0.  1.
         13    1    4    4    0    0 -0.14034837695E+02 -0.25520880091E+01 -0.27624688591E+01  0.14530389553E+02  0.10566000000E+00 0. -1.
        -13    1    4    4    0    0 -0.14731425584E+01 -0.55616250135E+00 -0.16883583024E+00  0.15871784079E+01  0.10566000000E+00 0.  1.
        -14    1    4    4    0    0 -0.14459282249E+02 -0.23756312451E+01 -0.40127124689E+01  0.15192640598E+02  0.00000000000E+00 0.  1.
<mgrwt>
<rscale>  0 0.83354039E+02</rscale>
<asrwt>0</asrwt>
<pdfrwt beam="1">  1        2 0.18448121E-01 0.83354039E+02</pdfrwt>
<pdfrwt beam="2">  1       -1 0.22285093E-02 0.83354039E+02</pdfrwt>
<totfact> 0.16739956E+05</totfact>
</mgrwt>
</event>
<event>
 8    1  0.2389776E-020  0.8089067E+02  0.7818608E-02  0.1326543E+00
         -1   -1    0    0    0  501 -0.00000000000E+00  0.00000000000E+00  0.12883990671E+01  0.12884089249E+01  0.50400000000E-02 0.  1.
          2   -1    0    0  501    0  0.00000000000E+00 -0.00000000000E+00 -0.12696521649E+04  0.12696521649E+04  0.25500000000E-02 0. -1.
         24    2    1    2    0    0  0.00000000000E+00  0.00000000000E+00 -0.12683637658E+04  0.12709405738E+04  0.80890665241E+02 0.  0.
         66    2    3    3    0    0  0.19946483159E+02 -0.67552763337E+01 -0.11766435536E+04  0.11768336960E+04  0.19999962269E+01 0.  0.
        -13    1    3    3    0    0 -0.19946483159E+02  0.67552763337E+01 -0.91720212252E+02  0.94106877795E+02  0.10566000000E+00 0.  1.
         13    1    4    4    0    0  0.53033784698E+01 -0.17655354516E+01 -0.27438511936E+03  0.27444206644E+03  0.10566000000E+00 0. -1.
        -13    1    4    4    0    0  0.13820332517E+02 -0.45638589953E+01 -0.85873108116E+03  0.85885441800E+03  0.10566000000E+00 0.  1.
        -14    1    4    4    0    0  0.82277217277E+00 -0.42588188678E+00 -0.43527353043E+02  0.43537211582E+02  0.00000000000E+00 0.  1.
<mgrwt>
<rscale>  0 0.80890665E+02</rscale>
<asrwt>0</asrwt>
<pdfrwt beam="1">  1        2 0.19533010E+00 0.80890665E+02</pdfrwt>
<pdfrwt beam="2">  1       -1 0.19821702E-03 0.80890665E+02</pdfrwt>
<totfact> 0.33779269E+05</totfact>
</mgrwt>
</event>
<event>
 8    1  0.2389776E-020  0.7865433E+02  0.7818608E-02  0.1332914E+00
          2   -1    0    0  501    0  0.00000000000E+00  0.00000000000E+00  0.21935266758E+03  0.21935266760E+03  0.25500000000E-02 0. -1.
         -1   -1    0    0    0  501 -0.00000000000E+00 -0.00000000000E+00 -0.70508635162E+01  0.70508653176E+01  0.50400000000E-02 0.  1.
         24    2    1    2    0    0  0.00000000000E+00  0.00000000000E+00  0.21230180407E+03  0.22640353292E+03  0.78654330501E+02 0.  0.
         66    2    3    3    0    0  0.24166904249E+02 -0.23744354129E+02  0.16355694072E+03  0.16704103229E+03  0.19999989993E+01 0.  0.
        -13    1    3    3    0    0 -0.24166904249E+02  0.23744354129E+02  0.48744863345E+02  0.59362500627E+02  0.10566000000E+00 0.  1.
         13    1    4    4    0    0  0.34850284144E+01 -0.33833531146E+01  0.24535919892E+02  0.25012297582E+02  0.10566000000E+00 0. -1.
        -13    1    4    4    0    0  0.13076934782E+02 -0.11976424117E+02  0.87513881745E+02  0.89292393965E+02  0.10566000000E+00 0.  1.
         14    1    4    4    0    0  0.76049410531E+01 -0.83845768974E+01  0.51507139084E+02  0.52736340741E+02  0.00000000000E+00 0. -1.
<mgrwt>
<rscale>  0 0.78654331E+02</rscale>
<asrwt>0</asrwt>
<pdfrwt beam="1">  1        2 0.33746568E-01 0.78654331E+02</pdfrwt>
<pdfrwt beam="2">  1       -1 0.10847483E-02 0.78654331E+02</pdfrwt>
<totfact> 0.23823931E+05</totfact>
</mgrwt>
</event>
<event>
 8    1  0.2389776E-020  0.7959939E+02  0.7818608E-02  0.1330192E+00
          2   -1    0    0  501    0  0.00000000000E+00  0.00000000000E+00  0.55334131358E+03  0.55334131359E+03  0.25500000000E-02 0. -1.
         -1   -1    0    0    0  501 -0.00000000000E+00 -0.00000000000E+00 -0.28626351421E+01  0.28626395789E+01  0.50400000000E-02 0.  1.
         24    2    1    2    0    0  0.00000000000E+00 -0.71054273576E-14  0.55047867844E+03  0.55620395317E+03  0.79599385057E+02 0.  0.
         66    2    3    3    0    0 -0.26134223919E+01 -0.35761322368E+02  0.39569342643E+03  0.39731975773E+03  0.20000032175E+01 0.  0.
        -13    1    3    3    0    0  0.26134223919E+01  0.35761322368E+02  0.15478525201E+03  0.15888419544E+03  0.10566000000E+00 0.  1.
         13    1    4    4    0    0 -0.23900581425E+01 -0.32088750572E+02  0.35866001298E+03  0.36010056424E+03  0.10566000000E+00 0. -1.
        -13    1    4    4    0    0 -0.13791654873E+00 -0.19535402926E+01  0.17281965749E+02  0.17392896390E+02  0.10566000000E+00 0.  1.
        -14    1    4    4    0    0 -0.85447700666E-01 -0.17190315031E+01  0.19751447699E+02  0.19826297103E+02  0.00000000000E+00 0.  1.
<mgrwt>
<rscale>  0 0.79599385E+02</rscale>
<asrwt>0</asrwt>
<pdfrwt beam="1">  1        2 0.85129483E-01 0.79599385E+02</pdfrwt>
<pdfrwt beam="2">  1       -1 0.44040549E-03 0.79599385E+02</pdfrwt>
<totfact> 0.31833353E+05</totfact>
</mgrwt>
</event>
<event>
 8    1  0.2389776E-020  0.8110720E+02  0.7818608E-02  0.1325938E+00
          2   -1    0    0  501    0  0.00000000000E+00  0.00000000000E+00  0.95526316226E+01  0.95526319630E+01  0.25500000000E-02 0. -1.
         -1   -1    0    0    0  501 -0.00000000000E+00 -0.00000000000E+00 -0.17216140948E+03  0.17216140955E+03  0.50400000000E-02 0.  1.
         24    2    1    2    0    0  0.00000000000E+00  0.00000000000E+00 -0.16260877785E+03  0.18171404151E+03  0.81107202195E+02 0.  0.
         66    2    3    3    0    0 -0.52593822589E+01  0.34361818940E+02 -0.34669381206E+02  0.49136154665E+02  0.19999998608E+01 0.  0.
        -13    1    3    3    0    0  0.52593822589E+01 -0.34361818940E+02 -0.12793939665E+03  0.13257788685E+03  0.10566000000E+00 0.  1.
         13    1    4    4    0    0 -0.39426430827E+01  0.23541619093E+02 -0.24767336340E+02  0.34397447252E+02  0.10566000000E+00 0. -1.
        -13    1    4    4    0    0 -0.11660330975E+01  0.10403285141E+02 -0.95808879443E+01  0.14191284394E+02  0.10566000000E+00 0.  1.
         14    1    4    4    0    0 -0.15070607873E+00  0.41691470585E+00 -0.32115692173E+00  0.54742301970E+00  0.00000000000E+00 0. -1.
<mgrwt>
<rscale>  0 0.81107202E+02</rscale>
<asrwt>0</asrwt>
<pdfrwt beam="1">  1        2 0.14696358E-02 0.81107202E+02</pdfrwt>
<pdfrwt beam="2">  1       -1 0.26486368E-01 0.81107202E+02</pdfrwt>
<totfact> 0.10044370E+05</totfact>
</mgrwt>
</event>
<event>
 8    1  0.2389776E-020  0.7876621E+02  0.7818608E-02  0.1332590E+00
         -1   -1    0    0    0  501 -0.00000000000E+00  0.00000000000E+00  0.27344652223E+01  0.27344698670E+01  0.50400000000E-02 0.  1.
          2   -1    0    0  501    0  0.00000000000E+00 -0.00000000000E+00 -0.56721426183E+03  0.56721426184E+03  0.25500000000E-02 0. -1.
         24    2    1    2    0    0 -0.88817841970E-15  0.35527136788E-14 -0.56447979661E+03  0.56994873171E+03  0.78766210974E+02 0.  0.
         66    2    3    3    0    0 -0.36514449813E+01  0.23351448653E+02 -0.51014144627E+03  0.51069258699E+03  0.20000002750E+01 0.  0.
        -13    1    3    3    0    0  0.36514449813E+01 -0.23351448653E+02 -0.54338350344E+02  0.59256144717E+02  0.10566000000E+00 0.  1.
         13    1    4    4    0    0 -0.31274187933E+01  0.15318258164E+02 -0.33972195882E+03  0.34008153471E+03  0.10566000000E+00 0.  1.
        -13    1    4    4    0    0 -0.42850705585E+00  0.62174747603E+01 -0.13785669505E+03  0.13799753673E+03  0.10566000000E+00 0. -1.
        -14    1    4    4    0    0 -0.95519132180E-01  0.18157157280E+01 -0.32562792397E+02  0.32613515545E+02  0.00000000000E+00 0.  1.
<mgrwt>
<rscale>  0 0.78766211E+02</rscale>
<asrwt>0</asrwt>
<pdfrwt beam="1">  1        2 0.87263639E-01 0.78766211E+02</pdfrwt>
<pdfrwt beam="2">  1       -1 0.42068777E-03 0.78766211E+02</pdfrwt>
<totfact> 0.32957029E+05</totfact>
</mgrwt>
</event>
<event>
 8    1  0.2389776E-020  0.7920458E+02  0.7818608E-02  0.1331324E+00
          2   -1    0    0  501    0  0.00000000000E+00  0.00000000000E+00  0.11832722592E+02  0.11832722866E+02  0.25500000000E-02 0. -1.
         -1   -1    0    0    0  501 -0.00000000000E+00 -0.00000000000E+00 -0.13254273750E+03  0.13254273760E+03  0.50400000000E-02 0.  1.
         24    2    1    2    0    0  0.35527136788E-14  0.00000000000E+00 -0.12071001491E+03  0.14437546046E+03  0.79204582472E+02 0.  0.
         66    2    3    3    0    0  0.30794624280E+02 -0.20257527250E+02 -0.34125822813E+02  0.50271742259E+02  0.19999980562E+01 0.  0.
        -13    1    3    3    0    0 -0.30794624280E+02  0.20257527250E+02 -0.86584192095E+02  0.94103718203E+02  0.10566000000E+00 0.  1.
         13    1    4    4    0    0  0.39506340533E+00 -0.41911591549E+00 -0.59098884473E+00  0.83196459964E+00  0.10566000000E+00 0. -1.
        -13    1    4    4    0    0  0.34489396721E+01 -0.20007589040E+01 -0.31837612661E+01  0.51035008463E+01  0.10566000000E+00 0.  1.
         14    1    4    4    0    0  0.26950621203E+02 -0.17837652430E+02 -0.30351072702E+02  0.44336276813E+02  0.00000000000E+00 0. -1.
<mgrwt>
<rscale>  0 0.79204582E+02</rscale>
<asrwt>0</asrwt>
<pdfrwt beam="1">  1        2 0.18204190E-02 0.79204582E+02</pdfrwt>
<pdfrwt beam="2">  1       -1 0.20391189E-01 0.79204582E+02</pdfrwt>
<totfact> 0.11405581E+05</totfact>
</mgrwt>
</event>
<event>
 8    1  0.2389776E-020  0.7809498E+02  0.7818608E-02  0.1334546E+00
         -1   -1    0    0    0  501 -0.00000000000E+00  0.00000000000E+00  0.57863060977E+02  0.57863061196E+02  0.50400000000E-02 0.  1.
          2   -1    0    0  501    0  0.00000000000E+00 -0.00000000000E+00 -0.26350252965E+02  0.26350253089E+02  0.25500000000E-02 0. -1.
         24    2    1    2    0    0 -0.71054273576E-14  0.00000000000E+00  0.31512808011E+02  0.84213314285E+02  0.78094975729E+02 0.  0.
         66    2    3    3    0    0 -0.38530363261E+02 -0.61030608582E+01  0.14763713421E+02  0.41758873075E+02  0.20000004076E+01 0.  0.
        -13    1    3    3    0    0  0.38530363261E+02  0.61030608582E+01  0.16749094590E+02  0.42454441210E+02  0.10566000000E+00 0.  1.
         13    1    4    4    0    0 -0.17622583252E+02 -0.27558155954E+01  0.69589747108E+01  0.19146499762E+02  0.10566000000E+00 0. -1.
        -13    1    4    4    0    0 -0.40462477270E+01 -0.11997184396E+01  0.17135872313E+01  0.45562034895E+01  0.10566000000E+00 0.  1.
        -14    1    4    4    0    0 -0.16861532282E+02 -0.21475268232E+01  0.60911514792E+01  0.18056169823E+02  0.00000000000E+00 0.  1.
<mgrwt>
<rscale>  0 0.78094976E+02</rscale>
<asrwt>0</asrwt>
<pdfrwt beam="1">  1        2 0.40538851E-02 0.78094976E+02</pdfrwt>
<pdfrwt beam="2">  1       -1 0.89020093E-02 0.78094976E+02</pdfrwt>
<totfact> 0.14037085E+05</totfact>
</mgrwt>
</event>
<event>
 8    1  0.2389776E-020  0.7883317E+02  0.7818608E-02  0.1332396E+00
          2   -1    0    0  501    0  0.00000000000E+00  0.00000000000E+00  0.16292197750E+03  0.16292197752E+03  0.25500000000E-02 0. -1.
         -1   -1    0    0    0  501 -0.00000000000E+00 -0.00000000000E+00 -0.95362649575E+01  0.95362662893E+01  0.50400000000E-02 0.  1.
         24    2    1    2    0    0  0.00000000000E+00  0.00000000000E+00  0.15338571254E+03  0.17245824381E+03  0.78833172241E+02 0.  0.
         66    2    3    3    0    0 -0.36303912125E+02 -0.10392592708E+02  0.10126725044E+03  0.10809734516E+03  0.20000001145E+01 0.  0.
        -13    1    3    3    0    0  0.36303912125E+02  0.10392592708E+02  0.52118462101E+02  0.64360898647E+02  0.10566000000E+00 0.  1.
         13    1    4    4    0    0 -0.16891456406E+02 -0.44097641784E+01  0.48746855795E+02  0.51778706372E+02  0.10566000000E+00 0. -1.
        -13    1    4    4    0    0 -0.16586102556E+02 -0.50640206605E+01  0.45640927499E+02  0.48824671328E+02  0.10566000000E+00 0.  1.
         14    1    4    4    0    0 -0.28263531640E+01 -0.91880786896E+00  0.68794671477E+01  0.74939674636E+01  0.00000000000E+00 0. -1.
<mgrwt>
<rscale>  0 0.78833172E+02</rscale>
<asrwt>0</asrwt>
<pdfrwt beam="1">  1        2 0.25064918E-01 0.78833172E+02</pdfrwt>
<pdfrwt beam="2">  1       -1 0.14671179E-02 0.78833172E+02</pdfrwt>
<totfact> 0.21393058E+05</totfact>
</mgrwt>
</event>
<event>
 8    1  0.2389776E-020  0.7997931E+02  0.7818608E-02  0.1329110E+00
         -1   -1    0    0    0  501 -0.00000000000E+00  0.00000000000E+00  0.98973994578E+02  0.98973994707E+02  0.50400000000E-02 0.  1.
          2   -1    0    0  501    0  0.00000000000E+00 -0.00000000000E+00 -0.16157501138E+02  0.16157501340E+02  0.25500000000E-02 0. -1.
         24    2    1    2    0    0 -0.17763568394E-14  0.00000000000E+00  0.82816493440E+02  0.11513149605E+03  0.79979308550E+02 0.  0.
         66    2    3    3    0    0  0.10766537416E+02 -0.17047497942E+02 -0.82372031920E+01  0.21872060339E+02  0.19999982637E+01 0.  0.
        -13    1    3    3    0    0 -0.10766537416E+02  0.17047497942E+02  0.91053696632E+02  0.93259435707E+02  0.10566000000E+00 0.  1.
         13    1    4    4    0    0  0.58580771741E+01 -0.90468470668E+01 -0.35477055299E+01  0.11347241453E+02  0.10566000000E+00 0. -1.
        -13    1    4    4    0    0  0.46289078487E+01 -0.75345731118E+01 -0.41869510352E+01  0.97845951810E+01  0.10566000000E+00 0.  1.
        -14    1    4    4    0    0  0.27955239284E+00 -0.46607776340E+00 -0.50254662691E+00  0.74022370545E+00  0.00000000000E+00 0.  1.
<mgrwt>
<rscale>  0 0.79979309E+02</rscale>
<asrwt>0</asrwt>
<pdfrwt beam="1">  1        2 0.24857694E-02 0.79979309E+02</pdfrwt>
<pdfrwt beam="2">  1       -1 0.15226768E-01 0.79979309E+02</pdfrwt>
<totfact> 0.11886839E+05</totfact>
</mgrwt>
</event>
<event>
 8    1  0.2389776E-020  0.7288518E+02  0.7818608E-02  0.1350548E+00
          2   -1    0    0  501    0  0.00000000000E+00  0.00000000000E+00  0.44253753461E+03  0.44253753461E+03  0.25500000000E-02 0. -1.
         -1   -1    0    0    0  501 -0.00000000000E+00 -0.00000000000E+00 -0.30010141507E+01  0.30010183829E+01  0.50400000000E-02 0.  1.
         24    2    1    2    0    0  0.00000000000E+00  0.17763568394E-14  0.43953652046E+03  0.44553855300E+03  0.72885179509E+02 0.  0.
         66    2    3    3    0    0 -0.33631800731E+02 -0.13952078077E+02  0.22327588971E+03  0.22623412970E+03  0.20000030354E+01 0.  0.
        -13    1    3    3    0    0  0.33631800731E+02  0.13952078077E+02  0.21626063074E+03  0.21930442329E+03  0.10566000000E+00 0.  1.
         13    1    4    4    0    0 -0.35636409918E+01 -0.12196173096E+01  0.21676001556E+02  0.22001072951E+02  0.10566000000E+00 0. -1.
        -13    1    4    4    0    0 -0.89466271141E+01 -0.45353568367E+01  0.60735263872E+02  0.61558062348E+02  0.10566000000E+00 0.  1.
         14    1    4    4    0    0 -0.21121532625E+02 -0.81971039304E+01  0.14086462428E+03  0.14267499440E+03  0.00000000000E+00 0. -1.
<mgrwt>
<rscale>  0 0.72885180E+02</rscale>
<asrwt>0</asrwt>
<pdfrwt beam="1">  1        2 0.68082685E-01 0.72885180E+02</pdfrwt>
<pdfrwt beam="2">  1       -1 0.46169490E-03 0.72885180E+02</pdfrwt>
<totfact> 0.37256550E+05</totfact>
</mgrwt>
</event>
<event>
 8    1  0.2389776E-020  0.8105902E+02  0.7818608E-02  0.1326073E+00
         -1   -1    0    0    0  501 -0.00000000000E+00  0.00000000000E+00  0.31048457663E+01  0.31048498570E+01  0.50400000000E-02 0.  1.
          2   -1    0    0  501    0  0.00000000000E+00 -0.00000000000E+00 -0.52905693836E+03  0.52905693836E+03  0.25500000000E-02 0. -1.
         24    2    1    2    0    0  0.00000000000E+00  0.17763568394E-14 -0.52595209259E+03  0.53216178822E+03  0.81059022577E+02 0.  0.
         66    2    3    3    0    0 -0.35721159375E+02  0.10805029356E+02 -0.36649954708E+03  0.36840014644E+03  0.19999991529E+01 0.  0.
        -13    1    3    3    0    0  0.35721159375E+02 -0.10805029356E+02 -0.15945254551E+03  0.16376164178E+03  0.10566000000E+00 0.  1.
         13    1    4    4    0    0 -0.10789565817E+02  0.35789289658E+01 -0.11830365116E+03  0.11884859488E+03  0.10566000000E+00 0. -1.
        -13    1    4    4    0    0 -0.88278243431E+01  0.21254474921E+01 -0.84841379236E+02  0.85325956218E+02  0.10566000000E+00 0.  1.
        -14    1    4    4    0    0 -0.16103769215E+02  0.51006528977E+01 -0.16335451669E+03  0.16422559534E+03  0.00000000000E+00 0.  1.
<mgrwt>
<rscale>  0 0.81059023E+02</rscale>
<asrwt>0</asrwt>
<pdfrwt beam="1">  1        2 0.81393304E-01 0.81059023E+02</pdfrwt>
<pdfrwt beam="2">  1       -1 0.47766932E-03 0.81059023E+02</pdfrwt>
<totfact> 0.29950538E+05</totfact>
</mgrwt>
</event>
<event>
 8    1  0.2389776E-020  0.8034278E+02  0.7818608E-02  0.1328081E+00
         -1   -1    0    0    0  501 -0.00000000000E+00  0.00000000000E+00  0.26781010871E+01  0.26781058296E+01  0.50400000000E-02 0.  1.
          2   -1    0    0  501    0  0.00000000000E+00 -0.00000000000E+00 -0.60256848169E+03  0.60256848170E+03  0.25500000000E-02 0. -1.
         24    2    1    2    0    0  0.00000000000E+00 -0.71054273576E-14 -0.59989038061E+03  0.60524658753E+03  0.80342784186E+02 0.  0.
         66    2    3    3    0    0 -0.80163314596E+01 -0.32113624394E+02 -0.47128569666E+03  0.47245079565E+03  0.19999997630E+01 0.  0.
        -13    1    3    3    0    0  0.80163314596E+01  0.32113624394E+02 -0.12860468395E+03  0.13279579188E+03  0.10566000000E+00 0.  1.
         13    1    4    4    0    0 -0.45583542592E+01 -0.16799025733E+02 -0.24470617614E+03  0.24532449870E+03  0.10566000000E+00 0. -1.
        -13    1    4    4    0    0 -0.23207223419E+01 -0.86185901585E+01 -0.13581436792E+03  0.13610738241E+03  0.10566000000E+00 0.  1.
         14    1    4    4    0    0 -0.11372548585E+01 -0.66960085021E+01 -0.90765152603E+02  0.91018914548E+02  0.00000000000E+00 0. -1.
<mgrwt>
<rscale>  0 0.80342784E+02</rscale>
<asrwt>0</asrwt>
<pdfrwt beam="1">  1        2 0.92702736E-01 0.80342784E+02</pdfrwt>
<pdfrwt beam="2">  1       -1 0.41201640E-03 0.80342784E+02</pdfrwt>
<totfact> 0.31845342E+05</totfact>
</mgrwt>
</event>
<event>
 8    1  0.2389776E-020  0.8085626E+02  0.7818608E-02  0.1326639E+00
         -1   -1    0    0    0  501 -0.00000000000E+00  0.00000000000E+00  0.72749919159E+01  0.72749936617E+01  0.50400000000E-02 0.  1.
          2   -1    0    0  501    0  0.00000000000E+00 -0.00000000000E+00 -0.22466467211E+03  0.22466467213E+03  0.25500000000E-02 0. -1.
         24    2    1    2    0    0 -0.22204460493E-15  0.71054273576E-14 -0.21738968020E+03  0.23193966579E+03  0.80856264508E+02 0.  0.
         66    2    3    3    0    0 -0.16103259686E+01  0.38734852421E+02 -0.14139793629E+03  0.14663000486E+03  0.19999990642E+01 0.  0.
        -13    1    3    3    0    0  0.16103259686E+01 -0.38734852421E+02 -0.75991743901E+02  0.85309660924E+02  0.10566000000E+00 0.  1.
         13    1    4    4    0    0 -0.79637661651E+00  0.12839000955E+02 -0.45754083662E+02  0.47528112702E+02  0.10566000000E+00 0. -1.
        -13    1    4    4    0    0 -0.36686621405E+00  0.21642718644E+01 -0.91644992154E+01  0.94243234997E+01  0.10566000000E+00 0.  1.
        -14    1    4    4    0    0 -0.44708313807E+00  0.23731579601E+02 -0.86479353417E+02  0.89677568662E+02  0.00000000000E+00 0.  1.
<mgrwt>
<rscale>  0 0.80856265E+02</rscale>
<asrwt>0</asrwt>
<pdfrwt beam="1">  1        2 0.34563790E-01 0.80856265E+02</pdfrwt>
<pdfrwt beam="2">  1       -1 0.11192298E-02 0.80856265E+02</pdfrwt>
<totfact> 0.22341361E+05</totfact>
</mgrwt>
</event>
<event>
 8    1  0.2389776E-020  0.8970636E+02  0.7818608E-02  0.1303564E+00
         -1   -1    0    0    0  501 -0.00000000000E+00  0.00000000000E+00  0.21792589298E+02  0.21792589881E+02  0.50400000000E-02 0.  1.
          2   -1    0    0  501    0  0.00000000000E+00 -0.00000000000E+00 -0.92316130845E+02  0.92316130880E+02  0.25500000000E-02 0. -1.
         24    2    1    2    0    0 -0.71054273576E-14  0.88817841970E-15 -0.70523541547E+02  0.11410872076E+03  0.89706355636E+02 0.  0.
         66    2    3    3    0    0 -0.44203842052E+02  0.50182766947E+01 -0.28238189597E+02  0.52730997549E+02  0.19999994324E+01 0.  0.
        -13    1    3    3    0    0  0.44203842052E+02 -0.50182766947E+01 -0.42285351950E+02  0.61377723212E+02  0.10566000000E+00 0.  1.
         13    1    4    4    0    0 -0.28085267011E+02  0.36965578767E+01 -0.17720584238E+02  0.33413725219E+02  0.10566000000E+00 0. -1.
        -13    1    4    4    0    0 -0.14381992982E+02  0.11832238730E+01 -0.90045732366E+01  0.17009857262E+02  0.10566000000E+00 0.  1.
        -14    1    4    4    0    0 -0.17365820589E+01  0.13849494487E+00 -0.15130321218E+01  0.23074150686E+01  0.00000000000E+00 0.  1.
<mgrwt>
<rscale>  0 0.89706356E+02</rscale>
<asrwt>0</asrwt>
<pdfrwt beam="1">  1        2 0.14202482E-01 0.89706356E+02</pdfrwt>
<pdfrwt beam="2">  1       -1 0.33527061E-02 0.89706356E+02</pdfrwt>
<totfact> 0.12722447E+05</totfact>
</mgrwt>
</event>
<event>
 8    1  0.2389776E-020  0.7987876E+02  0.7818608E-02  0.1329396E+00
         -1   -1    0    0    0  501 -0.00000000000E+00  0.00000000000E+00  0.10225042415E+01  0.10225166627E+01  0.50400000000E-02 0.  1.
          2   -1    0    0  501    0  0.00000000000E+00 -0.00000000000E+00 -0.15600367355E+04  0.15600367355E+04  0.25500000000E-02 0. -1.
         24    2    1    2    0    0 -0.17763568394E-14  0.00000000000E+00 -0.15590142312E+04  0.15610592521E+04  0.79878755016E+02 0.  0.
         66    2    3    3    0    0 -0.15886686818E+02  0.12844636062E+02 -0.14501114595E+04  0.14502567416E+04  0.19999996678E+01 0.  0.
        -13    1    3    3    0    0  0.15886686818E+02 -0.12844636062E+02 -0.10890277175E+03  0.11080251058E+03  0.10566000000E+00 0.  1.
         13    1    4    4    0    0 -0.56515099101E+01  0.50608406158E+01 -0.53670256097E+03  0.53675618468E+03  0.10566000000E+00 0. -1.
        -13    1    4    4    0    0 -0.12905580977E+01  0.44258483708E+00 -0.98778718620E+02  0.98788196855E+02  0.10566000000E+00 0.  1.
        -14    1    4    4    0    0 -0.89446188105E+01  0.73412106095E+01 -0.81463017990E+03  0.81471236002E+03  0.00000000000E+00 0.  1.
<mgrwt>
<rscale>  0 0.79878755E+02</rscale>
<asrwt>0</asrwt>
<pdfrwt beam="1">  1        2 0.24000375E+00 0.79878755E+02</pdfrwt>
<pdfrwt beam="2">  1       -1 0.15731055E-03 0.79878755E+02</pdfrwt>
<totfact> 0.32856096E+05</totfact>
</mgrwt>
</event>
<event>
 8    1  0.2389776E-020  0.7854400E+02  0.7818608E-02  0.1333235E+00
         -1   -1    0    0    0  501 -0.00000000000E+00  0.00000000000E+00  0.22370564802E+03  0.22370564807E+03  0.50400000000E-02 0.  1.
          2   -1    0    0  501    0  0.00000000000E+00 -0.00000000000E+00 -0.68942827444E+01  0.68942832159E+01  0.25500000000E-02 0. -1.
         24    2    1    2    0    0  0.00000000000E+00 -0.35527136788E-14  0.21681136527E+03  0.23059993129E+03  0.78544001677E+02 0.  0.
         66    2    3    3    0    0  0.28363690378E+02 -0.17587171721E+02  0.47844841306E+02  0.58368967389E+02  0.19999933485E+01 0.  0.
        -13    1    3    3    0    0 -0.28363690378E+02  0.17587171721E+02  0.16896652396E+03  0.17223096390E+03  0.10566000000E+00 0.  1.
         13    1    4    4    0    0  0.10387113290E+02 -0.66435271899E+01  0.17245373592E+02  0.21200062509E+02  0.10566000000E+00 0. -1.
        -13    1    4    4    0    0  0.55015599115E+01 -0.41684566116E+01  0.98975018631E+01  0.12067099865E+02  0.10566000000E+00 0.  1.
         14    1    4    4    0    0  0.12475017177E+02 -0.67751879193E+01  0.20701965852E+02  0.25101805015E+02  0.00000000000E+00 0. -1.
<mgrwt>
<rscale>  0 0.78544002E+02</rscale>
<asrwt>0</asrwt>
<pdfrwt beam="1">  1        2 0.10606590E-02 0.78544002E+02</pdfrwt>
<pdfrwt beam="2">  1       -1 0.34416250E-01 0.78544002E+02</pdfrwt>
<totfact> 0.10077316E+05</totfact>
</mgrwt>
</event>
<event>
 8    1  0.2389776E-020  0.7787450E+02  0.7818608E-02  0.1335194E+00
          2   -1    0    0  501    0  0.00000000000E+00  0.00000000000E+00  0.92828205607E+02  0.92828205642E+02  0.25500000000E-02 0. -1.
         -1   -1    0    0    0  501 -0.00000000000E+00 -0.00000000000E+00 -0.16332421574E+02  0.16332422352E+02  0.50400000000E-02 0.  1.
         24    2    1    2    0    0  0.00000000000E+00 -0.35527136788E-14  0.76495784033E+02  0.10916062799E+03  0.77874499864E+02 0.  0.
         66    2    3    3    0    0  0.13029536227E+02 -0.21023733383E+02  0.80380161421E+02  0.84123341172E+02  0.20000000566E+01 0.  0.
        -13    1    3    3    0    0 -0.13029536227E+02  0.21023733383E+02 -0.38843773882E+01  0.25037286821E+02  0.10566000000E+00 0.  1.
         13    1    4    4    0    0  0.10113850470E+02 -0.16445634805E+02  0.61490222885E+02  0.64450039177E+02  0.10566000000E+00 0. -1.
        -13    1    4    4    0    0  0.26462737358E+01 -0.38395840756E+01  0.16951757177E+02  0.17581763449E+02  0.10566000000E+00 0.  1.
         14    1    4    4    0    0  0.26941202130E+00 -0.73851450237E+00  0.19381813596E+01  0.20915385462E+01  0.00000000000E+00 0. -1.
<mgrwt>
<rscale>  0 0.77874500E+02</rscale>
<asrwt>0</asrwt>
<pdfrwt beam="1">  1        2 0.14281262E-01 0.77874500E+02</pdfrwt>
<pdfrwt beam="2">  1       -1 0.25126803E-02 0.77874500E+02</pdfrwt>
<totfact> 0.18664907E+05</totfact>
</mgrwt>
</event>
<event>
 8    1  0.2389776E-020  0.7632866E+02  0.7818608E-02  0.1339805E+00
          2   -1    0    0  501    0  0.00000000000E+00  0.00000000000E+00  0.36706714290E+03  0.36706714291E+03  0.25500000000E-02 0. -1.
         -1   -1    0    0    0  501 -0.00000000000E+00 -0.00000000000E+00 -0.39679815563E+01  0.39679847572E+01  0.50400000000E-02 0.  1.
         24    2    1    2    0    0  0.00000000000E+00  0.88817841970E-15  0.36309916134E+03  0.37103512766E+03  0.76328664299E+02 0.  0.
         66    2    3    3    0    0 -0.17685051534E+02  0.74733524182E+01  0.34185898906E+03  0.34240353450E+03  0.19999995298E+01 0.  0.
        -13    1    3    3    0    0  0.17685051534E+02 -0.74733524182E+01  0.21240172286E+02  0.28631593160E+02  0.10566000000E+00 0.  1.
         13    1    4    4    0    0 -0.11360691145E+02  0.42072028720E+01  0.22346087257E+03  0.22378904931E+03  0.10566000000E+00 0. -1.
        -13    1    4    4    0    0 -0.38004786880E+01  0.17451571132E+01  0.63943463926E+02  0.64080160382E+02  0.10566000000E+00 0.  1.
         14    1    4    4    0    0 -0.25238817010E+01  0.15209924330E+01  0.54454652561E+02  0.54534324809E+02  0.00000000000E+00 0. -1.
<mgrwt>
<rscale>  0 0.76328664E+02</rscale>
<asrwt>0</asrwt>
<pdfrwt beam="1">  1        2 0.56471893E-01 0.76328664E+02</pdfrwt>
<pdfrwt beam="2">  1       -1 0.61045868E-03 0.76328664E+02</pdfrwt>
<totfact> 0.30983630E+05</totfact>
</mgrwt>
</event>
<event>
 8    1  0.2389776E-020  0.7975866E+02  0.7818608E-02  0.1329738E+00
          2   -1    0    0  501    0  0.00000000000E+00  0.00000000000E+00  0.10662026438E+02  0.10662026743E+02  0.25500000000E-02 0. -1.
         -1   -1    0    0    0  501 -0.00000000000E+00 -0.00000000000E+00 -0.14916124033E+03  0.14916124041E+03  0.50400000000E-02 0.  1.
         24    2    1    2    0    0  0.00000000000E+00 -0.71054273576E-14 -0.13849921389E+03  0.15982326716E+03  0.79758663958E+02 0.  0.
         66    2    3    3    0    0 -0.42525536276E+01 -0.36744838879E+02 -0.99020712298E+02  0.10572307632E+03  0.20000014687E+01 0.  0.
        -13    1    3    3    0    0  0.42525536276E+01  0.36744838879E+02 -0.39478501591E+02  0.54100190836E+02  0.10566000000E+00 0.  1.
         13    1    4    4    0    0 -0.28855423735E+01 -0.31066115340E+02 -0.83204291130E+02  0.88861662732E+02  0.10566000000E+00 0. -1.
        -13    1    4    4    0    0 -0.54109920302E+00 -0.23805464113E+01 -0.66539775486E+01  0.70884674519E+01  0.10566000000E+00 0.  1.
         14    1    4    4    0    0 -0.82591205112E+00 -0.32981771269E+01 -0.91624436201E+01  0.97729461355E+01  0.00000000000E+00 0. -1.
<mgrwt>
<rscale>  0 0.79758664E+02</rscale>
<asrwt>0</asrwt>
<pdfrwt beam="1">  1        2 0.16403119E-02 0.79758664E+02</pdfrwt>
<pdfrwt beam="2">  1       -1 0.22947882E-01 0.79758664E+02</pdfrwt>
<totfact> 0.10885458E+05</totfact>
</mgrwt>
</event>
<event>
 8    1  0.2389776E-020  0.7969266E+02  0.7818608E-02  0.1329926E+00
         -1   -1    0    0    0  501 -0.00000000000E+00  0.00000000000E+00  0.15642992773E+01  0.15643073964E+01  0.50400000000E-02 0.  1.
          2   -1    0    0  501    0  0.00000000000E+00 -0.00000000000E+00 -0.10149757307E+04  0.10149757307E+04  0.25500000000E-02 0. -1.
         24    2    1    2    0    0  0.00000000000E+00 -0.35527136788E-14 -0.10134114314E+04  0.10165400381E+04  0.79692657888E+02 0.  0.
         66    2    3    3    0    0  0.28876529912E+01 -0.17073493386E+02 -0.96443514821E+03  0.96459265898E+03  0.19999841053E+01 0.  0.
        -13    1    3    3    0    0 -0.28876529912E+01  0.17073493386E+02 -0.48976283221E+02  0.51947379129E+02  0.10566000000E+00 0.  1.
         13    1    4    4    0    0  0.72738486771E+00 -0.58521247335E+01 -0.29806227737E+03  0.29812062795E+03  0.10566000000E+00 0. -1.
        -13    1    4    4    0    0  0.23193410170E+00 -0.25120423006E+00 -0.20270057143E+02  0.20273215769E+02  0.10566000000E+00 0. -1.
         14    1    4    4    0    0  0.19283340218E+01 -0.10970164423E+02 -0.64610281370E+03  0.64619881526E+03  0.00000000000E+00 0. -1.
<mgrwt>
<rscale>  0 0.79692658E+02</rscale>
<asrwt>0</asrwt>
<pdfrwt beam="1">  1        2 0.15614959E+00 0.79692658E+02</pdfrwt>
<pdfrwt beam="2">  1       -1 0.24066286E-03 0.79692658E+02</pdfrwt>
<totfact> 0.35604285E+05</totfact>
</mgrwt>
</event>
<event>
 8    1  0.2389776E-020  0.8040566E+02  0.7818608E-02  0.1327904E+00
          2   -1    0    0  501    0  0.00000000000E+00  0.00000000000E+00  0.45717851233E+02  0.45717851304E+02  0.25500000000E-02 0. -1.
         -1   -1    0    0    0  501 -0.00000000000E+00 -0.00000000000E+00 -0.35353096018E+02  0.35353096377E+02  0.50400000000E-02 0.  1.
         24    2    1    2    0    0  0.00000000000E+00  0.00000000000E+00  0.10364755215E+02  0.81070947682E+02  0.80405661538E+02 0.  0.
         66    2    3    3    0    0 -0.13738874373E+02 -0.37724841908E+02  0.36424647040E+01  0.40363200019E+02  0.20000001546E+01 0.  0.
        -13    1    3    3    0    0  0.13738874373E+02  0.37724841908E+02  0.67222905111E+01  0.40707747663E+02  0.10566000000E+00 0.  1.
         13    1    4    4    0    0 -0.66860677906E+01 -0.19305889499E+02  0.13212328951E+01  0.20473829448E+02  0.10566000000E+00 0. -1.
        -13    1    4    4    0    0 -0.57764044313E+01 -0.16099115372E+02  0.20871696397E+01  0.17231245023E+02  0.10566000000E+00 0.  1.
        -14    1    4    4    0    0 -0.12764021508E+01 -0.23198370370E+01  0.23406216921E+00  0.26581255478E+01  0.00000000000E+00 0.  1.
<mgrwt>
<rscale>  0 0.80405662E+02</rscale>
<asrwt>0</asrwt>
<pdfrwt beam="1">  1        2 0.70335155E-02 0.80405662E+02</pdfrwt>
<pdfrwt beam="2">  1       -1 0.54389380E-02 0.80405662E+02</pdfrwt>
<totfact> 0.14455802E+05</totfact>
</mgrwt>
</event>
<event>
 8    1  0.2389776E-020  0.8098563E+02  0.7818608E-02  0.1326277E+00
          2   -1    0    0  501    0  0.00000000000E+00  0.00000000000E+00  0.11113682781E+04  0.11113682781E+04  0.25500000000E-02 0. -1.
         -1   -1    0    0    0  501 -0.00000000000E+00 -0.00000000000E+00 -0.14753554280E+01  0.14753640366E+01  0.50400000000E-02 0.  1.
         24    2    1    2    0    0  0.00000000000E+00  0.00000000000E+00  0.11098929227E+04  0.11128436422E+04  0.80985628684E+02 0.  0.
         66    2    3    3    0    0  0.20952990683E+02 -0.20129224456E+02  0.94235070120E+03  0.94280064571E+03  0.19999999794E+01 0.  0.
        -13    1    3    3    0    0 -0.20952990683E+02  0.20129224456E+02  0.16754222151E+03  0.17004299647E+03  0.10566000000E+00 0.  1.
         13    1    4    4    0    0  0.16121946202E+02 -0.15595304325E+02  0.72819993951E+03  0.72854532716E+03  0.10566000000E+00 0. -1.
        -13    1    4    4    0    0  0.49890062816E+00 -0.90806784053E+00  0.31477763826E+02  0.31494987991E+02  0.10566000000E+00 0.  1.
         14    1    4    4    0    0  0.43321438521E+01 -0.36258522899E+01  0.18267299787E+03  0.18276033056E+03  0.00000000000E+00 0. -1.
<mgrwt>
<rscale>  0 0.80985629E+02</rscale>
<asrwt>0</asrwt>
<pdfrwt beam="1">  1        2 0.17098017E+00 0.80985629E+02</pdfrwt>
<pdfrwt beam="2">  1       -1 0.22697785E-03 0.80985629E+02</pdfrwt>
<totfact> 0.34135540E+05</totfact>
</mgrwt>
</event>
<event>
 8    1  0.2389776E-020  0.7976164E+02  0.7818608E-02  0.1329729E+00
         -1   -1    0    0    0  501 -0.00000000000E+00  0.00000000000E+00  0.22441154094E+01  0.22441210690E+01  0.50400000000E-02 0.  1.
          2   -1    0    0  501    0  0.00000000000E+00 -0.00000000000E+00 -0.70873267136E+03  0.70873267137E+03  0.25500000000E-02 0. -1.
         24    2    1    2    0    0 -0.35527136788E-14 -0.35527136788E-14 -0.70648855595E+03  0.71097679243E+03  0.79761642974E+02 0.  0.
         66    2    3    3    0    0 -0.21883720028E+02  0.27129508765E+02 -0.52575013095E+03  0.52690806374E+03  0.19999973656E+01 0.  0.
        -13    1    3    3    0    0  0.21883720028E+02 -0.27129508765E+02 -0.18073842500E+03  0.18406872870E+03  0.10566000000E+00 0.  1.
         13    1    4    4    0    0 -0.13718479411E+02  0.17954175363E+02 -0.34302211378E+03  0.34376551717E+03  0.10566000000E+00 0. -1.
        -13    1    4    4    0    0 -0.58828742144E+01  0.67515242943E+01 -0.13871631882E+03  0.13900510623E+03  0.10566000000E+00 0.  1.
        -14    1    4    4    0    0 -0.22823664028E+01  0.24238091074E+01 -0.44011698355E+02  0.44137440332E+02  0.00000000000E+00 0.  1.
<mgrwt>
<rscale>  0 0.79761643E+02</rscale>
<asrwt>0</asrwt>
<pdfrwt beam="1">  1        2 0.10903562E+00 0.79761643E+02</pdfrwt>
<pdfrwt beam="2">  1       -1 0.34524952E-03 0.79761643E+02</pdfrwt>
<totfact> 0.33806930E+05</totfact>
</mgrwt>
</event>
<event>
 8    1  0.2389776E-020  0.8009657E+02  0.7818608E-02  0.1328778E+00
          2   -1    0    0  501    0  0.00000000000E+00  0.00000000000E+00  0.27904097537E+03  0.27904097539E+03  0.25500000000E-02 0. -1.
         -1   -1    0    0    0  501 -0.00000000000E+00 -0.00000000000E+00 -0.57477748025E+01  0.57477770122E+01  0.50400000000E-02 0.  1.
         24    2    1    2    0    0  0.00000000000E+00  0.00000000000E+00  0.27329320057E+03  0.28478875240E+03  0.80096566804E+02 0.  0.
         66    2    3    3    0    0 -0.31393261710E+02  0.29422170811E+01  0.22437947513E+03  0.22659290011E+03  0.20000004808E+01 0.  0.
        -13    1    3    3    0    0  0.31393261710E+02 -0.29422170811E+01  0.48913725446E+02  0.58195852285E+02  0.10566000000E+00 0.  1.
         13    1    4    4    0    0 -0.18124502541E+02  0.16055483200E+01  0.12333247558E+03  0.12466750208E+03  0.10566000000E+00 0. -1.
        -13    1    4    4    0    0 -0.12704270727E+02  0.11447895959E+01  0.96430737193E+02  0.97270793548E+02  0.10566000000E+00 0.  1.
         14    1    4    4    0    0 -0.56448844112E+00  0.19187916513E+00  0.46162623525E+01  0.46546044860E+01  0.00000000000E+00 0. -1.
<mgrwt>
<rscale>  0 0.80096567E+02</rscale>
<asrwt>0</asrwt>
<pdfrwt beam="1">  1        2 0.42929389E-01 0.80096567E+02</pdfrwt>
<pdfrwt beam="2">  1       -1 0.88427305E-03 0.80096567E+02</pdfrwt>
<totfact> 0.24755789E+05</totfact>
</mgrwt>
</event>
<event>
 8    1  0.2389776E-020  0.7371773E+02  0.7818608E-02  0.1347888E+00
         -1   -1    0    0    0  501 -0.00000000000E+00  0.00000000000E+00  0.30737304557E+01  0.30737345877E+01  0.50400000000E-02 0.  1.
          2   -1    0    0  501    0  0.00000000000E+00 -0.00000000000E+00 -0.44199551643E+03  0.44199551643E+03  0.25500000000E-02 0. -1.
         24    2    1    2    0    0  0.35527136788E-14  0.17763568394E-14 -0.43892178597E+03  0.44506925102E+03  0.73717731958E+02 0.  0.
         66    2    3    3    0    0 -0.31904673421E+02 -0.15889594135E+02 -0.27567104202E+03  0.27797285982E+03  0.20000001481E+01 0.  0.
        -13    1    3    3    0    0  0.31904673421E+02  0.15889594135E+02 -0.16325074395E+03  0.16709639120E+03  0.10566000000E+00 0.  1.
         13    1    4    4    0    0 -0.52214607257E+01 -0.28518541263E+01 -0.41858244430E+02  0.42279078926E+02  0.10566000000E+00 0. -1.
        -13    1    4    4    0    0 -0.54570629767E+00 -0.24107986064E+00 -0.39856331642E+01  0.40314204219E+01  0.10566000000E+00 0.  1.
         14    1    4    4    0    0 -0.26137506397E+02 -0.12796660148E+02 -0.22982716443E+03  0.23166236047E+03  0.00000000000E+00 0. -1.
<mgrwt>
<rscale>  0 0.73717732E+02</rscale>
<asrwt>0</asrwt>
<pdfrwt beam="1">  1        2 0.67999260E-01 0.73717732E+02</pdfrwt>
<pdfrwt beam="2">  1       -1 0.47288228E-03 0.73717732E+02</pdfrwt>
<totfact> 0.36163954E+05</totfact>
</mgrwt>
</event>
<event>
 8    1  0.2389776E-020  0.7923528E+02  0.7818608E-02  0.1331236E+00
          2   -1    0    0  501    0  0.00000000000E+00  0.00000000000E+00  0.51557514161E+03  0.51557514162E+03  0.25500000000E-02 0. -1.
         -1   -1    0    0    0  501 -0.00000000000E+00 -0.00000000000E+00 -0.30442820461E+01  0.30442862182E+01  0.50400000000E-02 0.  1.
         24    2    1    2    0    0  0.00000000000E+00  0.00000000000E+00  0.51253085957E+03  0.51861942784E+03  0.79235275743E+02 0.  0.
         66    2    3    3    0    0  0.19629589990E+02  0.15211102608E+02  0.45825888298E+03  0.45893561887E+03  0.19999988179E+01 0.  0.
        -13    1    3    3    0    0 -0.19629589990E+02 -0.15211102608E+02  0.54271976588E+02  0.59683808964E+02  0.10566000000E+00 0.  1.
         13    1    4    4    0    0  0.35258010071E+01  0.31347044038E+01  0.76850092806E+02  0.76994841209E+02  0.10566000000E+00 0. -1.
        -13    1    4    4    0    0  0.70291893671E+01  0.46895164728E+01  0.15930103292E+03  0.15952501786E+03  0.10566000000E+00 0.  1.
         14    1    4    4    0    0  0.90745996157E+01  0.73868817318E+01  0.22210775725E+03  0.22241575981E+03  0.00000000000E+00 0. -1.
<mgrwt>
<rscale>  0 0.79235276E+02</rscale>
<asrwt>0</asrwt>
<pdfrwt beam="1">  1        2 0.79319323E-01 0.79235276E+02</pdfrwt>
<pdfrwt beam="2">  1       -1 0.46835099E-03 0.79235276E+02</pdfrwt>
<totfact> 0.31526578E+05</totfact>
</mgrwt>
</event>
<event>
 8    1  0.2389776E-020  0.7903173E+02  0.7818608E-02  0.1331822E+00
         -1   -1    0    0    0  501 -0.00000000000E+00  0.00000000000E+00  0.19267412022E+01  0.19267477940E+01  0.50400000000E-02 0.  1.
          2   -1    0    0  501    0  0.00000000000E+00 -0.00000000000E+00 -0.81043622618E+03  0.81043622618E+03  0.25500000000E-02 0. -1.
         24    2    1    2    0    0  0.00000000000E+00  0.17763568394E-14 -0.80850948498E+03  0.81236297398E+03  0.79031729017E+02 0.  0.
         66    2    3    3    0    0  0.12223237795E+02 -0.15967283252E+02 -0.75386662714E+03  0.75413742328E+03  0.20000023669E+01 0.  0.
        -13    1    3    3    0    0 -0.12223237795E+02  0.15967283252E+02 -0.54642857842E+02  0.58225550696E+02  0.10566000000E+00 0.  1.
         13    1    4    4    0    0  0.60525249435E+00 -0.57271306905E+00 -0.23901275125E+02  0.23916029091E+02  0.10566000000E+00 0. -1.
        -13    1    4    4    0    0  0.86474860770E+00 -0.14473577852E+01 -0.77463197147E+02  0.77481615309E+02  0.10566000000E+00 0.  1.
         14    1    4    4    0    0  0.10753236693E+02 -0.13947212397E+02 -0.65250215486E+03  0.65273977888E+03  0.00000000000E+00 0. -1.
<mgrwt>
<rscale>  0 0.79031729E+02</rscale>
<asrwt>0</asrwt>
<pdfrwt beam="1">  1        2 0.12468222E+00 0.79031729E+02</pdfrwt>
<pdfrwt beam="2">  1       -1 0.29642288E-03 0.79031729E+02</pdfrwt>
<totfact> 0.35547250E+05</totfact>
</mgrwt>
</event>
<event>
 8    1  0.2389776E-020  0.7805402E+02  0.7818608E-02  0.1334666E+00
         -1   -1    0    0    0  501 -0.00000000000E+00  0.00000000000E+00  0.64566891801E+01  0.64566911472E+01  0.50400000000E-02 0.  1.
          2   -1    0    0  501    0  0.00000000000E+00 -0.00000000000E+00 -0.23589602729E+03  0.23589602730E+03  0.25500000000E-02 0. -1.
         24    2    1    2    0    0 -0.35527136788E-14  0.00000000000E+00 -0.22943933810E+03  0.24235271845E+03  0.78054021473E+02 0.  0.
         66    2    3    3    0    0 -0.24003773056E+02 -0.28082168564E+02 -0.75975217703E+02  0.84504573931E+02  0.19999995004E+01 0.  0.
        -13    1    3    3    0    0  0.24003773056E+02  0.28082168564E+02 -0.15346412040E+03  0.15784814452E+03  0.10566000000E+00 0.  1.
         13    1    4    4    0    0 -0.11732918803E+02 -0.13406157751E+02 -0.36210712605E+02  0.40356081582E+02  0.10566000000E+00 0. -1.
        -13    1    4    4    0    0 -0.11225739839E+01 -0.20030727362E+01 -0.45255297622E+01  0.50758306119E+01  0.10566000000E+00 0.  1.
        -14    1    4    4    0    0 -0.11148280269E+02 -0.12672938077E+02 -0.35238975336E+02  0.39072661736E+02  0.00000000000E+00 0.  1.
<mgrwt>
<rscale>  0 0.78054021E+02</rscale>
<asrwt>0</asrwt>
<pdfrwt beam="1">  1        2 0.36291690E-01 0.78054021E+02</pdfrwt>
<pdfrwt beam="2">  1       -1 0.99333714E-03 0.78054021E+02</pdfrwt>
<totfact> 0.24941427E+05</totfact>
</mgrwt>
</event>
<event>
 8    1  0.2389776E-020  0.8305851E+02  0.7818608E-02  0.1320589E+00
         -1   -1    0    0    0  501 -0.00000000000E+00  0.00000000000E+00  0.24208655371E+01  0.24208707834E+01  0.50400000000E-02 0.  1.
          2   -1    0    0  501    0  0.00000000000E+00 -0.00000000000E+00 -0.71242176858E+03  0.71242176859E+03  0.25500000000E-02 0. -1.
         24    2    1    2    0    0  0.00000000000E+00  0.00000000000E+00 -0.71000090304E+03  0.71484263937E+03  0.83058513933E+02 0.  0.
         66    2    3    3    0    0  0.99471078983E+01  0.17387218620E+02 -0.66806260039E+03  0.66836584172E+03  0.20000001594E+01 0.  0.
        -13    1    3    3    0    0 -0.99471078983E+01 -0.17387218620E+02 -0.41938302651E+02  0.46476797654E+02  0.10566000000E+00 0.  1.
         13    1    4    4    0    0  0.14520985445E+01  0.20214679797E+01 -0.84113741318E+02  0.84150624273E+02  0.10566000000E+00 0. -1.
        -13    1    4    4    0    0  0.55093443089E+01  0.11196944230E+02 -0.39736278160E+03  0.39755869478E+03  0.10566000000E+00 0.  1.
        -14    1    4    4    0    0  0.29856650449E+01  0.41688064104E+01 -0.18658607748E+03  0.18665652266E+03  0.00000000000E+00 0.  1.
<mgrwt>
<rscale>  0 0.83058514E+02</rscale>
<asrwt>0</asrwt>
<pdfrwt beam="1">  1        2 0.10960318E+00 0.83058514E+02</pdfrwt>
<pdfrwt beam="2">  1       -1 0.37244183E-03 0.83058514E+02</pdfrwt>
<totfact> 0.30458558E+05</totfact>
</mgrwt>
</event>
<event>
 8    1  0.2389776E-020  0.8050123E+02  0.7818608E-02  0.1327635E+00
         -1   -1    0    0    0  501 -0.00000000000E+00  0.00000000000E+00  0.28810340221E+02  0.28810340662E+02  0.50400000000E-02 0.  1.
          2   -1    0    0  501    0  0.00000000000E+00 -0.00000000000E+00 -0.56233703487E+02  0.56233703545E+02  0.25500000000E-02 0. -1.
         24    2    1    2    0    0  0.00000000000E+00  0.00000000000E+00 -0.27423363266E+02  0.85044044206E+02  0.80501233544E+02 0.  0.
         66    2    3    3    0    0 -0.37423848192E+02 -0.10398555403E+01 -0.29263725836E+02  0.47560396953E+02  0.19999988701E+01 0.  0.
        -13    1    3    3    0    0  0.37423848192E+02  0.10398555403E+01  0.18403625694E+01  0.37483647254E+02  0.10566000000E+00 0.  1.
         13    1    4    4    0    0 -0.11271444972E+02 -0.84425146930E+00 -0.81744066173E+01  0.13949563430E+02  0.10566000000E+00 0. -1.
        -13    1    4    4    0    0 -0.13375401683E+02  0.36934152110E+00 -0.10909366540E+02  0.17264507688E+02  0.10566000000E+00 0.  1.
         14    1    4    4    0    0 -0.12777001536E+02 -0.56494559211E+00 -0.10179952678E+02  0.16346325835E+02  0.00000000000E+00 0. -1.
<mgrwt>
<rscale>  0 0.80501234E+02</rscale>
<asrwt>0</asrwt>
<pdfrwt beam="1">  1        2 0.86513390E-02 0.80501234E+02</pdfrwt>
<pdfrwt beam="2">  1       -1 0.44323601E-02 0.80501234E+02</pdfrwt>
<totfact> 0.15078206E+05</totfact>
</mgrwt>
</event>
<event>
 8    1  0.2389776E-020  0.9004557E+02  0.7818608E-02  0.1302741E+00
          2   -1    0    0  501    0  0.00000000000E+00  0.00000000000E+00  0.19290367819E+04  0.19290367819E+04  0.25500000000E-02 0. -1.
         -1   -1    0    0    0  501 -0.00000000000E+00 -0.00000000000E+00 -0.10508040418E+01  0.10508161284E+01  0.50400000000E-02 0.  1.
         24    2    1    2    0    0  0.35527136788E-14  0.88817841970E-15  0.19279859779E+04  0.19300875980E+04  0.90045573193E+02 0.  0.
         66    2    3    3    0    0  0.21647477133E+02  0.71533748306E+01  0.17960791901E+04  0.17962249973E+04  0.19999979459E+01 0.  0.
        -13    1    3    3    0    0 -0.21647477133E+02 -0.71533748306E+01  0.13190678780E+03  0.13386260071E+03  0.10566000000E+00 0.  1.
         13    1    4    4    0    0  0.32367705192E+01  0.49947796077E+00  0.28909027932E+03  0.28910884961E+03  0.10566000000E+00 0. -1.
        -13    1    4    4    0    0  0.14263088773E+01  0.58450303273E+00  0.11326241004E+03  0.11327294775E+03  0.10566000000E+00 0.  1.
         14    1    4    4    0    0  0.16984397736E+02  0.60693938371E+01  0.13937265007E+04  0.13938432000E+04  0.00000000000E+00 0. -1.
<mgrwt>
<rscale>  0 0.90045573E+02</rscale>
<asrwt>0</asrwt>
<pdfrwt beam="1">  1        2 0.29677629E+00 0.90045573E+02</pdfrwt>
<pdfrwt beam="2">  1       -1 0.16166233E-03 0.90045573E+02</pdfrwt>
<totfact> 0.21016072E+05</totfact>
</mgrwt>
</event>
<event>
 8    1  0.2389776E-020  0.7958685E+02  0.7818608E-02  0.1330228E+00
         -1   -1    0    0    0  501 -0.00000000000E+00  0.00000000000E+00  0.22388006851E+01  0.22388063581E+01  0.50400000000E-02 0.  1.
          2   -1    0    0  501    0  0.00000000000E+00 -0.00000000000E+00 -0.70730481278E+03  0.70730481278E+03  0.25500000000E-02 0. -1.
         24    2    1    2    0    0  0.00000000000E+00  0.00000000000E+00 -0.70506601209E+03  0.70954361914E+03  0.79586845990E+02 0.  0.
         66    2    3    3    0    0 -0.24569176755E+02 -0.20821665639E+02 -0.56075680790E+03  0.56168441657E+03  0.20000008664E+01 0.  0.
        -13    1    3    3    0    0  0.24569176755E+02  0.20821665639E+02 -0.14430920419E+03  0.14785920257E+03  0.10566000000E+00 0.  1.
         13    1    4    4    0    0 -0.18721048841E+02 -0.15595366070E+02 -0.41784043916E+03  0.41855027999E+03  0.10566000000E+00 0. -1.
        -13    1    4    4    0    0 -0.10559515880E+01 -0.57061461358E+00 -0.19853616875E+02  0.19890145847E+02  0.10566000000E+00 0.  1.
        -14    1    4    4    0    0 -0.47921763259E+01 -0.46556849550E+01 -0.12306275186E+03  0.12324399074E+03  0.00000000000E+00 0.  1.
<mgrwt>
<rscale>  0 0.79586846E+02</rscale>
<asrwt>0</asrwt>
<pdfrwt beam="1">  1        2 0.10881595E+00 0.79586846E+02</pdfrwt>
<pdfrwt beam="2">  1       -1 0.34443188E-03 0.79586846E+02</pdfrwt>
<totfact> 0.33984801E+05</totfact>
</mgrwt>
</event>
<event>
 8    1  0.2389776E-020  0.7976310E+02  0.7818608E-02  0.1329725E+00
         -1   -1    0    0    0  501 -0.00000000000E+00  0.00000000000E+00  0.22904030768E+01  0.22904086220E+01  0.50400000000E-02 0.  1.
          2   -1    0    0  501    0  0.00000000000E+00 -0.00000000000E+00 -0.69443506577E+03  0.69443506578E+03  0.25500000000E-02 0. -1.
         24    2    1    2    0    0  0.35527136788E-14 -0.35527136788E-14 -0.69214466270E+03  0.69672547440E+03  0.79763102864E+02 0.  0.
         66    2    3    3    0    0 -0.29066993553E+02  0.22874795630E+02 -0.47596316583E+03  0.47740243151E+03  0.19999997965E+01 0.  0.
        -13    1    3    3    0    0  0.29066993553E+02 -0.22874795630E+02 -0.21618149687E+03  0.21932304289E+03  0.10566000000E+00 0.  1.
         13    1    4    4    0    0 -0.91020028748E+01  0.68932020701E+01 -0.14949796282E+03  0.14993336768E+03  0.10566000000E+00 0. -1.
        -13    1    4    4    0    0 -0.10225454523E+02  0.88019897110E+01 -0.16429098793E+03  0.16484409247E+03  0.10566000000E+00 0.  1.
        -14    1    4    4    0    0 -0.97395361548E+01  0.71796038488E+01 -0.16217421508E+03  0.16262497136E+03  0.00000000000E+00 0.  1.
<mgrwt>
<rscale>  0 0.79763103E+02</rscale>
<asrwt>0</asrwt>
<pdfrwt beam="1">  1        2 0.10683600E+00 0.79763103E+02</pdfrwt>
<pdfrwt beam="2">  1       -1 0.35237069E-03 0.79763103E+02</pdfrwt>
<totfact> 0.33648637E+05</totfact>
</mgrwt>
</event>
<event>
 8    1  0.2389776E-020  0.8041719E+02  0.7818608E-02  0.1327872E+00
         -1   -1    0    0    0  501 -0.00000000000E+00  0.00000000000E+00  0.75690820321E+01  0.75690837101E+01  0.50400000000E-02 0.  1.
          2   -1    0    0  501    0  0.00000000000E+00 -0.00000000000E+00 -0.21359667954E+03  0.21359667955E+03  0.25500000000E-02 0. -1.
         24    2    1    2    0    0  0.00000000000E+00  0.00000000000E+00 -0.20602759751E+03  0.22116576326E+03  0.80417186632E+02 0.  0.
         66    2    3    3    0    0  0.36121047242E+02 -0.16260962875E+02 -0.12164435385E+03  0.12794724611E+03  0.19999986324E+01 0.  0.
        -13    1    3    3    0    0 -0.36121047242E+02  0.16260962875E+02 -0.84383243656E+02  0.93218517159E+02  0.10566000000E+00 0.  1.
         13    1    4    4    0    0  0.10525794253E+02 -0.44536504494E+01 -0.33522555527E+02  0.35417513183E+02  0.10566000000E+00 0. -1.
        -13    1    4    4    0    0  0.68033172858E+01 -0.25297102384E+01 -0.22163137017E+02  0.23321671605E+02  0.10566000000E+00 0.  1.
         14    1    4    4    0    0  0.18791935703E+02 -0.92776021875E+01 -0.65958661308E+02  0.69208061318E+02  0.00000000000E+00 0. -1.
<mgrwt>
<rscale>  0 0.80417187E+02</rscale>
<asrwt>0</asrwt>
<pdfrwt beam="1">  1        2 0.32861023E-01 0.80417187E+02</pdfrwt>
<pdfrwt beam="2">  1       -1 0.11644745E-02 0.80417187E+02</pdfrwt>
<totfact> 0.22263852E+05</totfact>
</mgrwt>
</event>
<event>
 8    1  0.2389776E-020  0.7682352E+02  0.7818608E-02  0.1338315E+00
          2   -1    0    0  501    0  0.00000000000E+00  0.00000000000E+00  0.10102782400E+04  0.10102782400E+04  0.25500000000E-02 0. -1.
         -1   -1    0    0    0  501 -0.00000000000E+00 -0.00000000000E+00 -0.14604482567E+01  0.14604569532E+01  0.50400000000E-02 0.  1.
         24    2    1    2    0    0 -0.35527136788E-14 -0.44408920985E-15  0.10088177917E+04  0.10117386969E+04  0.76823524920E+02 0.  0.
         66    2    3    3    0    0 -0.21355109433E+02 -0.31733010309E+01  0.92273789494E+03  0.92299259655E+03  0.20000006178E+01 0.  0.
        -13    1    3    3    0    0  0.21355109433E+02  0.31733010309E+01  0.86079896792E+02  0.88746100388E+02  0.10566000000E+00 0.  1.
         13    1    4    4    0    0 -0.81547734699E+01 -0.94863394104E+00  0.31736758165E+03  0.31747376787E+03  0.10566000000E+00 0. -1.
        -13    1    4    4    0    0 -0.77492470384E+01 -0.16077753951E+01  0.34631762466E+03  0.34640806008E+03  0.10566000000E+00 0.  1.
         14    1    4    4    0    0 -0.54510889249E+01 -0.61689169474E+00  0.25905268862E+03  0.25911076860E+03  0.00000000000E+00 0. -1.
<mgrwt>
<rscale>  0 0.76823525E+02</rscale>
<asrwt>0</asrwt>
<pdfrwt beam="1">  1        2 0.15542735E+00 0.76823525E+02</pdfrwt>
<pdfrwt beam="2">  1       -1 0.22468512E-03 0.76823525E+02</pdfrwt>
<totfact> 0.39145583E+05</totfact>
</mgrwt>
</event>
<event>
 8    1  0.2389776E-020  0.7774342E+02  0.7818608E-02  0.1335580E+00
         -1   -1    0    0    0  501 -0.00000000000E+00  0.00000000000E+00  0.15122780637E+03  0.15122780646E+03  0.50400000000E-02 0.  1.
          2   -1    0    0  501    0  0.00000000000E+00 -0.00000000000E+00 -0.99916124616E+01  0.99916127870E+01  0.25500000000E-02 0. -1.
         24    2    1    2    0    0  0.00000000000E+00  0.00000000000E+00  0.14123619391E+03  0.16121941924E+03  0.77743415610E+02 0.  0.
         66    2    3    3    0    0 -0.54609841620E+01 -0.29629341534E+02  0.19814375745E+02  0.36115505162E+02  0.19999997920E+01 0.  0.
        -13    1    3    3    0    0  0.54609841620E+01  0.29629341534E+02  0.12142181817E+03  0.12510391408E+03  0.10566000000E+00 0.  1.
         13    1    4    4    0    0 -0.21747986987E+01 -0.15309206728E+02  0.10446726758E+02  0.18661372512E+02  0.10566000000E+00 0. -1.
        -13    1    4    4    0    0 -0.10163840548E+01 -0.43209866463E+01  0.33806104754E+01  0.55806499054E+01  0.10566000000E+00 0. -1.
         14    1    4    4    0    0 -0.22698014085E+01 -0.99991481595E+01  0.59870385114E+01  0.11873482745E+02  0.00000000000E+00 0. -1.
<mgrwt>
<rscale>  0 0.77743416E+02</rscale>
<asrwt>0</asrwt>
<pdfrwt beam="1">  1        2 0.15371712E-02 0.77743416E+02</pdfrwt>
<pdfrwt beam="2">  1       -1 0.23265817E-01 0.77743416E+02</pdfrwt>
<totfact> 0.11572058E+05</totfact>
</mgrwt>
</event>
<event>
 8    1  0.2389776E-020  0.7915700E+02  0.7818608E-02  0.1331461E+00
          2   -1    0    0  501    0  0.00000000000E+00  0.00000000000E+00  0.94324634654E+02  0.94324634689E+02  0.25500000000E-02 0. -1.
         -1   -1    0    0    0  501 -0.00000000000E+00 -0.00000000000E+00 -0.16607087401E+02  0.16607088166E+02  0.50400000000E-02 0.  1.
         24    2    1    2    0    0  0.71054273576E-14 -0.17763568394E-14  0.77717547253E+02  0.11093172285E+03  0.79156995802E+02 0.  0.
         66    2    3    3    0    0  0.35208914624E+02 -0.15716466600E+02  0.26524218920E+02  0.46842386602E+02  0.20000004488E+01 0.  0.
        -13    1    3    3    0    0 -0.35208914624E+02  0.15716466600E+02  0.51193328333E+02  0.64089336253E+02  0.10566000000E+00 0.  1.
         13    1    4    4    0    0  0.15600424577E+02 -0.70670026130E+01  0.11656539806E+02  0.20717187483E+02  0.10566000000E+00 0. -1.
        -13    1    4    4    0    0  0.18785529582E+02 -0.79477859511E+01  0.14207186052E+02  0.24857971010E+02  0.10566000000E+00 0.  1.
        -14    1    4    4    0    0  0.82296046595E+00 -0.70167803603E+00  0.66049306221E+00  0.12672281089E+01  0.00000000000E+00 0.  1.
<mgrwt>
<rscale>  0 0.79156996E+02</rscale>
<asrwt>0</asrwt>
<pdfrwt beam="1">  1        2 0.14511482E-01 0.79156996E+02</pdfrwt>
<pdfrwt beam="2">  1       -1 0.25549366E-02 0.79156996E+02</pdfrwt>
<totfact> 0.17943946E+05</totfact>
</mgrwt>
</event>
<event>
 8    1  0.2389776E-020  0.7519829E+02  0.7818608E-02  0.1343258E+00
         -1   -1    0    0    0  501 -0.00000000000E+00  0.00000000000E+00  0.27592611158E+02  0.27592611618E+02  0.50400000000E-02 0.  1.
          2   -1    0    0  501    0  0.00000000000E+00 -0.00000000000E+00 -0.51234570371E+02  0.51234570434E+02  0.25500000000E-02 0. -1.
         24    2    1    2    0    0 -0.88817841970E-15 -0.17763568394E-14 -0.23641959213E+02  0.78827182052E+02  0.75198287180E+02 0.  0.
         66    2    3    3    0    0 -0.75382856043E+01 -0.10750100845E+02 -0.48731864085E+02  0.50509256483E+02  0.19999987938E+01 0.  0.
        -13    1    3    3    0    0  0.75382856043E+01  0.10750100845E+02  0.25089904872E+02  0.28317925569E+02  0.10566000000E+00 0.  1.
         13    1    4    4    0    0 -0.17525653816E+01 -0.31084212216E+01 -0.12444396163E+02  0.12946348049E+02  0.10566000000E+00 0. -1.
        -13    1    4    4    0    0 -0.18028809284E+01 -0.35450082245E+01 -0.13945292019E+02  0.14501717018E+02  0.10566000000E+00 0.  1.
        -14    1    4    4    0    0 -0.39828392942E+01 -0.40966713987E+01 -0.22342175904E+02  0.23061191416E+02  0.00000000000E+00 0.  1.
<mgrwt>
<rscale>  0 0.75198287E+02</rscale>
<asrwt>0</asrwt>
<pdfrwt beam="1">  1        2 0.78822416E-02 0.75198287E+02</pdfrwt>
<pdfrwt beam="2">  1       -1 0.42450172E-02 0.75198287E+02</pdfrwt>
<totfact> 0.17782503E+05</totfact>
</mgrwt>
</event>
<event>
 8    1  0.2389776E-020  0.7890955E+02  0.7818608E-02  0.1332175E+00
          2   -1    0    0  501    0  0.00000000000E+00  0.00000000000E+00  0.66462159930E+03  0.66462159930E+03  0.25500000000E-02 0. -1.
         -1   -1    0    0    0  501 -0.00000000000E+00 -0.00000000000E+00 -0.23422010601E+01  0.23422064826E+01  0.50400000000E-02 0.  1.
         24    2    1    2    0    0 -0.88817841970E-15  0.35527136788E-14  0.66227939824E+03  0.66696380578E+03  0.78909548836E+02 0.  0.
         66    2    3    3    0    0 -0.53207615722E+01  0.20909387497E+02  0.61029697140E+03  0.61068150969E+03  0.19999985860E+01 0.  0.
        -13    1    3    3    0    0  0.53207615722E+01 -0.20909387497E+02  0.51982426837E+02  0.56282296089E+02  0.10566000000E+00 0.  1.
         13    1    4    4    0    0 -0.15352562259E+01  0.81696747244E+01  0.23080341463E+03  0.23095308607E+03  0.10566000000E+00 0. -1.
        -13    1    4    4    0    0 -0.76484196538E+00  0.17883190251E+01  0.67535341495E+02  0.67563426372E+02  0.10566000000E+00 0.  1.
         14    1    4    4    0    0 -0.30206633809E+01  0.10951393747E+02  0.31195821527E+03  0.31216499725E+03  0.00000000000E+00 0. -1.
<mgrwt>
<rscale>  0 0.78909549E+02</rscale>
<asrwt>0</asrwt>
<pdfrwt beam="1">  1        2 0.10224951E+00 0.78909549E+02</pdfrwt>
<pdfrwt beam="2">  1       -1 0.36033892E-03 0.78909549E+02</pdfrwt>
<totfact> 0.34240772E+05</totfact>
</mgrwt>
</event>
<event>
 8    1  0.2389776E-020  0.8098461E+02  0.7818608E-02  0.1326280E+00
         -1   -1    0    0    0  501 -0.00000000000E+00  0.00000000000E+00  0.24695980531E+01  0.24696031960E+01  0.50400000000E-02 0.  1.
          2   -1    0    0  501    0  0.00000000000E+00 -0.00000000000E+00 -0.66392380811E+03  0.66392380811E+03  0.25500000000E-02 0. -1.
         24    2    1    2    0    0 -0.17763568394E-14  0.00000000000E+00 -0.66145421006E+03  0.66639341131E+03  0.80984607405E+02 0.  0.
         66    2    3    3    0    0 -0.80470887824E+01 -0.25826654741E+02 -0.57858852299E+03  0.57922400733E+03  0.20000002117E+01 0.  0.
        -13    1    3    3    0    0  0.80470887824E+01  0.25826654741E+02 -0.82865687069E+02  0.87169403981E+02  0.10566000000E+00 0.  1.
         13    1    4    4    0    0 -0.28755304678E+01 -0.91931052996E+01 -0.20655072032E+03  0.20677522359E+03  0.10566000000E+00 0. -1.
        -13    1    4    4    0    0 -0.35750896814E+01 -0.11106241812E+02 -0.26441656079E+03  0.26467387226E+03  0.10566000000E+00 0.  1.
        -14    1    4    4    0    0 -0.15964686333E+01 -0.55273076290E+01 -0.10762124188E+03  0.10777491148E+03  0.00000000000E+00 0.  1.
<mgrwt>
<rscale>  0 0.80984607E+02</rscale>
<asrwt>0</asrwt>
<pdfrwt beam="1">  1        2 0.10214198E+00 0.80984607E+02</pdfrwt>
<pdfrwt beam="2">  1       -1 0.37993909E-03 0.80984607E+02</pdfrwt>
<totfact> 0.31997745E+05</totfact>
</mgrwt>
</event>
<event>
 8    1  0.2389776E-020  0.8148616E+02  0.7818608E-02  0.1324886E+00
         -1   -1    0    0    0  501 -0.00000000000E+00  0.00000000000E+00  0.65056460169E+02  0.65056460365E+02  0.50400000000E-02 0.  1.
          2   -1    0    0  501    0  0.00000000000E+00 -0.00000000000E+00 -0.25516275606E+02  0.25516275734E+02  0.25500000000E-02 0. -1.
         24    2    1    2    0    0  0.00000000000E+00  0.00000000000E+00  0.39540184563E+02  0.90572736098E+02  0.81486160353E+02 0.  0.
         66    2    3    3    0    0  0.37143013462E+02 -0.58028375076E+01  0.23941179913E+01  0.37722780583E+02  0.20000004345E+01 0.  0.
        -13    1    3    3    0    0 -0.37143013462E+02  0.58028375076E+01  0.37146066572E+02  0.52849955516E+02  0.10566000000E+00 0.  1.
         13    1    4    4    0    0  0.13114777148E+02 -0.21439452140E+01  0.10258989640E+01  0.13328822658E+02  0.10566000000E+00 0. -1.
        -13    1    4    4    0    0  0.22576916923E+02 -0.35659059735E+01  0.16348356362E+01  0.22915425258E+02  0.10566000000E+00 0.  1.
        -14    1    4    4    0    0  0.14513193910E+01 -0.92986320060E-01 -0.26661660893E+00  0.14785326667E+01  0.00000000000E+00 0.  1.
<mgrwt>
<rscale>  0 0.81486160E+02</rscale>
<asrwt>0</asrwt>
<pdfrwt beam="1">  1        2 0.39255809E-02 0.81486160E+02</pdfrwt>
<pdfrwt beam="2">  1       -1 0.10008686E-01 0.81486160E+02</pdfrwt>
<totfact> 0.12370616E+05</totfact>
</mgrwt>
</event>
<event>
 8    1  0.2389776E-020  0.7961795E+02  0.7818608E-02  0.1330139E+00
         -1   -1    0    0    0  501 -0.00000000000E+00  0.00000000000E+00  0.13599495690E+03  0.13599495700E+03  0.50400000000E-02 0.  1.
          2   -1    0    0  501    0  0.00000000000E+00 -0.00000000000E+00 -0.11653037863E+02  0.11653038142E+02  0.25500000000E-02 0. -1.
         24    2    1    2    0    0  0.00000000000E+00  0.00000000000E+00  0.12434191904E+03  0.14764799514E+03  0.79617947963E+02 0.  0.
         66    2    3    3    0    0 -0.97170264198E+01 -0.33121331352E+02  0.25526225156E+02  0.42977102743E+02  0.19999991321E+01 0.  0.
        -13    1    3    3    0    0  0.97170264198E+01  0.33121331352E+02  0.98815693886E+02  0.10467089240E+03  0.10566000000E+00 0.  1.
         13    1    4    4    0    0 -0.28364125487E+00 -0.87547279467E+00  0.87522462935E+00  0.12743967840E+01  0.10566000000E+00 0.  1.
        -13    1    4    4    0    0 -0.49458741190E+01 -0.17527596573E+02  0.12379670008E+02  0.22021482828E+02  0.10566000000E+00 0.  1.
         14    1    4    4    0    0 -0.44875110460E+01 -0.14718261984E+02  0.12271330518E+02  0.19681223131E+02  0.00000000000E+00 0. -1.
<mgrwt>
<rscale>  0 0.79617948E+02</rscale>
<asrwt>0</asrwt>
<pdfrwt beam="1">  1        2 0.17927750E-02 0.79617948E+02</pdfrwt>
<pdfrwt beam="2">  1       -1 0.20922302E-01 0.79617948E+02</pdfrwt>
<totfact> 0.11187573E+05</totfact>
</mgrwt>
</event>
<event>
 8    1  0.2389776E-020  0.8149025E+02  0.7818608E-02  0.1324875E+00
          2   -1    0    0  501    0  0.00000000000E+00  0.00000000000E+00  0.44426259941E+03  0.44426259942E+03  0.25500000000E-02 0. -1.
         -1   -1    0    0    0  501 -0.00000000000E+00 -0.00000000000E+00 -0.37368993040E+01  0.37369027028E+01  0.50400000000E-02 0.  1.
         24    2    1    2    0    0 -0.35527136788E-14  0.35527136788E-14  0.44052570011E+03  0.44799950212E+03  0.81490253688E+02 0.  0.
         66    2    3    3    0    0  0.30617946206E+02 -0.26750797973E+02  0.20798406055E+03  0.21193025568E+03  0.20000022180E+01 0.  0.
        -13    1    3    3    0    0 -0.30617946206E+02  0.26750797973E+02  0.23254163956E+03  0.23606924644E+03  0.10566000000E+00 0.  1.
         13    1    4    4    0    0  0.10944440082E+02 -0.93687056456E+01  0.77462530874E+02  0.78790914880E+02  0.10566000000E+00 0.  1.
        -13    1    4    4    0    0  0.29760459639E+01 -0.22034488095E+01  0.17831788577E+02  0.18212519983E+02  0.10566000000E+00 0. -1.
        -14    1    4    4    0    0  0.16697460160E+02 -0.15178643518E+02  0.11268974110E+03  0.11492682082E+03  0.00000000000E+00 0.  1.
<mgrwt>
<rscale>  0 0.81490254E+02</rscale>
<asrwt>0</asrwt>
<pdfrwt beam="1">  1        2 0.68348104E-01 0.81490254E+02</pdfrwt>
<pdfrwt beam="2">  1       -1 0.57490775E-03 0.81490254E+02</pdfrwt>
<totfact> 0.27913306E+05</totfact>
</mgrwt>
</event>
<event>
 8    1  0.2389776E-020  0.7972533E+02  0.7818608E-02  0.1329833E+00
         -1   -1    0    0    0  501 -0.00000000000E+00  0.00000000000E+00  0.31673039088E+01  0.31673079188E+01  0.50400000000E-02 0.  1.
          2   -1    0    0  501    0  0.00000000000E+00 -0.00000000000E+00 -0.50169831543E+03  0.50169831544E+03  0.25500000000E-02 0. -1.
         24    2    1    2    0    0  0.00000000000E+00  0.00000000000E+00 -0.49853101153E+03  0.50486562336E+03  0.79725329712E+02 0.  0.
         66    2    3    3    0    0 -0.81763309370E+01 -0.29247094100E+02 -0.41269673580E+03  0.41381740013E+03  0.20000011954E+01 0.  0.
        -13    1    3    3    0    0  0.81763309370E+01  0.29247094100E+02 -0.85834275721E+02  0.91048223231E+02  0.10566000000E+00 0.  1.
         13    1    4    4    0    0 -0.11361192268E+01 -0.40605724076E+01 -0.52426200970E+02  0.52595596084E+02  0.10566000000E+00 0. -1.
        -13    1    4    4    0    0 -0.15789393413E+01 -0.64087887595E+01 -0.82430499047E+02  0.82694401020E+02  0.10566000000E+00 0.  1.
         14    1    4    4    0    0 -0.54612723689E+01 -0.18777732933E+02 -0.27784003579E+03  0.27852740303E+03  0.00000000000E+00 0. -1.
<mgrwt>
<rscale>  0 0.79725330E+02</rscale>
<asrwt>0</asrwt>
<pdfrwt beam="1">  1        2 0.77184293E-01 0.79725330E+02</pdfrwt>
<pdfrwt beam="2">  1       -1 0.48727823E-03 0.79725330E+02</pdfrwt>
<totfact> 0.30758640E+05</totfact>
</mgrwt>
</event>
<event>
 8    1  0.2389776E-020  0.8032941E+02  0.7818608E-02  0.1328119E+00
          2   -1    0    0  501    0  0.00000000000E+00  0.00000000000E+00  0.19367782204E+03  0.19367782205E+03  0.25500000000E-02 0. -1.
         -1   -1    0    0    0  501 -0.00000000000E+00 -0.00000000000E+00 -0.83293148088E+01  0.83293163337E+01  0.50400000000E-02 0.  1.
         24    2    1    2    0    0  0.00000000000E+00  0.44408920985E-15  0.18534850723E+03  0.20200713839E+03  0.80329414461E+02 0.  0.
         66    2    3    3    0    0 -0.40047540643E+02  0.27188494404E+01  0.92648563866E+02  0.10098987097E+03  0.19999993776E+01 0.  0.
        -13    1    3    3    0    0  0.40047540643E+02 -0.27188494404E+01  0.92699943360E+02  0.10101726742E+03  0.10566000000E+00 0.  1.
         13    1    4    4    0    0 -0.35430272348E+02  0.25124020231E+01  0.81660967889E+02  0.89051340266E+02  0.10566000000E+00 0. -1.
        -13    1    4    4    0    0 -0.13503547296E+01 -0.22640790452E+00  0.31575180657E+01  0.34432256397E+01  0.10566000000E+00 0.  1.
        -14    1    4    4    0    0 -0.32669135657E+01  0.43285532184E+00  0.78300779119E+01  0.84953050611E+01  0.00000000000E+00 0.  1.
<mgrwt>
<rscale>  0 0.80329414E+02</rscale>
<asrwt>0</asrwt>
<pdfrwt beam="1">  1        2 0.29796588E-01 0.80329414E+02</pdfrwt>
<pdfrwt beam="2">  1       -1 0.12814332E-02 0.80329414E+02</pdfrwt>
<totfact> 0.21579190E+05</totfact>
</mgrwt>
</event>
<event>
 8    1  0.2389776E-020  0.7478781E+02  0.7818608E-02  0.1344529E+00
         -1   -1    0    0    0  501 -0.00000000000E+00  0.00000000000E+00  0.96616801417E+02  0.96616801548E+02  0.50400000000E-02 0.  1.
          2   -1    0    0  501    0  0.00000000000E+00 -0.00000000000E+00 -0.14472678826E+02  0.14472679050E+02  0.25500000000E-02 0. -1.
         24    2    1    2    0    0  0.00000000000E+00 -0.35527136788E-14  0.82144122591E+02  0.11108948060E+03  0.74787805312E+02 0.  0.
         66    2    3    3    0    0  0.88369352162E+01 -0.23354017129E+02 -0.19151260734E+00  0.25050713013E+02  0.20000013273E+01 0.  0.
        -13    1    3    3    0    0 -0.88369352162E+01  0.23354017129E+02  0.82335635199E+02  0.86038767586E+02  0.10566000000E+00 0.  1.
         13    1    4    4    0    0  0.51047310048E+01 -0.13748881550E+02 -0.98287100577E-01  0.14666657659E+02  0.10566000000E+00 0. -1.
        -13    1    4    4    0    0  0.26909125600E+01 -0.71513677883E+01  0.48319174466E+00  0.76568733793E+01  0.10566000000E+00 0.  1.
         14    1    4    4    0    0  0.10412916514E+01 -0.24537677909E+01 -0.57641725143E+00  0.27271819746E+01  0.00000000000E+00 0. -1.
<mgrwt>
<rscale>  0 0.74787805E+02</rscale>
<asrwt>0</asrwt>
<pdfrwt beam="1">  1        2 0.22265661E-02 0.74787805E+02</pdfrwt>
<pdfrwt beam="2">  1       -1 0.14864122E-01 0.74787805E+02</pdfrwt>
<totfact> 0.14119783E+05</totfact>
</mgrwt>
</event>
<event>
 8    1  0.2389776E-020  0.7804796E+02  0.7818608E-02  0.1334684E+00
          2   -1    0    0  501    0  0.00000000000E+00  0.00000000000E+00  0.35115758306E+02  0.35115758399E+02  0.25500000000E-02 0. -1.
         -1   -1    0    0    0  501 -0.00000000000E+00 -0.00000000000E+00 -0.43367166275E+02  0.43367166568E+02  0.50400000000E-02 0.  1.
         24    2    1    2    0    0 -0.88817841970E-15  0.71054273576E-14 -0.82514079691E+01  0.78482924967E+02  0.78047958191E+02 0.  0.
         66    2    3    3    0    0  0.35527354796E+01 -0.32109803043E+02  0.17838352225E+02  0.36957653963E+02  0.19999988818E+01 0.  0.
        -13    1    3    3    0    0 -0.35527354796E+01  0.32109803043E+02 -0.26089760194E+02  0.41525271003E+02  0.10566000000E+00 0.  1.
         13    1    4    4    0    0  0.23896051369E+01 -0.24718875857E+02  0.13458845255E+02  0.28246853205E+02  0.10566000000E+00 0. -1.
        -13    1    4    4    0    0  0.36290271815E+00 -0.36147818633E+01  0.25455969780E+01  0.44372935797E+01  0.10566000000E+00 0.  1.
        -14    1    4    4    0    0  0.80022762452E+00 -0.37761453226E+01  0.18339099923E+01  0.42735071789E+01  0.00000000000E+00 0.  1.
<mgrwt>
<rscale>  0 0.78047958E+02</rscale>
<asrwt>0</asrwt>
<pdfrwt beam="1">  1        2 0.54024244E-02 0.78047958E+02</pdfrwt>
<pdfrwt beam="2">  1       -1 0.66718718E-02 0.78047958E+02</pdfrwt>
<totfact> 0.14868509E+05</totfact>
</mgrwt>
</event>
<event>
 8    1  0.2389776E-020  0.8174562E+02  0.7818608E-02  0.1324169E+00
         -1   -1    0    0    0  501 -0.00000000000E+00  0.00000000000E+00  0.61423250953E+01  0.61423271630E+01  0.50400000000E-02 0.  1.
          2   -1    0    0  501    0  0.00000000000E+00 -0.00000000000E+00 -0.27197949570E+03  0.27197949571E+03  0.25500000000E-02 0. -1.
         24    2    1    2    0    0  0.00000000000E+00  0.00000000000E+00 -0.26583717061E+03  0.27812182288E+03  0.81745624251E+02 0.  0.
         66    2    3    3    0    0  0.19523388467E+02 -0.30385488085E+02 -0.19792195612E+03  0.20120025174E+03  0.20000005572E+01 0.  0.
        -13    1    3    3    0    0 -0.19523388467E+02  0.30385488085E+02 -0.67915214483E+02  0.76921571134E+02  0.10566000000E+00 0.  1.
         13    1    4    4    0    0  0.44341489607E+01 -0.69310977339E+01 -0.43713904895E+02  0.44481664065E+02  0.10566000000E+00 0.  1.
        -13    1    4    4    0    0  0.79718768236E+01 -0.11199326996E+02 -0.78890520003E+02  0.80079342252E+02  0.10566000000E+00 0. -1.
         14    1    4    4    0    0  0.71173626827E+01 -0.12255063355E+02 -0.75317531225E+02  0.76639245424E+02  0.00000000000E+00 0. -1.
<mgrwt>
<rscale>  0 0.81745624E+02</rscale>
<asrwt>0</asrwt>
<pdfrwt beam="1">  1        2 0.41842990E-01 0.81745624E+02</pdfrwt>
<pdfrwt beam="2">  1       -1 0.94497347E-03 0.81745624E+02</pdfrwt>
<totfact> 0.23247779E+05</totfact>
</mgrwt>
</event>
<event>
 8    1  0.2389776E-020  0.7885801E+02  0.7818608E-02  0.1332324E+00
         -1   -1    0    0    0  501 -0.00000000000E+00  0.00000000000E+00  0.88900747010E+00  0.88902175648E+00  0.50400000000E-02 0.  1.
          2   -1    0    0  501    0  0.00000000000E+00 -0.00000000000E+00 -0.17487297082E+04  0.17487297082E+04  0.25500000000E-02 0. -1.
         24    2    1    2    0    0  0.00000000000E+00 -0.35527136788E-14 -0.17478407007E+04  0.17496187299E+04  0.78858005890E+02 0.  0.
         66    2    3    3    0    0  0.84932695105E+01 -0.16376768236E+02 -0.16469906574E+04  0.16470951884E+04  0.20000006534E+01 0.  0.
        -13    1    3    3    0    0 -0.84932695105E+01  0.16376768236E+02 -0.10085004328E+03  0.10252354148E+03  0.10566000000E+00 0.  1.
         13    1    4    4    0    0  0.45842098794E+01 -0.98809511820E+01 -0.91716621056E+03  0.91723089630E+03  0.10566000000E+00 0. -1.
        -13    1    4    4    0    0  0.34287034373E+01 -0.59838909541E+01 -0.64242072241E+03  0.64245774857E+03  0.10566000000E+00 0.  1.
        -14    1    4    4    0    0  0.48035619375E+00 -0.51192610017E+00 -0.87403724440E+02  0.87406543556E+02  0.00000000000E+00 0.  1.
<mgrwt>
<rscale>  0 0.78858006E+02</rscale>
<asrwt>0</asrwt>
<pdfrwt beam="1">  1        2 0.26903259E+00 0.78858006E+02</pdfrwt>
<pdfrwt beam="2">  1       -1 0.13677288E-03 0.78858006E+02</pdfrwt>
<totfact> 0.31975916E+05</totfact>
</mgrwt>
</event>
<event>
 8    1  0.2389776E-020  0.7436384E+02  0.7818608E-02  0.1345852E+00
          2   -1    0    0  501    0  0.00000000000E+00  0.00000000000E+00  0.34078365451E+03  0.34078365452E+03  0.25500000000E-02 0. -1.
         -1   -1    0    0    0  501 -0.00000000000E+00 -0.00000000000E+00 -0.40568106075E+01  0.40568137382E+01  0.50400000000E-02 0.  1.
         24    2    1    2    0    0  0.00000000000E+00  0.00000000000E+00  0.33672684390E+03  0.34484046826E+03  0.74363842987E+02 0.  0.
         66    2    3    3    0    0  0.10005178356E+02  0.15840990550E+02  0.31726981239E+03  0.31782884456E+03  0.20000012109E+01 0.  0.
        -13    1    3    3    0    0 -0.10005178356E+02 -0.15840990550E+02  0.19457031518E+02  0.27011623703E+02  0.10566000000E+00 0.  1.
         13    1    4    4    0    0  0.45369478950E+01  0.63896567703E+01  0.13497255643E+03  0.13519990297E+03  0.10566000000E+00 0. -1.
        -13    1    4    4    0    0  0.59888154331E-01  0.69681474378E+00  0.10551079646E+02  0.10574761610E+02  0.10566000000E+00 0.  1.
         14    1    4    4    0    0  0.54083423068E+01  0.87545190362E+01  0.17174617631E+03  0.17205417998E+03  0.00000000000E+00 0. -1.
<mgrwt>
<rscale>  0 0.74363843E+02</rscale>
<asrwt>0</asrwt>
<pdfrwt beam="1">  1        2 0.52428272E-01 0.74363843E+02</pdfrwt>
<pdfrwt beam="2">  1       -1 0.62412474E-03 0.74363843E+02</pdfrwt>
<totfact> 0.32294525E+05</totfact>
</mgrwt>
</event>
<event>
 8    1  0.2389776E-020  0.7945741E+02  0.7818608E-02  0.1330598E+00
          2   -1    0    0  501    0  0.00000000000E+00  0.00000000000E+00  0.25122377980E+02  0.25122378109E+02  0.25500000000E-02 0. -1.
         -1   -1    0    0    0  501 -0.00000000000E+00 -0.00000000000E+00 -0.62827246732E+02  0.62827246934E+02  0.50400000000E-02 0.  1.
         24    2    1    2    0    0  0.00000000000E+00  0.00000000000E+00 -0.37704868752E+02  0.87949625043E+02  0.79457406311E+02 0.  0.
         66    2    3    3    0    0  0.32311741993E+02  0.20732801992E+02 -0.76598592898E+01  0.39199122413E+02  0.20000011291E+01 0.  0.
        -13    1    3    3    0    0 -0.32311741993E+02 -0.20732801992E+02 -0.30045009462E+02  0.48750502630E+02  0.10566000000E+00 0.  1.
         13    1    4    4    0    0  0.25548775848E+02  0.16314572477E+02 -0.61090057242E+01  0.30923071280E+02  0.10566000000E+00 0. -1.
        -13    1    4    4    0    0  0.24795162974E+01  0.12516790894E+01 -0.82906794294E+00  0.29005549989E+01  0.10566000000E+00 0.  1.
         14    1    4    4    0    0  0.42834498484E+01  0.31665504252E+01 -0.72178562267E+00  0.53754961338E+01  0.00000000000E+00 0. -1.
<mgrwt>
<rscale>  0 0.79457406E+02</rscale>
<asrwt>0</asrwt>
<pdfrwt beam="1">  1        2 0.38649813E-02 0.79457406E+02</pdfrwt>
<pdfrwt beam="2">  1       -1 0.96657303E-02 0.79457406E+02</pdfrwt>
<totfact> 0.13245478E+05</totfact>
</mgrwt>
</event>
<event>
 8    1  0.2389776E-020  0.8294738E+02  0.7818608E-02  0.1320889E+00
         -1   -1    0    0    0  501 -0.00000000000E+00  0.00000000000E+00  0.12156882098E+03  0.12156882109E+03  0.50400000000E-02 0.  1.
          2   -1    0    0  501    0  0.00000000000E+00 -0.00000000000E+00 -0.14148913841E+02  0.14148914070E+02  0.25500000000E-02 0. -1.
         24    2    1    2    0    0  0.00000000000E+00  0.00000000000E+00  0.10741990714E+03  0.13571773516E+03  0.82947376003E+02 0.  0.
         66    2    3    3    0    0  0.21590050916E+02  0.35317569774E+02  0.57250625377E+02  0.70675986794E+02  0.19999924867E+01 0.  0.
        -13    1    3    3    0    0 -0.21590050916E+02 -0.35317569774E+02  0.50169281764E+02  0.65041748362E+02  0.10566000000E+00 0.  1.
         13    1    4    4    0    0  0.13748202229E+02  0.22733741588E+02  0.37166098297E+02  0.45685512997E+02  0.10566000000E+00 0. -1.
        -13    1    4    4    0    0  0.76404495837E+01  0.12047324767E+02  0.19586036267E+02  0.24230940646E+02  0.10566000000E+00 0.  1.
        -14    1    4    4    0    0  0.20139910272E+00  0.53650341921E+00  0.49849081196E+00  0.75953315069E+00  0.00000000000E+00 0.  1.
<mgrwt>
<rscale>  0 0.82947376E+02</rscale>
<asrwt>0</asrwt>
<pdfrwt beam="1">  1        2 0.21767559E-02 0.82947376E+02</pdfrwt>
<pdfrwt beam="2">  1       -1 0.18702896E-01 0.82947376E+02</pdfrwt>
<totfact> 0.10364683E+05</totfact>
</mgrwt>
</event>
<event>
 8    1  0.2389776E-020  0.7143869E+02  0.7818608E-02  0.1355268E+00
          2   -1    0    0  501    0  0.00000000000E+00  0.00000000000E+00  0.56490181448E+02  0.56490181505E+02  0.25500000000E-02 0. -1.
         -1   -1    0    0    0  501 -0.00000000000E+00 -0.00000000000E+00 -0.22585723490E+02  0.22585724052E+02  0.50400000000E-02 0.  1.
         24    2    1    2    0    0 -0.17763568394E-14  0.00000000000E+00  0.33904457958E+02  0.79075905558E+02  0.71438690990E+02 0.  0.
         66    2    3    3    0    0 -0.10824761059E+02  0.33806175239E+02  0.21082499602E+02  0.41334062513E+02  0.19999995157E+01 0.  0.
        -13    1    3    3    0    0  0.10824761059E+02 -0.33806175239E+02  0.12821958356E+02  0.37741843045E+02  0.10566000000E+00 0.  1.
         13    1    4    4    0    0 -0.20880559718E+01  0.73743571471E+01  0.42880685040E+01  0.87829275646E+01  0.10566000000E+00 0. -1.
        -13    1    4    4    0    0 -0.27257756536E+01  0.10531066875E+02  0.68976662095E+01  0.12881078589E+02  0.10566000000E+00 0.  1.
        -14    1    4    4    0    0 -0.60109294339E+01  0.15900751217E+02  0.98967648884E+01  0.19670056360E+02  0.00000000000E+00 0.  1.
<mgrwt>
<rscale>  0 0.71438691E+02</rscale>
<asrwt>0</asrwt>
<pdfrwt beam="1">  1        2 0.86907970E-02 0.71438691E+02</pdfrwt>
<pdfrwt beam="2">  1       -1 0.34747268E-02 0.71438691E+02</pdfrwt>
<totfact> 0.20847523E+05</totfact>
</mgrwt>
</event>
<event>
 8    1  0.2389776E-020  0.7920698E+02  0.7818608E-02  0.1331317E+00
          2   -1    0    0  501    0  0.00000000000E+00  0.00000000000E+00  0.73176553540E+02  0.73176553585E+02  0.25500000000E-02 0. -1.
         -1   -1    0    0    0  501 -0.00000000000E+00 -0.00000000000E+00 -0.21433594362E+02  0.21433594955E+02  0.50400000000E-02 0.  1.
         24    2    1    2    0    0  0.00000000000E+00  0.00000000000E+00  0.51742959178E+02  0.94610148540E+02  0.79206984428E+02 0.  0.
         66    2    3    3    0    0 -0.13316807747E+02  0.34889961975E+02  0.10232439206E+02  0.38773052917E+02  0.20000012938E+01 0.  0.
        -13    1    3    3    0    0  0.13316807747E+02 -0.34889961975E+02  0.41510519972E+02  0.55837095623E+02  0.10566000000E+00 0.  1.
         13    1    4    4    0    0 -0.39086367118E+01  0.10529093941E+02  0.27866849839E+01  0.11572209702E+02  0.10566000000E+00 0. -1.
        -13    1    4    4    0    0 -0.83006076815E+01  0.19877857569E+02  0.59866390946E+01  0.22358003513E+02  0.10566000000E+00 0.  1.
        -14    1    4    4    0    0 -0.11075633539E+01  0.44830104659E+01  0.14591151277E+01  0.48428397016E+01  0.00000000000E+00 0.  1.
<mgrwt>
<rscale>  0 0.79206984E+02</rscale>
<asrwt>0</asrwt>
<pdfrwt beam="1">  1        2 0.11257931E-01 0.79206984E+02</pdfrwt>
<pdfrwt beam="2">  1       -1 0.32974761E-02 0.79206984E+02</pdfrwt>
<totfact> 0.16769203E+05</totfact>
</mgrwt>
</event>
<event>
 8    1  0.2389776E-020  0.8088969E+02  0.7818608E-02  0.1326545E+00
          2   -1    0    0  501    0  0.00000000000E+00  0.00000000000E+00  0.38554318239E+03  0.38554318240E+03  0.25500000000E-02 0. -1.
         -1   -1    0    0    0  501 -0.00000000000E+00 -0.00000000000E+00 -0.42428064562E+01  0.42428094497E+01  0.50400000000E-02 0.  1.
         24    2    1    2    0    0 -0.35527136788E-14  0.00000000000E+00  0.38130037594E+03  0.38978599185E+03  0.80889694979E+02 0.  0.
         66    2    3    3    0    0 -0.18648072327E+02 -0.62675858819E+01  0.36091262211E+03  0.36145394455E+03  0.19999989166E+01 0.  0.
        -13    1    3    3    0    0  0.18648072327E+02  0.62675858819E+01  0.20387753824E+02  0.28332047302E+02  0.10566000000E+00 0.  1.
         13    1    4    4    0    0 -0.11263746700E+02 -0.45890714500E+01  0.21924341487E+03  0.21958054944E+03  0.10566000000E+00 0. -1.
        -13    1    4    4    0    0 -0.25740193927E+01 -0.23591196437E+00  0.48254434585E+02  0.48323729693E+02  0.10566000000E+00 0.  1.
         14    1    4    4    0    0 -0.48103062345E+01 -0.14426024675E+01  0.93414772657E+02  0.93549665411E+02  0.00000000000E+00 0. -1.
<mgrwt>
<rscale>  0 0.80889695E+02</rscale>
<asrwt>0</asrwt>
<pdfrwt beam="1">  1        2 0.59314328E-01 0.80889695E+02</pdfrwt>
<pdfrwt beam="2">  1       -1 0.65273977E-03 0.80889695E+02</pdfrwt>
<totfact> 0.27095685E+05</totfact>
</mgrwt>
</event>
<event>
 8    1  0.2389776E-020  0.8042118E+02  0.7818608E-02  0.1327860E+00
          2   -1    0    0  501    0  0.00000000000E+00  0.00000000000E+00  0.10565890585E+03  0.10565890589E+03  0.25500000000E-02 0. -1.
         -1   -1    0    0    0  501 -0.00000000000E+00 -0.00000000000E+00 -0.15302936520E+02  0.15302937350E+02  0.50400000000E-02 0.  1.
         24    2    1    2    0    0  0.00000000000E+00  0.35527136788E-14  0.90355969335E+02  0.12096184323E+03  0.80421180819E+02 0.  0.
         66    2    3    3    0    0 -0.24339101856E+02  0.28020816396E+02  0.68377285283E+02  0.77826802406E+02  0.19999998466E+01 0.  0.
        -13    1    3    3    0    0  0.24339101856E+02 -0.28020816396E+02  0.21978684052E+02  0.43135040829E+02  0.10566000000E+00 0.  1.
         13    1    4    4    0    0 -0.11582425847E+02  0.12915163576E+02  0.32491571349E+02  0.36832966368E+02  0.10566000000E+00 0. -1.
        -13    1    4    4    0    0 -0.10891639081E+00  0.19221592074E+00  0.28085940696E+00  0.37263357665E+00  0.10566000000E+00 0. -1.
         14    1    4    4    0    0 -0.12647759618E+02  0.14913436899E+02  0.35604854527E+02  0.40621202461E+02  0.00000000000E+00 0. -1.
<mgrwt>
<rscale>  0 0.80421181E+02</rscale>
<asrwt>0</asrwt>
<pdfrwt beam="1">  1        2 0.16255216E-01 0.80421181E+02</pdfrwt>
<pdfrwt beam="2">  1       -1 0.23542980E-02 0.80421181E+02</pdfrwt>
<totfact> 0.17752725E+05</totfact>
</mgrwt>
</event>
<event>
 8    1  0.2389776E-020  0.7731087E+02  0.7818608E-02  0.1336861E+00
          2   -1    0    0  501    0  0.00000000000E+00  0.00000000000E+00  0.92996252334E+01  0.92996255830E+01  0.25500000000E-02 0. -1.
         -1   -1    0    0    0  501 -0.00000000000E+00 -0.00000000000E+00 -0.16067772787E+03  0.16067772795E+03  0.50400000000E-02 0.  1.
         24    2    1    2    0    0  0.00000000000E+00  0.71054273576E-14 -0.15137810263E+03  0.16997735353E+03  0.77310870877E+02 0.  0.
         66    2    3    3    0    0 -0.10959715406E+02  0.35816294306E+02 -0.96518047239E+02  0.10355025709E+03  0.20000001319E+01 0.  0.
        -13    1    3    3    0    0  0.10959715406E+02 -0.35816294306E+02 -0.54860055394E+02  0.66427096440E+02  0.10566000000E+00 0.  1.
         13    1    4    4    0    0 -0.41176123520E+01  0.13822939088E+02 -0.37099641347E+02  0.39804810370E+02  0.10566000000E+00 0. -1.
        -13    1    4    4    0    0 -0.11253471928E+01  0.44219238048E+01 -0.13393376150E+02  0.14149682158E+02  0.10566000000E+00 0.  1.
        -14    1    4    4    0    0 -0.57167558617E+01  0.17571431414E+02 -0.46025029742E+02  0.49595764560E+02  0.00000000000E+00 0.  1.
<mgrwt>
<rscale>  0 0.77310871E+02</rscale>
<asrwt>0</asrwt>
<pdfrwt beam="1">  1        2 0.14307117E-02 0.77310871E+02</pdfrwt>
<pdfrwt beam="2">  1       -1 0.24719648E-01 0.77310871E+02</pdfrwt>
<totfact> 0.11554257E+05</totfact>
</mgrwt>
</event>
<event>
 8    1  0.2389776E-020  0.8005785E+02  0.7818608E-02  0.1328887E+00
         -1   -1    0    0    0  501 -0.00000000000E+00  0.00000000000E+00  0.26552668323E+02  0.26552668801E+02  0.50400000000E-02 0.  1.
          2   -1    0    0  501    0  0.00000000000E+00 -0.00000000000E+00 -0.60344773160E+02  0.60344773214E+02  0.25500000000E-02 0. -1.
         24    2    1    2    0    0  0.00000000000E+00  0.35527136788E-14 -0.33792104837E+02  0.86897442015E+02  0.80057848331E+02 0.  0.
         66    2    3    3    0    0 -0.30582535426E+02  0.10869644599E+02 -0.42289675607E+02  0.53346577349E+02  0.20000012642E+01 0.  0.
        -13    1    3    3    0    0  0.30582535426E+02 -0.10869644599E+02  0.84975707703E+01  0.33550864666E+02  0.10566000000E+00 0.  1.
         13    1    4    4    0    0 -0.76603538663E+01  0.23274881129E+01 -0.11611562497E+02  0.14104530121E+02  0.10566000000E+00 0.  1.
        -13    1    4    4    0    0 -0.62540227990E+01  0.25240306811E+01 -0.87735215723E+01  0.11066588312E+02  0.10566000000E+00 0. -1.
        -14    1    4    4    0    0 -0.16668158761E+02  0.60181258052E+01 -0.21904591538E+02  0.28175458916E+02  0.00000000000E+00 0.  1.
<mgrwt>
<rscale>  0 0.80057848E+02</rscale>
<asrwt>0</asrwt>
<pdfrwt beam="1">  1        2 0.92838113E-02 0.80057848E+02</pdfrwt>
<pdfrwt beam="2">  1       -1 0.40850260E-02 0.80057848E+02</pdfrwt>
<totfact> 0.15556209E+05</totfact>
</mgrwt>
</event>
<event>
 8    1  0.2389776E-020  0.7943073E+02  0.7818608E-02  0.1330675E+00
          2   -1    0    0  501    0  0.00000000000E+00  0.00000000000E+00  0.81017407396E+02  0.81017407436E+02  0.25500000000E-02 0. -1.
         -1   -1    0    0    0  501 -0.00000000000E+00 -0.00000000000E+00 -0.19468782081E+02  0.19468782733E+02  0.50400000000E-02 0.  1.
         24    2    1    2    0    0  0.00000000000E+00  0.00000000000E+00  0.61548625315E+02  0.10048619017E+03  0.79430731689E+02 0.  0.
         66    2    3    3    0    0 -0.36463364553E+02  0.11167305686E+02  0.44710774267E+02  0.58799141068E+02  0.19999959846E+01 0.  0.
        -13    1    3    3    0    0  0.36463364553E+02 -0.11167305686E+02  0.16837851048E+02  0.41687049101E+02  0.10566000000E+00 0.  1.
         13    1    4    4    0    0 -0.17527578881E+02  0.53302980243E+01  0.20772529044E+02  0.27697242198E+02  0.10566000000E+00 0. -1.
        -13    1    4    4    0    0 -0.18945873494E+02  0.57943453751E+01  0.23875029357E+02  0.31024969808E+02  0.10566000000E+00 0.  1.
        -14    1    4    4    0    0  0.10087821079E-01  0.42662286983E-01  0.63215865667E-01  0.76929061718E-01  0.00000000000E+00 0.  1.
<mgrwt>
<rscale>  0 0.79430732E+02</rscale>
<asrwt>0</asrwt>
<pdfrwt beam="1">  1        2 0.12464216E-01 0.79430732E+02</pdfrwt>
<pdfrwt beam="2">  1       -1 0.29951974E-02 0.79430732E+02</pdfrwt>
<totfact> 0.17075398E+05</totfact>
</mgrwt>
</event>
<event>
 8    1  0.2389776E-020  0.7812276E+02  0.7818608E-02  0.1334465E+00
          2   -1    0    0  501    0  0.00000000000E+00  0.00000000000E+00  0.11553317753E+03  0.11553317756E+03  0.25500000000E-02 0. -1.
         -1   -1    0    0    0  501 -0.00000000000E+00 -0.00000000000E+00 -0.13206519394E+02  0.13206520356E+02  0.50400000000E-02 0.  1.
         24    2    1    2    0    0  0.00000000000E+00  0.71054273576E-14  0.10232665814E+03  0.12873969792E+03  0.78122755034E+02 0.  0.
         66    2    3    3    0    0 -0.83690706534E+01 -0.25081740560E+02  0.98519530571E+02  0.10202564848E+03  0.19999975782E+01 0.  0.
        -13    1    3    3    0    0  0.83690706534E+01  0.25081740560E+02  0.38071275687E+01  0.26714049440E+02  0.10566000000E+00 0.  1.
         13    1    4    4    0    0 -0.44135034177E+00 -0.78929427388E+00  0.37350353320E+01  0.38444022347E+01  0.10566000000E+00 0.  1.
        -13    1    4    4    0    0  0.39893932388E-01 -0.32666894729E+00  0.11970869619E+01  0.12459877034E+01  0.10566000000E+00 0. -1.
         14    1    4    4    0    0 -0.79676142440E+01 -0.23965777339E+02  0.93587408277E+02  0.96935258540E+02  0.00000000000E+00 0. -1.
<mgrwt>
<rscale>  0 0.78122755E+02</rscale>
<asrwt>0</asrwt>
<pdfrwt beam="1">  1        2 0.17774334E-01 0.78122755E+02</pdfrwt>
<pdfrwt beam="2">  1       -1 0.20317724E-02 0.78122755E+02</pdfrwt>
<totfact> 0.19684477E+05</totfact>
</mgrwt>
</event>
<event>
 8    1  0.2389776E-020  0.8005490E+02  0.7818608E-02  0.1328896E+00
         -1   -1    0    0    0  501 -0.00000000000E+00  0.00000000000E+00  0.14754340863E+03  0.14754340872E+03  0.50400000000E-02 0.  1.
          2   -1    0    0  501    0  0.00000000000E+00 -0.00000000000E+00 -0.10859156126E+02  0.10859156426E+02  0.25500000000E-02 0. -1.
         24    2    1    2    0    0  0.00000000000E+00  0.35527136788E-14  0.13668425251E+03  0.15840256515E+03  0.80054904667E+02 0.  0.
         66    2    3    3    0    0 -0.25880883660E+02  0.21380453376E+02  0.25340061373E+02  0.42107750175E+02  0.19999972119E+01 0.  0.
        -13    1    3    3    0    0  0.25880883660E+02 -0.21380453376E+02  0.11134419113E+03  0.11629481497E+03  0.10566000000E+00 0.  1.
         13    1    4    4    0    0 -0.80288922235E+01  0.69413515791E+01  0.78603348409E+01  0.13207630368E+02  0.10566000000E+00 0. -1.
        -13    1    4    4    0    0 -0.20933262709E+01  0.23773641382E+01  0.24644097242E+01  0.40147670476E+01  0.10566000000E+00 0.  1.
        -14    1    4    4    0    0 -0.15758665166E+02  0.12061737658E+02  0.15015316808E+02  0.24885352760E+02  0.00000000000E+00 0.  1.
<mgrwt>
<rscale>  0 0.80054905E+02</rscale>
<asrwt>0</asrwt>
<pdfrwt beam="1">  1        2 0.16706395E-02 0.80054905E+02</pdfrwt>
<pdfrwt beam="2">  1       -1 0.22698985E-01 0.80054905E+02</pdfrwt>
<totfact> 0.10813810E+05</totfact>
</mgrwt>
</event>
<event>
 8    1  0.2389776E-020  0.7798170E+02  0.7818608E-02  0.1334879E+00
         -1   -1    0    0    0  501 -0.00000000000E+00  0.00000000000E+00  0.61282483478E+00  0.61284555944E+00  0.50400000000E-02 0.  1.
          2   -1    0    0  501    0  0.00000000000E+00 -0.00000000000E+00 -0.24807423797E+04  0.24807423797E+04  0.25500000000E-02 0. -1.
         24    2    1    2    0    0  0.00000000000E+00  0.00000000000E+00 -0.24801295549E+04  0.24813552253E+04  0.77981696653E+02 0.  0.
         66    2    3    3    0    0  0.59149421288E+01 -0.12745156262E+02 -0.23973204597E+04  0.23973624698E+04  0.20000002156E+01 0.  0.
        -13    1    3    3    0    0 -0.59149421288E+01  0.12745156262E+02 -0.82809095245E+02  0.83992755448E+02  0.10566000000E+00 0.  1.
         13    1    4    4    0    0  0.59566522921E+01 -0.12196430141E+02 -0.22881318401E+04  0.22881721009E+04  0.10566000000E+00 0. -1.
        -13    1    4    4    0    0  0.75444264090E-01 -0.16069862994E+00 -0.44497114263E+02  0.44497593842E+02  0.10566000000E+00 0.  1.
         14    1    4    4    0    0 -0.11715442740E+00 -0.38802749118E+00 -0.64691505292E+02  0.64692775079E+02  0.00000000000E+00 0. -1.
<mgrwt>
<rscale>  0 0.77981697E+02</rscale>
<asrwt>0</asrwt>
<pdfrwt beam="1">  1        2 0.38164463E+00 0.77981697E+02</pdfrwt>
<pdfrwt beam="2">  1       -1 0.94284325E-04 0.77981697E+02</pdfrwt>
<totfact> 0.22722442E+05</totfact>
</mgrwt>
</event>
<event>
 8    1  0.2389776E-020  0.7269376E+02  0.7818608E-02  0.1351165E+00
          2   -1    0    0  501    0  0.00000000000E+00  0.00000000000E+00  0.97415085259E+02  0.97415085292E+02  0.25500000000E-02 0. -1.
         -1   -1    0    0    0  501 -0.00000000000E+00 -0.00000000000E+00 -0.13561511425E+02  0.13561512361E+02  0.50400000000E-02 0.  1.
         24    2    1    2    0    0  0.35527136788E-14 -0.35527136788E-14  0.83853573834E+02  0.11097659765E+03  0.72693764396E+02 0.  0.
         66    2    3    3    0    0  0.27550700695E+02  0.16181580903E+02  0.68321304673E+02  0.75449886314E+02  0.20000008021E+01 0.  0.
        -13    1    3    3    0    0 -0.27550700695E+02 -0.16181580903E+02  0.15532269161E+02  0.35526711340E+02  0.10566000000E+00 0.  1.
         13    1    4    4    0    0  0.10011769738E+02  0.61230597053E+01  0.25782022444E+02  0.28327570294E+02  0.10566000000E+00 0. -1.
        -13    1    4    4    0    0  0.16140799170E+02  0.88073743226E+01  0.38955887557E+02  0.43077460228E+02  0.10566000000E+00 0.  1.
        -14    1    4    4    0    0  0.13981317864E+01  0.12511468753E+01  0.35833946727E+01  0.40448557918E+01  0.00000000000E+00 0.  1.
<mgrwt>
<rscale>  0 0.72693764E+02</rscale>
<asrwt>0</asrwt>
<pdfrwt beam="1">  1        2 0.14986937E-01 0.72693764E+02</pdfrwt>
<pdfrwt beam="2">  1       -1 0.20863864E-02 0.72693764E+02</pdfrwt>
<totfact> 0.22710159E+05</totfact>
</mgrwt>
</event>
<event>
 8    1  0.2389776E-020  0.7673114E+02  0.7818608E-02  0.1338593E+00
          2   -1    0    0  501    0  0.00000000000E+00  0.00000000000E+00  0.62870118084E+03  0.62870118085E+03  0.25500000000E-02 0. -1.
         -1   -1    0    0    0  501 -0.00000000000E+00 -0.00000000000E+00 -0.23411998677E+01  0.23412052926E+01  0.50400000000E-02 0.  1.
         24    2    1    2    0    0  0.88817841970E-15  0.00000000000E+00  0.62635998098E+03  0.63104238614E+03  0.76731136698E+02 0.  0.
         66    2    3    3    0    0 -0.50160918926E+01  0.21364316059E+02  0.57193647253E+03  0.57236083356E+03  0.19999992648E+01 0.  0.
        -13    1    3    3    0    0  0.50160918926E+01 -0.21364316059E+02  0.54423508445E+02  0.58681552587E+02  0.10566000000E+00 0.  1.
         13    1    4    4    0    0 -0.15652597107E+01  0.96138032840E+01  0.25139973852E+03  0.25158838396E+03  0.10566000000E+00 0. -1.
        -13    1    4    4    0    0 -0.13726285066E+01  0.64788110977E+01  0.17728294280E+03  0.17740662917E+03  0.10566000000E+00 0.  1.
        -14    1    4    4    0    0 -0.20782036753E+01  0.52717016777E+01  0.14325379122E+03  0.14336582043E+03  0.00000000000E+00 0.  1.
<mgrwt>
<rscale>  0 0.76731137E+02</rscale>
<asrwt>0</asrwt>
<pdfrwt beam="1">  1        2 0.96723182E-01 0.76731137E+02</pdfrwt>
<pdfrwt beam="2">  1       -1 0.36018530E-03 0.76731137E+02</pdfrwt>
<totfact> 0.36300190E+05</totfact>
</mgrwt>
</event>
<event>
 8    1  0.2389776E-020  0.7797034E+02  0.7818608E-02  0.1334912E+00
          2   -1    0    0  501    0  0.00000000000E+00  0.00000000000E+00  0.12480839280E+03  0.12480839282E+03  0.25500000000E-02 0. -1.
         -1   -1    0    0    0  501 -0.00000000000E+00 -0.00000000000E+00 -0.12177413124E+02  0.12177414167E+02  0.50400000000E-02 0.  1.
         24    2    1    2    0    0  0.17763568394E-14 -0.71054273576E-14  0.11263097967E+03  0.13698580699E+03  0.77970338813E+02 0.  0.
         66    2    3    3    0    0 -0.75701581672E+01  0.31610161642E+02  0.94088058880E+02  0.99564413519E+02  0.20000004553E+01 0.  0.
        -13    1    3    3    0    0  0.75701581672E+01 -0.31610161642E+02  0.18542920792E+02  0.37421393470E+02  0.10566000000E+00 0.  1.
         13    1    4    4    0    0 -0.15184582852E+01  0.85215188938E+01  0.26194201783E+02  0.27587485766E+02  0.10566000000E+00 0. -1.
        -13    1    4    4    0    0 -0.21814427563E+01  0.93416599491E+01  0.28834684013E+02  0.30388739185E+02  0.10566000000E+00 0.  1.
        -14    1    4    4    0    0 -0.38702571258E+01  0.13746982799E+02  0.39059173084E+02  0.41588188567E+02  0.00000000000E+00 0.  1.
<mgrwt>
<rscale>  0 0.77970339E+02</rscale>
<asrwt>0</asrwt>
<pdfrwt beam="1">  1        2 0.19201290E-01 0.77970339E+02</pdfrwt>
<pdfrwt beam="2">  1       -1 0.18734484E-02 0.77970339E+02</pdfrwt>
<totfact> 0.20247176E+05</totfact>
</mgrwt>
</event>
<event>
 8    1  0.2389776E-020  0.7949341E+02  0.7818608E-02  0.1330495E+00
         -1   -1    0    0    0  501 -0.00000000000E+00  0.00000000000E+00  0.29138588172E+03  0.29138588177E+03  0.50400000000E-02 0.  1.
          2   -1    0    0  501    0  0.00000000000E+00 -0.00000000000E+00 -0.54216781811E+01  0.54216787808E+01  0.25500000000E-02 0. -1.
         24    2    1    2    0    0 -0.35527136788E-14  0.00000000000E+00  0.28596420354E+03  0.29680756055E+03  0.79493410361E+02 0.  0.
         66    2    3    3    0    0  0.11353316668E+02 -0.35089366683E+02  0.87990650502E+02  0.95428067249E+02  0.19999974154E+01 0.  0.
        -13    1    3    3    0    0 -0.11353316668E+02  0.35089366683E+02  0.19797355304E+03  0.20137949330E+03  0.10566000000E+00 0.  1.
         13    1    4    4    0    0  0.27030895686E+01 -0.84760843591E+01  0.20327180565E+02  0.22189099419E+02  0.10566000000E+00 0. -1.
        -13    1    4    4    0    0  0.56621350493E+00 -0.10262888062E+01  0.23538986925E+01  0.26317046828E+01  0.10566000000E+00 0.  1.
        -14    1    4    4    0    0  0.80840135945E+01 -0.25586993518E+02  0.65309571244E+02  0.70607263147E+02  0.00000000000E+00 0.  1.
<mgrwt>
<rscale>  0 0.79493410E+02</rscale>
<asrwt>0</asrwt>
<pdfrwt beam="1">  1        2 0.83410458E-03 0.79493410E+02</pdfrwt>
<pdfrwt beam="2">  1       -1 0.44828587E-01 0.79493410E+02</pdfrwt>
<totfact> 0.88883001E+04</totfact>
</mgrwt>
</event>
<event>
 8    1  0.2389776E-020  0.7925810E+02  0.7818608E-02  0.1331170E+00
          2   -1    0    0  501    0  0.00000000000E+00  0.00000000000E+00  0.46882102130E+03  0.46882102130E+03  0.25500000000E-02 0. -1.
         -1   -1    0    0    0  501 -0.00000000000E+00 -0.00000000000E+00 -0.33498083226E+01  0.33498121141E+01  0.50400000000E-02 0.  1.
         24    2    1    2    0    0  0.35527136788E-14  0.35527136788E-14  0.46547121297E+03  0.47217083342E+03  0.79258096260E+02 0.  0.
         66    2    3    3    0    0 -0.20095107824E+02 -0.23626306906E+02  0.37959000979E+03  0.38086033041E+03  0.20000013757E+01 0.  0.
        -13    1    3    3    0    0  0.20095107824E+02  0.23626306906E+02  0.85881203181E+02  0.91310503012E+02  0.10566000000E+00 0.  1.
         13    1    4    4    0    0 -0.71823790014E+01 -0.70722279936E+01  0.12409378752E+03  0.12450253910E+03  0.10566000000E+00 0. -1.
        -13    1    4    4    0    0 -0.69839531541E+01 -0.88361117689E+01  0.13964103921E+03  0.14009455188E+03  0.10566000000E+00 0.  1.
         14    1    4    4    0    0 -0.59287756682E+01 -0.77179671434E+01  0.11585518307E+03  0.11626323943E+03  0.00000000000E+00 0. -1.
<mgrwt>
<rscale>  0 0.79258096E+02</rscale>
<asrwt>0</asrwt>
<pdfrwt beam="1">  1        2 0.72126248E-01 0.79258096E+02</pdfrwt>
<pdfrwt beam="2">  1       -1 0.51535587E-03 0.79258096E+02</pdfrwt>
<totfact> 0.30555335E+05</totfact>
</mgrwt>
</event>
<event>
 8    1  0.2389776E-020  0.8275473E+02  0.7818608E-02  0.1321411E+00
         -1   -1    0    0    0  501 -0.00000000000E+00  0.00000000000E+00  0.90382730677E+01  0.90382744729E+01  0.50400000000E-02 0.  1.
          2   -1    0    0  501    0  0.00000000000E+00 -0.00000000000E+00 -0.18942625965E+03  0.18942625967E+03  0.25500000000E-02 0. -1.
         24    2    1    2    0    0  0.00000000000E+00  0.00000000000E+00 -0.18038798658E+03  0.19846453414E+03  0.82754731636E+02 0.  0.
         66    2    3    3    0    0 -0.35523685444E+02 -0.21091337208E+02 -0.94606200712E+02  0.10325265104E+03  0.20000001030E+01 0.  0.
        -13    1    3    3    0    0  0.35523685444E+02  0.21091337208E+02 -0.85781785869E+02  0.95211883101E+02  0.10566000000E+00 0.  1.
         13    1    4    4    0    0 -0.13702071486E+02 -0.88467809989E+01 -0.35921949985E+02  0.39451361850E+02  0.10566000000E+00 0. -1.
        -13    1    4    4    0    0 -0.20114643389E+02 -0.11459098984E+02 -0.53890002053E+02  0.58651967686E+02  0.10566000000E+00 0.  1.
         14    1    4    4    0    0 -0.17069705689E+01 -0.78545722522E+00 -0.47942486742E+01  0.51493215015E+01  0.00000000000E+00 0. -1.
<mgrwt>
<rscale>  0 0.82754732E+02</rscale>
<asrwt>0</asrwt>
<pdfrwt beam="1">  1        2 0.29142499E-01 0.82754732E+02</pdfrwt>
<pdfrwt beam="2">  1       -1 0.13905038E-02 0.82754732E+02</pdfrwt>
<totfact> 0.19793679E+05</totfact>
</mgrwt>
</event>
<event>
 8    1  0.2389776E-020  0.8082945E+02  0.7818608E-02  0.1326714E+00
          2   -1    0    0  501    0  0.00000000000E+00  0.00000000000E+00  0.14462834117E+03  0.14462834120E+03  0.25500000000E-02 0. -1.
         -1   -1    0    0    0  501 -0.00000000000E+00 -0.00000000000E+00 -0.11293428320E+02  0.11293429444E+02  0.50400000000E-02 0.  1.
         24    2    1    2    0    0  0.00000000000E+00 -0.71054273576E-14  0.13333491285E+03  0.15592177064E+03  0.80829447442E+02 0.  0.
         66    2    3    3    0    0  0.10844199800E+02  0.38225004894E+02  0.80698188106E+02  0.89971913743E+02  0.20000076424E+01 0.  0.
        -13    1    3    3    0    0 -0.10844199800E+02 -0.38225004894E+02  0.52636724748E+02  0.65949856897E+02  0.10566000000E+00 0.  1.
         13    1    4    4    0    0  0.86767320906E+00  0.37318113411E+01  0.88229713222E+01  0.96195249192E+01  0.10566000000E+00 0. -1.
        -13    1    4    4    0    0  0.27974258264E+01  0.11367926708E+02  0.23763056361E+02  0.26490552289E+02  0.10566000000E+00 0.  1.
         14    1    4    4    0    0  0.71791007644E+01  0.23125266845E+02  0.48112160422E+02  0.53861836535E+02  0.00000000000E+00 0. -1.
<mgrwt>
<rscale>  0 0.80829447E+02</rscale>
<asrwt>0</asrwt>
<pdfrwt beam="1">  1        2 0.22250512E-01 0.80829447E+02</pdfrwt>
<pdfrwt beam="2">  1       -1 0.17374508E-02 0.80829447E+02</pdfrwt>
<totfact> 0.19262088E+05</totfact>
</mgrwt>
</event>
<event>
 8    1  0.2389776E-020  0.8031484E+02  0.7818608E-02  0.1328160E+00
          2   -1    0    0  501    0  0.00000000000E+00  0.00000000000E+00  0.10888877796E+04  0.10888877796E+04  0.25500000000E-02 0. -1.
         -1   -1    0    0    0  501 -0.00000000000E+00 -0.00000000000E+00 -0.14809734094E+01  0.14809819853E+01  0.50400000000E-02 0.  1.
         24    2    1    2    0    0  0.17763568394E-14  0.00000000000E+00  0.10874068062E+04  0.10903687616E+04  0.80314843573E+02 0.  0.
         66    2    3    3    0    0 -0.13161247625E+02  0.26606439883E+02  0.91072026714E+03  0.91120608320E+03  0.19999989580E+01 0.  0.
        -13    1    3    3    0    0  0.13161247625E+02 -0.26606439883E+02  0.17668653909E+03  0.17916267843E+03  0.10566000000E+00 0.  1.
         13    1    4    4    0    0 -0.22328923600E+01  0.39015677784E+01  0.15671186037E+03  0.15677635786E+03  0.10566000000E+00 0. -1.
        -13    1    4    4    0    0 -0.79223721186E+00  0.20693846715E+01  0.64581307780E+02  0.64619397021E+02  0.10566000000E+00 0.  1.
         14    1    4    4    0    0 -0.10136118053E+02  0.20635487434E+02  0.68942709899E+03  0.68981032832E+03  0.00000000000E+00 0. -1.
<mgrwt>
<rscale>  0 0.80314844E+02</rscale>
<asrwt>0</asrwt>
<pdfrwt beam="1">  1        2 0.16752130E+00 0.80314844E+02</pdfrwt>
<pdfrwt beam="2">  1       -1 0.22784258E-03 0.80314844E+02</pdfrwt>
<totfact> 0.34903887E+05</totfact>
</mgrwt>
</event>
<event>
 8    1  0.2389776E-020  0.7714568E+02  0.7818608E-02  0.1337352E+00
          2   -1    0    0  501    0  0.00000000000E+00  0.00000000000E+00  0.16116019900E+03  0.16116019902E+03  0.25500000000E-02 0. -1.
         -1   -1    0    0    0  501 -0.00000000000E+00 -0.00000000000E+00 -0.92322035402E+01  0.92322049160E+01  0.50400000000E-02 0.  1.
         24    2    1    2    0    0  0.00000000000E+00 -0.88817841970E-15  0.15192799546E+03  0.17039240394E+03  0.77145677227E+02 0.  0.
         66    2    3    3    0    0  0.16167833801E+02  0.50802812465E+01  0.15248383592E+03  0.15343574654E+03  0.19999986331E+01 0.  0.
        -13    1    3    3    0    0 -0.16167833801E+02 -0.50802812465E+01 -0.55584045346E+00  0.16956657395E+02  0.10566000000E+00 0.  1.
         13    1    4    4    0    0  0.24440221871E+01  0.92708791980E+00  0.20299762064E+02  0.20467638856E+02  0.10566000000E+00 0.  1.
        -13    1    4    4    0    0  0.83059095493E+01  0.30228308692E+01  0.76127908792E+02  0.76639384790E+02  0.10566000000E+00 0.  1.
         14    1    4    4    0    0  0.54179020646E+01  0.11303624575E+01  0.56056165062E+02  0.56328722899E+02  0.00000000000E+00 0. -1.
<mgrwt>
<rscale>  0 0.77145677E+02</rscale>
<asrwt>0</asrwt>
<pdfrwt beam="1">  1        2 0.24793875E-01 0.77145677E+02</pdfrwt>
<pdfrwt beam="2">  1       -1 0.14203392E-02 0.77145677E+02</pdfrwt>
<totfact> 0.22571119E+05</totfact>
</mgrwt>
</event>
<event>
 8    1  0.2389776E-020  0.7961345E+02  0.7818608E-02  0.1330152E+00
          2   -1    0    0  501    0  0.00000000000E+00  0.00000000000E+00  0.15605675102E+03  0.15605675104E+03  0.25500000000E-02 0. -1.
         -1   -1    0    0    0  501 -0.00000000000E+00 -0.00000000000E+00 -0.10153838566E+02  0.10153839817E+02  0.50400000000E-02 0.  1.
         24    2    1    2    0    0  0.00000000000E+00  0.00000000000E+00  0.14590291245E+03  0.16621059085E+03  0.79613445161E+02 0.  0.
         66    2    3    3    0    0  0.30479410611E+02  0.12004373374E+01  0.12631132446E+03  0.12995763229E+03  0.19999952051E+01 0.  0.
        -13    1    3    3    0    0 -0.30479410611E+02 -0.12004373374E+01  0.19591587987E+02  0.36252958567E+02  0.10566000000E+00 0.  1.
         13    1    4    4    0    0  0.38081786305E+01  0.54499898979E+00  0.16451562854E+02  0.16895689768E+02  0.10566000000E+00 0. -1.
        -13    1    4    4    0    0  0.13680962880E+01  0.33219517595E+00  0.56256776420E+01  0.58001253482E+01  0.10566000000E+00 0.  1.
        -14    1    4    4    0    0  0.25303135692E+02  0.32324317165E+00  0.10423408397E+03  0.10726181717E+03  0.00000000000E+00 0.  1.
<mgrwt>
<rscale>  0 0.79613445E+02</rscale>
<asrwt>0</asrwt>
<pdfrwt beam="1">  1        2 0.24008729E-01 0.79613445E+02</pdfrwt>
<pdfrwt beam="2">  1       -1 0.15621292E-02 0.79613445E+02</pdfrwt>
<totfact> 0.20550773E+05</totfact>
</mgrwt>
</event>
<event>
 8    1  0.2389776E-020  0.8129530E+02  0.7818608E-02  0.1325415E+00
         -1   -1    0    0    0  501 -0.00000000000E+00  0.00000000000E+00  0.21738423501E+01  0.21738481927E+01  0.50400000000E-02 0.  1.
          2   -1    0    0  501    0  0.00000000000E+00 -0.00000000000E+00 -0.76005021083E+03  0.76005021084E+03  0.25500000000E-02 0. -1.
         24    2    1    2    0    0  0.00000000000E+00  0.00000000000E+00 -0.75787636848E+03  0.76222405903E+03  0.81295302812E+02 0.  0.
         66    2    3    3    0    0 -0.32868918279E+02 -0.20640422246E+01 -0.60215007252E+03  0.60305334414E+03  0.19999968492E+01 0.  0.
        -13    1    3    3    0    0  0.32868918279E+02  0.20640422246E+01 -0.15572629596E+03  0.15917071488E+03  0.10566000000E+00 0.  1.
         13    1    4    4    0    0 -0.16226509916E+02 -0.13109165911E+01 -0.31397532437E+03  0.31439709541E+03  0.10566000000E+00 0. -1.
        -13    1    4    4    0    0 -0.14204643799E+02 -0.67283014666E+00 -0.24856660767E+03  0.24897307931E+03  0.10566000000E+00 0.  1.
         14    1    4    4    0    0 -0.24377645649E+01 -0.80295486883E-01 -0.39608140480E+02  0.39683169427E+02  0.00000000000E+00 0. -1.
<mgrwt>
<rscale>  0 0.81295303E+02</rscale>
<asrwt>0</asrwt>
<pdfrwt beam="1">  1        2 0.11693059E+00 0.81295303E+02</pdfrwt>
<pdfrwt beam="2">  1       -1 0.33443834E-03 0.81295303E+02</pdfrwt>
<totfact> 0.32650091E+05</totfact>
</mgrwt>
</event>
<event>
 8    1  0.2389776E-020  0.8932853E+02  0.7818608E-02  0.1304486E+00
         -1   -1    0    0    0  501 -0.00000000000E+00  0.00000000000E+00  0.73125392536E+01  0.73125409904E+01  0.50400000000E-02 0.  1.
          2   -1    0    0  501    0  0.00000000000E+00 -0.00000000000E+00 -0.27280484095E+03  0.27280484097E+03  0.25500000000E-02 0. -1.
         24    2    1    2    0    0  0.00000000000E+00  0.00000000000E+00 -0.26549230170E+03  0.28011738196E+03  0.89328525186E+02 0.  0.
         66    2    3    3    0    0  0.25182727403E+02 -0.33098265000E+02 -0.18368869856E+03  0.18834862062E+03  0.20000018477E+01 0.  0.
        -13    1    3    3    0    0 -0.25182727403E+02  0.33098265000E+02 -0.81803603141E+02  0.91768761332E+02  0.10566000000E+00 0.  1.
         13    1    4    4    0    0  0.89014362834E+01 -0.11470394423E+02 -0.61743311846E+02  0.63427543212E+02  0.10566000000E+00 0. -1.
        -13    1    4    4    0    0  0.13128483600E+02 -0.17989617375E+02 -0.98462725406E+02  0.10095000185E+03  0.10566000000E+00 0.  1.
        -14    1    4    4    0    0  0.31528075194E+01 -0.36382532021E+01 -0.23482661307E+02  0.23971075563E+02  0.00000000000E+00 0.  1.
<mgrwt>
<rscale>  0 0.89328525E+02</rscale>
<asrwt>0</asrwt>
<pdfrwt beam="1">  1        2 0.41969968E-01 0.89328525E+02</pdfrwt>
<pdfrwt beam="2">  1       -1 0.11250064E-02 0.89328525E+02</pdfrwt>
<totfact> 0.18409428E+05</totfact>
</mgrwt>
</event>
<event>
 8    1  0.2389776E-020  0.8748595E+02  0.7818608E-02  0.1309057E+00
         -1   -1    0    0    0  501 -0.00000000000E+00  0.00000000000E+00  0.87163660649E+01  0.87163675220E+01  0.50400000000E-02 0.  1.
          2   -1    0    0  501    0  0.00000000000E+00 -0.00000000000E+00 -0.21952354041E+03  0.21952354043E+03  0.25500000000E-02 0. -1.
         24    2    1    2    0    0 -0.35527136788E-14  0.00000000000E+00 -0.21080717435E+03  0.22823990795E+03  0.87485946439E+02 0.  0.
         66    2    3    3    0    0  0.26721270685E+02 -0.34355365507E+02 -0.94662314366E+02  0.10420782698E+03  0.19999989939E+01 0.  0.
        -13    1    3    3    0    0 -0.26721270685E+02  0.34355365507E+02 -0.11614485998E+03  0.12403208097E+03  0.10566000000E+00 0.  1.
         13    1    4    4    0    0  0.13260024258E+02 -0.17732913720E+02 -0.48123471144E+02  0.52973239577E+02  0.10566000000E+00 0. -1.
        -13    1    4    4    0    0  0.59969411027E+01 -0.64283414332E+01 -0.18936928336E+02  0.20878345122E+02  0.10566000000E+00 0.  1.
        -14    1    4    4    0    0  0.74643053242E+01 -0.10194110355E+02 -0.27601914886E+02  0.30356242278E+02  0.00000000000E+00 0.  1.
<mgrwt>
<rscale>  0 0.87485946E+02</rscale>
<asrwt>0</asrwt>
<pdfrwt beam="1">  1        2 0.33772848E-01 0.87485946E+02</pdfrwt>
<pdfrwt beam="2">  1       -1 0.13409797E-02 0.87485946E+02</pdfrwt>
<totfact> 0.17985615E+05</totfact>
</mgrwt>
</event>
<event>
 8    1  0.2389776E-020  0.7869196E+02  0.7818608E-02  0.1332805E+00
         -1   -1    0    0    0  501 -0.00000000000E+00  0.00000000000E+00  0.19357318839E+03  0.19357318846E+03  0.50400000000E-02 0.  1.
          2   -1    0    0  501    0  0.00000000000E+00 -0.00000000000E+00 -0.79975241142E+01  0.79975245208E+01  0.25500000000E-02 0. -1.
         24    2    1    2    0    0 -0.35527136788E-14 -0.35527136788E-14  0.18557566428E+03  0.20157071298E+03  0.78691963748E+02 0.  0.
         66    2    3    3    0    0  0.27343397577E+02  0.26020590233E+02  0.12106718841E+03  0.12683058232E+03  0.19999991345E+01 0.  0.
        -13    1    3    3    0    0 -0.27343397577E+02 -0.26020590233E+02  0.64508475871E+02  0.74740130655E+02  0.10566000000E+00 0.  1.
         13    1    4    4    0    0  0.50746347237E+01  0.44248503437E+01  0.20134071213E+02  0.21230242716E+02  0.10566000000E+00 0. -1.
        -13    1    4    4    0    0  0.14159361768E+02  0.14402349134E+02  0.64388475629E+02  0.67481865298E+02  0.10566000000E+00 0.  1.
        -14    1    4    4    0    0  0.81094010854E+01  0.71933907557E+01  0.36544641566E+02  0.38118474310E+02  0.00000000000E+00 0.  1.
<mgrwt>
<rscale>  0 0.78691964E+02</rscale>
<asrwt>0</asrwt>
<pdfrwt beam="1">  1        2 0.12303884E-02 0.78691964E+02</pdfrwt>
<pdfrwt beam="2">  1       -1 0.29780490E-01 0.78691964E+02</pdfrwt>
<totfact> 0.10488879E+05</totfact>
</mgrwt>
</event>
<event>
 8    1  0.2389776E-020  0.7979774E+02  0.7818608E-02  0.1329626E+00
          2   -1    0    0  501    0  0.00000000000E+00  0.00000000000E+00  0.55606822455E+02  0.55606822513E+02  0.25500000000E-02 0. -1.
         -1   -1    0    0    0  501 -0.00000000000E+00 -0.00000000000E+00 -0.28628135923E+02  0.28628136367E+02  0.50400000000E-02 0.  1.
         24    2    1    2    0    0 -0.35527136788E-14  0.44408920985E-15  0.26978686532E+02  0.84234958880E+02  0.79797736625E+02 0.  0.
         66    2    3    3    0    0 -0.24774688676E+02  0.38201822179E+01  0.46230695302E+02  0.52627523095E+02  0.20000019657E+01 0.  0.
        -13    1    3    3    0    0  0.24774688676E+02 -0.38201822179E+01 -0.19252008770E+02  0.31607435785E+02  0.10566000000E+00 0.  1.
         13    1    4    4    0    0 -0.16463566451E+01  0.23471197993E+00  0.26010197801E+01  0.30890205322E+01  0.10566000000E+00 0. -1.
        -13    1    4    4    0    0 -0.18399409535E+01 -0.35002209801E-01  0.28461591754E+01  0.33909281848E+01  0.10566000000E+00 0.  1.
         14    1    4    4    0    0 -0.21288391077E+02  0.36204724478E+01  0.40783516346E+02  0.46147574378E+02  0.00000000000E+00 0. -1.
<mgrwt>
<rscale>  0 0.79797737E+02</rscale>
<asrwt>0</asrwt>
<pdfrwt beam="1">  1        2 0.85548956E-02 0.79797737E+02</pdfrwt>
<pdfrwt beam="2">  1       -1 0.44043287E-02 0.79797737E+02</pdfrwt>
<totfact> 0.15404662E+05</totfact>
</mgrwt>
</event>
<event>
 8    1  0.2389776E-020  0.8188550E+02  0.7818608E-02  0.1323784E+00
          2   -1    0    0  501    0  0.00000000000E+00  0.00000000000E+00  0.41534136432E+02  0.41534136510E+02  0.25500000000E-02 0. -1.
         -1   -1    0    0    0  501 -0.00000000000E+00 -0.00000000000E+00 -0.40359780595E+02  0.40359780910E+02  0.50400000000E-02 0.  1.
         24    2    1    2    0    0 -0.17763568394E-14 -0.88817841970E-15  0.11743558371E+01  0.81893917420E+02  0.81885496877E+02 0.  0.
         66    2    3    3    0    0 -0.14157300099E+02 -0.71792952704E+01  0.38305225615E+02  0.41512187873E+02  0.20000014919E+01 0.  0.
        -13    1    3    3    0    0  0.14157300099E+02  0.71792952704E+01 -0.37130869778E+02  0.40381729546E+02  0.10566000000E+00 0.  1.
         13    1    4    4    0    0 -0.38161678384E+01 -0.14411470186E+01  0.98326054678E+01  0.10645719141E+02  0.10566000000E+00 0. -1.
        -13    1    4    4    0    0 -0.34043718462E+00 -0.78780513790E-01  0.45070897982E+00  0.58000557421E+00  0.10566000000E+00 0. -1.
         14    1    4    4    0    0 -0.10000695076E+02 -0.56593677380E+01  0.28021911167E+02  0.30286463159E+02  0.00000000000E+00 0. -1.
<mgrwt>
<rscale>  0 0.81885497E+02</rscale>
<asrwt>0</asrwt>
<pdfrwt beam="1">  1        2 0.63898671E-02 0.81885497E+02</pdfrwt>
<pdfrwt beam="2">  1       -1 0.62091971E-02 0.81885497E+02</pdfrwt>
<totfact> 0.13470233E+05</totfact>
</mgrwt>
</event>
<event>
 8    1  0.2389776E-020  0.8037368E+02  0.7818608E-02  0.1327994E+00
          2   -1    0    0  501    0  0.00000000000E+00  0.00000000000E+00  0.33158554881E+02  0.33158554979E+02  0.25500000000E-02 0. -1.
         -1   -1    0    0    0  501 -0.00000000000E+00 -0.00000000000E+00 -0.48704845447E+02  0.48704845708E+02  0.50400000000E-02 0.  1.
         24    2    1    2    0    0  0.35527136788E-14 -0.35527136788E-14 -0.15546290566E+02  0.81863400687E+02  0.80373684883E+02 0.  0.
         66    2    3    3    0    0 -0.17545925489E+02  0.31063018538E+02  0.11008618324E+02  0.37389307418E+02  0.20000024532E+01 0.  0.
        -13    1    3    3    0    0  0.17545925489E+02 -0.31063018538E+02 -0.26554908890E+02  0.44474093270E+02  0.10566000000E+00 0.  1.
         13    1    4    4    0    0 -0.11564166300E+02  0.19620200221E+02  0.75950647442E+01  0.24007881444E+02  0.10566000000E+00 0. -1.
        -13    1    4    4    0    0 -0.89362820771E+00  0.12169491808E+01  0.30138034197E+00  0.15432209267E+01  0.10566000000E+00 0.  1.
         14    1    4    4    0    0 -0.50881309811E+01  0.10225869136E+02  0.31121732378E+01  0.11838205047E+02  0.00000000000E+00 0. -1.
<mgrwt>
<rscale>  0 0.80373685E+02</rscale>
<asrwt>0</asrwt>
<pdfrwt beam="1">  1        2 0.51013161E-02 0.80373685E+02</pdfrwt>
<pdfrwt beam="2">  1       -1 0.74930532E-02 0.80373685E+02</pdfrwt>
<totfact> 0.13547599E+05</totfact>
</mgrwt>
</event>
<event>
 8    1  0.2389776E-020  0.8033766E+02  0.7818608E-02  0.1328096E+00
          2   -1    0    0  501    0  0.00000000000E+00  0.00000000000E+00  0.21059508177E+03  0.21059508178E+03  0.25500000000E-02 0. -1.
         -1   -1    0    0    0  501 -0.00000000000E+00 -0.00000000000E+00 -0.76617877802E+01  0.76617894379E+01  0.50400000000E-02 0.  1.
         24    2    1    2    0    0  0.88817841970E-15  0.00000000000E+00  0.20293329399E+03  0.21825687122E+03  0.80337662566E+02 0.  0.
         66    2    3    3    0    0 -0.40153770523E+01 -0.36286933233E+02  0.14688069921E+03  0.15136315461E+03  0.19999994465E+01 0.  0.
        -13    1    3    3    0    0  0.40153770523E+01  0.36286933233E+02  0.56052594779E+02  0.66893716609E+02  0.10566000000E+00 0.  1.
         13    1    4    4    0    0 -0.12675510891E+01 -0.96271059181E+01  0.35864246483E+02  0.37155661667E+02  0.10566000000E+00 0.  1.
        -13    1    4    4    0    0 -0.13128468266E+01 -0.15204770571E+02  0.63938214428E+02  0.65734428142E+02  0.10566000000E+00 0. -1.
         14    1    4    4    0    0 -0.14349791366E+01 -0.11455056743E+02  0.47078238295E+02  0.48473064800E+02  0.00000000000E+00 0. -1.
<mgrwt>
<rscale>  0 0.80337663E+02</rscale>
<asrwt>0</asrwt>
<pdfrwt beam="1">  1        2 0.32399239E-01 0.80337663E+02</pdfrwt>
<pdfrwt beam="2">  1       -1 0.11787369E-02 0.80337663E+02</pdfrwt>
<totfact> 0.22211381E+05</totfact>
</mgrwt>
</event>
<event>
 8    1  0.2389776E-020  0.7705575E+02  0.7818608E-02  0.1337621E+00
          2   -1    0    0  501    0  0.00000000000E+00  0.00000000000E+00  0.47463151227E+03  0.47463151227E+03  0.25500000000E-02 0. -1.
         -1   -1    0    0    0  501 -0.00000000000E+00 -0.00000000000E+00 -0.31274704693E+01  0.31274745304E+01  0.50400000000E-02 0.  1.
         24    2    1    2    0    0  0.00000000000E+00  0.35527136788E-14  0.47150404180E+03  0.47775898680E+03  0.77055746318E+02 0.  0.
         66    2    3    3    0    0  0.57965013962E+01 -0.28554684172E+02  0.39195567835E+03  0.39304226645E+03  0.20000019334E+01 0.  0.
        -13    1    3    3    0    0 -0.57965013962E+01  0.28554684172E+02  0.79548363449E+02  0.84716720357E+02  0.10566000000E+00 0.  1.
         13    1    4    4    0    0  0.26262865193E+01 -0.13316246786E+02  0.17668982337E+03  0.17721039657E+03  0.10566000000E+00 0. -1.
        -13    1    4    4    0    0  0.11478823586E+01 -0.44749903088E+01  0.56426704857E+02  0.56615610543E+02  0.10566000000E+00 0.  1.
        -14    1    4    4    0    0  0.20223325183E+01 -0.10763447077E+02  0.15883915013E+03  0.15921625933E+03  0.00000000000E+00 0.  1.
<mgrwt>
<rscale>  0 0.77055746E+02</rscale>
<asrwt>0</asrwt>
<pdfrwt beam="1">  1        2 0.73020255E-01 0.77055746E+02</pdfrwt>
<pdfrwt beam="2">  1       -1 0.48114947E-03 0.77055746E+02</pdfrwt>
<totfact> 0.33012796E+05</totfact>
</mgrwt>
</event>
<event>
 8    1  0.2389776E-020  0.8018326E+02  0.7818608E-02  0.1328532E+00
          2   -1    0    0  501    0  0.00000000000E+00  0.00000000000E+00  0.67518718356E+03  0.67518718356E+03  0.25500000000E-02 0. -1.
         -1   -1    0    0    0  501 -0.00000000000E+00 -0.00000000000E+00 -0.23805797450E+01  0.23805850802E+01  0.50400000000E-02 0.  1.
         24    2    1    2    0    0  0.00000000000E+00 -0.35527136788E-14  0.67280660381E+03  0.67756776864E+03  0.80183258661E+02 0.  0.
         66    2    3    3    0    0 -0.19947481082E+02  0.26271197485E+02  0.52879802792E+03  0.52982962559E+03  0.19999996785E+01 0.  0.
        -13    1    3    3    0    0  0.19947481082E+02 -0.26271197485E+02  0.14400857589E+03  0.14773814305E+03  0.10566000000E+00 0.  1.
         13    1    4    4    0    0 -0.55667749045E+01  0.84062651161E+01  0.15986789017E+03  0.16018554163E+03  0.10566000000E+00 0. -1.
        -13    1    4    4    0    0 -0.71693623849E+01  0.96738585256E+01  0.19855680316E+03  0.19892158893E+03  0.10566000000E+00 0.  1.
        -14    1    4    4    0    0 -0.72113437929E+01  0.81910738436E+01  0.17037333459E+03  0.17072249503E+03  0.00000000000E+00 0.  1.
<mgrwt>
<rscale>  0 0.80183259E+02</rscale>
<asrwt>0</asrwt>
<pdfrwt beam="1">  1        2 0.10387514E+00 0.80183259E+02</pdfrwt>
<pdfrwt beam="2">  1       -1 0.36624278E-03 0.80183259E+02</pdfrwt>
<totfact> 0.32972015E+05</totfact>
</mgrwt>
</event>
<event>
 8    1  0.2389776E-020  0.7988191E+02  0.7818608E-02  0.1329387E+00
         -1   -1    0    0    0  501 -0.00000000000E+00  0.00000000000E+00  0.46329505614E+01  0.46329533028E+01  0.50400000000E-02 0.  1.
          2   -1    0    0  501    0  0.00000000000E+00 -0.00000000000E+00 -0.34433336503E+03  0.34433336504E+03  0.25500000000E-02 0. -1.
         24    2    1    2    0    0  0.00000000000E+00  0.00000000000E+00 -0.33970041447E+03  0.34896631834E+03  0.79881911264E+02 0.  0.
         66    2    3    3    0    0 -0.23370868563E+02  0.40636677832E+01 -0.31019659458E+03  0.31110872406E+03  0.19999999632E+01 0.  0.
        -13    1    3    3    0    0  0.23370868563E+02 -0.40636677832E+01 -0.29503819888E+02  0.37857594288E+02  0.10566000000E+00 0.  1.
         13    1    4    4    0    0 -0.37545953892E+01  0.39957950553E+00 -0.46679076351E+02  0.46831655782E+02  0.10566000000E+00 0. -1.
        -13    1    4    4    0    0 -0.18339124052E+01  0.76657112558E+00 -0.23329374484E+02  0.23414135556E+02  0.10566000000E+00 0.  1.
         14    1    4    4    0    0 -0.17782360769E+02  0.28975171521E+01 -0.24018814375E+03  0.24086293272E+03  0.00000000000E+00 0. -1.
<mgrwt>
<rscale>  0 0.79881911E+02</rscale>
<asrwt>0</asrwt>
<pdfrwt beam="1">  1        2 0.52974344E-01 0.79881911E+02</pdfrwt>
<pdfrwt beam="2">  1       -1 0.71276211E-03 0.79881911E+02</pdfrwt>
<totfact> 0.26896560E+05</totfact>
</mgrwt>
</event>
<event>
 8    1  0.2389776E-020  0.8025073E+02  0.7818608E-02  0.1328341E+00
         -1   -1    0    0    0  501 -0.00000000000E+00  0.00000000000E+00  0.51386875063E+01  0.51386899779E+01  0.50400000000E-02 0.  1.
          2   -1    0    0  501    0  0.00000000000E+00 -0.00000000000E+00 -0.31331821301E+03  0.31331821302E+03  0.25500000000E-02 0. -1.
         24    2    1    2    0    0 -0.35527136788E-14  0.00000000000E+00 -0.30817952551E+03  0.31845690300E+03  0.80250726649E+02 0.  0.
         66    2    3    3    0    0  0.16789156559E+02 -0.16983098840E+02 -0.28201898269E+03  0.28303534758E+03  0.19999890051E+01 0.  0.
        -13    1    3    3    0    0 -0.16789156559E+02  0.16983098840E+02 -0.26160542816E+02  0.35421555424E+02  0.10566000000E+00 0.  1.
         13    1    4    4    0    0  0.79010178359E+01 -0.77519125292E+01 -0.13213672179E+03  0.13259955747E+03  0.10566000000E+00 0. -1.
        -13    1    4    4    0    0  0.64068995867E+01 -0.75151364641E+01 -0.11438392061E+03  0.11480948609E+03  0.10566000000E+00 0.  1.
        -14    1    4    4    0    0  0.24812391369E+01 -0.17160498469E+01 -0.35498340290E+02  0.35626304019E+02  0.00000000000E+00 0.  1.
<mgrwt>
<rscale>  0 0.80250727E+02</rscale>
<asrwt>0</asrwt>
<pdfrwt beam="1">  1        2 0.48202787E-01 0.80250727E+02</pdfrwt>
<pdfrwt beam="2">  1       -1 0.79056774E-03 0.80250727E+02</pdfrwt>
<totfact> 0.25686688E+05</totfact>
</mgrwt>
</event>
<event>
 8    1  0.2389776E-020  0.8059188E+02  0.7818608E-02  0.1327380E+00
         -1   -1    0    0    0  501 -0.00000000000E+00  0.00000000000E+00  0.57397089386E+01  0.57397111514E+01  0.50400000000E-02 0.  1.
          2   -1    0    0  501    0  0.00000000000E+00 -0.00000000000E+00 -0.28289976118E+03  0.28289976119E+03  0.25500000000E-02 0. -1.
         24    2    1    2    0    0  0.00000000000E+00  0.00000000000E+00 -0.27716005224E+03  0.28863947234E+03  0.80591875744E+02 0.  0.
         66    2    3    3    0    0 -0.30089182740E+02  0.22135951734E+02 -0.19255425409E+03  0.19615427611E+03  0.19999978928E+01 0.  0.
        -13    1    3    3    0    0  0.30089182740E+02 -0.22135951734E+02 -0.84605798151E+02  0.92485196231E+02  0.10566000000E+00 0.  1.
         13    1    4    4    0    0 -0.19267712761E+02  0.13383109610E+02 -0.11984181648E+03  0.12211643836E+03  0.10566000000E+00 0. -1.
        -13    1    4    4    0    0 -0.44398437956E+01  0.32137495345E+01 -0.30260765991E+02  0.30753300984E+02  0.10566000000E+00 0.  1.
         14    1    4    4    0    0 -0.63816261828E+01  0.55390925895E+01 -0.42451671618E+02  0.43284536761E+02  0.00000000000E+00 0. -1.
<mgrwt>
<rscale>  0 0.80591876E+02</rscale>
<asrwt>0</asrwt>
<pdfrwt beam="1">  1        2 0.43523029E-01 0.80591876E+02</pdfrwt>
<pdfrwt beam="2">  1       -1 0.88303254E-03 0.80591876E+02</pdfrwt>
<totfact> 0.24479902E+05</totfact>
</mgrwt>
</event>
<event>
 8    1  0.2389776E-020  0.7514927E+02  0.7818608E-02  0.1343409E+00
         -1   -1    0    0    0  501 -0.00000000000E+00  0.00000000000E+00  0.72862430986E+01  0.72862448417E+01  0.50400000000E-02 0.  1.
          2   -1    0    0  501    0  0.00000000000E+00 -0.00000000000E+00 -0.19376970359E+03  0.19376970361E+03  0.25500000000E-02 0. -1.
         24    2    1    2    0    0 -0.44408920985E-15  0.00000000000E+00 -0.18648346049E+03  0.20105594845E+03  0.75149273913E+02 0.  0.
         66    2    3    3    0    0  0.34954031944E+01  0.12102573519E+02 -0.18794182276E+03  0.18837414598E+03  0.20000007662E+01 0.  0.
        -13    1    3    3    0    0 -0.34954031944E+01 -0.12102573519E+02  0.14583622677E+01  0.12681802467E+02  0.10566000000E+00 0.  1.
         13    1    4    4    0    0  0.12212529915E+01  0.37659663688E+01 -0.48457893974E+02  0.48619467438E+02  0.10566000000E+00 0. -1.
        -13    1    4    4    0    0  0.14606432994E+01  0.44470400175E+01 -0.82015139049E+02  0.82148669137E+02  0.10566000000E+00 0.  1.
         14    1    4    4    0    0  0.81350690356E+00  0.38895671323E+01 -0.57468789736E+02  0.57606009405E+02  0.00000000000E+00 0. -1.
<mgrwt>
<rscale>  0 0.75149274E+02</rscale>
<asrwt>0</asrwt>
<pdfrwt beam="1">  1        2 0.29810720E-01 0.75149274E+02</pdfrwt>
<pdfrwt beam="2">  1       -1 0.11209608E-02 0.75149274E+02</pdfrwt>
<totfact> 0.25721655E+05</totfact>
</mgrwt>
</event>
<event>
 8    1  0.2389776E-020  0.7974074E+02  0.7818608E-02  0.1329789E+00
          2   -1    0    0  501    0  0.00000000000E+00  0.00000000000E+00  0.71770721067E+03  0.71770721067E+03  0.25500000000E-02 0. -1.
         -1   -1    0    0    0  501 -0.00000000000E+00 -0.00000000000E+00 -0.22148925254E+01  0.22148982597E+01  0.50400000000E-02 0.  1.
         24    2    1    2    0    0  0.88817841970E-15  0.35527136788E-14  0.71549231814E+03  0.71992210893E+03  0.79740739954E+02 0.  0.
         66    2    3    3    0    0  0.38471172925E+01  0.26856986056E+02  0.62142691731E+03  0.62202211501E+03  0.19999992847E+01 0.  0.
        -13    1    3    3    0    0 -0.38471172925E+01 -0.26856986056E+02  0.94065400835E+02  0.97899993921E+02  0.10566000000E+00 0.  1.
         13    1    4    4    0    0  0.30840494736E+01  0.15822704105E+02  0.36563164967E+03  0.36598686278E+03  0.10566000000E+00 0. -1.
        -13    1    4    4    0    0  0.67101106441E+00  0.74645011979E+01  0.17967179849E+03  0.17982807170E+03  0.10566000000E+00 0.  1.
         14    1    4    4    0    0  0.92056754513E-01  0.35697807523E+01  0.76123469144E+02  0.76207180525E+02  0.00000000000E+00 0. -1.
<mgrwt>
<rscale>  0 0.79740740E+02</rscale>
<asrwt>0</asrwt>
<pdfrwt beam="1">  1        2 0.11041653E+00 0.79740740E+02</pdfrwt>
<pdfrwt beam="2">  1       -1 0.34075302E-03 0.79740740E+02</pdfrwt>
<totfact> 0.33924503E+05</totfact>
</mgrwt>
</event>
<event>
 8    1  0.2389776E-020  0.8305239E+02  0.7818608E-02  0.1320606E+00
          2   -1    0    0  501    0  0.00000000000E+00  0.00000000000E+00  0.19236624008E+03  0.19236624010E+03  0.25500000000E-02 0. -1.
         -1   -1    0    0    0  501 -0.00000000000E+00 -0.00000000000E+00 -0.89642791952E+01  0.89642806121E+01  0.50400000000E-02 0.  1.
         24    2    1    2    0    0  0.71054273576E-14  0.35527136788E-14  0.18340196089E+03  0.20133052071E+03  0.83052388964E+02 0.  0.
         66    2    3    3    0    0  0.32174977505E+02  0.19756563956E+02  0.13352163542E+03  0.13877167618E+03  0.19999967136E+01 0.  0.
        -13    1    3    3    0    0 -0.32174977505E+02 -0.19756563956E+02  0.49880325467E+02  0.62558844534E+02  0.10566000000E+00 0.  1.
         13    1    4    4    0    0  0.23144773836E+02  0.14273346720E+02  0.97390668160E+02  0.10111558926E+03  0.10566000000E+00 0. -1.
        -13    1    4    4    0    0  0.12179421085E+01  0.39478834675E+00  0.42922532724E+01  0.44803842478E+01  0.10566000000E+00 0.  1.
         14    1    4    4    0    0  0.78122615601E+01  0.50884288898E+01  0.31838713988E+02  0.33175702670E+02  0.00000000000E+00 0. -1.
<mgrwt>
<rscale>  0 0.83052389E+02</rscale>
<asrwt>0</asrwt>
<pdfrwt beam="1">  1        2 0.29594805E-01 0.83052389E+02</pdfrwt>
<pdfrwt beam="2">  1       -1 0.13791201E-02 0.83052389E+02</pdfrwt>
<totfact> 0.19710891E+05</totfact>
</mgrwt>
</event>
<event>
 8    1  0.2389776E-020  0.7804143E+02  0.7818608E-02  0.1334703E+00
         -1   -1    0    0    0  501 -0.00000000000E+00  0.00000000000E+00  0.13754471637E+02  0.13754472560E+02  0.50400000000E-02 0.  1.
          2   -1    0    0  501    0  0.00000000000E+00 -0.00000000000E+00 -0.11069972494E+03  0.11069972497E+03  0.25500000000E-02 0. -1.
         24    2    1    2    0    0  0.35527136788E-14  0.00000000000E+00 -0.96945253302E+02  0.12445419753E+03  0.78041432230E+02 0.  0.
         66    2    3    3    0    0 -0.27870100242E+02  0.21215960016E+02 -0.21172168139E+02  0.40977068647E+02  0.20000010739E+01 0.  0.
        -13    1    3    3    0    0  0.27870100242E+02 -0.21215960016E+02 -0.75773085163E+02  0.83477128881E+02  0.10566000000E+00 0.  1.
         13    1    4    4    0    0 -0.10418492319E+02  0.79529081156E+01 -0.80766529111E+01  0.15396012989E+02  0.10566000000E+00 0. -1.
        -13    1    4    4    0    0 -0.40862376408E+01  0.38259097651E+01 -0.29330197252E+01  0.63204977914E+01  0.10566000000E+00 0.  1.
         14    1    4    4    0    0 -0.13365370283E+02  0.94371421355E+01 -0.10162495502E+02  0.19260557866E+02  0.00000000000E+00 0. -1.
<mgrwt>
<rscale>  0 0.78041432E+02</rscale>
<asrwt>0</asrwt>
<pdfrwt beam="1">  1        2 0.17030726E-01 0.78041432E+02</pdfrwt>
<pdfrwt beam="2">  1       -1 0.21160727E-02 0.78041432E+02</pdfrwt>
<totfact> 0.19494946E+05</totfact>
</mgrwt>
</event>
<event>
 8    1  0.2389776E-020  0.7563556E+02  0.7818608E-02  0.1341914E+00
         -1   -1    0    0    0  501 -0.00000000000E+00  0.00000000000E+00  0.37051309241E+01  0.37051343520E+01  0.50400000000E-02 0.  1.
          2   -1    0    0  501    0  0.00000000000E+00 -0.00000000000E+00 -0.38600086866E+03  0.38600086867E+03  0.25500000000E-02 0. -1.
         24    2    1    2    0    0  0.00000000000E+00 -0.44408920985E-15 -0.38229573774E+03  0.38970600302E+03  0.75635558431E+02 0.  0.
         66    2    3    3    0    0 -0.22851396666E+02 -0.33797186619E+01 -0.34538674654E+03  0.34616414244E+03  0.19999991289E+01 0.  0.
        -13    1    3    3    0    0  0.22851396666E+02  0.33797186619E+01 -0.36908991194E+02  0.43541860580E+02  0.10566000000E+00 0.  1.
         13    1    4    4    0    0 -0.51377909026E+01 -0.12948850318E+01 -0.81389195971E+02  0.81561547358E+02  0.10566000000E+00 0. -1.
        -13    1    4    4    0    0 -0.10354668878E+02 -0.10858466830E+01 -0.16325576582E+03  0.16358745205E+03  0.10566000000E+00 0.  1.
        -14    1    4    4    0    0 -0.73589368850E+01 -0.99898694710E+00 -0.10074178475E+03  0.10101514303E+03  0.00000000000E+00 0.  1.
<mgrwt>
<rscale>  0 0.75635558E+02</rscale>
<asrwt>0</asrwt>
<pdfrwt beam="1">  1        2 0.59384717E-01 0.75635558E+02</pdfrwt>
<pdfrwt beam="2">  1       -1 0.57002071E-03 0.75635558E+02</pdfrwt>
<totfact> 0.32294907E+05</totfact>
</mgrwt>
</event>
<event>
 8    1  0.2389776E-020  0.8041788E+02  0.7818608E-02  0.1327870E+00
         -1   -1    0    0    0  501 -0.00000000000E+00  0.00000000000E+00  0.13610098367E+01  0.13610191685E+01  0.50400000000E-02 0.  1.
          2   -1    0    0  501    0  0.00000000000E+00 -0.00000000000E+00 -0.11879069977E+04  0.11879069977E+04  0.25500000000E-02 0. -1.
         24    2    1    2    0    0  0.00000000000E+00 -0.22204460493E-15 -0.11865459879E+04  0.11892680169E+04  0.80417875117E+02 0.  0.
         66    2    3    3    0    0  0.10905844056E+02  0.15578584372E+01 -0.11651355452E+04  0.11651893422E+04  0.19999996831E+01 0.  0.
        -13    1    3    3    0    0 -0.10905844056E+02 -0.15578584372E+01 -0.21410442646E+02  0.24078674710E+02  0.10566000000E+00 0.  1.
         13    1    4    4    0    0  0.58215562903E+01  0.38680300568E+00 -0.63977869690E+03  0.63980530813E+03  0.10566000000E+00 0. -1.
        -13    1    4    4    0    0  0.34141712615E+01  0.12343872907E+01 -0.38862532642E+03  0.38864229797E+03  0.10566000000E+00 0.  1.
        -14    1    4    4    0    0  0.16701165040E+01 -0.63331859246E-01 -0.13673152189E+03  0.13674173606E+03  0.00000000000E+00 0.  1.
<mgrwt>
<rscale>  0 0.80417875E+02</rscale>
<asrwt>0</asrwt>
<pdfrwt beam="1">  1        2 0.18275409E+00 0.80417875E+02</pdfrwt>
<pdfrwt beam="2">  1       -1 0.20938780E-03 0.80417875E+02</pdfrwt>
<totfact> 0.34604143E+05</totfact>
</mgrwt>
</event>
<event>
 8    1  0.2389776E-020  0.7998173E+02  0.7818608E-02  0.1329103E+00
         -1   -1    0    0    0  501 -0.00000000000E+00  0.00000000000E+00  0.14780874825E+02  0.14780875685E+02  0.50400000000E-02 0.  1.
          2   -1    0    0  501    0  0.00000000000E+00 -0.00000000000E+00 -0.10819855335E+03  0.10819855338E+03  0.25500000000E-02 0. -1.
         24    2    1    2    0    0  0.35527136788E-14 -0.71054273576E-14 -0.93417678523E+02  0.12297942906E+03  0.79981731114E+02 0.  0.
         66    2    3    3    0    0 -0.19379847617E+02 -0.27522492695E+02 -0.79865827906E+02  0.86692655757E+02  0.19999993407E+01 0.  0.
        -13    1    3    3    0    0  0.19379847617E+02  0.27522492695E+02 -0.13551850617E+02  0.36286773306E+02  0.10566000000E+00 0.  1.
         13    1    4    4    0    0 -0.68592432066E+01 -0.10596629687E+02 -0.30624585552E+02  0.33124223498E+02  0.10566000000E+00 0.  1.
        -13    1    4    4    0    0 -0.10900408539E+01 -0.19586429496E+01 -0.58997068183E+01  0.63120658935E+01  0.10566000000E+00 0. -1.
         14    1    4    4    0    0 -0.11430563556E+02 -0.14967220058E+02 -0.43341535535E+02  0.47256366365E+02  0.00000000000E+00 0. -1.
<mgrwt>
<rscale>  0 0.79981731E+02</rscale>
<asrwt>0</asrwt>
<pdfrwt beam="1">  1        2 0.16645931E-01 0.79981731E+02</pdfrwt>
<pdfrwt beam="2">  1       -1 0.22739809E-02 0.79981731E+02</pdfrwt>
<totfact> 0.18138123E+05</totfact>
</mgrwt>
</event>
<event>
 8    1  0.2389776E-020  0.7930371E+02  0.7818608E-02  0.1331039E+00
         -1   -1    0    0    0  501 -0.00000000000E+00  0.00000000000E+00  0.11938112711E+02  0.11938113775E+02  0.50400000000E-02 0.  1.
          2   -1    0    0  501    0  0.00000000000E+00 -0.00000000000E+00 -0.13170168340E+03  0.13170168343E+03  0.25500000000E-02 0. -1.
         24    2    1    2    0    0  0.00000000000E+00  0.00000000000E+00 -0.11976357069E+03  0.14363979720E+03  0.79303710352E+02 0.  0.
         66    2    3    3    0    0 -0.96542277231E+01  0.88075796185E+01 -0.12767856827E+03  0.12836118724E+03  0.20000051214E+01 0.  0.
        -13    1    3    3    0    0  0.96542277231E+01 -0.88075796185E+01  0.79149975843E+01  0.15278609965E+02  0.10566000000E+00 0.  1.
         13    1    4    4    0    0 -0.30639303001E+01  0.26594804769E+01 -0.46555394413E+02  0.46731963561E+02  0.10566000000E+00 0. -1.
        -13    1    4    4    0    0 -0.55373552864E+01  0.47134397730E+01 -0.62730485246E+02  0.63150643396E+02  0.10566000000E+00 0.  1.
        -14    1    4    4    0    0 -0.10529421366E+01  0.14346593686E+01 -0.18392688614E+02  0.18478580279E+02  0.00000000000E+00 0.  1.
<mgrwt>
<rscale>  0 0.79303710E+02</rscale>
<asrwt>0</asrwt>
<pdfrwt beam="1">  1        2 0.20261796E-01 0.79303710E+02</pdfrwt>
<pdfrwt beam="2">  1       -1 0.18366329E-02 0.79303710E+02</pdfrwt>
<totfact> 0.19675730E+05</totfact>
</mgrwt>
</event>
<event>
 8    1  0.2389776E-020  0.8212481E+02  0.7818608E-02  0.1323127E+00
         -1   -1    0    0    0  501 -0.00000000000E+00  0.00000000000E+00  0.16636307158E+01  0.16636383502E+01  0.50400000000E-02 0.  1.
          2   -1    0    0  501    0  0.00000000000E+00 -0.00000000000E+00 -0.10135164641E+04  0.10135164641E+04  0.25500000000E-02 0. -1.
         24    2    1    2    0    0  0.00000000000E+00  0.00000000000E+00 -0.10118528333E+04  0.10151801024E+04  0.82124807393E+02 0.  0.
         66    2    3    3    0    0 -0.14105914389E+02 -0.21529732882E+02 -0.90132947692E+03  0.90169913618E+03  0.19999994944E+01 0.  0.
        -13    1    3    3    0    0  0.14105914389E+02  0.21529732882E+02 -0.11052335642E+03  0.11348096623E+03  0.10566000000E+00 0.  1.
         13    1    4    4    0    0 -0.51486214691E+01 -0.89489693172E+01 -0.35585518532E+03  0.35600493878E+03  0.10566000000E+00 0. -1.
        -13    1    4    4    0    0 -0.32124512770E+01 -0.35846156029E+01 -0.16566553503E+03  0.16573548193E+03  0.10566000000E+00 0.  1.
        -14    1    4    4    0    0 -0.57448416430E+01 -0.89961479617E+01 -0.37980875658E+03  0.37995871546E+03  0.00000000000E+00 0.  1.
<mgrwt>
<rscale>  0 0.82124807E+02</rscale>
<asrwt>0</asrwt>
<pdfrwt beam="1">  1        2 0.15592512E+00 0.82124807E+02</pdfrwt>
<pdfrwt beam="2">  1       -1 0.25594459E-03 0.82124807E+02</pdfrwt>
<totfact> 0.32926690E+05</totfact>
</mgrwt>
</event>
<event>
 8    1  0.2389776E-020  0.7974714E+02  0.7818608E-02  0.1329771E+00
          2   -1    0    0  501    0  0.00000000000E+00  0.00000000000E+00  0.24308902681E+03  0.24308902682E+03  0.25500000000E-02 0. -1.
         -1   -1    0    0    0  501 -0.00000000000E+00 -0.00000000000E+00 -0.65404069779E+01  0.65404089198E+01  0.50400000000E-02 0.  1.
         24    2    1    2    0    0  0.00000000000E+00  0.35527136788E-14  0.23654861983E+03  0.24962943574E+03  0.79747135654E+02 0.  0.
         66    2    3    3    0    0 -0.17412279856E+02 -0.17250082900E+02  0.21669770192E+03  0.21808862161E+03  0.20000027900E+01 0.  0.
        -13    1    3    3    0    0  0.17412279856E+02  0.17250082900E+02  0.19850917914E+02  0.31540814129E+02  0.10566000000E+00 0.  1.
         13    1    4    4    0    0 -0.44145327111E+01 -0.46753328724E+01  0.61312412942E+02  0.61648763015E+02  0.10566000000E+00 0. -1.
        -13    1    4    4    0    0 -0.52301382609E+00 -0.41359972082E+00  0.41692211515E+01  0.42235266351E+01  0.10566000000E+00 0.  1.
         14    1    4    4    0    0 -0.12474733319E+02 -0.12161150307E+02  0.15121606782E+03  0.15221633196E+03  0.00000000000E+00 0. -1.
<mgrwt>
<rscale>  0 0.79747136E+02</rscale>
<asrwt>0</asrwt>
<pdfrwt beam="1">  1        2 0.37398317E-01 0.79747136E+02</pdfrwt>
<pdfrwt beam="2">  1       -1 0.10062165E-02 0.79747136E+02</pdfrwt>
<totfact> 0.23827752E+05</totfact>
</mgrwt>
</event>
<event>
 8    1  0.2389776E-020  0.7309804E+02  0.7818608E-02  0.1349864E+00
          2   -1    0    0  501    0  0.00000000000E+00  0.00000000000E+00  0.87607068290E+02  0.87607068327E+02  0.25500000000E-02 0. -1.
         -1   -1    0    0    0  501 -0.00000000000E+00 -0.00000000000E+00 -0.15247978711E+02  0.15247979544E+02  0.50400000000E-02 0.  1.
         24    2    1    2    0    0  0.17763568394E-14  0.00000000000E+00  0.72359089579E+02  0.10285504787E+03  0.73098037100E+02 0.  0.
         66    2    3    3    0    0  0.11206341611E+02  0.87850285100E+01  0.83528660965E+02  0.84757277091E+02  0.19999997669E+01 0.  0.
        -13    1    3    3    0    0 -0.11206341611E+02 -0.87850285100E+01 -0.11169571386E+02  0.18097770780E+02  0.10566000000E+00 0.  1.
         13    1    4    4    0    0  0.12958161861E+01  0.16466685137E+01  0.12391574733E+02  0.12567933211E+02  0.10566000000E+00 0. -1.
        -13    1    4    4    0    0  0.92804401442E+00  0.11508283667E+01  0.80495890244E+01  0.81849080092E+01  0.10566000000E+00 0.  1.
         14    1    4    4    0    0  0.89824814103E+01  0.59875316297E+01  0.63087497207E+02  0.64004435871E+02  0.00000000000E+00 0. -1.
<mgrwt>
<rscale>  0 0.73098037E+02</rscale>
<asrwt>0</asrwt>
<pdfrwt beam="1">  1        2 0.13478011E-01 0.73098037E+02</pdfrwt>
<pdfrwt beam="2">  1       -1 0.23458429E-02 0.73098037E+02</pdfrwt>
<totfact> 0.21757625E+05</totfact>
</mgrwt>
</event>
<event>
 8    1  0.2389776E-020  0.7896010E+02  0.7818608E-02  0.1332029E+00
          2   -1    0    0  501    0  0.00000000000E+00  0.00000000000E+00  0.62418800009E+02  0.62418800062E+02  0.25500000000E-02 0. -1.
         -1   -1    0    0    0  501 -0.00000000000E+00 -0.00000000000E+00 -0.24971234798E+02  0.24971235306E+02  0.50400000000E-02 0.  1.
         24    2    1    2    0    0  0.00000000000E+00  0.00000000000E+00  0.37447565212E+02  0.87390035368E+02  0.78960104745E+02 0.  0.
         66    2    3    3    0    0  0.17812640717E+02  0.34679482927E+02  0.12029763124E+02  0.40849380748E+02  0.20000003201E+01 0.  0.
        -13    1    3    3    0    0 -0.17812640717E+02 -0.34679482927E+02  0.25417802087E+02  0.46540654620E+02  0.10566000000E+00 0.  1.
         13    1    4    4    0    0  0.95499722438E+01  0.16564256677E+02  0.57567587834E+01  0.19968174800E+02  0.10566000000E+00 0. -1.
        -13    1    4    4    0    0  0.29941782460E+01  0.70539575056E+01  0.25131341436E+01  0.80653844991E+01  0.10566000000E+00 0.  1.
         14    1    4    4    0    0  0.52684902271E+01  0.11061268745E+02  0.37598701973E+01  0.12815821450E+02  0.00000000000E+00 0. -1.
<mgrwt>
<rscale>  0 0.78960105E+02</rscale>
<asrwt>0</asrwt>
<pdfrwt beam="1">  1        2 0.96028921E-02 0.78960105E+02</pdfrwt>
<pdfrwt beam="2">  1       -1 0.38417286E-02 0.78960105E+02</pdfrwt>
<totfact> 0.16277939E+05</totfact>
</mgrwt>
</event>
<event>
 8    1  0.2389776E-020  0.8134785E+02  0.7818608E-02  0.1325269E+00
          2   -1    0    0  501    0  0.00000000000E+00  0.00000000000E+00  0.20990608463E+03  0.20990608464E+03  0.25500000000E-02 0. -1.
         -1   -1    0    0    0  501 -0.00000000000E+00 -0.00000000000E+00 -0.78814674007E+01  0.78814690122E+01  0.50400000000E-02 0.  1.
         24    2    1    2    0    0  0.00000000000E+00  0.00000000000E+00  0.20202461723E+03  0.21778755366E+03  0.81347849151E+02 0.  0.
         66    2    3    3    0    0 -0.12679092717E+02  0.95972020903E+01  0.20122829000E+03  0.20186552548E+03  0.20000003899E+01 0.  0.
        -13    1    3    3    0    0  0.12679092717E+02 -0.95972020903E+01  0.79632722728E+00  0.15922028174E+02  0.10566000000E+00 0.  1.
         13    1    4    4    0    0 -0.65541398277E+00  0.78445782297E+00  0.17995865027E+02  0.18025184151E+02  0.10566000000E+00 0.  1.
        -13    1    4    4    0    0 -0.45191585552E+01  0.27958435674E+01  0.67334551710E+02  0.67544004570E+02  0.10566000000E+00 0. -1.
         14    1    4    4    0    0 -0.75045201790E+01  0.60169006999E+01  0.11589787326E+03  0.11629633676E+03  0.00000000000E+00 0. -1.
<mgrwt>
<rscale>  0 0.81347849E+02</rscale>
<asrwt>0</asrwt>
<pdfrwt beam="1">  1        2 0.32293242E-01 0.81347849E+02</pdfrwt>
<pdfrwt beam="2">  1       -1 0.12125337E-02 0.81347849E+02</pdfrwt>
<totfact> 0.21466114E+05</totfact>
</mgrwt>
</event>
<event>
 8    1  0.2389776E-020  0.8004217E+02  0.7818608E-02  0.1328932E+00
         -1   -1    0    0    0  501 -0.00000000000E+00  0.00000000000E+00  0.96100076907E+00  0.96101398520E+00  0.50400000000E-02 0.  1.
          2   -1    0    0  501    0  0.00000000000E+00 -0.00000000000E+00 -0.16666753604E+04  0.16666753604E+04  0.25500000000E-02 0. -1.
         24    2    1    2    0    0  0.00000000000E+00  0.00000000000E+00 -0.16657143597E+04  0.16676363744E+04  0.80042172000E+02 0.  0.
         66    2    3    3    0    0 -0.43665662205E+01  0.15013350254E+02 -0.16003601658E+04  0.16004377925E+04  0.19999854387E+01 0.  0.
        -13    1    3    3    0    0  0.43665662205E+01 -0.15013350254E+02 -0.65354193883E+02  0.67198581894E+02  0.10566000000E+00 0.  1.
         13    1    4    4    0    0 -0.29072345655E+01  0.10594432553E+02 -0.11720078125E+04  0.11720593064E+04  0.10566000000E+00 0. -1.
        -13    1    4    4    0    0 -0.87186311801E+00  0.36897882599E+01 -0.33789661001E+03  0.33791789669E+03  0.10566000000E+00 0.  1.
         14    1    4    4    0    0 -0.58746853697E+00  0.72912944087E+00 -0.90455743295E+02  0.90460589452E+02  0.00000000000E+00 0. -1.
<mgrwt>
<rscale>  0 0.80042172E+02</rscale>
<asrwt>0</asrwt>
<pdfrwt beam="1">  1        2 0.25640928E+00 0.80042172E+02</pdfrwt>
<pdfrwt beam="2">  1       -1 0.14784862E-03 0.80042172E+02</pdfrwt>
<totfact> 0.31642346E+05</totfact>
</mgrwt>
</event>
<event>
 8    1  0.2389776E-020  0.7526517E+02  0.7818608E-02  0.1343052E+00
          2   -1    0    0  501    0  0.00000000000E+00  0.00000000000E+00  0.54090137066E+03  0.54090137067E+03  0.25500000000E-02 0. -1.
         -1   -1    0    0    0  501 -0.00000000000E+00 -0.00000000000E+00 -0.26182410192E+01  0.26182458701E+01  0.50400000000E-02 0.  1.
         24    2    1    2    0    0  0.88817841970E-15  0.00000000000E+00  0.53828312964E+03  0.54351961654E+03  0.75265170588E+02 0.  0.
         66    2    3    3    0    0  0.76703430123E+01 -0.34453300937E+02  0.36302642887E+03  0.36474381718E+03  0.20000008680E+01 0.  0.
        -13    1    3    3    0    0 -0.76703430123E+01  0.34453300937E+02  0.17525670077E+03  0.17877579936E+03  0.10566000000E+00 0.  1.
         13    1    4    4    0    0  0.48004088647E+01 -0.19032561489E+02  0.20213259044E+03  0.20308342523E+03  0.10566000000E+00 0. -1.
        -13    1    4    4    0    0  0.18373646495E+01 -0.70598057206E+01  0.72822626081E+02  0.73187176465E+02  0.10566000000E+00 0.  1.
        -14    1    4    4    0    0  0.10325694980E+01 -0.83609337274E+01  0.88071212354E+02  0.88473215484E+02  0.00000000000E+00 0.  1.
<mgrwt>
<rscale>  0 0.75265171E+02</rscale>
<asrwt>0</asrwt>
<pdfrwt beam="1">  1        2 0.83215709E-01 0.75265171E+02</pdfrwt>
<pdfrwt beam="2">  1       -1 0.40280614E-03 0.75265171E+02</pdfrwt>
<totfact> 0.36561342E+05</totfact>
</mgrwt>
</event>
<event>
 8    1  0.2389776E-020  0.7998509E+02  0.7818608E-02  0.1329094E+00
         -1   -1    0    0    0  501 -0.00000000000E+00  0.00000000000E+00  0.55828165031E+01  0.55828187781E+01  0.50400000000E-02 0.  1.
          2   -1    0    0  501    0  0.00000000000E+00 -0.00000000000E+00 -0.28648683316E+03  0.28648683317E+03  0.25500000000E-02 0. -1.
         24    2    1    2    0    0  0.17763568394E-14 -0.17763568394E-14 -0.28090401666E+03  0.29206965195E+03  0.79985092460E+02 0.  0.
         66    2    3    3    0    0  0.82190630860E+01 -0.13324425142E+02 -0.27482064674E+03  0.27527346616E+03  0.19999989143E+01 0.  0.
        -13    1    3    3    0    0 -0.82190630860E+01  0.13324425142E+02 -0.60833699168E+01  0.16796185786E+02  0.10566000000E+00 0.  1.
         13    1    4    4    0    0  0.53354950759E+01 -0.88234089117E+01 -0.19348496316E+03  0.19375954734E+03  0.10566000000E+00 0. -1.
        -13    1    4    4    0    0  0.73987750215E+00 -0.99319093939E+00 -0.22998531487E+02  0.23032096335E+02  0.10566000000E+00 0.  1.
         14    1    4    4    0    0  0.21436905079E+01 -0.35078252909E+01 -0.58337152090E+02  0.58481822485E+02  0.00000000000E+00 0. -1.
<mgrwt>
<rscale>  0 0.79985092E+02</rscale>
<asrwt>0</asrwt>
<pdfrwt beam="1">  1        2 0.44074886E-01 0.79985092E+02</pdfrwt>
<pdfrwt beam="2">  1       -1 0.85889524E-03 0.79985092E+02</pdfrwt>
<totfact> 0.25084636E+05</totfact>
</mgrwt>
</event>
<event>
 8    1  0.2389776E-020  0.8461189E+02  0.7818608E-02  0.1316451E+00
         -1   -1    0    0    0  501 -0.00000000000E+00  0.00000000000E+00  0.13068053515E+03  0.13068053525E+03  0.50400000000E-02 0.  1.
          2   -1    0    0  501    0  0.00000000000E+00 -0.00000000000E+00 -0.13695940914E+02  0.13695941151E+02  0.25500000000E-02 0. -1.
         24    2    1    2    0    0  0.17763568394E-14  0.71054273576E-14  0.11698459424E+03  0.14437647640E+03  0.84611888340E+02 0.  0.
         66    2    3    3    0    0 -0.15009787460E+02 -0.38236715969E+02  0.41423351933E+02  0.58371519157E+02  0.19999988941E+01 0.  0.
        -13    1    3    3    0    0  0.15009787460E+02  0.38236715969E+02  0.75561242302E+02  0.86004957241E+02  0.10566000000E+00 0.  1.
         13    1    4    4    0    0 -0.74949297454E+00 -0.16166591199E+01  0.20859777726E+01  0.27455042764E+01  0.10566000000E+00 0. -1.
        -13    1    4    4    0    0 -0.28145443505E+01 -0.89873441770E+01  0.96581143490E+01  0.13490157600E+02  0.10566000000E+00 0. -1.
         14    1    4    4    0    0 -0.11445750134E+02 -0.27632712672E+02  0.29679259812E+02  0.42135857280E+02  0.00000000000E+00 0. -1.
<mgrwt>
<rscale>  0 0.84611888E+02</rscale>
<asrwt>0</asrwt>
<pdfrwt beam="1">  1        2 0.21070679E-02 0.84611888E+02</pdfrwt>
<pdfrwt beam="2">  1       -1 0.20104698E-01 0.84611888E+02</pdfrwt>
<totfact> 0.96911269E+04</totfact>
</mgrwt>
</event>
<event>
 8    1  0.2389776E-020  0.8024528E+02  0.7818608E-02  0.1328357E+00
         -1   -1    0    0    0  501 -0.00000000000E+00  0.00000000000E+00  0.40906053268E+02  0.40906053579E+02  0.50400000000E-02 0.  1.
          2   -1    0    0  501    0  0.00000000000E+00 -0.00000000000E+00 -0.39354226784E+02  0.39354226867E+02  0.25500000000E-02 0. -1.
         24    2    1    2    0    0 -0.44408920985E-15 -0.71054273576E-14  0.15518264842E+01  0.80260280446E+02  0.80245276819E+02 0.  0.
         66    2    3    3    0    0 -0.36582115623E+01 -0.30079702702E+02 -0.25489706638E+02  0.39647145820E+02  0.20000001757E+01 0.  0.
        -13    1    3    3    0    0  0.36582115623E+01  0.30079702702E+02  0.27041533122E+02  0.40613134626E+02  0.10566000000E+00 0.  1.
         13    1    4    4    0    0 -0.18347002158E+01 -0.14026123254E+02 -0.11166058043E+02  0.18021938704E+02  0.10566000000E+00 0. -1.
        -13    1    4    4    0    0 -0.18893442029E+00 -0.66199874365E+01 -0.56326335192E+01  0.86946911545E+01  0.10566000000E+00 0.  1.
        -14    1    4    4    0    0 -0.16345769262E+01 -0.94335920123E+01 -0.86910150752E+01  0.12930515961E+02  0.00000000000E+00 0.  1.
<mgrwt>
<rscale>  0 0.80245277E+02</rscale>
<asrwt>0</asrwt>
<pdfrwt beam="1">  1        2 0.60544965E-02 0.80245277E+02</pdfrwt>
<pdfrwt beam="2">  1       -1 0.62932390E-02 0.80245277E+02</pdfrwt>
<totfact> 0.14087853E+05</totfact>
</mgrwt>
</event>
<event>
 8    1  0.2389776E-020  0.7984151E+02  0.7818608E-02  0.1329502E+00
         -1   -1    0    0    0  501 -0.00000000000E+00  0.00000000000E+00  0.34106380889E+01  0.34106418128E+01  0.50400000000E-02 0.  1.
          2   -1    0    0  501    0  0.00000000000E+00 -0.00000000000E+00 -0.46726318833E+03  0.46726318834E+03  0.25500000000E-02 0. -1.
         24    2    1    2    0    0  0.00000000000E+00  0.00000000000E+00 -0.46385255025E+03  0.47067383015E+03  0.79841505639E+02 0.  0.
         66    2    3    3    0    0 -0.19269842989E+02  0.34073736181E+02 -0.27747333109E+03  0.28022811389E+03  0.20000005728E+01 0.  0.
        -13    1    3    3    0    0  0.19269842989E+02 -0.34073736181E+02 -0.18637921915E+03  0.19044571626E+03  0.10566000000E+00 0.  1.
         13    1    4    4    0    0 -0.15067359288E+02  0.27861727525E+02 -0.22304324134E+03  0.22528115733E+03  0.10566000000E+00 0. -1.
        -13    1    4    4    0    0 -0.61942061980E+00  0.84600762268E+00 -0.88197871948E+01  0.88825233464E+01  0.10566000000E+00 0. -1.
         14    1    4    4    0    0 -0.35830630808E+01  0.53660010334E+01 -0.45610302563E+02  0.46064433221E+02  0.00000000000E+00 0. -1.
<mgrwt>
<rscale>  0 0.79841506E+02</rscale>
<asrwt>0</asrwt>
<pdfrwt beam="1">  1        2 0.71886594E-01 0.79841506E+02</pdfrwt>
<pdfrwt beam="2">  1       -1 0.52471421E-03 0.79841506E+02</pdfrwt>
<totfact> 0.29943935E+05</totfact>
</mgrwt>
</event>
<event>
 8    1  0.2502941E-020  0.8052430E+02  0.7818608E-02  0.1327570E+00
          2   -1    0    0  501    0  0.00000000000E+00  0.00000000000E+00  0.15601486037E+03  0.15601486039E+03  0.25500000000E-02 0. -1.
         -1   -1    0    0    0  501 -0.00000000000E+00 -0.00000000000E+00 -0.10390295421E+02  0.10390296644E+02  0.50400000000E-02 0.  1.
         24    2    1    2    0    0  0.71054273576E-14  0.17763568394E-14  0.14562456495E+03  0.16640515703E+03  0.80524296776E+02 0.  0.
         66    2    3    3    0    0  0.33308192546E+02  0.83969621226E+01  0.11615998472E+03  0.12114902689E+03  0.20000005921E+01 0.  0.
        -13    1    3    3    0    0 -0.33308192546E+02 -0.83969621226E+01  0.29464580224E+02  0.45256130141E+02  0.10566000000E+00 0.  1.
         13    1    4    4    0    0  0.13530850416E+01  0.51862833261E+00  0.56241522616E+01  0.58087922303E+01  0.10566000000E+00 0.  1.
        -13    1    4    4    0    0  0.22635293591E+00  0.59305533341E-01  0.66696235821E+00  0.71467168739E+00  0.10566000000E+00 0. -1.
         14    1    4    4    0    0  0.31728754569E+02  0.78190282567E+01  0.10986887010E+03  0.11462556297E+03  0.00000000000E+00 0. -1.
<mgrwt>
<rscale>  0 0.80524297E+02</rscale>
<asrwt>0</asrwt>
<pdfrwt beam="1">  1        2 0.24002287E-01 0.80524297E+02</pdfrwt>
<pdfrwt beam="2">  1       -1 0.15985070E-02 0.80524297E+02</pdfrwt>
<totfact> 0.19938384E+05</totfact>
</mgrwt>
</event>
<event>
 8    1  0.2389776E-020  0.7451094E+02  0.7818608E-02  0.1345392E+00
          2   -1    0    0  501    0  0.00000000000E+00  0.00000000000E+00  0.11048257794E+02  0.11048258088E+02  0.25500000000E-02 0. -1.
         -1   -1    0    0    0  501 -0.00000000000E+00 -0.00000000000E+00 -0.12562794762E+03  0.12562794772E+03  0.50400000000E-02 0.  1.
         24    2    1    2    0    0  0.00000000000E+00  0.00000000000E+00 -0.11457968982E+03  0.13667620581E+03  0.74510938215E+02 0.  0.
         66    2    3    3    0    0  0.35654408483E+02  0.38326319270E+01 -0.38984304441E+02  0.53006621328E+02  0.20000000317E+01 0.  0.
        -13    1    3    3    0    0 -0.35654408483E+02 -0.38326319270E+01 -0.75595385380E+02  0.83669584477E+02  0.10566000000E+00 0.  1.
         13    1    4    4    0    0  0.54581334172E+01  0.67884498916E+00 -0.63218635343E+01  0.83802848103E+01  0.10566000000E+00 0. -1.
        -13    1    4    4    0    0  0.74620930813E+01  0.10722098086E+01 -0.91158222949E+01  0.11829701906E+02  0.10566000000E+00 0.  1.
        -14    1    4    4    0    0  0.22734181984E+02  0.20815771292E+01 -0.23546618612E+02  0.32796634612E+02  0.00000000000E+00 0.  1.
<mgrwt>
<rscale>  0 0.74510938E+02</rscale>
<asrwt>0</asrwt>
<pdfrwt beam="1">  1        2 0.16997321E-02 0.74510938E+02</pdfrwt>
<pdfrwt beam="2">  1       -1 0.19327376E-01 0.74510938E+02</pdfrwt>
<totfact> 0.13465685E+05</totfact>
</mgrwt>
</event>
<event>
 8    1  0.2389776E-020  0.8006873E+02  0.7818608E-02  0.1328857E+00
         -1   -1    0    0    0  501 -0.00000000000E+00  0.00000000000E+00  0.18548552844E+01  0.18548621317E+01  0.50400000000E-02 0.  1.
          2   -1    0    0  501    0  0.00000000000E+00 -0.00000000000E+00 -0.86408212608E+03  0.86408212608E+03  0.25500000000E-02 0. -1.
         24    2    1    2    0    0 -0.35527136788E-14  0.17763568394E-14 -0.86222727080E+03  0.86593698822E+03  0.80068727078E+02 0.  0.
         66    2    3    3    0    0  0.26479894091E+02 -0.12628343877E+02 -0.72559652072E+03  0.72619210319E+03  0.19999990423E+01 0.  0.
        -13    1    3    3    0    0 -0.26479894091E+02  0.12628343877E+02 -0.13663075007E+03  0.13974488502E+03  0.10566000000E+00 0.  1.
         13    1    4    4    0    0  0.12669539214E+02 -0.71045948035E+01 -0.35524170564E+03  0.35553856764E+03  0.10566000000E+00 0. -1.
        -13    1    4    4    0    0  0.89660556375E+01 -0.35030197978E+01 -0.23643287326E+03  0.23662877260E+03  0.10566000000E+00 0.  1.
         14    1    4    4    0    0  0.48442992400E+01 -0.20207292754E+01 -0.13392194183E+03  0.13402476295E+03  0.00000000000E+00 0. -1.
<mgrwt>
<rscale>  0 0.80068727E+02</rscale>
<asrwt>0</asrwt>
<pdfrwt beam="1">  1        2 0.13293539E+00 0.80068727E+02</pdfrwt>
<pdfrwt beam="2">  1       -1 0.28536357E-03 0.80068727E+02</pdfrwt>
<totfact> 0.34696323E+05</totfact>
</mgrwt>
</event>
<event>
 8    1  0.2389776E-020  0.7933368E+02  0.7818608E-02  0.1330953E+00
         -1   -1    0    0    0  501 -0.00000000000E+00  0.00000000000E+00  0.44509631694E+02  0.44509631980E+02  0.50400000000E-02 0.  1.
          2   -1    0    0  501    0  0.00000000000E+00 -0.00000000000E+00 -0.35350958211E+02  0.35350958303E+02  0.25500000000E-02 0. -1.
         24    2    1    2    0    0 -0.35527136788E-14  0.00000000000E+00  0.91586734830E+01  0.79860590283E+02  0.79333678727E+02 0.  0.
         66    2    3    3    0    0  0.19294270420E+02 -0.12667435851E+02 -0.27861003505E+02  0.36234904611E+02  0.19999984396E+01 0.  0.
        -13    1    3    3    0    0 -0.19294270420E+02  0.12667435851E+02  0.37019676988E+02  0.43625685673E+02  0.10566000000E+00 0.  1.
         13    1    4    4    0    0  0.96893632240E+01 -0.64821713231E+01 -0.13302054794E+02  0.17687796090E+02  0.10566000000E+00 0. -1.
        -13    1    4    4    0    0  0.95804525467E+01 -0.60330184344E+01 -0.14238061090E+02  0.18191094801E+02  0.10566000000E+00 0.  1.
        -14    1    4    4    0    0  0.24454648826E-01 -0.15224609375E+00 -0.32088762071E+00  0.35601371889E+00  0.00000000000E+00 0.  1.
<mgrwt>
<rscale>  0 0.79333679E+02</rscale>
<asrwt>0</asrwt>
<pdfrwt beam="1">  1        2 0.54386090E-02 0.79333679E+02</pdfrwt>
<pdfrwt beam="2">  1       -1 0.68476357E-02 0.79333679E+02</pdfrwt>
<totfact> 0.14228667E+05</totfact>
</mgrwt>
</event>
<event>
 8    1  0.2389776E-020  0.8107777E+02  0.7818608E-02  0.1326020E+00
          2   -1    0    0  501    0  0.00000000000E+00  0.00000000000E+00  0.28221514322E+03  0.28221514323E+03  0.25500000000E-02 0. -1.
         -1   -1    0    0    0  501 -0.00000000000E+00 -0.00000000000E+00 -0.58232196796E+01  0.58232218606E+01  0.50400000000E-02 0.  1.
         24    2    1    2    0    0  0.00000000000E+00  0.00000000000E+00  0.27639192354E+03  0.28803836509E+03  0.81077767400E+02 0.  0.
         66    2    3    3    0    0 -0.40124527909E+02 -0.42493179063E+01  0.12529371558E+03  0.13164554539E+03  0.20000034051E+01 0.  0.
        -13    1    3    3    0    0  0.40124527909E+02  0.42493179063E+01  0.15109820796E+03  0.15639281970E+03  0.10566000000E+00 0.  1.
         13    1    4    4    0    0 -0.33721054952E+01 -0.83582721656E+00  0.10787177498E+02  0.11333316594E+02  0.10566000000E+00 0.  1.
        -13    1    4    4    0    0 -0.30331877940E+02 -0.28750858783E+01  0.93350589656E+02  0.98196907748E+02  0.10566000000E+00 0. -1.
        -14    1    4    4    0    0 -0.64205444739E+01 -0.53840481143E+00  0.21155948429E+02  0.22115321047E+02  0.00000000000E+00 0.  1.
<mgrwt>
<rscale>  0 0.81077767E+02</rscale>
<asrwt>0</asrwt>
<pdfrwt beam="1">  1        2 0.43417707E-01 0.81077767E+02</pdfrwt>
<pdfrwt beam="2">  1       -1 0.89588027E-03 0.81077767E+02</pdfrwt>
<totfact> 0.24075258E+05</totfact>
</mgrwt>
</event>
<event>
 8    1  0.2389776E-020  0.8007982E+02  0.7818608E-02  0.1328825E+00
         -1   -1    0    0    0  501 -0.00000000000E+00  0.00000000000E+00  0.82585619625E+01  0.82585635004E+01  0.50400000000E-02 0.  1.
          2   -1    0    0  501    0  0.00000000000E+00 -0.00000000000E+00 -0.19412511329E+03  0.19412511330E+03  0.25500000000E-02 0. -1.
         24    2    1    2    0    0 -0.71054273576E-14 -0.17763568394E-14 -0.18586655133E+03  0.20238367680E+03  0.80079821026E+02 0.  0.
         66    2    3    3    0    0 -0.31404069280E+02 -0.14844111031E+02 -0.14319589813E+03  0.14736223546E+03  0.19999995610E+01 0.  0.
        -13    1    3    3    0    0  0.31404069280E+02  0.14844111031E+02 -0.42670653191E+02  0.55021441343E+02  0.10566000000E+00 0.  1.
         13    1    4    4    0    0 -0.91772705454E+01 -0.42521234482E+01 -0.45444357901E+02  0.46556456884E+02  0.10566000000E+00 0.  1.
        -13    1    4    4    0    0 -0.12742681714E+02 -0.63027913410E+01 -0.56119492728E+02  0.57892225247E+02  0.10566000000E+00 0. -1.
         14    1    4    4    0    0 -0.94841170207E+01 -0.42891962421E+01 -0.41632047505E+02  0.42913553332E+02  0.00000000000E+00 0. -1.
<mgrwt>
<rscale>  0 0.80079821E+02</rscale>
<asrwt>0</asrwt>
<pdfrwt beam="1">  1        2 0.29865399E-01 0.80079821E+02</pdfrwt>
<pdfrwt beam="2">  1       -1 0.12705483E-02 0.80079821E+02</pdfrwt>
<totfact> 0.21774596E+05</totfact>
</mgrwt>
</event>
<event>
 8    1  0.2389776E-020  0.7931232E+02  0.7818608E-02  0.1331014E+00
          2   -1    0    0  501    0  0.00000000000E+00  0.00000000000E+00  0.22952392110E+02  0.22952392252E+02  0.25500000000E-02 0. -1.
         -1   -1    0    0    0  501 -0.00000000000E+00 -0.00000000000E+00 -0.68516217191E+02  0.68516217376E+02  0.50400000000E-02 0.  1.
         24    2    1    2    0    0 -0.17763568394E-14  0.17763568394E-14 -0.45563825081E+02  0.91468609628E+02  0.79312321812E+02 0.  0.
         66    2    3    3    0    0  0.13384971303E+02 -0.71660595563E+01  0.19421812284E+02  0.24732906334E+02  0.19999992417E+01 0.  0.
        -13    1    3    3    0    0 -0.13384971303E+02  0.71660595563E+01 -0.64985637365E+02  0.66735703294E+02  0.10566000000E+00 0.  1.
         13    1    4    4    0    0  0.11773408268E+01 -0.37038719319E+00  0.21747997231E+01  0.25028455739E+01  0.10566000000E+00 0. -1.
        -13    1    4    4    0    0  0.72550917967E+00 -0.54264949131E+00  0.15791874389E+01  0.18236855658E+01  0.10566000000E+00 0.  1.
         14    1    4    4    0    0  0.11482121296E+02 -0.62530228718E+01  0.15667825122E+02  0.20406375194E+02  0.00000000000E+00 0. -1.
<mgrwt>
<rscale>  0 0.79312322E+02</rscale>
<asrwt>0</asrwt>
<pdfrwt beam="1">  1        2 0.35311373E-02 0.79312322E+02</pdfrwt>
<pdfrwt beam="2">  1       -1 0.10540956E-01 0.79312322E+02</pdfrwt>
<totfact> 0.13080002E+05</totfact>
</mgrwt>
</event>
<event>
 8    1  0.2389776E-020  0.8797540E+02  0.7818608E-02  0.1307830E+00
         -1   -1    0    0    0  501 -0.00000000000E+00  0.00000000000E+00  0.32843463733E+03  0.32843463737E+03  0.50400000000E-02 0.  1.
          2   -1    0    0  501    0  0.00000000000E+00 -0.00000000000E+00 -0.58913320639E+01  0.58913326158E+01  0.25500000000E-02 0. -1.
         24    2    1    2    0    0  0.17763568394E-14  0.00000000000E+00  0.32254330527E+03  0.33432596999E+03  0.87975396755E+02 0.  0.
         66    2    3    3    0    0  0.15708009126E+02 -0.39121172396E+02  0.11393494063E+03  0.12150052827E+03  0.19999983393E+01 0.  0.
        -13    1    3    3    0    0 -0.15708009126E+02  0.39121172396E+02  0.20860836464E+03  0.21282544172E+03  0.10566000000E+00 0.  1.
         13    1    4    4    0    0  0.43900168447E+01 -0.10298543036E+02  0.30116765420E+02  0.32130405537E+02  0.10566000000E+00 0. -1.
        -13    1    4    4    0    0  0.11213237890E+02 -0.27817838721E+02  0.81368520140E+02  0.86720332615E+02  0.10566000000E+00 0.  1.
        -14    1    4    4    0    0  0.10475439141E+00 -0.10047906391E+01  0.24496550656E+01  0.26497901146E+01  0.00000000000E+00 0.  1.
<mgrwt>
<rscale>  0 0.87975397E+02</rscale>
<asrwt>0</asrwt>
<pdfrwt beam="1">  1        2 0.90635856E-03 0.87975397E+02</pdfrwt>
<pdfrwt beam="2">  1       -1 0.50528420E-01 0.87975397E+02</pdfrwt>
<totfact> 0.65153448E+04</totfact>
</mgrwt>
</event>
<event>
 8    1  0.2389776E-020  0.8473905E+02  0.7818608E-02  0.1316116E+00
         -1   -1    0    0    0  501 -0.00000000000E+00  0.00000000000E+00  0.37276967008E+01  0.37277001080E+01  0.50400000000E-02 0.  1.
          2   -1    0    0  501    0  0.00000000000E+00 -0.00000000000E+00 -0.48157774416E+03  0.48157774416E+03  0.25500000000E-02 0. -1.
         24    2    1    2    0    0  0.00000000000E+00  0.00000000000E+00 -0.47785004745E+03  0.48530544427E+03  0.84739048767E+02 0.  0.
         66    2    3    3    0    0 -0.27639837081E+02 -0.23254399732E+01 -0.42230599761E+03  0.42322065627E+03  0.20000009071E+01 0.  0.
        -13    1    3    3    0    0  0.27639837081E+02  0.23254399732E+01 -0.55544049841E+02  0.62084788005E+02  0.10566000000E+00 0.  1.
         13    1    4    4    0    0 -0.10896074259E+02 -0.13024327605E+01 -0.15832533413E+03  0.15870520898E+03  0.10566000000E+00 0. -1.
        -13    1    4    4    0    0 -0.85577194612E+01 -0.19894641651E+00 -0.12760843120E+03  0.12789525800E+03  0.10566000000E+00 0.  1.
        -14    1    4    4    0    0 -0.81860433611E+01 -0.82406079620E+00 -0.13637223228E+03  0.13662018928E+03  0.00000000000E+00 0.  1.
<mgrwt>
<rscale>  0 0.84739049E+02</rscale>
<asrwt>0</asrwt>
<pdfrwt beam="1">  1        2 0.74088835E-01 0.84739049E+02</pdfrwt>
<pdfrwt beam="2">  1       -1 0.57349244E-03 0.84739049E+02</pdfrwt>
<totfact> 0.25882814E+05</totfact>
</mgrwt>
</event>
<event>
 8    1  0.2389776E-020  0.7936475E+02  0.7818608E-02  0.1330864E+00
         -1   -1    0    0    0  501 -0.00000000000E+00  0.00000000000E+00  0.10672461653E+02  0.10672462844E+02  0.50400000000E-02 0.  1.
          2   -1    0    0  501    0  0.00000000000E+00 -0.00000000000E+00 -0.14754708555E+03  0.14754708557E+03  0.25500000000E-02 0. -1.
         24    2    1    2    0    0  0.00000000000E+00  0.00000000000E+00 -0.13687462390E+03  0.15821954841E+03  0.79364745536E+02 0.  0.
         66    2    3    3    0    0 -0.42489904991E+01  0.34244168253E+02 -0.10744311823E+03  0.11286602959E+03  0.20000005002E+01 0.  0.
        -13    1    3    3    0    0  0.42489904991E+01 -0.34244168253E+02 -0.29431505667E+02  0.45353518821E+02  0.10566000000E+00 0.  1.
         13    1    4    4    0    0 -0.15174898442E+01  0.12202173125E+02 -0.37961402373E+02  0.39903321147E+02  0.10566000000E+00 0. -1.
        -13    1    4    4    0    0 -0.11806642176E+01  0.11659493851E+02 -0.34194416595E+02  0.36147020004E+02  0.10566000000E+00 0.  1.
        -14    1    4    4    0    0 -0.15508364373E+01  0.10382501277E+02 -0.35287299260E+02  0.36815688442E+02  0.00000000000E+00 0.  1.
<mgrwt>
<rscale>  0 0.79364746E+02</rscale>
<asrwt>0</asrwt>
<pdfrwt beam="1">  1        2 0.22699550E-01 0.79364746E+02</pdfrwt>
<pdfrwt beam="2">  1       -1 0.16419174E-02 0.79364746E+02</pdfrwt>
<totfact> 0.20350075E+05</totfact>
</mgrwt>
</event>
<event>
 8    1  0.2389776E-020  0.7235930E+02  0.7818608E-02  0.1352249E+00
         -1   -1    0    0    0  501 -0.00000000000E+00  0.00000000000E+00  0.59044216652E+00  0.59046367679E+00  0.50400000000E-02 0.  1.
          2   -1    0    0  501    0  0.00000000000E+00 -0.00000000000E+00 -0.22168862809E+04  0.22168862809E+04  0.25500000000E-02 0. -1.
         24    2    1    2    0    0  0.88817841970E-15  0.17763568394E-14 -0.22162958387E+04  0.22174767446E+04  0.72359297661E+02 0.  0.
         66    2    3    3    0    0 -0.70152891543E+01 -0.11053600405E+02 -0.21416843081E+04  0.21417252559E+04  0.19999989583E+01 0.  0.
        -13    1    3    3    0    0  0.70152891543E+01  0.11053600405E+02 -0.74611530665E+02  0.75751488672E+02  0.10566000000E+00 0.  1.
         13    1    4    4    0    0 -0.51061429627E+01 -0.73512732930E+01 -0.14309868503E+04  0.14310148465E+04  0.10566000000E+00 0. -1.
        -13    1    4    4    0    0 -0.19061841932E+01 -0.28566783991E+01 -0.58785793688E+03  0.58786797775E+03  0.10566000000E+00 0.  1.
        -14    1    4    4    0    0 -0.29619984454E-02 -0.84564871254E+00 -0.12283952084E+03  0.12284243164E+03  0.00000000000E+00 0.  1.
<mgrwt>
<rscale>  0 0.72359298E+02</rscale>
<asrwt>0</asrwt>
<pdfrwt beam="1">  1        2 0.34105277E+00 0.72359298E+02</pdfrwt>
<pdfrwt beam="2">  1       -1 0.90840686E-04 0.72359298E+02</pdfrwt>
<totfact> 0.32303655E+05</totfact>
</mgrwt>
</event>
<event>
 8    1  0.2389776E-020  0.7853216E+02  0.7818608E-02  0.1333269E+00
         -1   -1    0    0    0  501 -0.00000000000E+00  0.00000000000E+00  0.75123677097E+01  0.75123694003E+01  0.50400000000E-02 0.  1.
          2   -1    0    0  501    0  0.00000000000E+00 -0.00000000000E+00 -0.20523820736E+03  0.20523820737E+03  0.25500000000E-02 0. -1.
         24    2    1    2    0    0  0.00000000000E+00  0.17763568394E-14 -0.19772583965E+03  0.21275057677E+03  0.78532160629E+02 0.  0.
         66    2    3    3    0    0  0.19848352700E+02  0.14484285577E+02 -0.18181206614E+03  0.18347582682E+03  0.19999998164E+01 0.  0.
        -13    1    3    3    0    0 -0.19848352700E+02 -0.14484285577E+02 -0.15913773506E+02  0.29274749953E+02  0.10566000000E+00 0.  1.
         13    1    4    4    0    0  0.10303540034E+01  0.37043537845E+00 -0.75551343226E+01  0.76347934098E+01  0.10566000000E+00 0. -1.
        -13    1    4    4    0    0  0.53504917738E+01  0.36598325991E+01 -0.51112392899E+02  0.51521937160E+02  0.10566000000E+00 0. -1.
         14    1    4    4    0    0  0.13467506922E+02  0.10454017600E+02 -0.12314453892E+03  0.12431909625E+03  0.00000000000E+00 0. -1.
<mgrwt>
<rscale>  0 0.78532161E+02</rscale>
<asrwt>0</asrwt>
<pdfrwt beam="1">  1        2 0.31575105E-01 0.78532161E+02</pdfrwt>
<pdfrwt beam="2">  1       -1 0.11557492E-02 0.78532161E+02</pdfrwt>
<totfact> 0.23371000E+05</totfact>
</mgrwt>
</event>
<event>
 8    1  0.2389776E-020  0.7995271E+02  0.7818608E-02  0.1329186E+00
         -1   -1    0    0    0  501 -0.00000000000E+00  0.00000000000E+00  0.41158391795E+01  0.41158422653E+01  0.50400000000E-02 0.  1.
          2   -1    0    0  501    0  0.00000000000E+00 -0.00000000000E+00 -0.38828250660E+03  0.38828250661E+03  0.25500000000E-02 0. -1.
         24    2    1    2    0    0  0.35527136788E-14 -0.88817841970E-15 -0.38416666742E+03  0.39239834888E+03  0.79952710035E+02 0.  0.
         66    2    3    3    0    0 -0.19181740373E+02  0.74792838650E+01 -0.36023809544E+03  0.36083149011E+03  0.20000005634E+01 0.  0.
        -13    1    3    3    0    0  0.19181740373E+02 -0.74792838650E+01 -0.23928571987E+02  0.31566858764E+02  0.10566000000E+00 0.  1.
         13    1    4    4    0    0 -0.27604090529E+01  0.16491648706E+01 -0.51239207169E+02  0.51340112176E+02  0.10566000000E+00 0. -1.
        -13    1    4    4    0    0 -0.34240163372E+01  0.14614042994E+01 -0.60642318871E+02  0.60756576537E+02  0.10566000000E+00 0.  1.
         14    1    4    4    0    0 -0.12997314983E+02  0.43687146950E+01 -0.24835656940E+03  0.24873480140E+03  0.00000000000E+00 0. -1.
<mgrwt>
<rscale>  0 0.79952710E+02</rscale>
<asrwt>0</asrwt>
<pdfrwt beam="1">  1        2 0.59735741E-01 0.79952710E+02</pdfrwt>
<pdfrwt beam="2">  1       -1 0.63320658E-03 0.79952710E+02</pdfrwt>
<totfact> 0.28003613E+05</totfact>
</mgrwt>
</event>
<event>
 8    1  0.2389776E-020  0.8068036E+02  0.7818608E-02  0.1327132E+00
         -1   -1    0    0    0  501 -0.00000000000E+00  0.00000000000E+00  0.76103940654E+02  0.76103940821E+02  0.50400000000E-02 0.  1.
          2   -1    0    0  501    0  0.00000000000E+00 -0.00000000000E+00 -0.21382993956E+02  0.21382994108E+02  0.25500000000E-02 0. -1.
         24    2    1    2    0    0  0.00000000000E+00  0.00000000000E+00  0.54720946698E+02  0.97486934929E+02  0.80680359905E+02 0.  0.
         66    2    3    3    0    0 -0.21052566780E+02  0.19294780945E+02 -0.70081896225E+01  0.29472255818E+02  0.20000003635E+01 0.  0.
        -13    1    3    3    0    0  0.21052566780E+02 -0.19294780945E+02  0.61729136320E+02  0.68014679112E+02  0.10566000000E+00 0.  1.
         13    1    4    4    0    0 -0.32582379979E+01  0.37069218387E+01 -0.11876619833E+01  0.50773112364E+01  0.10566000000E+00 0. -1.
        -13    1    4    4    0    0 -0.10785291837E+02  0.89596476354E+01 -0.29317416288E+01  0.14324946030E+02  0.10566000000E+00 0.  1.
         14    1    4    4    0    0 -0.70090369456E+01  0.66282114708E+01 -0.28887860104E+01  0.10069998551E+02  0.00000000000E+00 0. -1.
<mgrwt>
<rscale>  0 0.80680360E+02</rscale>
<asrwt>0</asrwt>
<pdfrwt beam="1">  1        2 0.32896914E-02 0.80680360E+02</pdfrwt>
<pdfrwt beam="2">  1       -1 0.11708299E-01 0.80680360E+02</pdfrwt>
<totfact> 0.12282579E+05</totfact>
</mgrwt>
</event>
<event>
 8    1  0.2389776E-020  0.7903819E+02  0.7818608E-02  0.1331803E+00
         -1   -1    0    0    0  501 -0.00000000000E+00  0.00000000000E+00  0.55304118055E+01  0.55304141020E+01  0.50400000000E-02 0.  1.
          2   -1    0    0  501    0  0.00000000000E+00 -0.00000000000E+00 -0.28239459763E+03  0.28239459764E+03  0.25500000000E-02 0. -1.
         24    2    1    2    0    0 -0.44408920985E-15  0.00000000000E+00 -0.27686418582E+03  0.28792501174E+03  0.79038186942E+02 0.  0.
         66    2    3    3    0    0 -0.28890106872E+01  0.11485723661E+02 -0.27576908160E+03  0.27603053201E+03  0.20000005897E+01 0.  0.
        -13    1    3    3    0    0  0.28890106872E+01 -0.11485723661E+02 -0.10951042174E+01  0.11894479730E+02  0.10566000000E+00 0.  1.
         13    1    4    4    0    0 -0.15973573159E+01  0.48536034574E+01 -0.11887385217E+03  0.11898366657E+03  0.10566000000E+00 0. -1.
        -13    1    4    4    0    0 -0.45689331585E+00  0.49762075672E+01 -0.12209026229E+03  0.12219253129E+03  0.10566000000E+00 0. -1.
         14    1    4    4    0    0 -0.83476005547E+00  0.16559126365E+01 -0.34804967142E+02  0.34854334146E+02  0.00000000000E+00 0. -1.
<mgrwt>
<rscale>  0 0.79038187E+02</rscale>
<asrwt>0</asrwt>
<pdfrwt beam="1">  1        2 0.43445312E-01 0.79038187E+02</pdfrwt>
<pdfrwt beam="2">  1       -1 0.85083299E-03 0.79038187E+02</pdfrwt>
<totfact> 0.25745846E+05</totfact>
</mgrwt>
</event>
<event>
 8    1  0.2389776E-020  0.7931122E+02  0.7818608E-02  0.1331018E+00
          2   -1    0    0  501    0  0.00000000000E+00  0.00000000000E+00  0.70297090375E+02  0.70297090422E+02  0.25500000000E-02 0. -1.
         -1   -1    0    0    0  501 -0.00000000000E+00 -0.00000000000E+00 -0.22370304087E+02  0.22370304655E+02  0.50400000000E-02 0.  1.
         24    2    1    2    0    0  0.00000000000E+00 -0.17763568394E-14  0.47926786288E+02  0.92667395077E+02  0.79311217784E+02 0.  0.
         66    2    3    3    0    0 -0.28010920582E+02 -0.10026557614E+02  0.54567946483E+02  0.62183633789E+02  0.19999996024E+01 0.  0.
        -13    1    3    3    0    0  0.28010920582E+02  0.10026557614E+02 -0.66411601947E+01  0.30483761287E+02  0.10566000000E+00 0.  1.
         13    1    4    4    0    0 -0.43304523738E+01 -0.18416047070E+01  0.78512309280E+01  0.91540874356E+01  0.10566000000E+00 0. -1.
        -13    1    4    4    0    0 -0.85338519428E+01 -0.34030629132E+01  0.18200080731E+02  0.20387779889E+02  0.10566000000E+00 0.  1.
         14    1    4    4    0    0 -0.15146616266E+02 -0.47818899938E+01  0.28516634824E+02  0.32641766464E+02  0.00000000000E+00 0. -1.
<mgrwt>
<rscale>  0 0.79311218E+02</rscale>
<asrwt>0</asrwt>
<pdfrwt beam="1">  1        2 0.10814937E-01 0.79311218E+02</pdfrwt>
<pdfrwt beam="2">  1       -1 0.34415853E-02 0.79311218E+02</pdfrwt>
<totfact> 0.16545746E+05</totfact>
</mgrwt>
</event>
<event>
 8    1  0.2389776E-020  0.7755199E+02  0.7818608E-02  0.1336146E+00
          2   -1    0    0  501    0  0.00000000000E+00  0.00000000000E+00  0.87682534027E+02  0.87682534064E+02  0.25500000000E-02 0. -1.
         -1   -1    0    0    0  501 -0.00000000000E+00 -0.00000000000E+00 -0.17147973521E+02  0.17147974261E+02  0.50400000000E-02 0.  1.
         24    2    1    2    0    0  0.00000000000E+00 -0.88817841970E-15  0.70534560506E+02  0.10483050833E+03  0.77551990625E+02 0.  0.
         66    2    3    3    0    0 -0.36257109494E+02  0.49962575715E+01  0.52497290125E+02  0.64027385094E+02  0.19999982279E+01 0.  0.
        -13    1    3    3    0    0  0.36257109494E+02 -0.49962575715E+01  0.18037270381E+02  0.40803123231E+02  0.10566000000E+00 0.  1.
         13    1    4    4    0    0 -0.14621776218E+02  0.20461150500E+01  0.21911512264E+02  0.26421742189E+02  0.10566000000E+00 0. -1.
        -13    1    4    4    0    0 -0.72409216890E+01  0.72622668496E+00  0.11222631527E+02  0.13375984993E+02  0.10566000000E+00 0.  1.
         14    1    4    4    0    0 -0.14394411587E+02  0.22239158366E+01  0.19363146335E+02  0.24229657913E+02  0.00000000000E+00 0. -1.
<mgrwt>
<rscale>  0 0.77551991E+02</rscale>
<asrwt>0</asrwt>
<pdfrwt beam="1">  1        2 0.13489620E-01 0.77551991E+02</pdfrwt>
<pdfrwt beam="2">  1       -1 0.26381499E-02 0.77551991E+02</pdfrwt>
<totfact> 0.18588101E+05</totfact>
</mgrwt>
</event>
<event>
 8    1  0.2389776E-020  0.7899471E+02  0.7818608E-02  0.1331929E+00
          2   -1    0    0  501    0  0.00000000000E+00  0.00000000000E+00  0.72846559276E+01  0.72846563739E+01  0.25500000000E-02 0. -1.
         -1   -1    0    0    0  501 -0.00000000000E+00 -0.00000000000E+00 -0.21415438347E+03  0.21415438353E+03  0.50400000000E-02 0.  1.
         24    2    1    2    0    0  0.00000000000E+00 -0.35527136788E-14 -0.20686972754E+03  0.22143903991E+03  0.78994710075E+02 0.  0.
         66    2    3    3    0    0 -0.22296675212E+02  0.26456090648E+02 -0.50242161319E+02  0.61035573223E+02  0.19999916966E+01 0.  0.
        -13    1    3    3    0    0  0.22296675212E+02 -0.26456090648E+02 -0.15662756623E+03  0.16040346668E+03  0.10566000000E+00 0.  1.
         13    1    4    4    0    0 -0.18466016664E+02  0.21664293750E+02 -0.42028875886E+02  0.50761924386E+02  0.10566000000E+00 0. -1.
        -13    1    4    4    0    0 -0.92198414014E-01  0.98210011488E-01 -0.22552108610E+00  0.28314227833E+00  0.10566000000E+00 0. -1.
        -14    1    4    4    0    0 -0.37384601341E+01  0.46935868860E+01 -0.79877643469E+01  0.99905065583E+01  0.00000000000E+00 0.  1.
<mgrwt>
<rscale>  0 0.78994710E+02</rscale>
<asrwt>0</asrwt>
<pdfrwt beam="1">  1        2 0.11207165E-02 0.78994710E+02</pdfrwt>
<pdfrwt beam="2">  1       -1 0.32946823E-01 0.78994710E+02</pdfrwt>
<totfact> 0.10071239E+05</totfact>
</mgrwt>
</event>
<event>
 8    1  0.2389776E-020  0.7464463E+02  0.7818608E-02  0.1344975E+00
         -1   -1    0    0    0  501 -0.00000000000E+00  0.00000000000E+00  0.20375005878E+02  0.20375006501E+02  0.50400000000E-02 0.  1.
          2   -1    0    0  501    0  0.00000000000E+00 -0.00000000000E+00 -0.68365873479E+02  0.68365873527E+02  0.25500000000E-02 0. -1.
         24    2    1    2    0    0  0.00000000000E+00  0.00000000000E+00 -0.47990867602E+02  0.88740880028E+02  0.74644627502E+02 0.  0.
         66    2    3    3    0    0 -0.17781898967E+02 -0.15911982896E+02 -0.58088379026E+02  0.62830302428E+02  0.19999987053E+01 0.  0.
        -13    1    3    3    0    0  0.17781898967E+02  0.15911982896E+02  0.10097511424E+02  0.25910577599E+02  0.10566000000E+00 0.  1.
         13    1    4    4    0    0 -0.19873366235E+01 -0.13643906326E+01 -0.48391219906E+01  0.54073407817E+01  0.10566000000E+00 0.  1.
        -13    1    4    4    0    0 -0.69950073349E+01 -0.59332926333E+01 -0.23343356370E+02  0.25081019512E+02  0.10566000000E+00 0. -1.
         14    1    4    4    0    0 -0.87995550084E+01 -0.86142996296E+01 -0.29905900666E+02  0.32341942135E+02  0.00000000000E+00 0. -1.
<mgrwt>
<rscale>  0 0.74644628E+02</rscale>
<asrwt>0</asrwt>
<pdfrwt beam="1">  1        2 0.10517827E-01 0.74644628E+02</pdfrwt>
<pdfrwt beam="2">  1       -1 0.31346164E-02 0.74644628E+02</pdfrwt>
<totfact> 0.19351193E+05</totfact>
</mgrwt>
</event>
<event>
 8    1  0.2389776E-020  0.8531840E+02  0.7818608E-02  0.1314602E+00
          2   -1    0    0  501    0  0.00000000000E+00  0.00000000000E+00  0.75639777269E+03  0.75639777270E+03  0.25500000000E-02 0. -1.
         -1   -1    0    0    0  501 -0.00000000000E+00 -0.00000000000E+00 -0.24058837984E+01  0.24058890775E+01  0.50400000000E-02 0.  1.
         24    2    1    2    0    0  0.44408920985E-15  0.00000000000E+00  0.75399188889E+03  0.75880366177E+03  0.85318395461E+02 0.  0.
         66    2    3    3    0    0  0.38379419255E+01  0.14830925448E+02  0.73107200514E+03  0.73123523086E+03  0.19999998380E+01 0.  0.
        -13    1    3    3    0    0 -0.38379419255E+01 -0.14830925448E+02  0.22919883750E+02  0.27568430913E+02  0.10566000000E+00 0.  1.
         13    1    4    4    0    0  0.71372125919E+00  0.45689973485E+01  0.24570516049E+03  0.24574869723E+03  0.10566000000E+00 0. -1.
        -13    1    4    4    0    0  0.21507810531E+01  0.56113285432E+01  0.25708420657E+03  0.25715445416E+03  0.10566000000E+00 0.  1.
        -14    1    4    4    0    0  0.97343961316E+00  0.46505995562E+01  0.22828263809E+03  0.22833207947E+03  0.00000000000E+00 0.  1.
<mgrwt>
<rscale>  0 0.85318395E+02</rscale>
<asrwt>0</asrwt>
<pdfrwt beam="1">  1        2 0.11636900E+00 0.85318395E+02</pdfrwt>
<pdfrwt beam="2">  1       -1 0.37013604E-03 0.85318395E+02</pdfrwt>
<totfact> 0.28757172E+05</totfact>
</mgrwt>
</event>
<event>
 8    1  0.2389776E-020  0.8024105E+02  0.7818608E-02  0.1328369E+00
          2   -1    0    0  501    0  0.00000000000E+00  0.00000000000E+00  0.88785618073E+02  0.88785618110E+02  0.25500000000E-02 0. -1.
         -1   -1    0    0    0  501 -0.00000000000E+00 -0.00000000000E+00 -0.18129697345E+02  0.18129698046E+02  0.50400000000E-02 0.  1.
         24    2    1    2    0    0  0.35527136788E-14  0.00000000000E+00  0.70655920728E+02  0.10691531616E+03  0.80241047443E+02 0.  0.
         66    2    3    3    0    0 -0.30749439020E+02  0.55956784710E+01  0.68815033463E+02  0.75606537075E+02  0.20000000742E+01 0.  0.
        -13    1    3    3    0    0  0.30749439020E+02 -0.55956784710E+01  0.18408872648E+01  0.31308779081E+02  0.10566000000E+00 0.  1.
         13    1    4    4    0    0 -0.19350160162E+02  0.35943951393E+01  0.44509120744E+02  0.48666429581E+02  0.10566000000E+00 0. -1.
        -13    1    4    4    0    0 -0.83535051535E+01  0.18464892730E+01  0.18468888101E+02  0.20354399100E+02  0.10566000000E+00 0.  1.
        -14    1    4    4    0    0 -0.30457737046E+01  0.15479405865E+00  0.58370246177E+01  0.65857083938E+01  0.00000000000E+00 0.  1.
<mgrwt>
<rscale>  0 0.80241047E+02</rscale>
<asrwt>0</asrwt>
<pdfrwt beam="1">  1        2 0.13659326E-01 0.80241047E+02</pdfrwt>
<pdfrwt beam="2">  1       -1 0.27891843E-02 0.80241047E+02</pdfrwt>
<totfact> 0.17019878E+05</totfact>
</mgrwt>
</event>
<event>
 8    1  0.2389776E-020  0.7804775E+02  0.7818608E-02  0.1334685E+00
          2   -1    0    0  501    0  0.00000000000E+00  0.00000000000E+00  0.26552446027E+02  0.26552446149E+02  0.25500000000E-02 0. -1.
         -1   -1    0    0    0  501 -0.00000000000E+00 -0.00000000000E+00 -0.57353009609E+02  0.57353009830E+02  0.50400000000E-02 0.  1.
         24    2    1    2    0    0  0.00000000000E+00  0.00000000000E+00 -0.30800563582E+02  0.83905455979E+02  0.78047747092E+02 0.  0.
         66    2    3    3    0    0  0.98853010068E+01 -0.12020199952E+02  0.23031657855E+02  0.27868650112E+02  0.20000031570E+01 0.  0.
        -13    1    3    3    0    0 -0.98853010068E+01  0.12020199952E+02 -0.53832221437E+02  0.56036805867E+02  0.10566000000E+00 0.  1.
         13    1    4    4    0    0  0.58884926799E+01 -0.71066987377E+01  0.14291710579E+02  0.17013044063E+02  0.10566000000E+00 0. -1.
        -13    1    4    4    0    0  0.71744180196E+00 -0.70245507962E+00  0.21508362912E+01  0.23760106619E+01  0.10566000000E+00 0.  1.
         14    1    4    4    0    0  0.32793665250E+01 -0.42110461346E+01  0.65891109850E+01  0.84795953869E+01  0.00000000000E+00 0. -1.
<mgrwt>
<rscale>  0 0.78047747E+02</rscale>
<asrwt>0</asrwt>
<pdfrwt beam="1">  1        2 0.40849917E-02 0.78047747E+02</pdfrwt>
<pdfrwt beam="2">  1       -1 0.88235400E-02 0.78047747E+02</pdfrwt>
<totfact> 0.14081728E+05</totfact>
</mgrwt>
</event>
<event>
 8    1  0.2389776E-020  0.8141912E+02  0.7818608E-02  0.1325072E+00
         -1   -1    0    0    0  501 -0.00000000000E+00  0.00000000000E+00  0.14579363245E+02  0.14579364117E+02  0.50400000000E-02 0.  1.
          2   -1    0    0  501    0  0.00000000000E+00 -0.00000000000E+00 -0.11367219248E+03  0.11367219251E+03  0.25500000000E-02 0. -1.
         24    2    1    2    0    0  0.00000000000E+00  0.17763568394E-14 -0.99092829232E+02  0.12825155662E+03  0.81419119198E+02 0.  0.
         66    2    3    3    0    0  0.36100415364E+02 -0.89176620026E+01 -0.75578922848E+02  0.84255197200E+02  0.19999978113E+01 0.  0.
        -13    1    3    3    0    0 -0.36100415364E+02  0.89176620026E+01 -0.23513906384E+02  0.43996359423E+02  0.10566000000E+00 0.  1.
         13    1    4    4    0    0  0.77754476473E+01 -0.16356079756E+01 -0.17533774066E+02  0.19250381726E+02  0.10566000000E+00 0. -1.
        -13    1    4    4    0    0  0.34305356234E+01 -0.57645217906E+00 -0.66536298056E+01  0.75088498057E+01  0.10566000000E+00 0.  1.
         14    1    4    4    0    0  0.24894432093E+02 -0.67056018479E+01 -0.51391518977E+02  0.57495965668E+02  0.00000000000E+00 0. -1.
<mgrwt>
<rscale>  0 0.81419119E+02</rscale>
<asrwt>0</asrwt>
<pdfrwt beam="1">  1        2 0.17488029E-01 0.81419119E+02</pdfrwt>
<pdfrwt beam="2">  1       -1 0.22429791E-02 0.81419119E+02</pdfrwt>
<totfact> 0.17544752E+05</totfact>
</mgrwt>
</event>
<event>
 8    1  0.2389776E-020  0.8065779E+02  0.7818608E-02  0.1327195E+00
         -1   -1    0    0    0  501 -0.00000000000E+00  0.00000000000E+00  0.74226920704E+01  0.74226937815E+01  0.50400000000E-02 0.  1.
          2   -1    0    0  501    0  0.00000000000E+00 -0.00000000000E+00 -0.21911448962E+03  0.21911448963E+03  0.25500000000E-02 0. -1.
         24    2    1    2    0    0  0.00000000000E+00 -0.27755575616E-16 -0.21169179754E+03  0.22653718341E+03  0.80657785243E+02 0.  0.
         66    2    3    3    0    0 -0.30229892965E+02  0.16007497794E-01 -0.18077875690E+03  0.18329976986E+03  0.19999996368E+01 0.  0.
        -13    1    3    3    0    0  0.30229892965E+02 -0.16007497794E-01 -0.30913040644E+02  0.43237413554E+02  0.10566000000E+00 0.  1.
         13    1    4    4    0    0 -0.12657781508E+02  0.34546807985E+00 -0.73059088753E+02  0.74148367442E+02  0.10566000000E+00 0. -1.
        -13    1    4    4    0    0 -0.58073128838E+01 -0.20964020132E+00 -0.39319077708E+02  0.39746318921E+02  0.10566000000E+00 0.  1.
        -14    1    4    4    0    0 -0.11764798573E+02 -0.11982038074E+00 -0.68400590440E+02  0.69405083495E+02  0.00000000000E+00 0.  1.
<mgrwt>
<rscale>  0 0.80657785E+02</rscale>
<asrwt>0</asrwt>
<pdfrwt beam="1">  1        2 0.33709917E-01 0.80657785E+02</pdfrwt>
<pdfrwt beam="2">  1       -1 0.11419529E-02 0.80657785E+02</pdfrwt>
<totfact> 0.22288517E+05</totfact>
</mgrwt>
</event>
<event>
 8    1  0.2389776E-020  0.8133972E+02  0.7818608E-02  0.1325292E+00
          2   -1    0    0  501    0  0.00000000000E+00  0.00000000000E+00  0.57803686890E+02  0.57803686947E+02  0.25500000000E-02 0. -1.
         -1   -1    0    0    0  501 -0.00000000000E+00 -0.00000000000E+00 -0.28614743738E+02  0.28614744181E+02  0.50400000000E-02 0.  1.
         24    2    1    2    0    0  0.00000000000E+00  0.00000000000E+00  0.29188943153E+02  0.86418431128E+02  0.81339724835E+02 0.  0.
         66    2    3    3    0    0 -0.28070508216E+01 -0.26709421246E+02  0.47016517350E+02  0.54183259600E+02  0.19999998791E+01 0.  0.
        -13    1    3    3    0    0  0.28070508216E+01  0.26709421246E+02 -0.17827574197E+02  0.32235171528E+02  0.10566000000E+00 0.  1.
         13    1    4    4    0    0 -0.11367123077E+01 -0.58889825234E+01  0.99843480173E+01  0.11647772293E+02  0.10566000000E+00 0. -1.
        -13    1    4    4    0    0 -0.70808244679E+00 -0.48294086474E+01  0.95266091151E+01  0.10704765943E+02  0.10566000000E+00 0. -1.
         14    1    4    4    0    0 -0.96225606718E+00 -0.15991030076E+02  0.27505560218E+02  0.31830721363E+02  0.00000000000E+00 0. -1.
<mgrwt>
<rscale>  0 0.81339725E+02</rscale>
<asrwt>0</asrwt>
<pdfrwt beam="1">  1        2 0.88928749E-02 0.81339725E+02</pdfrwt>
<pdfrwt beam="2">  1       -1 0.44022683E-02 0.81339725E+02</pdfrwt>
<totfact> 0.14749956E+05</totfact>
</mgrwt>
</event>
<event>
 8    1  0.2389776E-020  0.8077314E+02  0.7818608E-02  0.1326872E+00
         -1   -1    0    0    0  501 -0.00000000000E+00  0.00000000000E+00  0.32799702505E+01  0.32799741228E+01  0.50400000000E-02 0.  1.
          2   -1    0    0  501    0  0.00000000000E+00 -0.00000000000E+00 -0.49728323192E+03  0.49728323192E+03  0.25500000000E-02 0. -1.
         24    2    1    2    0    0  0.00000000000E+00  0.00000000000E+00 -0.49400326167E+03  0.50056320604E+03  0.80773143496E+02 0.  0.
         66    2    3    3    0    0  0.29353709501E+02  0.10406980284E+02 -0.40625467790E+03  0.40745160303E+03  0.19999980098E+01 0.  0.
        -13    1    3    3    0    0 -0.29353709501E+02 -0.10406980284E+02 -0.87748583764E+02  0.93111603018E+02  0.10566000000E+00 0.  1.
         13    1    4    4    0    0  0.54280871977E+00  0.47694422816E+00 -0.97936768417E+01  0.98208648915E+01  0.10566000000E+00 0. -1.
        -13    1    4    4    0    0  0.22175756299E+02  0.74610719133E+01 -0.30350591789E+03  0.30440644724E+03  0.10566000000E+00 0.  1.
         14    1    4    4    0    0  0.66351444817E+01  0.24689641422E+01 -0.92955083165E+02  0.93224290893E+02  0.00000000000E+00 0. -1.
<mgrwt>
<rscale>  0 0.80773143E+02</rscale>
<asrwt>0</asrwt>
<pdfrwt beam="1">  1        2 0.76505053E-01 0.80773143E+02</pdfrwt>
<pdfrwt beam="2">  1       -1 0.50461150E-03 0.80773143E+02</pdfrwt>
<totfact> 0.29645533E+05</totfact>
</mgrwt>
</event>
<event>
 8    1  0.2389776E-020  0.8231483E+02  0.7818608E-02  0.1322608E+00
          2   -1    0    0  501    0  0.00000000000E+00  0.00000000000E+00  0.88160752603E+03  0.88160752603E+03  0.25500000000E-02 0. -1.
         -1   -1    0    0    0  501 -0.00000000000E+00 -0.00000000000E+00 -0.19214105537E+01  0.19214171639E+01  0.50400000000E-02 0.  1.
         24    2    1    2    0    0 -0.88817841970E-15  0.00000000000E+00  0.87968611547E+03  0.88352894319E+03  0.82314832843E+02 0.  0.
         66    2    3    3    0    0  0.52880869836E+01 -0.17825141096E+02  0.83392587988E+03  0.83413552416E+03  0.20000001108E+01 0.  0.
        -13    1    3    3    0    0 -0.52880869836E+01  0.17825141096E+02  0.45760235590E+02  0.49393419039E+02  0.10566000000E+00 0.  1.
         13    1    4    4    0    0  0.24888630137E+01 -0.11418214509E+02  0.51916934378E+03  0.51930086534E+03  0.10566000000E+00 0. -1.
        -13    1    4    4    0    0  0.13355864081E+00 -0.23477518005E+00  0.12936536255E+02  0.12939787155E+02  0.10566000000E+00 0. -1.
        -14    1    4    4    0    0  0.26656653290E+01 -0.61721514079E+01  0.30181999985E+03  0.30189487166E+03  0.00000000000E+00 0.  1.
<mgrwt>
<rscale>  0 0.82314833E+02</rscale>
<asrwt>0</asrwt>
<pdfrwt beam="1">  1        2 0.13563240E+00 0.82314833E+02</pdfrwt>
<pdfrwt beam="2">  1       -1 0.29560111E-03 0.82314833E+02</pdfrwt>
<totfact> 0.32370472E+05</totfact>
</mgrwt>
</event>
<event>
 8    1  0.2389776E-020  0.7921221E+02  0.7818608E-02  0.1331302E+00
          2   -1    0    0  501    0  0.00000000000E+00  0.00000000000E+00  0.17679212636E+03  0.17679212638E+03  0.25500000000E-02 0. -1.
         -1   -1    0    0    0  501 -0.00000000000E+00 -0.00000000000E+00 -0.88728119214E+01  0.88728133528E+01  0.50400000000E-02 0.  1.
         24    2    1    2    0    0  0.17763568394E-14 -0.71054273576E-14  0.16791931444E+03  0.18566493973E+03  0.79212206660E+02 0.  0.
         66    2    3    3    0    0  0.11655117958E+02 -0.33741224448E+02  0.12408787746E+03  0.12913602648E+03  0.20000001270E+01 0.  0.
        -13    1    3    3    0    0 -0.11655117958E+02  0.33741224448E+02  0.43831436980E+02  0.56528913254E+02  0.10566000000E+00 0.  1.
         13    1    4    4    0    0  0.43688818031E+01 -0.12082981231E+02  0.44003396619E+02  0.45840982120E+02  0.10566000000E+00 0. -1.
        -13    1    4    4    0    0  0.30314148434E+00 -0.13886126362E+01  0.62893276558E+01  0.64487941671E+01  0.10566000000E+00 0.  1.
        -14    1    4    4    0    0  0.69830946705E+01 -0.20269630580E+02  0.73795153186E+02  0.76846250193E+02  0.00000000000E+00 0.  1.
<mgrwt>
<rscale>  0 0.79212207E+02</rscale>
<asrwt>0</asrwt>
<pdfrwt beam="1">  1        2 0.27198787E-01 0.79212207E+02</pdfrwt>
<pdfrwt beam="2">  1       -1 0.13650482E-02 0.79212207E+02</pdfrwt>
<totfact> 0.21705624E+05</totfact>
</mgrwt>
</event>
<event>
 8    1  0.2389776E-020  0.8037357E+02  0.7818608E-02  0.1327995E+00
         -1   -1    0    0    0  501 -0.00000000000E+00  0.00000000000E+00  0.19144871225E+01  0.19144937566E+01  0.50400000000E-02 0.  1.
          2   -1    0    0  501    0  0.00000000000E+00 -0.00000000000E+00 -0.84355485202E+03  0.84355485203E+03  0.25500000000E-02 0. -1.
         24    2    1    2    0    0  0.00000000000E+00  0.00000000000E+00 -0.84164036490E+03  0.84546934578E+03  0.80373570467E+02 0.  0.
         66    2    3    3    0    0 -0.31151653685E+02 -0.72156971911E+01 -0.67669573850E+03  0.67745377282E+03  0.20000002664E+01 0.  0.
        -13    1    3    3    0    0  0.31151653685E+02  0.72156971911E+01 -0.16494462640E+03  0.16801557296E+03  0.10566000000E+00 0.  1.
         13    1    4    4    0    0 -0.51065755133E+01 -0.11656683907E+01 -0.11167422698E+03  0.11179704840E+03  0.10566000000E+00 0. -1.
        -13    1    4    4    0    0 -0.77571142464E+01 -0.17219598270E+01 -0.18570613453E+03  0.18587608112E+03  0.10566000000E+00 0.  1.
         14    1    4    4    0    0 -0.18287963925E+02 -0.43280689735E+01 -0.37931537699E+03  0.37978064330E+03  0.00000000000E+00 0. -1.
<mgrwt>
<rscale>  0 0.80373570E+02</rscale>
<asrwt>0</asrwt>
<pdfrwt beam="1">  1        2 0.12977737E+00 0.80373570E+02</pdfrwt>
<pdfrwt beam="2">  1       -1 0.29453767E-03 0.80373570E+02</pdfrwt>
<totfact> 0.34240384E+05</totfact>
</mgrwt>
</event>
<event>
 8    1  0.2389776E-020  0.7935902E+02  0.7818608E-02  0.1330880E+00
         -1   -1    0    0    0  501 -0.00000000000E+00  0.00000000000E+00  0.34690356455E+02  0.34690356821E+02  0.50400000000E-02 0.  1.
          2   -1    0    0  501    0  0.00000000000E+00 -0.00000000000E+00 -0.45386205401E+02  0.45386205472E+02  0.25500000000E-02 0. -1.
         24    2    1    2    0    0  0.35527136788E-14  0.00000000000E+00 -0.10695848946E+02  0.80076562293E+02  0.79359023709E+02 0.  0.
         66    2    3    3    0    0 -0.21142072434E+02 -0.16225880835E+02 -0.34979913495E+02  0.44021141193E+02  0.20000220552E+01 0.  0.
        -13    1    3    3    0    0  0.21142072434E+02  0.16225880835E+02  0.24284064548E+02  0.36055421100E+02  0.10566000000E+00 0.  1.
         13    1    4    4    0    0 -0.27468247480E+01 -0.27072313112E+01 -0.46061511890E+01  0.60084890264E+01  0.10566000000E+00 0. -1.
        -13    1    4    4    0    0 -0.17106017285E+02 -0.12261077326E+02 -0.28247273252E+02  0.35225976988E+02  0.10566000000E+00 0.  1.
        -14    1    4    4    0    0 -0.12892304007E+01 -0.12575721976E+01 -0.21264890532E+01  0.27866751787E+01  0.00000000000E+00 0.  1.
<mgrwt>
<rscale>  0 0.79359024E+02</rscale>
<asrwt>0</asrwt>
<pdfrwt beam="1">  1        2 0.69824932E-02 0.79359024E+02</pdfrwt>
<pdfrwt beam="2">  1       -1 0.53369779E-02 0.79359024E+02</pdfrwt>
<totfact> 0.14962817E+05</totfact>
</mgrwt>
</event>
<event>
 8    1  0.2389776E-020  0.8001951E+02  0.7818608E-02  0.1328996E+00
          2   -1    0    0  501    0  0.00000000000E+00  0.00000000000E+00  0.36892277822E+03  0.36892277823E+03  0.25500000000E-02 0. -1.
         -1   -1    0    0    0  501 -0.00000000000E+00 -0.00000000000E+00 -0.43390655151E+01  0.43390684422E+01  0.50400000000E-02 0.  1.
         24    2    1    2    0    0  0.00000000000E+00  0.00000000000E+00  0.36458371270E+03  0.37326184667E+03  0.80019513936E+02 0.  0.
         66    2    3    3    0    0  0.16555869034E+02 -0.81879320243E+01  0.34782818418E+03  0.34832396524E+03  0.20000040317E+01 0.  0.
        -13    1    3    3    0    0 -0.16555869034E+02  0.81879320243E+01  0.16755528521E+02  0.24937881433E+02  0.10566000000E+00 0.  1.
         13    1    4    4    0    0  0.55960249350E+01 -0.24448707451E+01  0.13173723162E+03  0.13187874069E+03  0.10566000000E+00 0. -1.
        -13    1    4    4    0    0  0.40126387074E+01 -0.22745262656E+01  0.79918166371E+02  0.80051228718E+02  0.10566000000E+00 0.  1.
         14    1    4    4    0    0  0.69472053917E+01 -0.34685350137E+01  0.13617278619E+03  0.13639399582E+03  0.00000000000E+00 0. -1.
<mgrwt>
<rscale>  0 0.80019514E+02</rscale>
<asrwt>0</asrwt>
<pdfrwt beam="1">  1        2 0.56757357E-01 0.80019514E+02</pdfrwt>
<pdfrwt beam="2">  1       -1 0.66754870E-03 0.80019514E+02</pdfrwt>
<totfact> 0.27441357E+05</totfact>
</mgrwt>
</event>
<event>
 8    1  0.2389776E-020  0.8003441E+02  0.7818608E-02  0.1328954E+00
          2   -1    0    0  501    0  0.00000000000E+00  0.00000000000E+00  0.36654154979E+03  0.36654154980E+03  0.25500000000E-02 0. -1.
         -1   -1    0    0    0  501 -0.00000000000E+00 -0.00000000000E+00 -0.43688805305E+01  0.43688834376E+01  0.50400000000E-02 0.  1.
         24    2    1    2    0    0 -0.44408920985E-15  0.00000000000E+00  0.36217266926E+03  0.37091043324E+03  0.80034412131E+02 0.  0.
         66    2    3    3    0    0 -0.37155131287E+01 -0.34283347072E+02  0.27506333020E+03  0.27722371572E+03  0.20000026466E+01 0.  0.
        -13    1    3    3    0    0  0.37155131287E+01  0.34283347072E+02  0.87109339062E+02  0.93686717523E+02  0.10566000000E+00 0.  1.
         13    1    4    4    0    0 -0.11177835864E+01 -0.12668549918E+02  0.10465915687E+03  0.10542908459E+03  0.10566000000E+00 0. -1.
        -13    1    4    4    0    0 -0.27572108081E+01 -0.20730493355E+02  0.16300897777E+03  0.16434504424E+03  0.10566000000E+00 0.  1.
        -14    1    4    4    0    0  0.15948126584E+00 -0.88430379921E+00  0.73951955617E+01  0.74495868932E+01  0.00000000000E+00 0.  1.
<mgrwt>
<rscale>  0 0.80034412E+02</rscale>
<asrwt>0</asrwt>
<pdfrwt beam="1">  1        2 0.56391014E-01 0.80034412E+02</pdfrwt>
<pdfrwt beam="2">  1       -1 0.67213561E-03 0.80034412E+02</pdfrwt>
<totfact> 0.27365177E+05</totfact>
</mgrwt>
</event>
<event>
 8    1  0.2389776E-020  0.7903957E+02  0.7818608E-02  0.1331799E+00
         -1   -1    0    0    0  501 -0.00000000000E+00  0.00000000000E+00  0.16032027794E+01  0.16032107015E+01  0.50400000000E-02 0.  1.
          2   -1    0    0  501    0  0.00000000000E+00 -0.00000000000E+00 -0.97418081096E+03  0.97418081096E+03  0.25500000000E-02 0. -1.
         24    2    1    2    0    0  0.17763568394E-14  0.17763568394E-14 -0.97257760818E+03  0.97578402167E+03  0.79039566054E+02 0.  0.
         66    2    3    3    0    0  0.14324359056E+02  0.13075707022E+02 -0.91133644111E+03  0.91154499082E+03  0.20000015258E+01 0.  0.
        -13    1    3    3    0    0 -0.14324359056E+02 -0.13075707022E+02 -0.61241167069E+02  0.64239030849E+02  0.10566000000E+00 0.  1.
         13    1    4    4    0    0  0.69381467322E+01  0.57899490667E+01 -0.42760160255E+03  0.42769709265E+03  0.10566000000E+00 0. -1.
        -13    1    4    4    0    0  0.50400064908E-01 -0.38428398910E-02 -0.57994191871E+01  0.58006018548E+01  0.10566000000E+00 0. -1.
         14    1    4    4    0    0  0.73358122584E+01  0.72896007949E+01 -0.47793541938E+03  0.47804729632E+03  0.00000000000E+00 0. -1.
<mgrwt>
<rscale>  0 0.79039566E+02</rscale>
<asrwt>0</asrwt>
<pdfrwt beam="1">  1        2 0.14987350E+00 0.79039566E+02</pdfrwt>
<pdfrwt beam="2">  1       -1 0.24664797E-03 0.79039566E+02</pdfrwt>
<totfact> 0.36304295E+05</totfact>
</mgrwt>
</event>
<event>
 8    1  0.2389776E-020  0.7816733E+02  0.7818608E-02  0.1334334E+00
         -1   -1    0    0    0  501 -0.00000000000E+00  0.00000000000E+00  0.71494562679E+01  0.71494580444E+01  0.50400000000E-02 0.  1.
          2   -1    0    0  501    0  0.00000000000E+00 -0.00000000000E+00 -0.21365716050E+03  0.21365716051E+03  0.25500000000E-02 0. -1.
         24    2    1    2    0    0  0.00000000000E+00  0.00000000000E+00 -0.20650770423E+03  0.22080661855E+03  0.78167326246E+02 0.  0.
         66    2    3    3    0    0  0.14941340879E+02  0.23521340344E+02 -0.18063142917E+03  0.18277912990E+03  0.20000005834E+01 0.  0.
        -13    1    3    3    0    0 -0.14941340879E+02 -0.23521340344E+02 -0.25876275054E+02  0.38027488657E+02  0.10566000000E+00 0.  1.
         13    1    4    4    0    0  0.96637092261E+00  0.16848487094E+01 -0.12699125473E+02  0.12847238604E+02  0.10566000000E+00 0. -1.
        -13    1    4    4    0    0  0.75046783978E+01  0.11476647529E+02 -0.94779900776E+02  0.95766770810E+02  0.10566000000E+00 0.  1.
         14    1    4    4    0    0  0.64702915586E+01  0.10359844105E+02 -0.73152402924E+02  0.74165120484E+02  0.00000000000E+00 0. -1.
<mgrwt>
<rscale>  0 0.78167326E+02</rscale>
<asrwt>0</asrwt>
<pdfrwt beam="1">  1        2 0.32870328E-01 0.78167326E+02</pdfrwt>
<pdfrwt beam="2">  1       -1 0.10999167E-02 0.78167326E+02</pdfrwt>
<totfact> 0.23993558E+05</totfact>
</mgrwt>
</event>
<event>
 8    1  0.2389776E-020  0.7931979E+02  0.7818608E-02  0.1330993E+00
         -1   -1    0    0    0  501 -0.00000000000E+00  0.00000000000E+00  0.26281976870E+01  0.26282025195E+01  0.50400000000E-02 0.  1.
          2   -1    0    0  501    0  0.00000000000E+00 -0.00000000000E+00 -0.59847322668E+03  0.59847322668E+03  0.25500000000E-02 0. -1.
         24    2    1    2    0    0  0.00000000000E+00  0.00000000000E+00 -0.59584502899E+03  0.60110142920E+03  0.79319793346E+02 0.  0.
         66    2    3    3    0    0  0.34436250838E+01 -0.35940433810E+02 -0.42201653485E+03  0.42356289852E+03  0.19999958553E+01 0.  0.
        -13    1    3    3    0    0 -0.34436250838E+01  0.35940433810E+02 -0.17382849414E+03  0.17753853068E+03  0.10566000000E+00 0.  1.
         13    1    4    4    0    0  0.20419168596E+01 -0.19780274374E+02 -0.23802154922E+03  0.23885078551E+03  0.10566000000E+00 0. -1.
        -13    1    4    4    0    0  0.26039475120E+00 -0.24263576452E+01 -0.32454836681E+02  0.32546622019E+02  0.10566000000E+00 0.  1.
         14    1    4    4    0    0  0.11413134730E+01 -0.13733801790E+02 -0.15154014894E+03  0.15216549100E+03  0.00000000000E+00 0. -1.
<mgrwt>
<rscale>  0 0.79319793E+02</rscale>
<asrwt>0</asrwt>
<pdfrwt beam="1">  1        2 0.92072696E-01 0.79319793E+02</pdfrwt>
<pdfrwt beam="2">  1       -1 0.40433895E-03 0.79319793E+02</pdfrwt>
<totfact> 0.32862542E+05</totfact>
</mgrwt>
</event>
<event>
 8    1  0.2389776E-020  0.7798163E+02  0.7818608E-02  0.1334879E+00
          2   -1    0    0  501    0  0.00000000000E+00  0.00000000000E+00  0.94282342891E+03  0.94282342891E+03  0.25500000000E-02 0. -1.
         -1   -1    0    0    0  501 -0.00000000000E+00 -0.00000000000E+00 -0.16124756452E+01  0.16124835217E+01  0.50400000000E-02 0.  1.
         24    2    1    2    0    0  0.00000000000E+00  0.00000000000E+00  0.94121095326E+03  0.94443591243E+03  0.77981627013E+02 0.  0.
         66    2    3    3    0    0 -0.31529221376E+01  0.19970364020E+02  0.87432560327E+03  0.87456161412E+03  0.20000002951E+01 0.  0.
        -13    1    3    3    0    0  0.31529221376E+01 -0.19970364020E+02  0.66885349995E+02  0.69874298315E+02  0.10566000000E+00 0.  1.
         13    1    4    4    0    0 -0.82189961115E+00  0.77376808031E+01  0.33029502903E+03  0.33038668948E+03  0.10566000000E+00 0. -1.
        -13    1    4    4    0    0 -0.25060537636E+01  0.10899718607E+02  0.48111478440E+03  0.48124477255E+03  0.10566000000E+00 0.  1.
        -14    1    4    4    0    0  0.17503123713E+00  0.13329646107E+01  0.62915789836E+02  0.62930152084E+02  0.00000000000E+00 0.  1.
<mgrwt>
<rscale>  0 0.77981627E+02</rscale>
<asrwt>0</asrwt>
<pdfrwt beam="1">  1        2 0.14504966E+00 0.77981627E+02</pdfrwt>
<pdfrwt beam="2">  1       -1 0.24807395E-03 0.77981627E+02</pdfrwt>
<totfact> 0.37507454E+05</totfact>
</mgrwt>
</event>
<event>
 8    1  0.2389776E-020  0.8060347E+02  0.7818608E-02  0.1327348E+00
          2   -1    0    0  501    0  0.00000000000E+00  0.00000000000E+00  0.36870365868E+03  0.36870365869E+03  0.25500000000E-02 0. -1.
         -1   -1    0    0    0  501 -0.00000000000E+00 -0.00000000000E+00 -0.44052431879E+01  0.44052460711E+01  0.50400000000E-02 0.  1.
         24    2    1    2    0    0  0.00000000000E+00  0.35527136788E-14  0.36429841549E+03  0.37310890476E+03  0.80603469411E+02 0.  0.
         66    2    3    3    0    0 -0.26621158955E+02 -0.29337721396E+02  0.21590834912E+03  0.21952176023E+03  0.19999992539E+01 0.  0.
        -13    1    3    3    0    0  0.26621158955E+02  0.29337721396E+02  0.14839006638E+03  0.15358714453E+03  0.10566000000E+00 0.  1.
         13    1    4    4    0    0 -0.16667607405E+01 -0.17220237390E+01  0.14810639738E+02  0.15003655242E+02  0.10566000000E+00 0. -1.
        -13    1    4    4    0    0 -0.11134752703E+02 -0.13372889074E+02  0.93889913458E+02  0.95488972626E+02  0.10566000000E+00 0.  1.
         14    1    4    4    0    0 -0.13819645511E+02 -0.14242808583E+02  0.10720779592E+03  0.10902913237E+03  0.00000000000E+00 0. -1.
<mgrwt>
<rscale>  0 0.80603469E+02</rscale>
<asrwt>0</asrwt>
<pdfrwt beam="1">  1        2 0.56723648E-01 0.80603469E+02</pdfrwt>
<pdfrwt beam="2">  1       -1 0.67772985E-03 0.80603469E+02</pdfrwt>
<totfact> 0.26918693E+05</totfact>
</mgrwt>
</event>
<event>
 8    1  0.2389776E-020  0.7948829E+02  0.7818608E-02  0.1330510E+00
         -1   -1    0    0    0  501 -0.00000000000E+00  0.00000000000E+00  0.43469177776E+03  0.43469177779E+03  0.50400000000E-02 0.  1.
          2   -1    0    0  501    0  0.00000000000E+00 -0.00000000000E+00 -0.36338315270E+01  0.36338324217E+01  0.25500000000E-02 0. -1.
         24    2    1    2    0    0  0.35527136788E-14  0.00000000000E+00  0.43105794624E+03  0.43832561021E+03  0.79488285654E+02 0.  0.
         66    2    3    3    0    0 -0.30511785502E+02  0.25160606872E+02  0.19535402693E+03  0.19932691998E+03  0.19999996879E+01 0.  0.
        -13    1    3    3    0    0  0.30511785502E+02 -0.25160606872E+02  0.23570391930E+03  0.23899869023E+03  0.10566000000E+00 0.  1.
         13    1    4    4    0    0 -0.11719207289E+02  0.97272563753E+01  0.76715546425E+02  0.78212822245E+02  0.10566000000E+00 0. -1.
        -13    1    4    4    0    0 -0.91896315561E+01  0.74802675932E+01  0.54168931885E+02  0.55449869946E+02  0.10566000000E+00 0.  1.
        -14    1    4    4    0    0 -0.96029466568E+01  0.79530829033E+01  0.64469548623E+02  0.65664227795E+02  0.00000000000E+00 0.  1.
<mgrwt>
<rscale>  0 0.79488286E+02</rscale>
<asrwt>0</asrwt>
<pdfrwt beam="1">  1        2 0.55905106E-03 0.79488286E+02</pdfrwt>
<pdfrwt beam="2">  1       -1 0.66875660E-01 0.79488286E+02</pdfrwt>
<totfact> 0.73720383E+04</totfact>
</mgrwt>
</event>
<event>
 8    1  0.2389776E-020  0.8029490E+02  0.7818608E-02  0.1328217E+00
         -1   -1    0    0    0  501 -0.00000000000E+00  0.00000000000E+00  0.30899102041E+01  0.30899143145E+01  0.50400000000E-02 0.  1.
          2   -1    0    0  501    0  0.00000000000E+00 -0.00000000000E+00 -0.52163868908E+03  0.52163868909E+03  0.25500000000E-02 0. -1.
         24    2    1    2    0    0 -0.27755575616E-16  0.71054273576E-14 -0.51854877888E+03  0.52472860340E+03  0.80294901166E+02 0.  0.
         66    2    3    3    0    0 -0.15675298153E+00  0.37557675612E+02 -0.35167102479E+03  0.35367656588E+03  0.20000008586E+01 0.  0.
        -13    1    3    3    0    0  0.15675298153E+00 -0.37557675612E+02 -0.16687775409E+03  0.17105203753E+03  0.10566000000E+00 0.  1.
         13    1    4    4    0    0  0.15007166275E-01  0.26003601977E+02 -0.24749398895E+03  0.24885633058E+03  0.10566000000E+00 0. -1.
        -13    1    4    4    0    0 -0.21549247532E+00  0.10633397199E+02 -0.93327733847E+02  0.93931851052E+02  0.10566000000E+00 0.  1.
        -14    1    4    4    0    0  0.43732327517E-01  0.92067643679E+00 -0.10849301998E+02  0.10888384244E+02  0.00000000000E+00 0.  1.
<mgrwt>
<rscale>  0 0.80294901E+02</rscale>
<asrwt>0</asrwt>
<pdfrwt beam="1">  1        2 0.80252036E-01 0.80294901E+02</pdfrwt>
<pdfrwt beam="2">  1       -1 0.47537153E-03 0.80294901E+02</pdfrwt>
<totfact> 0.30565546E+05</totfact>
</mgrwt>
</event>
<event>
 8    1  0.2389776E-020  0.8287644E+02  0.7818608E-02  0.1321081E+00
         -1   -1    0    0    0  501 -0.00000000000E+00  0.00000000000E+00  0.21278431155E+02  0.21278431752E+02  0.50400000000E-02 0.  1.
          2   -1    0    0  501    0  0.00000000000E+00 -0.00000000000E+00 -0.80697969058E+02  0.80697969099E+02  0.25500000000E-02 0. -1.
         24    2    1    2    0    0  0.00000000000E+00  0.00000000000E+00 -0.59419537903E+02  0.10197640085E+03  0.82876443251E+02 0.  0.
         66    2    3    3    0    0 -0.77568362516E+01 -0.69354525792E+01 -0.79050824141E+02  0.79757769604E+02  0.20000009274E+01 0.  0.
        -13    1    3    3    0    0  0.77568362516E+01  0.69354525792E+01  0.19631286238E+02  0.22218631247E+02  0.10566000000E+00 0.  1.
         13    1    4    4    0    0 -0.56175938577E+01 -0.50846648347E+01 -0.58244274195E+02  0.58735149764E+02  0.10566000000E+00 0. -1.
        -13    1    4    4    0    0 -0.56265285850E+00 -0.66909277726E+00 -0.99368600313E+01  0.99758014566E+01  0.10566000000E+00 0.  1.
         14    1    4    4    0    0 -0.15765895354E+01 -0.11816949673E+01 -0.10869689914E+02  0.11046818383E+02  0.00000000000E+00 0. -1.
<mgrwt>
<rscale>  0 0.82876443E+02</rscale>
<asrwt>0</asrwt>
<pdfrwt beam="1">  1        2 0.12415072E-01 0.82876443E+02</pdfrwt>
<pdfrwt beam="2">  1       -1 0.32736049E-02 0.82876443E+02</pdfrwt>
<totfact> 0.15210204E+05</totfact>
</mgrwt>
</event>
<event>
 8    1  0.2389776E-020  0.8005874E+02  0.7818608E-02  0.1328885E+00
          2   -1    0    0  501    0  0.00000000000E+00  0.00000000000E+00  0.12443761949E+03  0.12443761951E+03  0.25500000000E-02 0. -1.
         -1   -1    0    0    0  501 -0.00000000000E+00 -0.00000000000E+00 -0.12876737046E+02  0.12876738033E+02  0.50400000000E-02 0.  1.
         24    2    1    2    0    0 -0.35527136788E-14 -0.35527136788E-14  0.11156088244E+03  0.13731435755E+03  0.80058742791E+02 0.  0.
         66    2    3    3    0    0  0.30916097475E+02  0.17654504770E+02  0.87107444484E+02  0.94123288866E+02  0.20000001518E+01 0.  0.
        -13    1    3    3    0    0 -0.30916097475E+02 -0.17654504770E+02  0.24453437956E+02  0.43191068679E+02  0.10566000000E+00 0.  1.
         13    1    4    4    0    0  0.17465388699E+02  0.88630730923E+01  0.47778884359E+02  0.51637455608E+02  0.10566000000E+00 0. -1.
        -13    1    4    4    0    0  0.10371884232E+02  0.69232853541E+01  0.30475324313E+02  0.32928170593E+02  0.10566000000E+00 0.  1.
         14    1    4    4    0    0  0.30788245441E+01  0.18681463231E+01  0.88532358123E+01  0.95576626644E+01  0.00000000000E+00 0. -1.
<mgrwt>
<rscale>  0 0.80058743E+02</rscale>
<asrwt>0</asrwt>
<pdfrwt beam="1">  1        2 0.19144250E-01 0.80058743E+02</pdfrwt>
<pdfrwt beam="2">  1       -1 0.19810365E-02 0.80058743E+02</pdfrwt>
<totfact> 0.18855283E+05</totfact>
</mgrwt>
</event>
<event>
 8    1  0.2389776E-020  0.8166125E+02  0.7818608E-02  0.1324402E+00
         -1   -1    0    0    0  501 -0.00000000000E+00  0.00000000000E+00  0.37547335513E+02  0.37547335851E+02  0.50400000000E-02 0.  1.
          2   -1    0    0  501    0  0.00000000000E+00 -0.00000000000E+00 -0.44401012874E+02  0.44401012947E+02  0.25500000000E-02 0. -1.
         24    2    1    2    0    0 -0.71054273576E-14  0.00000000000E+00 -0.68536773610E+01  0.81948348798E+02  0.81661245259E+02 0.  0.
         66    2    3    3    0    0  0.32286636296E+02  0.81316103127E+01  0.20246105376E+02  0.39018646283E+02  0.20000013207E+01 0.  0.
        -13    1    3    3    0    0 -0.32286636296E+02 -0.81316103127E+01 -0.27099782737E+02  0.42929702515E+02  0.10566000000E+00 0.  1.
         13    1    4    4    0    0  0.11378255533E+02  0.23309946001E+01  0.72624929626E+01  0.13698656973E+02  0.10566000000E+00 0. -1.
        -13    1    4    4    0    0  0.10098454626E+02  0.26071071540E+01  0.69668372101E+01  0.12542877592E+02  0.10566000000E+00 0.  1.
        -14    1    4    4    0    0  0.10809926137E+02  0.31935085587E+01  0.60167752034E+01  0.12777111718E+02  0.00000000000E+00 0.  1.
<mgrwt>
<rscale>  0 0.81661245E+02</rscale>
<asrwt>0</asrwt>
<pdfrwt beam="1">  1        2 0.68309251E-02 0.81661245E+02</pdfrwt>
<pdfrwt beam="2">  1       -1 0.57765132E-02 0.81661245E+02</pdfrwt>
<totfact> 0.13765647E+05</totfact>
</mgrwt>
</event>
<event>
 8    1  0.2389776E-020  0.7825170E+02  0.7818608E-02  0.1334087E+00
         -1   -1    0    0    0  501 -0.00000000000E+00  0.00000000000E+00  0.57746276116E+01  0.57746298110E+01  0.50400000000E-02 0.  1.
          2   -1    0    0  501    0  0.00000000000E+00 -0.00000000000E+00 -0.26509619823E+03  0.26509619824E+03  0.25500000000E-02 0. -1.
         24    2    1    2    0    0  0.35527136788E-14  0.00000000000E+00 -0.25932157061E+03  0.27087082805E+03  0.78251699676E+02 0.  0.
         66    2    3    3    0    0  0.26039801721E+02  0.29000973245E+02 -0.14052585679E+03  0.14584458877E+03  0.19999805343E+01 0.  0.
        -13    1    3    3    0    0 -0.26039801721E+02 -0.29000973245E+02 -0.11879571382E+03  0.12502623928E+03  0.10566000000E+00 0.  1.
         13    1    4    4    0    0  0.15751405486E+02  0.18126324158E+02 -0.86553479584E+02  0.89823083862E+02  0.10566000000E+00 0. -1.
        -13    1    4    4    0    0  0.34284285160E+01  0.42989698748E+01 -0.18772009693E+02  0.19561052528E+02  0.10566000000E+00 0.  1.
         14    1    4    4    0    0  0.68599677192E+01  0.65756792123E+01 -0.35200367518E+02  0.36460452378E+02  0.00000000000E+00 0. -1.
<mgrwt>
<rscale>  0 0.78251700E+02</rscale>
<asrwt>0</asrwt>
<pdfrwt beam="1">  1        2 0.40784021E-01 0.78251700E+02</pdfrwt>
<pdfrwt beam="2">  1       -1 0.88840463E-03 0.78251700E+02</pdfrwt>
<totfact> 0.25832595E+05</totfact>
</mgrwt>
</event>
<event>
 8    1  0.2389776E-020  0.8073085E+02  0.7818608E-02  0.1326990E+00
         -1   -1    0    0    0  501 -0.00000000000E+00  0.00000000000E+00  0.77077685834E+02  0.77077685998E+02  0.50400000000E-02 0.  1.
          2   -1    0    0  501    0  0.00000000000E+00 -0.00000000000E+00 -0.21139291629E+02  0.21139291782E+02  0.25500000000E-02 0. -1.
         24    2    1    2    0    0  0.00000000000E+00  0.16653345369E-15  0.55938394205E+02  0.98216977781E+02  0.80730853942E+02 0.  0.
         66    2    3    3    0    0  0.15402283139E+02 -0.44040591514E+00 -0.17370735319E+02  0.23305937747E+02  0.20000013685E+01 0.  0.
        -13    1    3    3    0    0 -0.15402283139E+02  0.44040591514E+00  0.73309129524E+02  0.74911040034E+02  0.10566000000E+00 0.  1.
         13    1    4    4    0    0  0.23729494938E+01 -0.61628250091E+00 -0.27323476657E+01  0.36725442439E+01  0.10566000000E+00 0. -1.
        -13    1    4    4    0    0  0.52258939034E+01  0.62528747364E+00 -0.61072344234E+01  0.80629044303E+01  0.10566000000E+00 0.  1.
        -14    1    4    4    0    0  0.78034397421E+01 -0.44941088788E+00 -0.85311532300E+01  0.11570489073E+02  0.00000000000E+00 0.  1.
<mgrwt>
<rscale>  0 0.80730854E+02</rscale>
<asrwt>0</asrwt>
<pdfrwt beam="1">  1        2 0.32521987E-02 0.80730854E+02</pdfrwt>
<pdfrwt beam="2">  1       -1 0.11858106E-01 0.80730854E+02</pdfrwt>
<totfact> 0.12232224E+05</totfact>
</mgrwt>
</event>
<event>
 8    1  0.2389776E-020  0.7877649E+02  0.7818608E-02  0.1332560E+00
          2   -1    0    0  501    0  0.00000000000E+00  0.00000000000E+00  0.46439667690E+02  0.46439667760E+02  0.25500000000E-02 0. -1.
         -1   -1    0    0    0  501 -0.00000000000E+00 -0.00000000000E+00 -0.33407512038E+02  0.33407512419E+02  0.50400000000E-02 0.  1.
         24    2    1    2    0    0  0.00000000000E+00  0.00000000000E+00  0.13032155652E+02  0.79847180179E+02  0.78776488253E+02 0.  0.
         66    2    3    3    0    0  0.14066205605E+00  0.21660074394E+02  0.39834140456E+02  0.45386533607E+02  0.20000196055E+01 0.  0.
        -13    1    3    3    0    0 -0.14066205605E+00 -0.21660074394E+02 -0.26801984805E+02  0.34460646571E+02  0.10566000000E+00 0.  1.
         13    1    4    4    0    0  0.12230209802E+00  0.85997147503E+01  0.14834067990E+02  0.17147325995E+02  0.10566000000E+00 0. -1.
        -13    1    4    4    0    0  0.46646436592E-01  0.13060203268E+01  0.34701031713E+01  0.37095343427E+01  0.10566000000E+00 0.  1.
         14    1    4    4    0    0 -0.28286478560E-01  0.11754339317E+02  0.21529969295E+02  0.24529673270E+02  0.00000000000E+00 0. -1.
<mgrwt>
<rscale>  0 0.78776488E+02</rscale>
<asrwt>0</asrwt>
<pdfrwt beam="1">  1        2 0.71445642E-02 0.78776488E+02</pdfrwt>
<pdfrwt beam="2">  1       -1 0.51396173E-02 0.78776488E+02</pdfrwt>
<totfact> 0.15342516E+05</totfact>
</mgrwt>
</event>
<event>
 8    1  0.2389776E-020  0.7736688E+02  0.7818608E-02  0.1336694E+00
          2   -1    0    0  501    0  0.00000000000E+00  0.00000000000E+00  0.77204231429E+02  0.77204231471E+02  0.25500000000E-02 0. -1.
         -1   -1    0    0    0  501 -0.00000000000E+00 -0.00000000000E+00 -0.19382465320E+02  0.19382465975E+02  0.50400000000E-02 0.  1.
         24    2    1    2    0    0  0.00000000000E+00 -0.44408920985E-15  0.57821766110E+02  0.96586697446E+02  0.77366875906E+02 0.  0.
         66    2    3    3    0    0 -0.36833550688E+02 -0.31465080005E+01  0.43043005604E+02  0.56774213286E+02  0.19999985028E+01 0.  0.
        -13    1    3    3    0    0  0.36833550688E+02  0.31465080005E+01  0.14778760506E+02  0.39812484160E+02  0.10566000000E+00 0.  1.
         13    1    4    4    0    0 -0.94938692123E+01 -0.88913693520E+00  0.11171774007E+02  0.14688220301E+02  0.10566000000E+00 0. -1.
        -13    1    4    4    0    0 -0.24991773772E+02 -0.25391760660E+01  0.29092078244E+02  0.38436913923E+02  0.10566000000E+00 0.  1.
        -14    1    4    4    0    0 -0.23479077036E+01  0.28180500076E+00  0.27791533528E+01  0.36490790622E+01  0.00000000000E+00 0.  1.
<mgrwt>
<rscale>  0 0.77366876E+02</rscale>
<asrwt>0</asrwt>
<pdfrwt beam="1">  1        2 0.11877574E-01 0.77366876E+02</pdfrwt>
<pdfrwt beam="2">  1       -1 0.29819179E-02 0.77366876E+02</pdfrwt>
<totfact> 0.18105267E+05</totfact>
</mgrwt>
</event>
<event>
 8    1  0.2389776E-020  0.8089127E+02  0.7818608E-02  0.1326541E+00
          2   -1    0    0  501    0  0.00000000000E+00  0.00000000000E+00  0.22841903125E+03  0.22841903126E+03  0.25500000000E-02 0. -1.
         -1   -1    0    0    0  501 -0.00000000000E+00 -0.00000000000E+00 -0.71616144647E+01  0.71616162382E+01  0.50400000000E-02 0.  1.
         24    2    1    2    0    0  0.00000000000E+00  0.00000000000E+00  0.22125741678E+03  0.23558064750E+03  0.80891266495E+02 0.  0.
         66    2    3    3    0    0 -0.31694110853E+02 -0.21914559586E+01  0.18347629575E+03  0.18621726621E+03  0.19999975014E+01 0.  0.
        -13    1    3    3    0    0  0.31694110853E+02  0.21914559586E+01  0.37781121030E+02  0.49363381289E+02  0.10566000000E+00 0.  1.
         13    1    4    4    0    0 -0.88561410031E+01 -0.12694111939E+00  0.55502155178E+02  0.56204517087E+02  0.10566000000E+00 0. -1.
        -13    1    4    4    0    0 -0.99229182466E+01 -0.89378536699E+00  0.54843454508E+02  0.55741177106E+02  0.10566000000E+00 0.  1.
         14    1    4    4    0    0 -0.12915051603E+02 -0.11707294722E+01  0.73130686068E+02  0.74271572019E+02  0.00000000000E+00 0. -1.
<mgrwt>
<rscale>  0 0.80891266E+02</rscale>
<asrwt>0</asrwt>
<pdfrwt beam="1">  1        2 0.35141385E-01 0.80891266E+02</pdfrwt>
<pdfrwt beam="2">  1       -1 0.11017871E-02 0.80891266E+02</pdfrwt>
<totfact> 0.22447489E+05</totfact>
</mgrwt>
</event>
<event>
 8    1  0.2389776E-020  0.8362854E+02  0.7818608E-02  0.1319059E+00
         -1   -1    0    0    0  501 -0.00000000000E+00  0.00000000000E+00  0.55536356514E+01  0.55536379383E+01  0.50400000000E-02 0.  1.
          2   -1    0    0  501    0  0.00000000000E+00 -0.00000000000E+00 -0.31482669450E+03  0.31482669451E+03  0.25500000000E-02 0. -1.
         24    2    1    2    0    0  0.00000000000E+00  0.00000000000E+00 -0.30927305885E+03  0.32038033245E+03  0.83628538731E+02 0.  0.
         66    2    3    3    0    0 -0.80345116425E+01 -0.30500519007E+02 -0.25975215212E+03  0.26166775795E+03  0.19999956355E+01 0.  0.
        -13    1    3    3    0    0  0.80345116425E+01  0.30500519007E+02 -0.49520906732E+02  0.58712574502E+02  0.10566000000E+00 0.  1.
         13    1    4    4    0    0 -0.13847048069E+01 -0.83200214999E+01 -0.66531427073E+02  0.67064015072E+02  0.10566000000E+00 0. -1.
        -13    1    4    4    0    0 -0.14041009927E+01 -0.51643721298E+01 -0.44185455875E+02  0.44508515073E+02  0.10566000000E+00 0. -1.
         14    1    4    4    0    0 -0.52457058430E+01 -0.17016125378E+02 -0.14903526917E+03  0.15009522780E+03  0.00000000000E+00 0. -1.
<mgrwt>
<rscale>  0 0.83628539E+02</rscale>
<asrwt>0</asrwt>
<pdfrwt beam="1">  1        2 0.48434862E-01 0.83628539E+02</pdfrwt>
<pdfrwt beam="2">  1       -1 0.85440591E-03 0.83628539E+02</pdfrwt>
<totfact> 0.23090725E+05</totfact>
</mgrwt>
</event>
<event>
 8    1  0.2389776E-020  0.7919344E+02  0.7818608E-02  0.1331356E+00
         -1   -1    0    0    0  501 -0.00000000000E+00  0.00000000000E+00  0.93890351689E+01  0.93890365216E+01  0.50400000000E-02 0.  1.
          2   -1    0    0  501    0  0.00000000000E+00 -0.00000000000E+00 -0.16699267174E+03  0.16699267176E+03  0.25500000000E-02 0. -1.
         24    2    1    2    0    0  0.35527136788E-14  0.88817841970E-15 -0.15760363657E+03  0.17638170828E+03  0.79193438843E+02 0.  0.
         66    2    3    3    0    0 -0.20306065720E+02  0.52505911700E+01 -0.15358824792E+03  0.15502662639E+03  0.19999946451E+01 0.  0.
        -13    1    3    3    0    0  0.20306065720E+02 -0.52505911700E+01 -0.40153886577E+01  0.21355081896E+02  0.10566000000E+00 0.  1.
         13    1    4    4    0    0 -0.45437309867E+01  0.16026590796E+01 -0.39112034270E+02  0.39407821511E+02  0.10566000000E+00 0. -1.
        -13    1    4    4    0    0 -0.12007788544E+01  0.10968128604E+00 -0.10130513822E+02  0.10202567038E+02  0.10566000000E+00 0.  1.
        -14    1    4    4    0    0 -0.14561555879E+02  0.35382508043E+01 -0.10434569982E+03  0.10541623784E+03  0.00000000000E+00 0.  1.
<mgrwt>
<rscale>  0 0.79193439E+02</rscale>
<asrwt>0</asrwt>
<pdfrwt beam="1">  1        2 0.25691178E-01 0.79193439E+02</pdfrwt>
<pdfrwt beam="2">  1       -1 0.14444672E-02 0.79193439E+02</pdfrwt>
<totfact> 0.21309589E+05</totfact>
</mgrwt>
</event>
<event>
 8    1  0.2389776E-020  0.8116776E+02  0.7818608E-02  0.1325770E+00
         -1   -1    0    0    0  501 -0.00000000000E+00  0.00000000000E+00  0.24051386396E+03  0.24051386401E+03  0.50400000000E-02 0.  1.
          2   -1    0    0  501    0  0.00000000000E+00 -0.00000000000E+00 -0.68480520077E+01  0.68480524825E+01  0.25500000000E-02 0. -1.
         24    2    1    2    0    0 -0.71054273576E-14  0.00000000000E+00  0.23366581195E+03  0.24736191649E+03  0.81167764887E+02 0.  0.
         66    2    3    3    0    0  0.25464416496E+02  0.26744467782E+02  0.65786370612E+02  0.75468865289E+02  0.20000012999E+01 0.  0.
        -13    1    3    3    0    0 -0.25464416496E+02 -0.26744467782E+02  0.16787944134E+03  0.17189305120E+03  0.10566000000E+00 0.  1.
         13    1    4    4    0    0  0.42249110526E+01  0.46048045705E+01  0.10141429906E+02  0.11912760515E+02  0.10566000000E+00 0. -1.
        -13    1    4    4    0    0  0.80329297161E+01  0.92785348834E+01  0.22514824285E+02  0.25642691864E+02  0.10566000000E+00 0.  1.
         14    1    4    4    0    0  0.13206575727E+02  0.12861128328E+02  0.33130116421E+02  0.37913412909E+02  0.00000000000E+00 0. -1.
<mgrwt>
<rscale>  0 0.81167765E+02</rscale>
<asrwt>0</asrwt>
<pdfrwt beam="1">  1        2 0.10535466E-02 0.81167765E+02</pdfrwt>
<pdfrwt beam="2">  1       -1 0.37002131E-01 0.81167765E+02</pdfrwt>
<totfact> 0.90448509E+04</totfact>
</mgrwt>
</event>
<event>
 8    1  0.2389776E-020  0.8018493E+02  0.7818608E-02  0.1328527E+00
         -1   -1    0    0    0  501 -0.00000000000E+00  0.00000000000E+00  0.46329080826E+02  0.46329081100E+02  0.50400000000E-02 0.  1.
          2   -1    0    0  501    0  0.00000000000E+00 -0.00000000000E+00 -0.34695392167E+02  0.34695392261E+02  0.25500000000E-02 0. -1.
         24    2    1    2    0    0  0.17763568394E-14 -0.35527136788E-14  0.11633688659E+02  0.81024473360E+02  0.80184927334E+02 0.  0.
         66    2    3    3    0    0  0.15475738886E+02 -0.15405258845E+02 -0.28125631605E+02  0.35663309288E+02  0.19999955017E+01 0.  0.
        -13    1    3    3    0    0 -0.15475738886E+02  0.15405258845E+02  0.39759320264E+02  0.45361164073E+02  0.10566000000E+00 0.  1.
         13    1    4    4    0    0  0.11035683702E+01 -0.16750869714E+01 -0.28191424770E+01  0.34615759201E+01  0.10566000000E+00 0. -1.
        -13    1    4    4    0    0  0.31450147060E+01 -0.36583981131E+01 -0.58339032285E+01  0.75710359377E+01  0.10566000000E+00 0.  1.
        -14    1    4    4    0    0  0.11227155810E+02 -0.10071773761E+02 -0.19472585900E+02  0.24630697430E+02  0.00000000000E+00 0.  1.
<mgrwt>
<rscale>  0 0.80184927E+02</rscale>
<asrwt>0</asrwt>
<pdfrwt beam="1">  1        2 0.53377526E-02 0.80184927E+02</pdfrwt>
<pdfrwt beam="2">  1       -1 0.71275510E-02 0.80184927E+02</pdfrwt>
<totfact> 0.13760987E+05</totfact>
</mgrwt>
</event>
<event>
 8    1  0.2389776E-020  0.7854220E+02  0.7818608E-02  0.1333240E+00
         -1   -1    0    0    0  501 -0.00000000000E+00  0.00000000000E+00  0.15178784652E+01  0.15178868327E+01  0.50400000000E-02 0.  1.
          2   -1    0    0  501    0  0.00000000000E+00 -0.00000000000E+00 -0.10160333661E+04  0.10160333661E+04  0.25500000000E-02 0. -1.
         24    2    1    2    0    0 -0.17763568394E-14  0.00000000000E+00 -0.10145154877E+04  0.10175512530E+04  0.78542203309E+02 0.  0.
         66    2    3    3    0    0 -0.13394265931E+02  0.13421839872E+02 -0.95274567360E+03  0.95293644631E+03  0.19999995370E+01 0.  0.
        -13    1    3    3    0    0  0.13394265931E+02 -0.13421839872E+02 -0.61769814049E+02  0.64614806639E+02  0.10566000000E+00 0.  1.
         13    1    4    4    0    0 -0.53829181350E+01  0.62261864011E+01 -0.39878870249E+03  0.39887364114E+03  0.10566000000E+00 0. -1.
        -13    1    4    4    0    0 -0.51314849413E+01  0.49994736876E+01 -0.34417222536E+03  0.34424679918E+03  0.10566000000E+00 0.  1.
        -14    1    4    4    0    0 -0.28798628543E+01  0.21961797837E+01 -0.20978474576E+03  0.20981600598E+03  0.00000000000E+00 0.  1.
<mgrwt>
<rscale>  0 0.78542203E+02</rscale>
<asrwt>0</asrwt>
<pdfrwt beam="1">  1        2 0.15631228E+00 0.78542203E+02</pdfrwt>
<pdfrwt beam="2">  1       -1 0.23352122E-03 0.78542203E+02</pdfrwt>
<totfact> 0.36973687E+05</totfact>
</mgrwt>
</event>
<event>
 8    1  0.2389776E-020  0.7940566E+02  0.7818608E-02  0.1330747E+00
          2   -1    0    0  501    0  0.00000000000E+00  0.00000000000E+00  0.21308293085E+02  0.21308293238E+02  0.25500000000E-02 0. -1.
         -1   -1    0    0    0  501 -0.00000000000E+00 -0.00000000000E+00 -0.73976587278E+02  0.73976587450E+02  0.50400000000E-02 0.  1.
         24    2    1    2    0    0 -0.88817841970E-15  0.00000000000E+00 -0.52668294193E+02  0.95284880687E+02  0.79405662735E+02 0.  0.
         66    2    3    3    0    0  0.70849273738E+01 -0.37994914292E+02 -0.15584397155E+02  0.41721494951E+02  0.19999995841E+01 0.  0.
        -13    1    3    3    0    0 -0.70849273738E+01  0.37994914292E+02 -0.37083897038E+02  0.53563385736E+02  0.10566000000E+00 0.  1.
         13    1    4    4    0    0  0.90181351825E+00 -0.34481646417E+01 -0.11095630350E+01  0.37343541854E+01  0.10566000000E+00 0. -1.
        -13    1    4    4    0    0  0.22180869518E+01 -0.13701540049E+02 -0.50692151440E+01  0.14777016466E+02  0.10566000000E+00 0.  1.
        -14    1    4    4    0    0  0.39650269038E+01 -0.20845209602E+02 -0.94056189757E+01  0.23210124299E+02  0.00000000000E+00 0.  1.
<mgrwt>
<rscale>  0 0.79405663E+02</rscale>
<asrwt>0</asrwt>
<pdfrwt beam="1">  1        2 0.32781990E-02 0.79405663E+02</pdfrwt>
<pdfrwt beam="2">  1       -1 0.11381013E-01 0.79405663E+02</pdfrwt>
<totfact> 0.12845929E+05</totfact>
</mgrwt>
</event>
<event>
 8    1  0.2389776E-020  0.7372183E+02  0.7818608E-02  0.1347875E+00
          2   -1    0    0  501    0  0.00000000000E+00  0.00000000000E+00  0.45124230919E+02  0.45124230991E+02  0.25500000000E-02 0. -1.
         -1   -1    0    0    0  501 -0.00000000000E+00 -0.00000000000E+00 -0.30110804472E+02  0.30110804894E+02  0.50400000000E-02 0.  1.
         24    2    1    2    0    0  0.00000000000E+00 -0.17763568394E-14  0.15013426446E+02  0.75235035885E+02  0.73721826150E+02 0.  0.
         66    2    3    3    0    0 -0.32484718414E+02 -0.11122842118E+02  0.21118076866E+02  0.40360224516E+02  0.20000013251E+01 0.  0.
        -13    1    3    3    0    0  0.32484718414E+02  0.11122842118E+02 -0.61046504192E+01  0.34874811368E+02  0.10566000000E+00 0.  1.
         13    1    4    4    0    0 -0.33264527992E+01 -0.14677914524E+01  0.16822846121E+01  0.40076109498E+01  0.10566000000E+00 0. -1.
        -13    1    4    4    0    0 -0.96927149380E+01 -0.34549540958E+01  0.66488056782E+01  0.12251661588E+02  0.10566000000E+00 0.  1.
         14    1    4    4    0    0 -0.19465550677E+02 -0.62000965703E+01  0.12786986575E+02  0.24100951979E+02  0.00000000000E+00 0. -1.
<mgrwt>
<rscale>  0 0.73721826E+02</rscale>
<asrwt>0</asrwt>
<pdfrwt beam="1">  1        2 0.69421894E-02 0.73721826E+02</pdfrwt>
<pdfrwt beam="2">  1       -1 0.46324315E-02 0.73721826E+02</pdfrwt>
<totfact> 0.18275120E+05</totfact>
</mgrwt>
</event>
<event>
 8    1  0.2389776E-020  0.8039235E+02  0.7818608E-02  0.1327942E+00
          2   -1    0    0  501    0  0.00000000000E+00  0.00000000000E+00  0.61511677521E+03  0.61511677522E+03  0.25500000000E-02 0. -1.
         -1   -1    0    0    0  501 -0.00000000000E+00 -0.00000000000E+00 -0.26267061411E+01  0.26267109763E+01  0.50400000000E-02 0.  1.
         24    2    1    2    0    0  0.44408920985E-15  0.71054273576E-14  0.61249006907E+03  0.61774348619E+03  0.80392350532E+02 0.  0.
         66    2    3    3    0    0 -0.26909276211E+01 -0.32975729286E+02  0.48150489025E+03  0.48264438165E+03  0.19999978469E+01 0.  0.
        -13    1    3    3    0    0  0.26909276211E+01  0.32975729286E+02  0.13098517882E+03  0.13509910454E+03  0.10566000000E+00 0.  1.
         13    1    4    4    0    0 -0.59801529124E+00 -0.11761132361E+02  0.16038533818E+03  0.16081713131E+03  0.10566000000E+00 0.  1.
        -13    1    4    4    0    0 -0.13208586386E+01 -0.15308680280E+02  0.22717944793E+03  0.22769851357E+03  0.10566000000E+00 0. -1.
        -14    1    4    4    0    0 -0.77205369121E+00 -0.59059166453E+01  0.93940104144E+02  0.94128736765E+02  0.00000000000E+00 0.  1.
<mgrwt>
<rscale>  0 0.80392351E+02</rscale>
<asrwt>0</asrwt>
<pdfrwt beam="1">  1        2 0.94633334E-01 0.80392351E+02</pdfrwt>
<pdfrwt beam="2">  1       -1 0.40410908E-03 0.80392351E+02</pdfrwt>
<totfact> 0.31974518E+05</totfact>
</mgrwt>
</event>
<event>
 8    1  0.2389776E-020  0.7944937E+02  0.7818608E-02  0.1330621E+00
          2   -1    0    0  501    0  0.00000000000E+00  0.00000000000E+00  0.11752202294E+02  0.11752202570E+02  0.25500000000E-02 0. -1.
         -1   -1    0    0    0  501 -0.00000000000E+00 -0.00000000000E+00 -0.13427702019E+03  0.13427702028E+03  0.50400000000E-02 0.  1.
         24    2    1    2    0    0  0.00000000000E+00 -0.35527136788E-14 -0.12252481790E+03  0.14602922286E+03  0.79449373359E+02 0.  0.
         66    2    3    3    0    0 -0.31116062237E+02  0.24647202842E+02 -0.60210879729E+02  0.72145990718E+02  0.20000004681E+01 0.  0.
        -13    1    3    3    0    0  0.31116062237E+02 -0.24647202842E+02 -0.62313938168E+02  0.73883232137E+02  0.10566000000E+00 0.  1.
         13    1    4    4    0    0 -0.25890903679E+01  0.18151435915E+01 -0.43151908249E+01  0.53507168755E+01  0.10566000000E+00 0. -1.
        -13    1    4    4    0    0 -0.63247919767E+01  0.54307076992E+01 -0.13761049817E+02  0.16089538085E+02  0.10566000000E+00 0.  1.
         14    1    4    4    0    0 -0.22202179892E+02  0.17401351551E+02 -0.42134639087E+02  0.50705735758E+02  0.00000000000E+00 0. -1.
<mgrwt>
<rscale>  0 0.79449373E+02</rscale>
<asrwt>0</asrwt>
<pdfrwt beam="1">  1        2 0.18080312E-02 0.79449373E+02</pdfrwt>
<pdfrwt beam="2">  1       -1 0.20658002E-01 0.79449373E+02</pdfrwt>
<totfact> 0.11282061E+05</totfact>
</mgrwt>
</event>
<event>
 8    1  0.2389776E-020  0.8012815E+02  0.7818608E-02  0.1328688E+00
          2   -1    0    0  501    0  0.00000000000E+00  0.00000000000E+00  0.48960691998E+03  0.48960691999E+03  0.25500000000E-02 0. -1.
         -1   -1    0    0    0  501 -0.00000000000E+00 -0.00000000000E+00 -0.32784039023E+01  0.32784077764E+01  0.50400000000E-02 0.  1.
         24    2    1    2    0    0  0.35527136788E-14  0.35527136788E-14  0.48632851608E+03  0.49288532776E+03  0.80128152192E+02 0.  0.
         66    2    3    3    0    0 -0.30707721011E+02 -0.22052633101E+02  0.32441866192E+03  0.32662019373E+03  0.19999990770E+01 0.  0.
        -13    1    3    3    0    0  0.30707721011E+02  0.22052633101E+02  0.16190985416E+03  0.16626513403E+03  0.10566000000E+00 0.  1.
         13    1    4    4    0    0 -0.62359371498E+00 -0.57235151962E+00  0.73564107529E+01  0.74057004115E+01  0.10566000000E+00 0. -1.
        -13    1    4    4    0    0 -0.50364423200E+01 -0.43776792511E+01  0.58528734981E+02  0.58908011419E+02  0.10566000000E+00 0. -1.
        -14    1    4    4    0    0 -0.25047684976E+02 -0.17102602330E+02  0.25853351619E+03  0.26030648190E+03  0.00000000000E+00 0.  1.
<mgrwt>
<rscale>  0 0.80128152E+02</rscale>
<asrwt>0</asrwt>
<pdfrwt beam="1">  1        2 0.75324076E-01 0.80128152E+02</pdfrwt>
<pdfrwt beam="2">  1       -1 0.50437057E-03 0.80128152E+02</pdfrwt>
<totfact> 0.30121047E+05</totfact>
</mgrwt>
</event>
<event>
 8    1  0.2389776E-020  0.7936540E+02  0.7818608E-02  0.1330862E+00
          2   -1    0    0  501    0  0.00000000000E+00  0.00000000000E+00  0.89184148159E+02  0.89184148195E+02  0.25500000000E-02 0. -1.
         -1   -1    0    0    0  501 -0.00000000000E+00 -0.00000000000E+00 -0.17656910082E+02  0.17656910801E+02  0.50400000000E-02 0.  1.
         24    2    1    2    0    0  0.00000000000E+00 -0.44408920985E-15  0.71527238077E+02  0.10684105900E+03  0.79365396115E+02 0.  0.
         66    2    3    3    0    0 -0.37583535374E+02 -0.20277490524E+01  0.52604384623E+02  0.64713639846E+02  0.20000007759E+01 0.  0.
        -13    1    3    3    0    0  0.37583535374E+02  0.20277490524E+01  0.18922853454E+02  0.42127419151E+02  0.10566000000E+00 0.  1.
         13    1    4    4    0    0 -0.20695906149E+02 -0.14510631015E+01  0.29233712605E+02  0.35847555456E+02  0.10566000000E+00 0. -1.
        -13    1    4    4    0    0 -0.11676062336E+01  0.25566261686E+00  0.15780956985E+01  0.19824776820E+01  0.10566000000E+00 0.  1.
        -14    1    4    4    0    0 -0.15720022991E+02 -0.83234856768E+00  0.21792576319E+02  0.26883606708E+02  0.00000000000E+00 0.  1.
<mgrwt>
<rscale>  0 0.79365396E+02</rscale>
<asrwt>0</asrwt>
<pdfrwt beam="1">  1        2 0.13720638E-01 0.79365396E+02</pdfrwt>
<pdfrwt beam="2">  1       -1 0.27164478E-02 0.79365396E+02</pdfrwt>
<totfact> 0.17550067E+05</totfact>
</mgrwt>
</event>
<event>
 8    1  0.2389776E-020  0.8035926E+02  0.7818608E-02  0.1328035E+00
          2   -1    0    0  501    0  0.00000000000E+00  0.00000000000E+00  0.16043209312E+04  0.16043209312E+04  0.25500000000E-02 0. -1.
         -1   -1    0    0    0  501 -0.00000000000E+00 -0.00000000000E+00 -0.10062779226E+01  0.10062905441E+01  0.50400000000E-02 0.  1.
         24    2    1    2    0    0  0.00000000000E+00  0.00000000000E+00  0.16033146533E+04  0.16053272218E+04  0.80359264962E+02 0.  0.
         66    2    3    3    0    0 -0.48897585946E+01  0.11658575492E+02  0.15635220828E+04  0.15635744739E+04  0.19999941658E+01 0.  0.
        -13    1    3    3    0    0  0.48897585946E+01 -0.11658575492E+02  0.39792570478E+02  0.41752747824E+02  0.10566000000E+00 0.  1.
         13    1    4    4    0    0 -0.10289430432E+01  0.19974203877E+01  0.22972927134E+03  0.22974028312E+03  0.10566000000E+00 0. -1.
        -13    1    4    4    0    0  0.15748721793E-01  0.96682107067E+00  0.10490456662E+03  0.10490907612E+03  0.10566000000E+00 0. -1.
        -14    1    4    4    0    0 -0.38765642732E+01  0.86943340332E+01  0.12288882449E+04  0.12289251147E+04  0.00000000000E+00 0.  1.
<mgrwt>
<rscale>  0 0.80359265E+02</rscale>
<asrwt>0</asrwt>
<pdfrwt beam="1">  1        2 0.24681847E+00 0.80359265E+02</pdfrwt>
<pdfrwt beam="2">  1       -1 0.15481304E-03 0.80359265E+02</pdfrwt>
<totfact> 0.31935794E+05</totfact>
</mgrwt>
</event>
<event>
 8    1  0.2389776E-020  0.7977062E+02  0.7818608E-02  0.1329704E+00
          2   -1    0    0  501    0  0.00000000000E+00  0.00000000000E+00  0.18435295493E+02  0.18435295669E+02  0.25500000000E-02 0. -1.
         -1   -1    0    0    0  501 -0.00000000000E+00 -0.00000000000E+00 -0.86293062812E+02  0.86293062959E+02  0.50400000000E-02 0.  1.
         24    2    1    2    0    0 -0.35527136788E-14  0.35527136788E-14 -0.67857767319E+02  0.10472835863E+03  0.79770624389E+02 0.  0.
         66    2    3    3    0    0  0.29881287574E+02  0.16480566465E+02 -0.69059243949E+01  0.34873947614E+02  0.20000030849E+01 0.  0.
        -13    1    3    3    0    0 -0.29881287574E+02 -0.16480566465E+02 -0.60951842924E+02  0.69854411014E+02  0.10566000000E+00 0.  1.
         13    1    4    4    0    0  0.70022816749E+01  0.43775550356E+01 -0.16400420981E+01  0.84199666782E+01  0.10566000000E+00 0. -1.
        -13    1    4    4    0    0  0.13490883380E+02  0.79368619611E+01 -0.30774950321E+01  0.15952424640E+02  0.10566000000E+00 0.  1.
        -14    1    4    4    0    0  0.93881225191E+01  0.41661494687E+01 -0.21883872647E+01  0.10501556297E+02  0.00000000000E+00 0.  1.
<mgrwt>
<rscale>  0 0.79770624E+02</rscale>
<asrwt>0</asrwt>
<pdfrwt beam="1">  1        2 0.28361994E-02 0.79770624E+02</pdfrwt>
<pdfrwt beam="2">  1       -1 0.13275856E-01 0.79770624E+02</pdfrwt>
<totfact> 0.12312665E+05</totfact>
</mgrwt>
</event>
<event>
 8    1  0.2389776E-020  0.8171895E+02  0.7818608E-02  0.1324243E+00
         -1   -1    0    0    0  501 -0.00000000000E+00  0.00000000000E+00  0.42536318752E+01  0.42536348611E+01  0.50400000000E-02 0.  1.
          2   -1    0    0  501    0  0.00000000000E+00 -0.00000000000E+00 -0.39248724300E+03  0.39248724301E+03  0.25500000000E-02 0. -1.
         24    2    1    2    0    0  0.00000000000E+00  0.00000000000E+00 -0.38823361112E+03  0.39674087787E+03  0.81718953527E+02 0.  0.
         66    2    3    3    0    0  0.32114288028E+02 -0.14286880512E+02 -0.29514662268E+03  0.29723891291E+03  0.20000034894E+01 0.  0.
        -13    1    3    3    0    0 -0.32114288028E+02  0.14286880512E+02 -0.93086988438E+02  0.99501964960E+02  0.10566000000E+00 0.  1.
         13    1    4    4    0    0  0.17930343523E+02 -0.84785345321E+01 -0.17044535293E+03  0.17159549022E+03  0.10566000000E+00 0. -1.
        -13    1    4    4    0    0  0.42522490414E+01 -0.17818648127E+01 -0.41168668615E+02  0.41426164482E+02  0.10566000000E+00 0. -1.
         14    1    4    4    0    0  0.99316954644E+01 -0.40264811674E+01 -0.83532601143E+02  0.84217258202E+02  0.00000000000E+00 0. -1.
<mgrwt>
<rscale>  0 0.81718954E+02</rscale>
<asrwt>0</asrwt>
<pdfrwt beam="1">  1        2 0.60382624E-01 0.81718954E+02</pdfrwt>
<pdfrwt beam="2">  1       -1 0.65440545E-03 0.81718954E+02</pdfrwt>
<totfact> 0.26548506E+05</totfact>
</mgrwt>
</event>
<event>
 8    1  0.2389776E-020  0.7996745E+02  0.7818608E-02  0.1329144E+00
          2   -1    0    0  501    0  0.00000000000E+00  0.00000000000E+00  0.10153795663E+04  0.10153795663E+04  0.25500000000E-02 0. -1.
         -1   -1    0    0    0  501 -0.00000000000E+00 -0.00000000000E+00 -0.15744794575E+01  0.15744875241E+01  0.50400000000E-02 0.  1.
         24    2    1    2    0    0 -0.35527136788E-14  0.35527136788E-14  0.10138050869E+04  0.10169540538E+04  0.79967452680E+02 0.  0.
         66    2    3    3    0    0 -0.21557095491E+02  0.16757130370E+02  0.87824076345E+03  0.87866737072E+03  0.19999992873E+01 0.  0.
        -13    1    3    3    0    0  0.21557095491E+02 -0.16757130370E+02  0.13556432341E+03  0.13828668312E+03  0.10566000000E+00 0.  1.
         13    1    4    4    0    0 -0.20472616583E+01  0.13191306250E+01  0.77353229587E+02  0.77391631831E+02  0.10566000000E+00 0.  1.
        -13    1    4    4    0    0 -0.12741180167E+02  0.90397387553E+01  0.49614927907E+03  0.49639517809E+03  0.10566000000E+00 0. -1.
        -14    1    4    4    0    0 -0.67686536652E+01  0.63982609893E+01  0.30473825480E+03  0.30488056080E+03  0.00000000000E+00 0.  1.
<mgrwt>
<rscale>  0 0.79967453E+02</rscale>
<asrwt>0</asrwt>
<pdfrwt beam="1">  1        2 0.15621241E+00 0.79967453E+02</pdfrwt>
<pdfrwt beam="2">  1       -1 0.24222796E-03 0.79967453E+02</pdfrwt>
<totfact> 0.35288031E+05</totfact>
</mgrwt>
</event>
<event>
 8    1  0.2389776E-020  0.7974803E+02  0.7818608E-02  0.1329768E+00
         -1   -1    0    0    0  501 -0.00000000000E+00  0.00000000000E+00  0.22530324911E+01  0.22530381283E+01  0.50400000000E-02 0.  1.
          2   -1    0    0  501    0  0.00000000000E+00 -0.00000000000E+00 -0.70568662322E+03  0.70568662322E+03  0.25500000000E-02 0. -1.
         24    2    1    2    0    0 -0.35527136788E-14 -0.44408920985E-15 -0.70343359072E+03  0.70793966135E+03  0.79748025371E+02 0.  0.
         66    2    3    3    0    0  0.17430669592E+02  0.14567522725E+01 -0.66978371756E+03  0.67001505855E+03  0.20000005299E+01 0.  0.
        -13    1    3    3    0    0 -0.17430669592E+02 -0.14567522725E+01 -0.33649873163E+02  0.37924602800E+02  0.10566000000E+00 0.  1.
         13    1    4    4    0    0  0.48192203360E+01  0.15533132808E+00 -0.20555699134E+03  0.20561356197E+03  0.10566000000E+00 0. -1.
        -13    1    4    4    0    0  0.93704939119E+01  0.14135928386E+01 -0.35674482469E+03  0.35687068458E+03  0.10566000000E+00 0. -1.
         14    1    4    4    0    0  0.32409553436E+01 -0.11217189419E+00 -0.10748190152E+03  0.10753081200E+03  0.00000000000E+00 0. -1.
<mgrwt>
<rscale>  0 0.79748025E+02</rscale>
<asrwt>0</asrwt>
<pdfrwt beam="1">  1        2 0.10856700E+00 0.79748025E+02</pdfrwt>
<pdfrwt beam="2">  1       -1 0.34662138E-03 0.79748025E+02</pdfrwt>
<totfact> 0.33789177E+05</totfact>
</mgrwt>
</event>
<event>
 8    1  0.2389776E-020  0.8052122E+02  0.7818608E-02  0.1327579E+00
         -1   -1    0    0    0  501 -0.00000000000E+00  0.00000000000E+00  0.14841375615E+02  0.14841376471E+02  0.50400000000E-02 0.  1.
          2   -1    0    0  501    0  0.00000000000E+00 -0.00000000000E+00 -0.10921606768E+03  0.10921606771E+03  0.25500000000E-02 0. -1.
         24    2    1    2    0    0  0.00000000000E+00 -0.22204460493E-15 -0.94374692064E+02  0.12405744418E+03  0.80521220522E+02 0.  0.
         66    2    3    3    0    0  0.36357497562E+02  0.13525120375E+01 -0.73688060999E+02  0.82204788510E+02  0.20000005818E+01 0.  0.
        -13    1    3    3    0    0 -0.36357497562E+02 -0.13525120375E+01 -0.20686631065E+02  0.41852655670E+02  0.10566000000E+00 0.  1.
         13    1    4    4    0    0  0.27315837059E+02  0.15173016268E+01 -0.54649972546E+02  0.61115364859E+02  0.10566000000E+00 0. -1.
        -13    1    4    4    0    0  0.52719861199E+01 -0.42453135811E+00 -0.10793883969E+02  0.12020530758E+02  0.10566000000E+00 0.  1.
         14    1    4    4    0    0  0.37696743831E+01  0.25974176876E+00 -0.82442044842E+01  0.90688928937E+01  0.00000000000E+00 0. -1.
<mgrwt>
<rscale>  0 0.80521221E+02</rscale>
<asrwt>0</asrwt>
<pdfrwt beam="1">  1        2 0.16802471E-01 0.80521221E+02</pdfrwt>
<pdfrwt beam="2">  1       -1 0.22832887E-02 0.80521221E+02</pdfrwt>
<totfact> 0.17863199E+05</totfact>
</mgrwt>
</event>
<event>
 8    1  0.2389776E-020  0.8031788E+02  0.7818608E-02  0.1328152E+00
          2   -1    0    0  501    0  0.00000000000E+00  0.00000000000E+00  0.41445882847E+03  0.41445882848E+03  0.25500000000E-02 0. -1.
         -1   -1    0    0    0  501 -0.00000000000E+00 -0.00000000000E+00 -0.38911942876E+01  0.38911975515E+01  0.50400000000E-02 0.  1.
         24    2    1    2    0    0  0.00000000000E+00  0.00000000000E+00  0.41056763418E+03  0.41835002603E+03  0.80317881201E+02 0.  0.
         66    2    3    3    0    0 -0.14396459750E+02  0.12478264743E+01  0.40043527980E+03  0.40070092142E+03  0.19999979553E+01 0.  0.
        -13    1    3    3    0    0  0.14396459750E+02 -0.12478264743E+01  0.10132354383E+02  0.17649104613E+02  0.10566000000E+00 0.  1.
         13    1    4    4    0    0 -0.75688259467E+01  0.98881933458E+00  0.23327698298E+03  0.23340185698E+03  0.10566000000E+00 0. -1.
        -13    1    4    4    0    0 -0.33598160887E+01  0.27317907368E+00  0.88982133138E+02  0.89046022779E+02  0.10566000000E+00 0.  1.
        -14    1    4    4    0    0 -0.34678177150E+01 -0.14171933928E-01  0.78176163684E+02  0.78253041660E+02  0.00000000000E+00 0.  1.
<mgrwt>
<rscale>  0 0.80317881E+02</rscale>
<asrwt>0</asrwt>
<pdfrwt beam="1">  1        2 0.63762912E-01 0.80317881E+02</pdfrwt>
<pdfrwt beam="2">  1       -1 0.59864538E-03 0.80317881E+02</pdfrwt>
<totfact> 0.28309937E+05</totfact>
</mgrwt>
</event>
<event>
 8    1  0.2389776E-020  0.8148060E+02  0.7818608E-02  0.1324901E+00
         -1   -1    0    0    0  501 -0.00000000000E+00  0.00000000000E+00  0.63537253271E+01  0.63537273261E+01  0.50400000000E-02 0.  1.
          2   -1    0    0  501    0  0.00000000000E+00 -0.00000000000E+00 -0.26122811067E+03  0.26122811068E+03  0.25500000000E-02 0. -1.
         24    2    1    2    0    0 -0.35527136788E-14 -0.71054273576E-14 -0.25487438534E+03  0.26758183800E+03  0.81480597249E+02 0.  0.
         66    2    3    3    0    0 -0.21906742437E+02 -0.23141668345E+02 -0.21074373332E+03  0.21314868827E+03  0.20000003522E+01 0.  0.
        -13    1    3    3    0    0  0.21906742437E+02  0.23141668345E+02 -0.44130652022E+02  0.54433149733E+02  0.10566000000E+00 0.  1.
         13    1    4    4    0    0 -0.87155610733E+01 -0.96801491091E+01 -0.88841363927E+02  0.89791232312E+02  0.10566000000E+00 0. -1.
        -13    1    4    4    0    0 -0.10055889443E+01 -0.10330532258E+01 -0.11711136863E+02  0.11800012659E+02  0.10566000000E+00 0.  1.
         14    1    4    4    0    0 -0.12185592419E+02 -0.12428466010E+02 -0.11019123253E+03  0.11155744330E+03  0.00000000000E+00 0. -1.
<mgrwt>
<rscale>  0 0.81480597E+02</rscale>
<asrwt>0</asrwt>
<pdfrwt beam="1">  1        2 0.40188932E-01 0.81480597E+02</pdfrwt>
<pdfrwt beam="2">  1       -1 0.97749656E-03 0.81480597E+02</pdfrwt>
<totfact> 0.23106936E+05</totfact>
</mgrwt>
</event>
<event>
 8    1  0.2389776E-020  0.8098770E+02  0.7818608E-02  0.1326272E+00
         -1   -1    0    0    0  501 -0.00000000000E+00  0.00000000000E+00  0.18031508567E+01  0.18031579003E+01  0.50400000000E-02 0.  1.
          2   -1    0    0  501    0  0.00000000000E+00 -0.00000000000E+00 -0.90937956810E+03  0.90937956810E+03  0.25500000000E-02 0. -1.
         24    2    1    2    0    0  0.00000000000E+00  0.00000000000E+00 -0.90757641724E+03  0.91118272600E+03  0.80987696792E+02 0.  0.
         66    2    3    3    0    0  0.46168030884E+01  0.27615131184E+02 -0.78282024245E+03  0.78332333192E+03  0.20000020166E+01 0.  0.
        -13    1    3    3    0    0 -0.46168030884E+01 -0.27615131184E+02 -0.12475617479E+03  0.12785939408E+03  0.10566000000E+00 0.  1.
         13    1    4    4    0    0  0.16272397425E+01  0.90120252518E+01 -0.26488359731E+03  0.26504187556E+03  0.10566000000E+00 0. -1.
        -13    1    4    4    0    0  0.13207415837E+01  0.55189016193E+01 -0.14145613098E+03  0.14156995016E+03  0.10566000000E+00 0.  1.
         14    1    4    4    0    0  0.16688217623E+01  0.13084204312E+02 -0.37648051416E+03  0.37671150620E+03  0.00000000000E+00 0. -1.
<mgrwt>
<rscale>  0 0.80987697E+02</rscale>
<asrwt>0</asrwt>
<pdfrwt beam="1">  1        2 0.13990418E+00 0.80987697E+02</pdfrwt>
<pdfrwt beam="2">  1       -1 0.27740909E-03 0.80987697E+02</pdfrwt>
<totfact> 0.33887537E+05</totfact>
</mgrwt>
</event>
<event>
 8    1  0.2389776E-020  0.8052730E+02  0.7818608E-02  0.1327562E+00
          2   -1    0    0  501    0  0.00000000000E+00  0.00000000000E+00  0.20893253645E+02  0.20893253801E+02  0.25500000000E-02 0. -1.
         -1   -1    0    0    0  501 -0.00000000000E+00 -0.00000000000E+00 -0.77592590052E+02  0.77592590216E+02  0.50400000000E-02 0.  1.
         24    2    1    2    0    0  0.17763568394E-14  0.00000000000E+00 -0.56699336407E+02  0.98485844017E+02  0.80527304206E+02 0.  0.
         66    2    3    3    0    0  0.15396572205E+02  0.37176629489E+02 -0.28339864240E+02  0.49257528573E+02  0.20000000238E+01 0.  0.
        -13    1    3    3    0    0 -0.15396572205E+02 -0.37176629489E+02 -0.28359472167E+02  0.49228315444E+02  0.10566000000E+00 0.  1.
         13    1    4    4    0    0  0.41957372366E+01  0.10718382490E+02 -0.87380865929E+01  0.14451756139E+02  0.10566000000E+00 0. -1.
        -13    1    4    4    0    0  0.40594465991E+01  0.91792623686E+01 -0.75759759731E+01  0.12575553280E+02  0.10566000000E+00 0.  1.
         14    1    4    4    0    0  0.71413883689E+01  0.17278984630E+02 -0.12025801674E+02  0.22230219153E+02  0.00000000000E+00 0. -1.
<mgrwt>
<rscale>  0 0.80527304E+02</rscale>
<asrwt>0</asrwt>
<pdfrwt beam="1">  1        2 0.32143468E-02 0.80527304E+02</pdfrwt>
<pdfrwt beam="2">  1       -1 0.11937321E-01 0.80527304E+02</pdfrwt>
<totfact> 0.12291955E+05</totfact>
</mgrwt>
</event>
<event>
 8    1  0.2389776E-020  0.7805270E+02  0.7818608E-02  0.1334670E+00
          2   -1    0    0  501    0  0.00000000000E+00  0.00000000000E+00  0.89472903367E+02  0.89472903403E+02  0.25500000000E-02 0. -1.
         -1   -1    0    0    0  501 -0.00000000000E+00 -0.00000000000E+00 -0.17022538906E+02  0.17022539652E+02  0.50400000000E-02 0.  1.
         24    2    1    2    0    0  0.35527136788E-14  0.17763568394E-14  0.72450364461E+02  0.10649544306E+03  0.78052700664E+02 0.  0.
         66    2    3    3    0    0  0.26172700023E+02  0.85724064627E+01  0.73926098202E+02  0.78914918529E+02  0.19999980054E+01 0.  0.
        -13    1    3    3    0    0 -0.26172700023E+02 -0.85724064627E+01 -0.14757337403E+01  0.27580524527E+02  0.10566000000E+00 0.  1.
         13    1    4    4    0    0  0.49843244553E+01  0.13541405800E+01  0.14594721167E+02  0.15482061780E+02  0.10566000000E+00 0. -1.
        -13    1    4    4    0    0  0.24749049119E+00  0.34507634081E-01  0.43145270795E+00  0.50966439432E+00  0.10566000000E+00 0. -1.
         14    1    4    4    0    0  0.20940885076E+02  0.71837582486E+01  0.58899924327E+02  0.62923192354E+02  0.00000000000E+00 0. -1.
<mgrwt>
<rscale>  0 0.78052701E+02</rscale>
<asrwt>0</asrwt>
<pdfrwt beam="1">  1        2 0.13765062E-01 0.78052701E+02</pdfrwt>
<pdfrwt beam="2">  1       -1 0.26188522E-02 0.78052701E+02</pdfrwt>
<totfact> 0.18368654E+05</totfact>
</mgrwt>
</event>
<event>
 8    1  0.2389776E-020  0.7950310E+02  0.7818608E-02  0.1330467E+00
          2   -1    0    0  501    0  0.00000000000E+00  0.00000000000E+00  0.22409770148E+02  0.22409770293E+02  0.25500000000E-02 0. -1.
         -1   -1    0    0    0  501 -0.00000000000E+00 -0.00000000000E+00 -0.70513257320E+02  0.70513257500E+02  0.50400000000E-02 0.  1.
         24    2    1    2    0    0 -0.27755575616E-16  0.00000000000E+00 -0.48103487172E+02  0.92923027794E+02  0.79503104444E+02 0.  0.
         66    2    3    3    0    0  0.24660425690E+00 -0.16975738479E+02  0.17911370384E+02  0.24759921258E+02  0.20000002724E+01 0.  0.
        -13    1    3    3    0    0 -0.24660425690E+00  0.16975738479E+02 -0.66014857555E+02  0.68163106536E+02  0.10566000000E+00 0.  1.
         13    1    4    4    0    0  0.37821560543E+00 -0.13303078034E+02  0.14951922338E+02  0.20017144598E+02  0.10566000000E+00 0. -1.
        -13    1    4    4    0    0 -0.14777809555E-01 -0.15682129428E+01  0.98652941874E+00  0.18557786903E+01  0.10566000000E+00 0.  1.
         14    1    4    4    0    0 -0.11683353897E+00 -0.21044475025E+01  0.19729186270E+01  0.28869979694E+01  0.00000000000E+00 0. -1.
<mgrwt>
<rscale>  0 0.79503104E+02</rscale>
<asrwt>0</asrwt>
<pdfrwt beam="1">  1        2 0.34476570E-02 0.79503104E+02</pdfrwt>
<pdfrwt beam="2">  1       -1 0.10848193E-01 0.79503104E+02</pdfrwt>
<totfact> 0.12929699E+05</totfact>
</mgrwt>
</event>
<event>
 8    1  0.2389776E-020  0.8366034E+02  0.7818608E-02  0.1318974E+00
         -1   -1    0    0    0  501 -0.00000000000E+00  0.00000000000E+00  0.47562046954E+01  0.47562073658E+01  0.50400000000E-02 0.  1.
          2   -1    0    0  501    0  0.00000000000E+00 -0.00000000000E+00 -0.36789050583E+03  0.36789050584E+03  0.25500000000E-02 0. -1.
         24    2    1    2    0    0  0.00000000000E+00  0.00000000000E+00 -0.36313430113E+03  0.37264671320E+03  0.83660338283E+02 0.  0.
         66    2    3    3    0    0  0.23985909528E+02 -0.27852219425E+02 -0.27038668585E+03  0.27288098118E+03  0.20000045391E+01 0.  0.
        -13    1    3    3    0    0 -0.23985909528E+02  0.27852219425E+02 -0.92747615279E+02  0.99765732027E+02  0.10566000000E+00 0.  1.
         13    1    4    4    0    0  0.26388140829E+01 -0.27327261264E+01 -0.30677876201E+02  0.30912366200E+02  0.10566000000E+00 0. -1.
        -13    1    4    4    0    0  0.51630926723E+01 -0.53728207644E+01 -0.56521614854E+02  0.57010778268E+02  0.10566000000E+00 0.  1.
         14    1    4    4    0    0  0.16184002772E+02 -0.19746672534E+02 -0.18318719480E+03  0.18495783671E+03  0.00000000000E+00 0. -1.
<mgrwt>
<rscale>  0 0.83660338E+02</rscale>
<asrwt>0</asrwt>
<pdfrwt beam="1">  1        2 0.56598517E-01 0.83660338E+02</pdfrwt>
<pdfrwt beam="2">  1       -1 0.73172429E-03 0.83660338E+02</pdfrwt>
<totfact> 0.24396835E+05</totfact>
</mgrwt>
</event>
<event>
 8    1  0.2389776E-020  0.7806308E+02  0.7818608E-02  0.1334640E+00
         -1   -1    0    0    0  501 -0.00000000000E+00  0.00000000000E+00  0.16391618064E+02  0.16391618839E+02  0.50400000000E-02 0.  1.
          2   -1    0    0  501    0  0.00000000000E+00 -0.00000000000E+00 -0.92941467159E+02  0.92941467194E+02  0.25500000000E-02 0. -1.
         24    2    1    2    0    0  0.00000000000E+00  0.00000000000E+00 -0.76549849095E+02  0.10933308603E+03  0.78063079012E+02 0.  0.
         66    2    3    3    0    0 -0.22848394104E+02  0.16408708522E+02 -0.76145573352E+02  0.81200019520E+02  0.20000001269E+01 0.  0.
        -13    1    3    3    0    0  0.22848394104E+02 -0.16408708522E+02 -0.40427574321E+00  0.28133066512E+02  0.10566000000E+00 0.  1.
         13    1    4    4    0    0 -0.12737971072E+02  0.84876509660E+01 -0.42656403833E+02  0.45319709597E+02  0.10566000000E+00 0. -1.
        -13    1    4    4    0    0 -0.57753214669E+00  0.72182294432E+00 -0.22333716522E+01  0.24194389259E+01  0.10566000000E+00 0.  1.
        -14    1    4    4    0    0 -0.95328908850E+01  0.71992346116E+01 -0.31255797866E+02  0.33460870997E+02  0.00000000000E+00 0.  1.
<mgrwt>
<rscale>  0 0.78063079E+02</rscale>
<asrwt>0</asrwt>
<pdfrwt beam="1">  1        2 0.14298687E-01 0.78063079E+02</pdfrwt>
<pdfrwt beam="2">  1       -1 0.25217875E-02 0.78063079E+02</pdfrwt>
<totfact> 0.18550616E+05</totfact>
</mgrwt>
</event>
<event>
 8    1  0.2389776E-020  0.8040007E+02  0.7818608E-02  0.1327920E+00
          2   -1    0    0  501    0  0.00000000000E+00  0.00000000000E+00  0.23942702193E+03  0.23942702195E+03  0.25500000000E-02 0. -1.
         -1   -1    0    0    0  501 -0.00000000000E+00 -0.00000000000E+00 -0.67496253350E+01  0.67496272167E+01  0.50400000000E-02 0.  1.
         24    2    1    2    0    0  0.00000000000E+00  0.00000000000E+00  0.23267739660E+03  0.24617664916E+03  0.80400072797E+02 0.  0.
         66    2    3    3    0    0  0.32077764237E+02  0.14416612245E+02  0.17587880257E+03  0.17937161107E+03  0.19999993338E+01 0.  0.
        -13    1    3    3    0    0 -0.32077764237E+02 -0.14416612245E+02  0.56798594026E+02  0.66805038091E+02  0.10566000000E+00 0.  1.
         13    1    4    4    0    0  0.15088376009E+02  0.73830884587E+01  0.80985270378E+02  0.82709094228E+02  0.10566000000E+00 0. -1.
        -13    1    4    4    0    0  0.77759413114E+01  0.35082570762E+01  0.45747112804E+02  0.46535820880E+02  0.10566000000E+00 0.  1.
         14    1    4    4    0    0  0.92134469160E+01  0.35252667099E+01  0.49146419391E+02  0.50126695965E+02  0.00000000000E+00 0. -1.
<mgrwt>
<rscale>  0 0.80400073E+02</rscale>
<asrwt>0</asrwt>
<pdfrwt beam="1">  1        2 0.36834918E-01 0.80400073E+02</pdfrwt>
<pdfrwt beam="2">  1       -1 0.10384043E-02 0.80400073E+02</pdfrwt>
<totfact> 0.23196011E+05</totfact>
</mgrwt>
</event>
<event>
 8    1  0.2389776E-020  0.8178160E+02  0.7818608E-02  0.1324070E+00
          2   -1    0    0  501    0  0.00000000000E+00  0.00000000000E+00  0.58234268475E+03  0.58234268476E+03  0.25500000000E-02 0. -1.
         -1   -1    0    0    0  501 -0.00000000000E+00 -0.00000000000E+00 -0.28712584204E+01  0.28712628439E+01  0.50400000000E-02 0.  1.
         24    2    1    2    0    0  0.00000000000E+00  0.00000000000E+00  0.57947142633E+03  0.58521394760E+03  0.81781602653E+02 0.  0.
         66    2    3    3    0    0  0.99322304058E+01 -0.38285638899E+02  0.36344761752E+03  0.36559897433E+03  0.20000011781E+01 0.  0.
        -13    1    3    3    0    0 -0.99322304058E+01  0.38285638899E+02  0.21602380881E+03  0.21961497327E+03  0.10566000000E+00 0.  1.
         13    1    4    4    0    0  0.58105172652E+01 -0.20864755952E+02  0.19055114982E+03  0.19177813227E+03  0.10566000000E+00 0.  1.
        -13    1    4    4    0    0  0.23486504895E+01 -0.99808545345E+01  0.98895472693E+02  0.99425647091E+02  0.10566000000E+00 0. -1.
        -14    1    4    4    0    0  0.17730626512E+01 -0.74400284130E+01  0.74000995002E+02  0.74395194975E+02  0.00000000000E+00 0.  1.
<mgrwt>
<rscale>  0 0.81781603E+02</rscale>
<asrwt>0</asrwt>
<pdfrwt beam="1">  1        2 0.89591200E-01 0.81781603E+02</pdfrwt>
<pdfrwt beam="2">  1       -1 0.44173232E-03 0.81781603E+02</pdfrwt>
<totfact> 0.30114590E+05</totfact>
</mgrwt>
</event>
<event>
 8    1  0.2389776E-020  0.7827305E+02  0.7818608E-02  0.1334025E+00
          2   -1    0    0  501    0  0.00000000000E+00  0.00000000000E+00  0.11170111594E+03  0.11170111596E+03  0.25500000000E-02 0. -1.
         -1   -1    0    0    0  501 -0.00000000000E+00 -0.00000000000E+00 -0.13712196880E+02  0.13712197807E+02  0.50400000000E-02 0.  1.
         24    2    1    2    0    0  0.00000000000E+00  0.00000000000E+00  0.97988919055E+02  0.12541331377E+03  0.78273054198E+02 0.  0.
         66    2    3    3    0    0 -0.22455846544E+02  0.31940433882E+02  0.52682327801E+02  0.65603993965E+02  0.20000002639E+01 0.  0.
        -13    1    3    3    0    0  0.22455846544E+02 -0.31940433882E+02  0.45306591255E+02  0.59809319807E+02  0.10566000000E+00 0.  1.
         13    1    4    4    0    0 -0.61915048854E+01  0.96686639737E+01  0.15004409650E+02  0.18893418663E+02  0.10566000000E+00 0. -1.
        -13    1    4    4    0    0 -0.12143104492E+02  0.16144638883E+02  0.26736370985E+02  0.33510431941E+02  0.10566000000E+00 0.  1.
         14    1    4    4    0    0 -0.41212371669E+01  0.61271310248E+01  0.10941547166E+02  0.13200143361E+02  0.00000000000E+00 0. -1.
<mgrwt>
<rscale>  0 0.78273054E+02</rscale>
<asrwt>0</asrwt>
<pdfrwt beam="1">  1        2 0.17184788E-01 0.78273054E+02</pdfrwt>
<pdfrwt beam="2">  1       -1 0.21095687E-02 0.78273054E+02</pdfrwt>
<totfact> 0.19392111E+05</totfact>
</mgrwt>
</event>
<event>
 8    1  0.2389776E-020  0.8015849E+02  0.7818608E-02  0.1328602E+00
          2   -1    0    0  501    0  0.00000000000E+00  0.00000000000E+00  0.22828296639E+03  0.22828296641E+03  0.25500000000E-02 0. -1.
         -1   -1    0    0    0  501 -0.00000000000E+00 -0.00000000000E+00 -0.70366430996E+01  0.70366449045E+01  0.50400000000E-02 0.  1.
         24    2    1    2    0    0  0.00000000000E+00 -0.17763568394E-14  0.22124632329E+03  0.23531961131E+03  0.80158492358E+02 0.  0.
         66    2    3    3    0    0 -0.37754803737E+02  0.93850099303E+01  0.13867139806E+03  0.14403909281E+03  0.20000002773E+01 0.  0.
        -13    1    3    3    0    0  0.37754803737E+02 -0.93850099303E+01  0.82574925238E+02  0.91280518506E+02  0.10566000000E+00 0.  1.
         13    1    4    4    0    0 -0.12369475156E+02  0.33884292052E+01  0.46381172281E+02  0.48121821187E+02  0.10566000000E+00 0. -1.
        -13    1    4    4    0    0 -0.37488055627E+01  0.11709599201E+01  0.15623753183E+02  0.16110168151E+02  0.10566000000E+00 0.  1.
         14    1    4    4    0    0 -0.21636523018E+02  0.48256208050E+01  0.76666472592E+02  0.79807103469E+02  0.00000000000E+00 0. -1.
<mgrwt>
<rscale>  0 0.80158492E+02</rscale>
<asrwt>0</asrwt>
<pdfrwt beam="1">  1        2 0.35120453E-01 0.80158492E+02</pdfrwt>
<pdfrwt beam="2">  1       -1 0.10825607E-02 0.80158492E+02</pdfrwt>
<totfact> 0.22987292E+05</totfact>
</mgrwt>
</event>
<event>
 8    1  0.2389776E-020  0.7917159E+02  0.7818608E-02  0.1331419E+00
         -1   -1    0    0    0  501 -0.00000000000E+00  0.00000000000E+00  0.11145330785E+03  0.11145330796E+03  0.50400000000E-02 0.  1.
          2   -1    0    0  501    0  0.00000000000E+00 -0.00000000000E+00 -0.14060013823E+02  0.14060014054E+02  0.25500000000E-02 0. -1.
         24    2    1    2    0    0  0.00000000000E+00  0.71054273576E-14  0.97393294028E+02  0.12551332202E+03  0.79171587596E+02 0.  0.
         66    2    3    3    0    0  0.55445682208E+01  0.37120350147E+02  0.28903525937E+02  0.47413884575E+02  0.20000017684E+01 0.  0.
        -13    1    3    3    0    0 -0.55445682208E+01 -0.37120350147E+02  0.68489768091E+02  0.78099437444E+02  0.10566000000E+00 0.  1.
         13    1    4    4    0    0  0.35464362820E+01  0.20177429946E+02  0.16724055841E+02  0.26446381555E+02  0.10566000000E+00 0. -1.
        -13    1    4    4    0    0  0.15542126060E+01  0.12862340602E+02  0.94928627725E+01  0.16061786645E+02  0.10566000000E+00 0.  1.
         14    1    4    4    0    0  0.44391933284E+00  0.40805795989E+01  0.26866073240E+01  0.49057163748E+01  0.00000000000E+00 0. -1.
<mgrwt>
<rscale>  0 0.79171588E+02</rscale>
<asrwt>0</asrwt>
<pdfrwt beam="1">  1        2 0.21630791E-02 0.79171588E+02</pdfrwt>
<pdfrwt beam="2">  1       -1 0.17146663E-01 0.79171588E+02</pdfrwt>
<totfact> 0.11881433E+05</totfact>
</mgrwt>
</event>
<event>
 8    1  0.2389776E-020  0.7781677E+02  0.7818608E-02  0.1335364E+00
          2   -1    0    0  501    0  0.00000000000E+00  0.00000000000E+00  0.21569028922E+03  0.21569028923E+03  0.25500000000E-02 0. -1.
         -1   -1    0    0    0  501 -0.00000000000E+00 -0.00000000000E+00 -0.70186844163E+01  0.70186862259E+01  0.50400000000E-02 0.  1.
         24    2    1    2    0    0  0.00000000000E+00  0.00000000000E+00  0.20867160480E+03  0.22270897546E+03  0.77816766185E+02 0.  0.
         66    2    3    3    0    0 -0.22298309495E+02  0.19595651450E+01  0.19539539028E+03  0.19668353526E+03  0.19999985810E+01 0.  0.
        -13    1    3    3    0    0  0.22298309495E+02 -0.19595651450E+01  0.13276214519E+02  0.26025440205E+02  0.10566000000E+00 0.  1.
         13    1    4    4    0    0 -0.12076069155E+02  0.79254600047E+00  0.10228829994E+03  0.10300178176E+03  0.10566000000E+00 0. -1.
        -13    1    4    4    0    0 -0.30162545557E+01  0.89571414545E+00  0.28963050402E+02  0.29133649754E+02  0.10566000000E+00 0.  1.
         14    1    4    4    0    0 -0.72059857843E+01  0.27130499907E+00  0.64144039939E+02  0.64548103746E+02  0.00000000000E+00 0. -1.
<mgrwt>
<rscale>  0 0.77816766E+02</rscale>
<asrwt>0</asrwt>
<pdfrwt beam="1">  1        2 0.33183126E-01 0.77816766E+02</pdfrwt>
<pdfrwt beam="2">  1       -1 0.10797976E-02 0.77816766E+02</pdfrwt>
<totfact> 0.24359444E+05</totfact>
</mgrwt>
</event>
<event>
 8    1  0.2389776E-020  0.7902774E+02  0.7818608E-02  0.1331833E+00
          2   -1    0    0  501    0  0.00000000000E+00  0.00000000000E+00  0.14564059587E+02  0.14564059810E+02  0.25500000000E-02 0. -1.
         -1   -1    0    0    0  501 -0.00000000000E+00 -0.00000000000E+00 -0.10720541141E+03  0.10720541153E+03  0.50400000000E-02 0.  1.
         24    2    1    2    0    0  0.00000000000E+00  0.00000000000E+00 -0.92641351822E+02  0.12176947134E+03  0.79027742486E+02 0.  0.
         66    2    3    3    0    0  0.35303969430E+02  0.10064924215E+02 -0.23932791943E+02  0.43868570691E+02  0.20000018329E+01 0.  0.
        -13    1    3    3    0    0 -0.35303969430E+02 -0.10064924215E+02 -0.68708559879E+02  0.77900900647E+02  0.10566000000E+00 0.  1.
         13    1    4    4    0    0  0.64541428447E+01  0.18914617303E+01 -0.43564922134E+01  0.80139737820E+01  0.10566000000E+00 0. -1.
        -13    1    4    4    0    0  0.23853931197E+02  0.62428117483E+01 -0.15510311457E+02  0.29130115990E+02  0.10566000000E+00 0.  1.
        -14    1    4    4    0    0  0.49958953881E+01  0.19306507360E+01 -0.40659882727E+01  0.67244809188E+01  0.00000000000E+00 0.  1.
<mgrwt>
<rscale>  0 0.79027742E+02</rscale>
<asrwt>0</asrwt>
<pdfrwt beam="1">  1        2 0.22406246E-02 0.79027742E+02</pdfrwt>
<pdfrwt beam="2">  1       -1 0.16493140E-01 0.79027742E+02</pdfrwt>
<totfact> 0.12037965E+05</totfact>
</mgrwt>
</event>
<event>
 8    1  0.2389776E-020  0.8029697E+02  0.7818608E-02  0.1328211E+00
          2   -1    0    0  501    0  0.00000000000E+00  0.00000000000E+00  0.29497628591E+03  0.29497628592E+03  0.25500000000E-02 0. -1.
         -1   -1    0    0    0  501 -0.00000000000E+00 -0.00000000000E+00 -0.54645093092E+01  0.54645116334E+01  0.50400000000E-02 0.  1.
         24    2    1    2    0    0 -0.44408920985E-15  0.00000000000E+00  0.28951177660E+03  0.30044079755E+03  0.80296974068E+02 0.  0.
         66    2    3    3    0    0  0.29243113730E+01  0.39721612557E+02  0.16299825765E+03  0.16780581068E+03  0.20000002094E+01 0.  0.
        -13    1    3    3    0    0 -0.29243113730E+01 -0.39721612557E+02  0.12651351895E+03  0.13263498687E+03  0.10566000000E+00 0.  1.
         13    1    4    4    0    0  0.10266909349E+01  0.20356892682E+02  0.86478037532E+02  0.88847731054E+02  0.10566000000E+00 0. -1.
        -13    1    4    4    0    0  0.92014641890E+00  0.67012133571E+01  0.25968426200E+02  0.26835112320E+02  0.10566000000E+00 0.  1.
        -14    1    4    4    0    0  0.97747401913E+00  0.12663506517E+02  0.50551793920E+02  0.52122967311E+02  0.00000000000E+00 0.  1.
<mgrwt>
<rscale>  0 0.80296974E+02</rscale>
<asrwt>0</asrwt>
<pdfrwt beam="1">  1        2 0.45380985E-01 0.80296974E+02</pdfrwt>
<pdfrwt beam="2">  1       -1 0.84069359E-03 0.80296974E+02</pdfrwt>
<totfact> 0.25093986E+05</totfact>
</mgrwt>
</event>
<event>
 8    1  0.2389776E-020  0.8022779E+02  0.7818608E-02  0.1328406E+00
          2   -1    0    0  501    0  0.00000000000E+00  0.00000000000E+00  0.57094049842E+02  0.57094049899E+02  0.25500000000E-02 0. -1.
         -1   -1    0    0    0  501 -0.00000000000E+00 -0.00000000000E+00 -0.28183755397E+02  0.28183755848E+02  0.50400000000E-02 0.  1.
         24    2    1    2    0    0  0.00000000000E+00  0.71054273576E-14  0.28910294445E+02  0.85277805746E+02  0.80227794610E+02 0.  0.
         66    2    3    3    0    0  0.77078095775E+01  0.37938498513E+02  0.25529969363E+02  0.46416800103E+02  0.19999995485E+01 0.  0.
        -13    1    3    3    0    0 -0.77078095775E+01 -0.37938498513E+02  0.33803250822E+01  0.38861005644E+02  0.10566000000E+00 0.  1.
         13    1    4    4    0    0  0.46138268996E+01  0.26314955471E+02  0.17996323571E+02  0.32212468179E+02  0.10566000000E+00 0. -1.
        -13    1    4    4    0    0  0.13524613566E+01  0.43693440657E+01  0.30910634771E+01  0.55214270565E+01  0.10566000000E+00 0.  1.
         14    1    4    4    0    0  0.17415213213E+01  0.72541989767E+01  0.44425823144E+01  0.86829048668E+01  0.00000000000E+00 0. -1.
<mgrwt>
<rscale>  0 0.80227795E+02</rscale>
<asrwt>0</asrwt>
<pdfrwt beam="1">  1        2 0.87837000E-02 0.80227795E+02</pdfrwt>
<pdfrwt beam="2">  1       -1 0.43359624E-02 0.80227795E+02</pdfrwt>
<totfact> 0.15271368E+05</totfact>
</mgrwt>
</event>
<event>
 8    1  0.2389776E-020  0.8086407E+02  0.7818608E-02  0.1326617E+00
          2   -1    0    0  501    0  0.00000000000E+00  0.00000000000E+00  0.21906441256E+02  0.21906441404E+02  0.25500000000E-02 0. -1.
         -1   -1    0    0    0  501 -0.00000000000E+00 -0.00000000000E+00 -0.74624141182E+02  0.74624141352E+02  0.50400000000E-02 0.  1.
         24    2    1    2    0    0  0.00000000000E+00  0.00000000000E+00 -0.52717699926E+02  0.96530582757E+02  0.80864068175E+02 0.  0.
         66    2    3    3    0    0 -0.15127509599E+02  0.36845663380E+02 -0.34497613953E+02  0.52730729407E+02  0.19999996798E+01 0.  0.
        -13    1    3    3    0    0  0.15127509599E+02 -0.36845663380E+02 -0.18220085973E+02  0.43799853350E+02  0.10566000000E+00 0.  1.
         13    1    4    4    0    0 -0.28112395776E+01  0.69052655645E+01 -0.73006423031E+01  0.10435339120E+02  0.10566000000E+00 0.  1.
        -13    1    4    4    0    0 -0.79176116190E+01  0.20306465216E+02 -0.18665491167E+02  0.28695867784E+02  0.10566000000E+00 0. -1.
        -14    1    4    4    0    0 -0.43986584021E+01  0.96339326001E+01 -0.85314804825E+01  0.13599522503E+02  0.00000000000E+00 0.  1.
<mgrwt>
<rscale>  0 0.80864068E+02</rscale>
<asrwt>0</asrwt>
<pdfrwt beam="1">  1        2 0.33702218E-02 0.80864068E+02</pdfrwt>
<pdfrwt beam="2">  1       -1 0.11480637E-01 0.80864068E+02</pdfrwt>
<totfact> 0.12262528E+05</totfact>
</mgrwt>
</event>
<event>
 8    1  0.2389776E-020  0.7819340E+02  0.7818608E-02  0.1334258E+00
         -1   -1    0    0    0  501 -0.00000000000E+00  0.00000000000E+00  0.15190489848E+03  0.15190489856E+03  0.50400000000E-02 0.  1.
          2   -1    0    0  501    0  0.00000000000E+00 -0.00000000000E+00 -0.10062557647E+02  0.10062557970E+02  0.25500000000E-02 0. -1.
         24    2    1    2    0    0  0.00000000000E+00  0.35527136788E-14  0.14184234083E+03  0.16196745653E+03  0.78193396927E+02 0.  0.
         66    2    3    3    0    0 -0.26147975248E+02  0.23435700844E+02  0.35475118599E+02  0.49954306353E+02  0.19999999914E+01 0.  0.
        -13    1    3    3    0    0  0.26147975248E+02 -0.23435700844E+02  0.10636722223E+03  0.11201315018E+03  0.10566000000E+00 0.  1.
         13    1    4    4    0    0 -0.53635796517E+01  0.47742448757E+01  0.81265851775E+01  0.10844996611E+02  0.10566000000E+00 0. -1.
        -13    1    4    4    0    0 -0.10695828405E+02  0.10369019710E+02  0.14693818838E+02  0.20924549961E+02  0.10566000000E+00 0.  1.
         14    1    4    4    0    0 -0.10088567191E+02  0.82924362582E+01  0.12654714584E+02  0.18184759780E+02  0.00000000000E+00 0. -1.
<mgrwt>
<rscale>  0 0.78193397E+02</rscale>
<asrwt>0</asrwt>
<pdfrwt beam="1">  1        2 0.15480859E-02 0.78193397E+02</pdfrwt>
<pdfrwt beam="2">  1       -1 0.23369984E-01 0.78193397E+02</pdfrwt>
<totfact> 0.11391577E+05</totfact>
</mgrwt>
</event>
<event>
 8    1  0.2389776E-020  0.7981872E+02  0.7818608E-02  0.1329567E+00
         -1   -1    0    0    0  501 -0.00000000000E+00  0.00000000000E+00  0.44331168004E+01  0.44331196654E+01  0.50400000000E-02 0.  1.
          2   -1    0    0  501    0  0.00000000000E+00 -0.00000000000E+00 -0.35928596361E+03  0.35928596362E+03  0.25500000000E-02 0. -1.
         24    2    1    2    0    0  0.71054273576E-14  0.00000000000E+00 -0.35485284681E+03  0.36371908328E+03  0.79818723720E+02 0.  0.
         66    2    3    3    0    0  0.29648820368E+02 -0.26657090903E+02 -0.18231487970E+03  0.18663431741E+03  0.20000080982E+01 0.  0.
        -13    1    3    3    0    0 -0.29648820368E+02  0.26657090903E+02 -0.17253796711E+03  0.17708476587E+03  0.10566000000E+00 0.  1.
         13    1    4    4    0    0  0.13892481698E+02 -0.13385740357E+02 -0.90151401463E+02  0.92192545482E+02  0.10566000000E+00 0. -1.
        -13    1    4    4    0    0  0.80509145906E+01 -0.71924934229E+01 -0.49594087905E+02  0.50755629309E+02  0.10566000000E+00 0.  1.
        -14    1    4    4    0    0  0.77054240792E+01 -0.60788571230E+01 -0.42569390330E+02  0.43686142622E+02  0.00000000000E+00 0.  1.
<mgrwt>
<rscale>  0 0.79818724E+02</rscale>
<asrwt>0</asrwt>
<pdfrwt beam="1">  1        2 0.55274741E-01 0.79818724E+02</pdfrwt>
<pdfrwt beam="2">  1       -1 0.68201847E-03 0.79818724E+02</pdfrwt>
<totfact> 0.27364094E+05</totfact>
</mgrwt>
</event>
<event>
 8    1  0.2389776E-020  0.8174227E+02  0.7818608E-02  0.1324179E+00
         -1   -1    0    0    0  501 -0.00000000000E+00  0.00000000000E+00  0.10370703184E+02  0.10370704408E+02  0.50400000000E-02 0.  1.
          2   -1    0    0  501    0  0.00000000000E+00 -0.00000000000E+00 -0.16107390471E+03  0.16107390473E+03  0.25500000000E-02 0. -1.
         24    2    1    2    0    0  0.17763568394E-14  0.71054273576E-14 -0.15070320152E+03  0.17144460913E+03  0.81742272125E+02 0.  0.
         66    2    3    3    0    0 -0.80250843106E+01 -0.34418539110E+02 -0.11834972664E+03  0.12353014040E+03  0.19999950503E+01 0.  0.
        -13    1    3    3    0    0  0.80250843106E+01  0.34418539110E+02 -0.32353474887E+02  0.47914468733E+02  0.10566000000E+00 0.  1.
         13    1    4    4    0    0 -0.19812533623E+01 -0.87624855474E+01 -0.28665313726E+02  0.30040271185E+02  0.10566000000E+00 0. -1.
        -13    1    4    4    0    0 -0.24871507922E+01 -0.12906714884E+02 -0.42814664031E+02  0.44787005127E+02  0.10566000000E+00 0.  1.
        -14    1    4    4    0    0 -0.35566801561E+01 -0.12749338679E+02 -0.46869748879E+02  0.48702864089E+02  0.00000000000E+00 0.  1.
<mgrwt>
<rscale>  0 0.81742272E+02</rscale>
<asrwt>0</asrwt>
<pdfrwt beam="1">  1        2 0.24780599E-01 0.81742272E+02</pdfrwt>
<pdfrwt beam="2">  1       -1 0.15954930E-02 0.81742272E+02</pdfrwt>
<totfact> 0.19361111E+05</totfact>
</mgrwt>
</event>
<event>
 8    1  0.2389776E-020  0.7689128E+02  0.7818608E-02  0.1338112E+00
         -1   -1    0    0    0  501 -0.00000000000E+00  0.00000000000E+00  0.15883130776E+03  0.15883130784E+03  0.50400000000E-02 0.  1.
          2   -1    0    0  501    0  0.00000000000E+00 -0.00000000000E+00 -0.93058934463E+01  0.93058937957E+01  0.25500000000E-02 0. -1.
         24    2    1    2    0    0  0.00000000000E+00  0.00000000000E+00  0.14952541432E+03  0.16813720164E+03  0.76891280704E+02 0.  0.
         66    2    3    3    0    0 -0.20688785385E+02 -0.16709858495E+02  0.14181658176E+02  0.30205375355E+02  0.20000150162E+01 0.  0.
        -13    1    3    3    0    0  0.20688785385E+02  0.16709858495E+02  0.13534375614E+03  0.13793182628E+03  0.10566000000E+00 0.  1.
         13    1    4    4    0    0 -0.91261724021E+01 -0.72538392924E+01  0.59869243397E+01  0.13105709988E+02  0.10566000000E+00 0. -1.
        -13    1    4    4    0    0 -0.66693509618E+01 -0.62492296935E+01  0.45920188122E+01  0.10228925399E+02  0.10566000000E+00 0.  1.
        -14    1    4    4    0    0 -0.48932620215E+01 -0.32067895093E+01  0.36027150240E+01  0.68707399683E+01  0.00000000000E+00 0.  1.
<mgrwt>
<rscale>  0 0.76891281E+02</rscale>
<asrwt>0</asrwt>
<pdfrwt beam="1">  1        2 0.14316760E-02 0.76891281E+02</pdfrwt>
<pdfrwt beam="2">  1       -1 0.24435585E-01 0.76891281E+02</pdfrwt>
<totfact> 0.11749826E+05</totfact>
</mgrwt>
</event>
<event>
 8    1  0.2389776E-020  0.7979088E+02  0.7818608E-02  0.1329646E+00
         -1   -1    0    0    0  501 -0.00000000000E+00  0.00000000000E+00  0.54955962706E+01  0.54955985816E+01  0.50400000000E-02 0.  1.
          2   -1    0    0  501    0  0.00000000000E+00 -0.00000000000E+00 -0.28962204383E+03  0.28962204384E+03  0.25500000000E-02 0. -1.
         24    2    1    2    0    0 -0.17763568394E-14  0.17763568394E-14 -0.28412644756E+03  0.29511764242E+03  0.79790880847E+02 0.  0.
         66    2    3    3    0    0  0.12505942826E+02 -0.11601807900E+02 -0.27543880605E+03  0.27597379663E+03  0.19999992605E+01 0.  0.
        -13    1    3    3    0    0 -0.12505942826E+02  0.11601807900E+02 -0.86876415054E+01  0.19143845786E+02  0.10566000000E+00 0.  1.
         13    1    4    4    0    0  0.28953052230E+01 -0.23169902053E+01 -0.51373587095E+02  0.51507357251E+02  0.10566000000E+00 0. -1.
        -13    1    4    4    0    0  0.74249606676E+00 -0.49253000597E+00 -0.11688468269E+02  0.11722855485E+02  0.10566000000E+00 0.  1.
         14    1    4    4    0    0  0.88681415361E+01 -0.87922876892E+01 -0.21237675069E+03  0.21274358390E+03  0.00000000000E+00 0. -1.
<mgrwt>
<rscale>  0 0.79790881E+02</rscale>
<asrwt>0</asrwt>
<pdfrwt beam="1">  1        2 0.44557226E-01 0.79790881E+02</pdfrwt>
<pdfrwt beam="2">  1       -1 0.84547675E-03 0.79790881E+02</pdfrwt>
<totfact> 0.25344839E+05</totfact>
</mgrwt>
</event>
<event>
 8    1  0.2389776E-020  0.7892909E+02  0.7818608E-02  0.1332118E+00
          2   -1    0    0  501    0  0.00000000000E+00  0.00000000000E+00  0.22593368196E+03  0.22593368198E+03  0.25500000000E-02 0. -1.
         -1   -1    0    0    0  501 -0.00000000000E+00 -0.00000000000E+00 -0.68933943731E+01  0.68933962155E+01  0.50400000000E-02 0.  1.
         24    2    1    2    0    0  0.00000000000E+00 -0.13877787808E-16  0.21904028759E+03  0.23282707819E+03  0.78929086859E+02 0.  0.
         66    2    3    3    0    0  0.15303021607E+02  0.10949523970E+00  0.21681353554E+03  0.21736214857E+03  0.19999946754E+01 0.  0.
        -13    1    3    3    0    0 -0.15303021607E+02 -0.10949523970E+00  0.22267520519E+01  0.15464929624E+02  0.10566000000E+00 0.  1.
         13    1    4    4    0    0  0.85535975405E+01 -0.14603590150E+00  0.12985770422E+03  0.13013923262E+03  0.10566000000E+00 0.  1.
        -13    1    4    4    0    0  0.29299787225E+01 -0.35121394320E+00  0.37175540101E+02  0.37292627588E+02  0.10566000000E+00 0. -1.
         14    1    4    4    0    0  0.38194453445E+01  0.60674508440E+00  0.49780291222E+02  0.49930288368E+02  0.00000000000E+00 0. -1.
<mgrwt>
<rscale>  0 0.78929087E+02</rscale>
<asrwt>0</asrwt>
<pdfrwt beam="1">  1        2 0.34759032E-01 0.78929087E+02</pdfrwt>
<pdfrwt beam="2">  1       -1 0.10605222E-02 0.78929087E+02</pdfrwt>
<totfact> 0.23853947E+05</totfact>
</mgrwt>
</event>
<event>
 8    1  0.2389776E-020  0.8066017E+02  0.7818608E-02  0.1327188E+00
          2   -1    0    0  501    0  0.00000000000E+00  0.00000000000E+00  0.30444009378E+02  0.30444009485E+02  0.25500000000E-02 0. -1.
         -1   -1    0    0    0  501 -0.00000000000E+00 -0.00000000000E+00 -0.53426468745E+02  0.53426468983E+02  0.50400000000E-02 0.  1.
         24    2    1    2    0    0  0.00000000000E+00  0.17763568394E-14 -0.22982459367E+02  0.83870478468E+02  0.80660174311E+02 0.  0.
         66    2    3    3    0    0 -0.77551024557E+01 -0.14468025596E+02  0.26777757745E+02  0.31472427456E+02  0.20000003401E+01 0.  0.
        -13    1    3    3    0    0  0.77551024557E+01  0.14468025596E+02 -0.49760217112E+02  0.52398051012E+02  0.10566000000E+00 0.  1.
         13    1    4    4    0    0 -0.26846168360E+01 -0.51161787056E+01  0.79992589014E+01  0.98682196526E+01  0.10566000000E+00 0.  1.
        -13    1    4    4    0    0 -0.76496999317E+00 -0.22233668096E+01  0.42435195501E+01  0.48525417327E+01  0.10566000000E+00 0. -1.
        -14    1    4    4    0    0 -0.43055156265E+01 -0.71284800813E+01  0.14534979293E+02  0.16751666071E+02  0.00000000000E+00 0.  1.
<mgrwt>
<rscale>  0 0.80660174E+02</rscale>
<asrwt>0</asrwt>
<pdfrwt beam="1">  1        2 0.46836937E-02 0.80660174E+02</pdfrwt>
<pdfrwt beam="2">  1       -1 0.82194568E-02 0.80660174E+02</pdfrwt>
<totfact> 0.13187055E+05</totfact>
</mgrwt>
</event>
<event>
 8    1  0.2389776E-020  0.7829122E+02  0.7818608E-02  0.1333972E+00
         -1   -1    0    0    0  501 -0.00000000000E+00  0.00000000000E+00  0.33929054723E+01  0.33929092157E+01  0.50400000000E-02 0.  1.
          2   -1    0    0  501    0  0.00000000000E+00 -0.00000000000E+00 -0.45164174892E+03  0.45164174893E+03  0.25500000000E-02 0. -1.
         24    2    1    2    0    0  0.00000000000E+00  0.00000000000E+00 -0.44824884345E+03  0.45503465815E+03  0.78291215721E+02 0.  0.
         66    2    3    3    0    0  0.17138821419E+02  0.27552122345E+02 -0.35127648591E+03  0.35277759024E+03  0.19999945019E+01 0.  0.
        -13    1    3    3    0    0 -0.17138821419E+02 -0.27552122345E+02 -0.96972357538E+02  0.10225706790E+03  0.10566000000E+00 0.  1.
         13    1    4    4    0    0  0.88633310581E+01  0.12805468731E+02 -0.17104793454E+03  0.17175548242E+03  0.10566000000E+00 0. -1.
        -13    1    4    4    0    0  0.58177509802E+01  0.11068716303E+02 -0.13459587063E+03  0.13517552390E+03  0.10566000000E+00 0.  1.
        -14    1    4    4    0    0  0.24577393808E+01  0.36779373103E+01 -0.45632680750E+02  0.45846583931E+02  0.00000000000E+00 0.  1.
<mgrwt>
<rscale>  0 0.78291216E+02</rscale>
<asrwt>0</asrwt>
<pdfrwt beam="1">  1        2 0.69483298E-01 0.78291216E+02</pdfrwt>
<pdfrwt beam="2">  1       -1 0.52198610E-03 0.78291216E+02</pdfrwt>
<totfact> 0.31159286E+05</totfact>
</mgrwt>
</event>
<event>
 8    1  0.2389776E-020  0.7957448E+02  0.7818608E-02  0.1330263E+00
         -1   -1    0    0    0  501 -0.00000000000E+00  0.00000000000E+00  0.97358941275E+01  0.97358954320E+01  0.50400000000E-02 0.  1.
          2   -1    0    0  501    0  0.00000000000E+00 -0.00000000000E+00 -0.16259672438E+03  0.16259672440E+03  0.25500000000E-02 0. -1.
         24    2    1    2    0    0  0.00000000000E+00  0.00000000000E+00 -0.15286083025E+03  0.17233261983E+03  0.79574483553E+02 0.  0.
         66    2    3    3    0    0  0.32523395275E+02  0.21691023634E+02 -0.92207387488E+02  0.10017222190E+03  0.19999966096E+01 0.  0.
        -13    1    3    3    0    0 -0.32523395275E+02 -0.21691023634E+02 -0.60653442765E+02  0.72160397933E+02  0.10566000000E+00 0.  1.
         13    1    4    4    0    0  0.20805111540E+02  0.13919824820E+02 -0.61061836545E+02  0.65993736335E+02  0.10566000000E+00 0. -1.
        -13    1    4    4    0    0  0.26660948381E+01  0.15130004653E+01 -0.64804325741E+01  0.71696863583E+01  0.10566000000E+00 0.  1.
         14    1    4    4    0    0  0.90521888968E+01  0.62581983489E+01 -0.24665118369E+02  0.27008799206E+02  0.00000000000E+00 0. -1.
<mgrwt>
<rscale>  0 0.79574484E+02</rscale>
<asrwt>0</asrwt>
<pdfrwt beam="1">  1        2 0.25014879E-01 0.79574484E+02</pdfrwt>
<pdfrwt beam="2">  1       -1 0.14978301E-02 0.79574484E+02</pdfrwt>
<totfact> 0.20855976E+05</totfact>
</mgrwt>
</event>
<event>
 8    1  0.2389776E-020  0.7931236E+02  0.7818608E-02  0.1331014E+00
          2   -1    0    0  501    0  0.00000000000E+00  0.00000000000E+00  0.46835822852E+03  0.46835822853E+03  0.25500000000E-02 0. -1.
         -1   -1    0    0    0  501 -0.00000000000E+00 -0.00000000000E+00 -0.33577109289E+01  0.33577147115E+01  0.50400000000E-02 0.  1.
         24    2    1    2    0    0  0.00000000000E+00  0.00000000000E+00  0.46500051759E+03  0.47171594324E+03  0.79312355566E+02 0.  0.
         66    2    3    3    0    0  0.54983676358E+00 -0.15493321539E+02  0.44957204915E+03  0.44984372033E+03  0.20000011332E+01 0.  0.
        -13    1    3    3    0    0 -0.54983676358E+00  0.15493321539E+02  0.15428468440E+02  0.21872222914E+02  0.10566000000E+00 0.  1.
         13    1    4    4    0    0 -0.25194895281E+00 -0.16183102141E+01  0.56011302854E+02  0.56035342576E+02  0.10566000000E+00 0. -1.
        -13    1    4    4    0    0 -0.13305098916E+00 -0.57798749728E+01  0.15035097827E+03  0.15046212974E+03  0.10566000000E+00 0.  1.
         14    1    4    4    0    0  0.93483670555E+00 -0.80951363517E+01  0.24320976804E+03  0.24334624801E+03  0.00000000000E+00 0. -1.
<mgrwt>
<rscale>  0 0.79312356E+02</rscale>
<asrwt>0</asrwt>
<pdfrwt beam="1">  1        2 0.72055107E-01 0.79312356E+02</pdfrwt>
<pdfrwt beam="2">  1       -1 0.51657124E-03 0.79312356E+02</pdfrwt>
<totfact> 0.30490987E+05</totfact>
</mgrwt>
</event>
<event>
 8    1  0.2389776E-020  0.7767788E+02  0.7818608E-02  0.1335773E+00
         -1   -1    0    0    0  501 -0.00000000000E+00  0.00000000000E+00  0.17743459888E+02  0.17743460604E+02  0.50400000000E-02 0.  1.
          2   -1    0    0  501    0  0.00000000000E+00 -0.00000000000E+00 -0.85015178537E+02  0.85015178575E+02  0.25500000000E-02 0. -1.
         24    2    1    2    0    0 -0.35527136788E-14  0.44408920985E-15 -0.67271718649E+02  0.10275863918E+03  0.77677884859E+02 0.  0.
         66    2    3    3    0    0 -0.19953077732E+02  0.37081183078E+01 -0.77424947852E+02  0.80065585624E+02  0.19999997837E+01 0.  0.
        -13    1    3    3    0    0  0.19953077732E+02 -0.37081183078E+01  0.10153229203E+02  0.22693053555E+02  0.10566000000E+00 0.  1.
         13    1    4    4    0    0 -0.31390103880E+01  0.74648292453E+00 -0.14247170737E+02  0.14608342172E+02  0.10566000000E+00 0.  1.
        -13    1    4    4    0    0 -0.12859988803E+02  0.17171294946E+01 -0.47283124155E+02  0.49030937577E+02  0.10566000000E+00 0.  1.
         14    1    4    4    0    0 -0.39540785412E+01  0.12445058887E+01 -0.15894652960E+02  0.16426305876E+02  0.00000000000E+00 0. -1.
<mgrwt>
<rscale>  0 0.77677885E+02</rscale>
<asrwt>0</asrwt>
<pdfrwt beam="1">  1        2 0.13079258E-01 0.77677885E+02</pdfrwt>
<pdfrwt beam="2">  1       -1 0.27297632E-02 0.77677885E+02</pdfrwt>
<totfact> 0.18358036E+05</totfact>
</mgrwt>
</event>
<event>
 8    1  0.2389776E-020  0.7797086E+02  0.7818608E-02  0.1334910E+00
          2   -1    0    0  501    0  0.00000000000E+00  0.00000000000E+00  0.46560675901E+03  0.46560675902E+03  0.25500000000E-02 0. -1.
         -1   -1    0    0    0  501 -0.00000000000E+00 -0.00000000000E+00 -0.32642624560E+01  0.32642663468E+01  0.50400000000E-02 0.  1.
         24    2    1    2    0    0  0.00000000000E+00  0.00000000000E+00  0.46234249655E+03  0.46887102536E+03  0.77970855490E+02 0.  0.
         66    2    3    3    0    0 -0.18573684772E+02  0.32744278319E+02  0.29166390516E+03  0.29409012751E+03  0.19999999652E+01 0.  0.
        -13    1    3    3    0    0  0.18573684772E+02 -0.32744278319E+02  0.17067859140E+03  0.17478089785E+03  0.10566000000E+00 0.  1.
         13    1    4    4    0    0 -0.75488724434E+01  0.14166775954E+02  0.12431041980E+03  0.12534262903E+03  0.10566000000E+00 0. -1.
        -13    1    4    4    0    0 -0.10357089947E+02  0.16689971981E+02  0.15225670695E+03  0.15351853456E+03  0.10566000000E+00 0.  1.
        -14    1    4    4    0    0 -0.66772238173E+00  0.18875303843E+01  0.15096778404E+02  0.15228963927E+02  0.00000000000E+00 0.  1.
<mgrwt>
<rscale>  0 0.77970855E+02</rscale>
<asrwt>0</asrwt>
<pdfrwt beam="1">  1        2 0.71631756E-01 0.77970855E+02</pdfrwt>
<pdfrwt beam="2">  1       -1 0.50219490E-03 0.77970855E+02</pdfrwt>
<totfact> 0.31813834E+05</totfact>
</mgrwt>
</event>
<event>
 8    1  0.2389776E-020  0.7950763E+02  0.7818608E-02  0.1330455E+00
         -1   -1    0    0    0  501 -0.00000000000E+00  0.00000000000E+00  0.57392126685E+01  0.57392148815E+01  0.50400000000E-02 0.  1.
          2   -1    0    0  501    0  0.00000000000E+00 -0.00000000000E+00 -0.27536278785E+03  0.27536278786E+03  0.25500000000E-02 0. -1.
         24    2    1    2    0    0 -0.71054273576E-14  0.00000000000E+00 -0.26962357518E+03  0.28110200274E+03  0.79507632669E+02 0.  0.
         66    2    3    3    0    0 -0.34455994925E+02  0.18605979259E+02 -0.11118953818E+03  0.11790043016E+03  0.19999949268E+01 0.  0.
        -13    1    3    3    0    0  0.34455994925E+02 -0.18605979259E+02 -0.15843403699E+03  0.16320157258E+03  0.10566000000E+00 0.  1.
         13    1    4    4    0    0 -0.63690474013E+00  0.62113340454E+00 -0.27066280233E+01  0.28510443081E+01  0.10566000000E+00 0.  1.
        -13    1    4    4    0    0 -0.14294184807E+02  0.74793075449E+01 -0.46802644151E+02  0.49505175731E+02  0.10566000000E+00 0. -1.
         14    1    4    4    0    0 -0.19524905378E+02  0.10505538310E+02 -0.61680266011E+02  0.65544210121E+02  0.00000000000E+00 0. -1.
<mgrwt>
<rscale>  0 0.79507633E+02</rscale>
<asrwt>0</asrwt>
<pdfrwt beam="1">  1        2 0.42363496E-01 0.79507633E+02</pdfrwt>
<pdfrwt beam="2">  1       -1 0.88295618E-03 0.79507633E+02</pdfrwt>
<totfact> 0.25118878E+05</totfact>
</mgrwt>
</event>
<event>
 8    1  0.2389776E-020  0.8101498E+02  0.7818608E-02  0.1326196E+00
         -1   -1    0    0    0  501 -0.00000000000E+00  0.00000000000E+00  0.10900080452E+01  0.10900196971E+01  0.50400000000E-02 0.  1.
          2   -1    0    0  501    0  0.00000000000E+00 -0.00000000000E+00 -0.15053539169E+04  0.15053539169E+04  0.25500000000E-02 0. -1.
         24    2    1    2    0    0  0.00000000000E+00 -0.17763568394E-14 -0.15042639089E+04  0.15064439366E+04  0.81014977836E+02 0.  0.
         66    2    3    3    0    0  0.14361215223E+02  0.98395616398E+01 -0.14321943945E+04  0.14323015902E+04  0.19999970471E+01 0.  0.
        -13    1    3    3    0    0 -0.14361215223E+02 -0.98395616398E+01 -0.72069514354E+02  0.74142346464E+02  0.10566000000E+00 0.  1.
         13    1    4    4    0    0  0.62097172398E+01  0.46997143308E+01 -0.59874913532E+03  0.59879978801E+03  0.10566000000E+00 0.  1.
        -13    1    4    4    0    0  0.64678932834E+01  0.36561766514E+01 -0.60915668650E+03  0.60920200356E+03  0.10566000000E+00 0. -1.
        -14    1    4    4    0    0  0.16836047002E+01  0.14836706575E+01 -0.22428857270E+03  0.22429979859E+03  0.00000000000E+00 0.  1.
<mgrwt>
<rscale>  0 0.81014978E+02</rscale>
<asrwt>0</asrwt>
<pdfrwt beam="1">  1        2 0.23159125E+00 0.81014978E+02</pdfrwt>
<pdfrwt beam="2">  1       -1 0.16769565E-03 0.81014978E+02</pdfrwt>
<totfact> 0.32135537E+05</totfact>
</mgrwt>
</event>
<event>
 8    1  0.2389776E-020  0.8002967E+02  0.7818608E-02  0.1328967E+00
          2   -1    0    0  501    0  0.00000000000E+00  0.00000000000E+00  0.81258105511E+02  0.81258105551E+02  0.25500000000E-02 0. -1.
         -1   -1    0    0    0  501 -0.00000000000E+00 -0.00000000000E+00 -0.19704952029E+02  0.19704952674E+02  0.50400000000E-02 0.  1.
         24    2    1    2    0    0 -0.88817841970E-15  0.00000000000E+00  0.61553153481E+02  0.10096305822E+03  0.80029672139E+02 0.  0.
         66    2    3    3    0    0 -0.66113597199E+01  0.17466281333E+02  0.75406145498E+02  0.77710152755E+02  0.20000003217E+01 0.  0.
        -13    1    3    3    0    0  0.66113597199E+01 -0.17466281333E+02 -0.13852992017E+02  0.23252905470E+02  0.10566000000E+00 0.  1.
         13    1    4    4    0    0 -0.82394142016E+00  0.23084689751E+01  0.11491474001E+02  0.11750448809E+02  0.10566000000E+00 0. -1.
        -13    1    4    4    0    0 -0.17574303325E+01  0.63353311183E+01  0.24143237715E+02  0.25022631220E+02  0.10566000000E+00 0.  1.
         14    1    4    4    0    0 -0.40299879673E+01  0.88224812393E+01  0.39771433782E+02  0.40937072725E+02  0.00000000000E+00 0. -1.
<mgrwt>
<rscale>  0 0.80029672E+02</rscale>
<asrwt>0</asrwt>
<pdfrwt beam="1">  1        2 0.12501247E-01 0.80029672E+02</pdfrwt>
<pdfrwt beam="2">  1       -1 0.30315311E-02 0.80029672E+02</pdfrwt>
<totfact> 0.16746165E+05</totfact>
</mgrwt>
</event>
<event>
 8    1  0.2389776E-020  0.7949304E+02  0.7818608E-02  0.1330496E+00
         -1   -1    0    0    0  501 -0.00000000000E+00  0.00000000000E+00  0.73902170026E+00  0.73903888603E+00  0.50400000000E-02 0.  1.
          2   -1    0    0  501    0  0.00000000000E+00 -0.00000000000E+00 -0.21376469424E+04  0.21376469424E+04  0.25500000000E-02 0. -1.
         24    2    1    2    0    0 -0.17763568394E-14 -0.88817841970E-15 -0.21369079207E+04  0.21383859813E+04  0.79493040059E+02 0.  0.
         66    2    3    3    0    0 -0.10660783018E+02 -0.53098675390E+01 -0.20884804942E+04  0.20885154109E+04  0.19999991686E+01 0.  0.
        -13    1    3    3    0    0  0.10660783018E+02  0.53098675390E+01 -0.48427426565E+02  0.49870570436E+02  0.10566000000E+00 0.  1.
         13    1    4    4    0    0 -0.14596708963E+01 -0.50129931622E+00 -0.26684987974E+03  0.26685436369E+03  0.10566000000E+00 0. -1.
        -13    1    4    4    0    0 -0.17883343138E+01 -0.29528014850E+00 -0.37581200405E+03  0.37581638986E+03  0.10566000000E+00 0.  1.
        -14    1    4    4    0    0 -0.74127778077E+01 -0.45132880743E+01 -0.14458186104E+04  0.14458446573E+04  0.00000000000E+00 0.  1.
<mgrwt>
<rscale>  0 0.79493040E+02</rscale>
<asrwt>0</asrwt>
<pdfrwt beam="1">  1        2 0.32886381E+00 0.79493040E+02</pdfrwt>
<pdfrwt beam="2">  1       -1 0.11369868E-03 0.79493040E+02</pdfrwt>
<totfact> 0.26383288E+05</totfact>
</mgrwt>
</event>
<event>
 8    1  0.2389776E-020  0.7640699E+02  0.7818608E-02  0.1339569E+00
          2   -1    0    0  501    0  0.00000000000E+00  0.00000000000E+00  0.59501515368E+02  0.59501515423E+02  0.25500000000E-02 0. -1.
         -1   -1    0    0    0  501 -0.00000000000E+00 -0.00000000000E+00 -0.24528906563E+02  0.24528907081E+02  0.50400000000E-02 0.  1.
         24    2    1    2    0    0  0.00000000000E+00  0.00000000000E+00  0.34972608805E+02  0.84030422504E+02  0.76406992739E+02 0.  0.
         66    2    3    3    0    0  0.25961016035E+02 -0.17260369160E+02  0.41733426351E+02  0.52130351735E+02  0.19999999561E+01 0.  0.
        -13    1    3    3    0    0 -0.25961016035E+02  0.17260369160E+02 -0.67608175463E+01  0.31900070769E+02  0.10566000000E+00 0.  1.
         13    1    4    4    0    0  0.17482192891E+02 -0.11061502849E+02  0.28086185789E+02  0.34883074832E+02  0.10566000000E+00 0. -1.
        -13    1    4    4    0    0  0.13720707802E+01 -0.72490245819E+00  0.24148825977E+01  0.28724351683E+01  0.10566000000E+00 0.  1.
        -14    1    4    4    0    0  0.71067523644E+01 -0.54739638532E+01  0.11232357964E+02  0.14374841734E+02  0.00000000000E+00 0.  1.
<mgrwt>
<rscale>  0 0.76406993E+02</rscale>
<asrwt>0</asrwt>
<pdfrwt beam="1">  1        2 0.91540793E-02 0.76406993E+02</pdfrwt>
<pdfrwt beam="2">  1       -1 0.37736780E-02 0.76406993E+02</pdfrwt>
<totfact> 0.17599106E+05</totfact>
</mgrwt>
</event>
<event>
 8    1  0.2389776E-020  0.8147298E+02  0.7818608E-02  0.1324923E+00
          2   -1    0    0  501    0  0.00000000000E+00  0.00000000000E+00  0.59852643630E+03  0.59852643630E+03  0.25500000000E-02 0. -1.
         -1   -1    0    0    0  501 -0.00000000000E+00 -0.00000000000E+00 -0.27725763340E+01  0.27725809149E+01  0.50400000000E-02 0.  1.
         24    2    1    2    0    0  0.00000000000E+00  0.17763568394E-14  0.59575385997E+03  0.60129901722E+03  0.81472979851E+02 0.  0.
         66    2    3    3    0    0  0.16028102417E+02  0.14469738025E+02  0.55277776980E+03  0.55320297918E+03  0.19999993996E+01 0.  0.
        -13    1    3    3    0    0 -0.16028102417E+02 -0.14469738025E+02  0.42976090162E+02  0.48096038041E+02  0.10566000000E+00 0.  1.
         13    1    4    4    0    0  0.15338645578E+01  0.98219100739E+00  0.41166361981E+02  0.41206770833E+02  0.10566000000E+00 0. -1.
        -13    1    4    4    0    0  0.77870685306E+01  0.70056410654E+01  0.25356833584E+03  0.25378461251E+03  0.10566000000E+00 0.  1.
         14    1    4    4    0    0  0.67071693290E+01  0.64819059523E+01  0.25804307198E+03  0.25821159583E+03  0.00000000000E+00 0. -1.
<mgrwt>
<rscale>  0 0.81472980E+02</rscale>
<asrwt>0</asrwt>
<pdfrwt beam="1">  1        2 0.92081030E-01 0.81472980E+02</pdfrwt>
<pdfrwt beam="2">  1       -1 0.42655037E-03 0.81472980E+02</pdfrwt>
<totfact> 0.30649874E+05</totfact>
</mgrwt>
</event>
<event>
 8    1  0.2389776E-020  0.8992112E+02  0.7818608E-02  0.1303043E+00
         -1   -1    0    0    0  501 -0.00000000000E+00  0.00000000000E+00  0.95163330778E+02  0.95163330912E+02  0.50400000000E-02 0.  1.
          2   -1    0    0  501    0  0.00000000000E+00 -0.00000000000E+00 -0.21241918849E+02  0.21241919002E+02  0.25500000000E-02 0. -1.
         24    2    1    2    0    0  0.35527136788E-14  0.00000000000E+00  0.73921411929E+02  0.11640524991E+03  0.89921115796E+02 0.  0.
         66    2    3    3    0    0 -0.24341606546E+02  0.15410036589E+01 -0.11880780901E+02  0.27203703066E+02  0.20000010464E+01 0.  0.
        -13    1    3    3    0    0  0.24341606546E+02 -0.15410036589E+01  0.85802192830E+02  0.89201546848E+02  0.10566000000E+00 0.  1.
         13    1    4    4    0    0 -0.13915716027E+02  0.13126420853E+01 -0.72621629587E+01  0.15751836613E+02  0.10566000000E+00 0. -1.
        -13    1    4    4    0    0 -0.17445412274E+01  0.94248535021E-01 -0.38422273245E+00  0.17919536892E+01  0.10566000000E+00 0.  1.
        -14    1    4    4    0    0 -0.86813492912E+01  0.13411303853E+00 -0.42343952100E+01  0.96599127645E+01  0.00000000000E+00 0.  1.
<mgrwt>
<rscale>  0 0.89921116E+02</rscale>
<asrwt>0</asrwt>
<pdfrwt beam="1">  1        2 0.32679876E-02 0.89921116E+02</pdfrwt>
<pdfrwt beam="2">  1       -1 0.14640512E-01 0.89921116E+02</pdfrwt>
<totfact> 0.89584637E+04</totfact>
</mgrwt>
</event>
<event>
 8    1  0.2389776E-020  0.8030036E+02  0.7818608E-02  0.1328201E+00
          2   -1    0    0  501    0  0.00000000000E+00  0.00000000000E+00  0.76542717085E+01  0.76542721333E+01  0.25500000000E-02 0. -1.
         -1   -1    0    0    0  501 -0.00000000000E+00 -0.00000000000E+00 -0.21060619022E+03  0.21060619029E+03  0.50400000000E-02 0.  1.
         24    2    1    2    0    0  0.88817841970E-15 -0.35527136788E-14 -0.20295191852E+03  0.21826046242E+03  0.80300362550E+02 0.  0.
         66    2    3    3    0    0 -0.52505886160E+01  0.29245423781E+02 -0.28243601659E+02  0.41043446768E+02  0.19999987371E+01 0.  0.
        -13    1    3    3    0    0  0.52505886160E+01 -0.29245423781E+02 -0.17470831686E+03  0.17721701565E+03  0.10566000000E+00 0.  1.
         13    1    4    4    0    0 -0.51769317397E+01  0.27951314118E+02 -0.26562398997E+02  0.38905639536E+02  0.10566000000E+00 0. -1.
        -13    1    4    4    0    0 -0.12546746012E+00  0.53985821475E+00 -0.69734525316E+00  0.89701918223E+00  0.10566000000E+00 0.  1.
         14    1    4    4    0    0  0.51810583835E-01  0.75425144865E+00 -0.98385740858E+00  0.12407880499E+01  0.00000000000E+00 0. -1.
<mgrwt>
<rscale>  0 0.80300363E+02</rscale>
<asrwt>0</asrwt>
<pdfrwt beam="1">  1        2 0.11775805E-02 0.80300363E+02</pdfrwt>
<pdfrwt beam="2">  1       -1 0.32400948E-01 0.80300363E+02</pdfrwt>
<totfact> 0.97100857E+04</totfact>
</mgrwt>
</event>
<event>
 8    1  0.2389776E-020  0.8112851E+02  0.7818608E-02  0.1325879E+00
          2   -1    0    0  501    0  0.00000000000E+00  0.00000000000E+00  0.67210756400E+03  0.67210756401E+03  0.25500000000E-02 0. -1.
         -1   -1    0    0    0  501 -0.00000000000E+00 -0.00000000000E+00 -0.24482051223E+01  0.24482103101E+01  0.50400000000E-02 0.  1.
         24    2    1    2    0    0  0.00000000000E+00  0.00000000000E+00  0.66965935888E+03  0.67455577432E+03  0.81128513662E+02 0.  0.
         66    2    3    3    0    0  0.12263186247E+02  0.11766098041E+02  0.64105571482E+03  0.64128406836E+03  0.20000059201E+01 0.  0.
        -13    1    3    3    0    0 -0.12263186247E+02 -0.11766098041E+02  0.28603644061E+02  0.33271705963E+02  0.10566000000E+00 0.  1.
         13    1    4    4    0    0  0.48771980716E+01  0.41139693107E+01  0.24230232131E+03  0.24238634013E+03  0.10566000000E+00 0. -1.
        -13    1    4    4    0    0  0.58309947092E+01  0.52496242832E+01  0.30294583526E+03  0.30304743741E+03  0.10566000000E+00 0.  1.
        -14    1    4    4    0    0  0.15549934660E+01  0.24025044472E+01  0.95807558246E+02  0.95850290815E+02  0.00000000000E+00 0.  1.
<mgrwt>
<rscale>  0 0.81128514E+02</rscale>
<asrwt>0</asrwt>
<pdfrwt beam="1">  1        2 0.10340131E+00 0.81128514E+02</pdfrwt>
<pdfrwt beam="2">  1       -1 0.37664683E-03 0.81128514E+02</pdfrwt>
<totfact> 0.31946176E+05</totfact>
</mgrwt>
</event>
<event>
 8    1  0.2389776E-020  0.7952986E+02  0.7818608E-02  0.1330391E+00
         -1   -1    0    0    0  501 -0.00000000000E+00  0.00000000000E+00  0.67521763261E+01  0.67521782071E+01  0.50400000000E-02 0.  1.
          2   -1    0    0  501    0  0.00000000000E+00 -0.00000000000E+00 -0.23418368911E+03  0.23418368913E+03  0.25500000000E-02 0. -1.
         24    2    1    2    0    0  0.00000000000E+00  0.00000000000E+00 -0.22743151279E+03  0.24093586733E+03  0.79529863318E+02 0.  0.
         66    2    3    3    0    0 -0.32531132590E+02  0.21945440848E+02 -0.13279572395E+03  0.13848675483E+03  0.20000000295E+01 0.  0.
        -13    1    3    3    0    0  0.32531132590E+02 -0.21945440848E+02 -0.94635788832E+02  0.10244911251E+03  0.10566000000E+00 0.  1.
         13    1    4    4    0    0 -0.20404847756E+02  0.13396471239E+02 -0.81025793896E+02  0.84622772905E+02  0.10566000000E+00 0. -1.
        -13    1    4    4    0    0 -0.63476259128E+00  0.24157954949E+00 -0.20976830408E+01  0.22074243818E+01  0.10566000000E+00 0.  1.
        -14    1    4    4    0    0 -0.11491522243E+02  0.83073900599E+01 -0.49672247017E+02  0.51656557539E+02  0.00000000000E+00 0.  1.
<mgrwt>
<rscale>  0 0.79529863E+02</rscale>
<asrwt>0</asrwt>
<pdfrwt beam="1">  1        2 0.36028254E-01 0.79529863E+02</pdfrwt>
<pdfrwt beam="2">  1       -1 0.10387967E-02 0.79529863E+02</pdfrwt>
<totfact> 0.23682241E+05</totfact>
</mgrwt>
</event>
<event>
 8    1  0.2389776E-020  0.7904919E+02  0.7818608E-02  0.1331772E+00
         -1   -1    0    0    0  501 -0.00000000000E+00  0.00000000000E+00  0.36834960324E+02  0.36834960669E+02  0.50400000000E-02 0.  1.
          2   -1    0    0  501    0  0.00000000000E+00 -0.00000000000E+00 -0.42410625628E+02  0.42410625705E+02  0.25500000000E-02 0. -1.
         24    2    1    2    0    0  0.00000000000E+00 -0.35527136788E-14 -0.55756653041E+01  0.79245586374E+02  0.79049193014E+02 0.  0.
         66    2    3    3    0    0  0.27806678996E+02  0.23216303788E+02 -0.18576136504E+02  0.40758814961E+02  0.19999978010E+01 0.  0.
        -13    1    3    3    0    0 -0.27806678996E+02 -0.23216303788E+02  0.13000471200E+02  0.38486771413E+02  0.10566000000E+00 0.  1.
         13    1    4    4    0    0  0.16819564152E+02  0.13807499114E+02 -0.11640188372E+02  0.24678936757E+02  0.10566000000E+00 0. -1.
        -13    1    4    4    0    0  0.97399267763E+01  0.86959631515E+01 -0.64478640296E+01  0.14562694233E+02  0.10566000000E+00 0.  1.
         14    1    4    4    0    0  0.12471880671E+01  0.71284152244E+00 -0.48808410267E+00  0.15171839711E+01  0.00000000000E+00 0. -1.
<mgrwt>
<rscale>  0 0.79049193E+02</rscale>
<asrwt>0</asrwt>
<pdfrwt beam="1">  1        2 0.65247116E-02 0.79049193E+02</pdfrwt>
<pdfrwt beam="2">  1       -1 0.56669170E-02 0.79049193E+02</pdfrwt>
<totfact> 0.14911976E+05</totfact>
</mgrwt>
</event>
<event>
 8    1  0.2389776E-020  0.7573691E+02  0.7818608E-02  0.1341604E+00
         -1   -1    0    0    0  501 -0.00000000000E+00  0.00000000000E+00  0.32216468799E+01  0.32216508222E+01  0.50400000000E-02 0.  1.
          2   -1    0    0  501    0  0.00000000000E+00 -0.00000000000E+00 -0.44511987340E+03  0.44511987341E+03  0.25500000000E-02 0. -1.
         24    2    1    2    0    0  0.00000000000E+00  0.35527136788E-14 -0.44189822652E+03  0.44834152423E+03  0.75736911389E+02 0.  0.
         66    2    3    3    0    0  0.17609127627E+02  0.31502679365E+02 -0.28847192784E+03  0.29072762740E+03  0.19999998214E+01 0.  0.
        -13    1    3    3    0    0 -0.17609127627E+02 -0.31502679365E+02 -0.15342629869E+03  0.15761389684E+03  0.10566000000E+00 0.  1.
         13    1    4    4    0    0  0.68377033645E+01  0.11782312198E+02 -0.11491596047E+03  0.11572063862E+03  0.10566000000E+00 0. -1.
        -13    1    4    4    0    0  0.39247992388E+01  0.71753449964E+01 -0.66612789747E+02  0.67113072846E+02  0.10566000000E+00 0.  1.
        -14    1    4    4    0    0  0.68466250236E+01  0.12545022170E+02 -0.10694317762E+03  0.10789391593E+03  0.00000000000E+00 0.  1.
<mgrwt>
<rscale>  0 0.75736911E+02</rscale>
<asrwt>0</asrwt>
<pdfrwt beam="1">  1        2 0.68479932E-01 0.75736911E+02</pdfrwt>
<pdfrwt beam="2">  1       -1 0.49563864E-03 0.75736911E+02</pdfrwt>
<totfact> 0.33799685E+05</totfact>
</mgrwt>
</event>
<event>
 8    1  0.2389776E-020  0.7783726E+02  0.7818608E-02  0.1335303E+00
         -1   -1    0    0    0  501 -0.00000000000E+00  0.00000000000E+00  0.16982265563E+02  0.16982266311E+02  0.50400000000E-02 0.  1.
          2   -1    0    0  501    0  0.00000000000E+00 -0.00000000000E+00 -0.89190676560E+02  0.89190676596E+02  0.25500000000E-02 0. -1.
         24    2    1    2    0    0  0.00000000000E+00  0.00000000000E+00 -0.72208410997E+02  0.10617294291E+03  0.77837260915E+02 0.  0.
         66    2    3    3    0    0  0.92062220597E+01  0.35296754102E+02 -0.17724107248E+02  0.40604917972E+02  0.20000027564E+01 0.  0.
        -13    1    3    3    0    0 -0.92062220597E+01 -0.35296754102E+02 -0.54484303749E+02  0.65568024935E+02  0.10566000000E+00 0.  1.
         13    1    4    4    0    0  0.43493687843E+01  0.16731503928E+02 -0.81504258227E+01  0.19112844834E+02  0.10566000000E+00 0. -1.
        -13    1    4    4    0    0  0.32830219104E+01  0.14296443626E+02 -0.77513691771E+01  0.16591004230E+02  0.10566000000E+00 0.  1.
         14    1    4    4    0    0  0.15738313650E+01  0.42688065487E+01 -0.18223122482E+01  0.49010689084E+01  0.00000000000E+00 0. -1.
<mgrwt>
<rscale>  0 0.77837261E+02</rscale>
<asrwt>0</asrwt>
<pdfrwt beam="1">  1        2 0.13721642E-01 0.77837261E+02</pdfrwt>
<pdfrwt beam="2">  1       -1 0.26126564E-02 0.77837261E+02</pdfrwt>
<totfact> 0.18489585E+05</totfact>
</mgrwt>
</event>
<event>
 8    1  0.2389776E-020  0.7984534E+02  0.7818608E-02  0.1329491E+00
         -1   -1    0    0    0  501 -0.00000000000E+00  0.00000000000E+00  0.92059559698E+02  0.92059559836E+02  0.50400000000E-02 0.  1.
          2   -1    0    0  501    0  0.00000000000E+00 -0.00000000000E+00 -0.17312919603E+02  0.17312919791E+02  0.25500000000E-02 0. -1.
         24    2    1    2    0    0  0.00000000000E+00  0.35527136788E-14  0.74746640095E+02  0.10937247963E+03  0.79845344850E+02 0.  0.
         66    2    3    3    0    0 -0.16891426380E+02  0.31000747772E+02  0.11937201413E+02  0.37321085475E+02  0.19999989665E+01 0.  0.
        -13    1    3    3    0    0  0.16891426380E+02 -0.31000747772E+02  0.62809438682E+02  0.72051394152E+02  0.10566000000E+00 0.  1.
         13    1    4    4    0    0 -0.57821815466E+01  0.12123204618E+02  0.46431883436E+01  0.14211828724E+02  0.10566000000E+00 0. -1.
        -13    1    4    4    0    0 -0.12314918152E+01  0.20383334171E+01  0.47935863907E+00  0.24315270821E+01  0.10566000000E+00 0.  1.
        -14    1    4    4    0    0 -0.98777530183E+01  0.16839209737E+02  0.68146544305E+01  0.20677729669E+02  0.00000000000E+00 0.  1.
<mgrwt>
<rscale>  0 0.79845345E+02</rscale>
<asrwt>0</asrwt>
<pdfrwt beam="1">  1        2 0.26635261E-02 0.79845345E+02</pdfrwt>
<pdfrwt beam="2">  1       -1 0.14163009E-01 0.79845345E+02</pdfrwt>
<totfact> 0.12120522E+05</totfact>
</mgrwt>
</event>
<event>
 8    1  0.2389776E-020  0.7905173E+02  0.7818608E-02  0.1331764E+00
          2   -1    0    0  501    0  0.00000000000E+00  0.00000000000E+00  0.41470999833E+03  0.41470999833E+03  0.25500000000E-02 0. -1.
         -1   -1    0    0    0  501 -0.00000000000E+00 -0.00000000000E+00 -0.37671945440E+01  0.37671979155E+01  0.50400000000E-02 0.  1.
         24    2    1    2    0    0  0.11102230246E-15  0.35527136788E-14  0.41094280378E+03  0.41847719625E+03  0.79051728637E+02 0.  0.
         66    2    3    3    0    0  0.69086852668E+00  0.21501907050E+02  0.38097391545E+03  0.38158607621E+03  0.19999988274E+01 0.  0.
        -13    1    3    3    0    0 -0.69086852668E+00 -0.21501907050E+02  0.29968888330E+02  0.36891120041E+02  0.10566000000E+00 0.  1.
         13    1    4    4    0    0  0.22849121107E+00  0.10263065101E+02  0.19484506779E+03  0.19511533594E+03  0.10566000000E+00 0. -1.
        -13    1    4    4    0    0  0.12355381301E+00  0.45538271729E+00  0.10118286477E+02  0.10129833376E+02  0.10566000000E+00 0. -1.
         14    1    4    4    0    0  0.33882350260E+00  0.10783459231E+02  0.17601056118E+03  0.17634090689E+03  0.00000000000E+00 0. -1.
<mgrwt>
<rscale>  0 0.79051729E+02</rscale>
<asrwt>0</asrwt>
<pdfrwt beam="1">  1        2 0.63801518E-01 0.79051729E+02</pdfrwt>
<pdfrwt beam="2">  1       -1 0.57956884E-03 0.79051729E+02</pdfrwt>
<totfact> 0.29514952E+05</totfact>
</mgrwt>
</event>
<event>
 8    1  0.2389776E-020  0.8003177E+02  0.7818608E-02  0.1328961E+00
         -1   -1    0    0    0  501 -0.00000000000E+00  0.00000000000E+00  0.95084099369E+02  0.95084099502E+02  0.50400000000E-02 0.  1.
          2   -1    0    0  501    0  0.00000000000E+00 -0.00000000000E+00 -0.16840576209E+02  0.16840576402E+02  0.25500000000E-02 0. -1.
         24    2    1    2    0    0  0.00000000000E+00 -0.35527136788E-14  0.78243523159E+02  0.11192467590E+03  0.80031769692E+02 0.  0.
         66    2    3    3    0    0  0.16976667252E+02  0.16433950151E+02 -0.59755776775E+01  0.24453823283E+02  0.19999990072E+01 0.  0.
        -13    1    3    3    0    0 -0.16976667252E+02 -0.16433950151E+02  0.84219100837E+02  0.87470852622E+02  0.10566000000E+00 0.  1.
         13    1    4    4    0    0  0.71811416709E+00  0.91114451798E+00 -0.47186398488E+00  0.12568579655E+01  0.10566000000E+00 0. -1.
        -13    1    4    4    0    0  0.16185761902E+02  0.15202065390E+02 -0.54204321034E+01  0.22857688612E+02  0.10566000000E+00 0.  1.
        -14    1    4    4    0    0  0.72791183256E-01  0.32074024300E+00 -0.83281589233E-01  0.33927670557E+00  0.00000000000E+00 0.  1.
<mgrwt>
<rscale>  0 0.80031770E+02</rscale>
<asrwt>0</asrwt>
<pdfrwt beam="1">  1        2 0.25908578E-02 0.80031770E+02</pdfrwt>
<pdfrwt beam="2">  1       -1 0.14628323E-01 0.80031770E+02</pdfrwt>
<totfact> 0.11968918E+05</totfact>
</mgrwt>
</event>
<event>
 8    1  0.2389776E-020  0.8042108E+02  0.7818608E-02  0.1327861E+00
         -1   -1    0    0    0  501 -0.00000000000E+00  0.00000000000E+00  0.21127462609E+01  0.21127522724E+01  0.50400000000E-02 0.  1.
          2   -1    0    0  501    0  0.00000000000E+00 -0.00000000000E+00 -0.76530015597E+03  0.76530015598E+03  0.25500000000E-02 0. -1.
         24    2    1    2    0    0 -0.17763568394E-14  0.00000000000E+00 -0.76318740971E+03  0.76741290825E+03  0.80421075628E+02 0.  0.
         66    2    3    3    0    0 -0.11130152488E+02  0.11563222506E+02 -0.73338640243E+03  0.73356472354E+03  0.19999856170E+01 0.  0.
        -13    1    3    3    0    0  0.11130152488E+02 -0.11563222506E+02 -0.29801007279E+02  0.33848184708E+02  0.10566000000E+00 0.  1.
         13    1    4    4    0    0 -0.47387966677E+01  0.44293552572E+01 -0.31130192824E+03  0.31136951854E+03  0.10566000000E+00 0. -1.
        -13    1    4    4    0    0 -0.12770990492E+01  0.77246588480E+00 -0.58631341285E+02  0.58650430778E+02  0.10566000000E+00 0.  1.
         14    1    4    4    0    0 -0.51142567713E+01  0.63614013636E+01 -0.36345313290E+03  0.36354477423E+03  0.00000000000E+00 0. -1.
<mgrwt>
<rscale>  0 0.80421076E+02</rscale>
<asrwt>0</asrwt>
<pdfrwt beam="1">  1        2 0.11773826E+00 0.80421076E+02</pdfrwt>
<pdfrwt beam="2">  1       -1 0.32503896E-03 0.80421076E+02</pdfrwt>
<totfact> 0.33626337E+05</totfact>
</mgrwt>
</event>
<event>
 8    1  0.2389776E-020  0.7438509E+02  0.7818608E-02  0.1345786E+00
         -1   -1    0    0    0  501 -0.00000000000E+00  0.00000000000E+00  0.12876639758E+02  0.12876640744E+02  0.50400000000E-02 0.  1.
          2   -1    0    0  501    0  0.00000000000E+00 -0.00000000000E+00 -0.10742595077E+03  0.10742595080E+03  0.25500000000E-02 0. -1.
         24    2    1    2    0    0 -0.35527136788E-14 -0.35527136788E-14 -0.94549311013E+02  0.12030259154E+03  0.74385088018E+02 0.  0.
         66    2    3    3    0    0 -0.24063267029E+02  0.25802223145E+02 -0.66203063645E+02  0.75044261448E+02  0.20000002321E+01 0.  0.
        -13    1    3    3    0    0  0.24063267029E+02 -0.25802223145E+02 -0.28346247368E+02  0.45258330097E+02  0.10566000000E+00 0.  1.
         13    1    4    4    0    0 -0.27429160884E+01  0.31589389383E+01 -0.89864236716E+01  0.99130952949E+01  0.10566000000E+00 0.  1.
        -13    1    4    4    0    0 -0.18000485865E+01  0.22304872890E+01 -0.49215690573E+01  0.56963369354E+01  0.10566000000E+00 0. -1.
         14    1    4    4    0    0 -0.19520302354E+02  0.20412796918E+02 -0.52295070916E+02  0.59434829217E+02  0.00000000000E+00 0. -1.
<mgrwt>
<rscale>  0 0.74385088E+02</rscale>
<asrwt>0</asrwt>
<pdfrwt beam="1">  1        2 0.16527069E-01 0.74385088E+02</pdfrwt>
<pdfrwt beam="2">  1       -1 0.19810217E-02 0.74385088E+02</pdfrwt>
<totfact> 0.21955946E+05</totfact>
</mgrwt>
</event>
<event>
 8    1  0.2389776E-020  0.7917137E+02  0.7818608E-02  0.1331420E+00
          2   -1    0    0  501    0  0.00000000000E+00  0.00000000000E+00  0.14839053847E+04  0.14839053847E+04  0.25500000000E-02 0. -1.
         -1   -1    0    0    0  501 -0.00000000000E+00 -0.00000000000E+00 -0.10560090704E+01  0.10560210975E+01  0.50400000000E-02 0.  1.
         24    2    1    2    0    0  0.00000000000E+00  0.17763568394E-14  0.14828493756E+04  0.14849614058E+04  0.79171370517E+02 0.  0.
         66    2    3    3    0    0 -0.37494356471E+01  0.14463608886E+02  0.14289421708E+04  0.14290216869E+04  0.20000008960E+01 0.  0.
        -13    1    3    3    0    0  0.37494356471E+01 -0.14463608886E+02  0.53907204855E+02  0.55939718885E+02  0.10566000000E+00 0.  1.
         13    1    4    4    0    0 -0.13012442473E+01  0.42781818956E+01  0.48434086030E+03  0.48436151396E+03  0.10566000000E+00 0. -1.
        -13    1    4    4    0    0 -0.12577100317E+01  0.59757332282E+01  0.60033437084E+03  0.60036543804E+03  0.10566000000E+00 0.  1.
         14    1    4    4    0    0 -0.11904813681E+01  0.42096937617E+01  0.34426693965E+03  0.34429473493E+03  0.00000000000E+00 0. -1.
<mgrwt>
<rscale>  0 0.79171371E+02</rscale>
<asrwt>0</asrwt>
<pdfrwt beam="1">  1        2 0.22829342E+00 0.79171371E+02</pdfrwt>
<pdfrwt beam="2">  1       -1 0.16246366E-03 0.79171371E+02</pdfrwt>
<totfact> 0.34299327E+05</totfact>
</mgrwt>
</event>
<event>
 8    1  0.2389776E-020  0.8003491E+02  0.7818608E-02  0.1328952E+00
          2   -1    0    0  501    0  0.00000000000E+00  0.00000000000E+00  0.60615664714E+02  0.60615664767E+02  0.25500000000E-02 0. -1.
         -1   -1    0    0    0  501 -0.00000000000E+00 -0.00000000000E+00 -0.26418857315E+02  0.26418857796E+02  0.50400000000E-02 0.  1.
         24    2    1    2    0    0  0.00000000000E+00  0.00000000000E+00  0.34196807398E+02  0.87034522563E+02  0.80034907894E+02 0.  0.
         66    2    3    3    0    0  0.35491968824E+02  0.11160426568E+01  0.37115490026E+02  0.51405106704E+02  0.19999982923E+01 0.  0.
        -13    1    3    3    0    0 -0.35491968824E+02 -0.11160426568E+01 -0.29186826276E+01  0.35629415860E+02  0.10566000000E+00 0.  1.
         13    1    4    4    0    0  0.68492772729E+01  0.71199406288E+00  0.73499898306E+01  0.10072390444E+02  0.10566000000E+00 0. -1.
        -13    1    4    4    0    0  0.20659170806E+02  0.67223586858E+00  0.20780740333E+02  0.29310468647E+02  0.10566000000E+00 0.  1.
        -14    1    4    4    0    0  0.79835207448E+01 -0.26818727470E+00  0.89847598618E+01  0.12022247613E+02  0.00000000000E+00 0.  1.
<mgrwt>
<rscale>  0 0.80034908E+02</rscale>
<asrwt>0</asrwt>
<pdfrwt beam="1">  1        2 0.93254869E-02 0.80034908E+02</pdfrwt>
<pdfrwt beam="2">  1       -1 0.40644396E-02 0.80034908E+02</pdfrwt>
<totfact> 0.15584502E+05</totfact>
</mgrwt>
</event>
<event>
 8    1  0.2389776E-020  0.7810463E+02  0.7818608E-02  0.1334518E+00
          2   -1    0    0  501    0  0.00000000000E+00  0.00000000000E+00  0.19329757081E+03  0.19329757082E+03  0.25500000000E-02 0. -1.
         -1   -1    0    0    0  501 -0.00000000000E+00 -0.00000000000E+00 -0.78898207618E+01  0.78898223716E+01  0.50400000000E-02 0.  1.
         24    2    1    2    0    0  0.00000000000E+00  0.00000000000E+00  0.18540775004E+03  0.20118739319E+03  0.78104631130E+02 0.  0.
         66    2    3    3    0    0 -0.27451896633E+02  0.16235724696E+02  0.15069998946E+03  0.15405094027E+03  0.19999977504E+01 0.  0.
        -13    1    3    3    0    0  0.27451896633E+02 -0.16235724696E+02  0.34707760587E+02  0.47136452923E+02  0.10566000000E+00 0.  1.
         13    1    4    4    0    0 -0.10039800509E+02  0.55341015676E+01  0.54279678307E+02  0.55477189146E+02  0.10566000000E+00 0. -1.
        -13    1    4    4    0    0 -0.67497833904E+01  0.46014921300E+01  0.35612011476E+02  0.36537102116E+02  0.10566000000E+00 0.  1.
        -14    1    4    4    0    0 -0.10662312733E+02  0.61001309984E+01  0.60808299674E+02  0.62036649009E+02  0.00000000000E+00 0.  1.
<mgrwt>
<rscale>  0 0.78104631E+02</rscale>
<asrwt>0</asrwt>
<pdfrwt beam="1">  1        2 0.29738086E-01 0.78104631E+02</pdfrwt>
<pdfrwt beam="2">  1       -1 0.12138188E-02 0.78104631E+02</pdfrwt>
<totfact> 0.23222696E+05</totfact>
</mgrwt>
</event>
<event>
 8    1  0.2389776E-020  0.8043555E+02  0.7818608E-02  0.1327820E+00
         -1   -1    0    0    0  501 -0.00000000000E+00  0.00000000000E+00  0.20077969663E+01  0.20078032920E+01  0.50400000000E-02 0.  1.
          2   -1    0    0  501    0  0.00000000000E+00 -0.00000000000E+00 -0.80559285429E+03  0.80559285430E+03  0.25500000000E-02 0. -1.
         24    2    1    2    0    0  0.00000000000E+00  0.00000000000E+00 -0.80358505732E+03  0.80760065759E+03  0.80435550470E+02 0.  0.
         66    2    3    3    0    0  0.23760673403E+02  0.20602088436E+02 -0.65333962888E+03  0.65409914104E+03  0.20000002551E+01 0.  0.
        -13    1    3    3    0    0 -0.23760673403E+02 -0.20602088436E+02 -0.15024542845E+03  0.15350151655E+03  0.10566000000E+00 0.  1.
         13    1    4    4    0    0  0.12462265773E+02  0.11471765039E+02 -0.36331721481E+03  0.36371186288E+03  0.10566000000E+00 0.  1.
        -13    1    4    4    0    0  0.38962879130E+01  0.34391612080E+01 -0.11058146422E+03  0.11070356942E+03  0.10566000000E+00 0. -1.
        -14    1    4    4    0    0  0.74021197165E+01  0.56911621885E+01 -0.17944094985E+03  0.17968370874E+03  0.00000000000E+00 0.  1.
<mgrwt>
<rscale>  0 0.80435550E+02</rscale>
<asrwt>0</asrwt>
<pdfrwt beam="1">  1        2 0.12393710E+00 0.80435550E+02</pdfrwt>
<pdfrwt beam="2">  1       -1 0.30889297E-03 0.80435550E+02</pdfrwt>
<totfact> 0.33924560E+05</totfact>
</mgrwt>
</event>
<event>
 8    1  0.2389776E-020  0.7851539E+02  0.7818608E-02  0.1333318E+00
         -1   -1    0    0    0  501 -0.00000000000E+00  0.00000000000E+00  0.18039983978E+03  0.18039983985E+03  0.50400000000E-02 0.  1.
          2   -1    0    0  501    0  0.00000000000E+00 -0.00000000000E+00 -0.85430594222E+01  0.85430598028E+01  0.25500000000E-02 0. -1.
         24    2    1    2    0    0 -0.71054273576E-14 -0.44408920985E-15  0.17185678035E+03  0.18894289965E+03  0.78515389411E+02 0.  0.
         66    2    3    3    0    0 -0.38678678696E+02 -0.24508445361E+01  0.71323467684E+02  0.81197807209E+02  0.20000070966E+01 0.  0.
        -13    1    3    3    0    0  0.38678678696E+02  0.24508445361E+01  0.10053331267E+03  0.10774509244E+03  0.10566000000E+00 0.  1.
         13    1    4    4    0    0 -0.12759489751E+02 -0.50800755005E+00  0.24442750793E+02  0.27577561182E+02  0.10566000000E+00 0. -1.
        -13    1    4    4    0    0 -0.13357914305E+01  0.14874244629E+00  0.22009312904E+01  0.25810318948E+01  0.10566000000E+00 0.  1.
         14    1    4    4    0    0 -0.24583397515E+02 -0.20915794323E+01  0.44679785601E+02  0.51039214132E+02  0.00000000000E+00 0. -1.
<mgrwt>
<rscale>  0 0.78515389E+02</rscale>
<asrwt>0</asrwt>
<pdfrwt beam="1">  1        2 0.13143169E-02 0.78515389E+02</pdfrwt>
<pdfrwt beam="2">  1       -1 0.27753820E-01 0.78515389E+02</pdfrwt>
<totfact> 0.10765900E+05</totfact>
</mgrwt>
</event>
<event>
 8    1  0.2389776E-020  0.8009848E+02  0.7818608E-02  0.1328772E+00
         -1   -1    0    0    0  501 -0.00000000000E+00  0.00000000000E+00  0.23022130854E+01  0.23022186022E+01  0.50400000000E-02 0.  1.
          2   -1    0    0  501    0  0.00000000000E+00 -0.00000000000E+00 -0.69669480383E+03  0.69669480384E+03  0.25500000000E-02 0. -1.
         24    2    1    2    0    0  0.55511151231E-16  0.00000000000E+00 -0.69439259074E+03  0.69899702244E+03  0.80098484971E+02 0.  0.
         66    2    3    3    0    0 -0.47040158543E+00 -0.29975525238E+02 -0.57882387604E+03  0.57960316843E+03  0.19999987175E+01 0.  0.
        -13    1    3    3    0    0  0.47040158543E+00  0.29975525238E+02 -0.11556871471E+03  0.11939385400E+03  0.10566000000E+00 0.  1.
         13    1    4    4    0    0 -0.83084752534E-01 -0.35826496295E+01 -0.75970159763E+02  0.76054708071E+02  0.10566000000E+00 0. -1.
        -13    1    4    4    0    0 -0.82726304254E+00 -0.17805745907E+02 -0.33025568406E+03  0.33073638592E+03  0.10566000000E+00 0.  1.
         14    1    4    4    0    0  0.43994620964E+00 -0.85871297017E+01 -0.17259803221E+03  0.17281207444E+03  0.00000000000E+00 0. -1.
<mgrwt>
<rscale>  0 0.80098485E+02</rscale>
<asrwt>0</asrwt>
<pdfrwt beam="1">  1        2 0.10718365E+00 0.80098485E+02</pdfrwt>
<pdfrwt beam="2">  1       -1 0.35418761E-03 0.80098485E+02</pdfrwt>
<totfact> 0.33308637E+05</totfact>
</mgrwt>
</event>
<event>
 8    1  0.2389776E-020  0.7822463E+02  0.7818608E-02  0.1334167E+00
         -1   -1    0    0    0  501 -0.00000000000E+00  0.00000000000E+00  0.16349568738E+02  0.16349569514E+02  0.50400000000E-02 0.  1.
          2   -1    0    0  501    0  0.00000000000E+00 -0.00000000000E+00 -0.93566573303E+02  0.93566573338E+02  0.25500000000E-02 0. -1.
         24    2    1    2    0    0  0.00000000000E+00  0.17763568394E-14 -0.77217004566E+02  0.10991614285E+03  0.78224629532E+02 0.  0.
         66    2    3    3    0    0 -0.32353066736E+02 -0.15462093227E+02 -0.60491125766E+02  0.70348941285E+02  0.19999973308E+01 0.  0.
        -13    1    3    3    0    0  0.32353066736E+02  0.15462093227E+02 -0.16725878800E+02  0.39567201567E+02  0.10566000000E+00 0.  1.
         13    1    4    4    0    0 -0.14291289693E+02 -0.65419910565E+01 -0.27868913011E+02  0.31995719785E+02  0.10566000000E+00 0. -1.
        -13    1    4    4    0    0 -0.16458903025E+02 -0.81202574493E+01 -0.29160533381E+02  0.34455506685E+02  0.10566000000E+00 0.  1.
        -14    1    4    4    0    0 -0.16028740181E+01 -0.79984472154E+00 -0.34616793738E+01  0.38977148156E+01  0.00000000000E+00 0.  1.
<mgrwt>
<rscale>  0 0.78224630E+02</rscale>
<asrwt>0</asrwt>
<pdfrwt beam="1">  1        2 0.14394857E-01 0.78224630E+02</pdfrwt>
<pdfrwt beam="2">  1       -1 0.25153184E-02 0.78224630E+02</pdfrwt>
<totfact> 0.18481800E+05</totfact>
</mgrwt>
</event>
<event>
 8    1  0.2389776E-020  0.7738974E+02  0.7818608E-02  0.1336627E+00
         -1   -1    0    0    0  501 -0.00000000000E+00  0.00000000000E+00  0.60156695746E+02  0.60156695957E+02  0.50400000000E-02 0.  1.
          2   -1    0    0  501    0  0.00000000000E+00 -0.00000000000E+00 -0.24889883090E+02  0.24889883221E+02  0.25500000000E-02 0. -1.
         24    2    1    2    0    0 -0.17763568394E-14  0.35527136788E-14  0.35266812656E+02  0.85046579178E+02  0.77389744507E+02 0.  0.
         66    2    3    3    0    0  0.14822393018E+02 -0.31584997739E+02 -0.67692191567E+00  0.34953878752E+02  0.19999999014E+01 0.  0.
        -13    1    3    3    0    0 -0.14822393018E+02  0.31584997739E+02  0.35943734572E+02  0.50092700426E+02  0.10566000000E+00 0.  1.
         13    1    4    4    0    0  0.34335084554E+01 -0.85337729273E+01 -0.75819778736E+00  0.92304002410E+01  0.10566000000E+00 0. -1.
        -13    1    4    4    0    0  0.72222783139E+00 -0.12000338886E+01 -0.86173197362E-01  0.14072257210E+01  0.10566000000E+00 0.  1.
         14    1    4    4    0    0  0.10666656731E+02 -0.21851190923E+02  0.16744906905E+00  0.24316252790E+02  0.00000000000E+00 0. -1.
<mgrwt>
<rscale>  0 0.77389745E+02</rscale>
<asrwt>0</asrwt>
<pdfrwt beam="1">  1        2 0.38292128E-02 0.77389745E+02</pdfrwt>
<pdfrwt beam="2">  1       -1 0.92548763E-02 0.77389745E+02</pdfrwt>
<totfact> 0.14242652E+05</totfact>
</mgrwt>
</event>
<event>
 8    1  0.2389776E-020  0.7610446E+02  0.7818608E-02  0.1340485E+00
         -1   -1    0    0    0  501 -0.00000000000E+00  0.00000000000E+00  0.23199287004E+01  0.23199341750E+01  0.50400000000E-02 0.  1.
          2   -1    0    0  501    0  0.00000000000E+00 -0.00000000000E+00 -0.62414439650E+03  0.62414439650E+03  0.25500000000E-02 0. -1.
         24    2    1    2    0    0  0.00000000000E+00  0.00000000000E+00 -0.62182446780E+03  0.62646433068E+03  0.76104460186E+02 0.  0.
         66    2    3    3    0    0  0.67014902181E+01  0.31587255287E+02 -0.47643736650E+03  0.47753453160E+03  0.19999996492E+01 0.  0.
        -13    1    3    3    0    0 -0.67014902181E+01 -0.31587255287E+02 -0.14538710129E+03  0.14892979908E+03  0.10566000000E+00 0.  1.
         13    1    4    4    0    0  0.25517750925E+01  0.13024110796E+02 -0.19500926822E+03  0.19546039208E+03  0.10566000000E+00 0. -1.
        -13    1    4    4    0    0  0.15054424537E+01  0.58363046315E+01 -0.79664854867E+02  0.79892609632E+02  0.10566000000E+00 0.  1.
        -14    1    4    4    0    0  0.26442726719E+01  0.12726839860E+02 -0.20176324342E+03  0.20218152988E+03  0.00000000000E+00 0.  1.
<mgrwt>
<rscale>  0 0.76104460E+02</rscale>
<asrwt>0</asrwt>
<pdfrwt beam="1">  1        2 0.96022081E-01 0.76104460E+02</pdfrwt>
<pdfrwt beam="2">  1       -1 0.35691303E-03 0.76104460E+02</pdfrwt>
<totfact> 0.37007853E+05</totfact>
</mgrwt>
</event>
<event>
 8    1  0.2389776E-020  0.8193224E+02  0.7818608E-02  0.1323656E+00
         -1   -1    0    0    0  501 -0.00000000000E+00  0.00000000000E+00  0.27774393445E+01  0.27774439174E+01  0.50400000000E-02 0.  1.
          2   -1    0    0  501    0  0.00000000000E+00 -0.00000000000E+00 -0.60423336241E+03  0.60423336241E+03  0.25500000000E-02 0. -1.
         24    2    1    2    0    0 -0.71054273576E-14  0.00000000000E+00 -0.60145592306E+03  0.60701080633E+03  0.81932237942E+02 0.  0.
         66    2    3    3    0    0 -0.33410751496E+02  0.16463766381E+02 -0.42682915884E+03  0.42845590758E+03  0.19999973280E+01 0.  0.
        -13    1    3    3    0    0  0.33410751496E+02 -0.16463766381E+02 -0.17462676422E+03  0.17855489875E+03  0.10566000000E+00 0.  1.
         13    1    4    4    0    0 -0.96094938591E+01  0.45065653291E+01 -0.11909096959E+03  0.11956304490E+03  0.10566000000E+00 0. -1.
        -13    1    4    4    0    0 -0.11737891602E+02  0.67701850922E+01 -0.15786606656E+03  0.15844658292E+03  0.10566000000E+00 0.  1.
        -14    1    4    4    0    0 -0.12063366035E+02  0.51870159598E+01 -0.14987212269E+03  0.15044627976E+03  0.00000000000E+00 0.  1.
<mgrwt>
<rscale>  0 0.81932238E+02</rscale>
<asrwt>0</asrwt>
<pdfrwt beam="1">  1        2 0.92958874E-01 0.81932238E+02</pdfrwt>
<pdfrwt beam="2">  1       -1 0.42729919E-03 0.81932238E+02</pdfrwt>
<totfact> 0.30283705E+05</totfact>
</mgrwt>
</event>
<event>
 8    1  0.2389776E-020  0.7889891E+02  0.7818608E-02  0.1332206E+00
          2   -1    0    0  501    0  0.00000000000E+00  0.00000000000E+00  0.53895197230E+03  0.53895197230E+03  0.25500000000E-02 0. -1.
         -1   -1    0    0    0  501 -0.00000000000E+00 -0.00000000000E+00 -0.28875641371E+01  0.28875685356E+01  0.50400000000E-02 0.  1.
         24    2    1    2    0    0  0.00000000000E+00 -0.88817841970E-15  0.53606440816E+03  0.54183954084E+03  0.78898912035E+02 0.  0.
         66    2    3    3    0    0 -0.28880975986E+02 -0.78227614284E+01  0.44449300281E+03  0.44550346342E+03  0.20000008747E+01 0.  0.
        -13    1    3    3    0    0  0.28880975986E+02  0.78227614284E+01  0.91571405354E+02  0.96336077421E+02  0.10566000000E+00 0.  1.
         13    1    4    4    0    0 -0.59277261748E+01 -0.88567920433E+00  0.88864474893E+02  0.89066427049E+02  0.10566000000E+00 0. -1.
        -13    1    4    4    0    0 -0.43753380928E+01 -0.15324934417E+01  0.72632251206E+02  0.72780129149E+02  0.10566000000E+00 0.  1.
         14    1    4    4    0    0 -0.18577911719E+02 -0.54045887824E+01  0.28299627671E+03  0.28365690722E+03  0.00000000000E+00 0. -1.
<mgrwt>
<rscale>  0 0.78898912E+02</rscale>
<asrwt>0</asrwt>
<pdfrwt beam="1">  1        2 0.82915726E-01 0.78898912E+02</pdfrwt>
<pdfrwt beam="2">  1       -1 0.44424077E-03 0.78898912E+02</pdfrwt>
<totfact> 0.32316005E+05</totfact>
</mgrwt>
</event>
<event>
 8    1  0.2389776E-020  0.8021477E+02  0.7818608E-02  0.1328443E+00
          2   -1    0    0  501    0  0.00000000000E+00  0.00000000000E+00  0.17403490049E+03  0.17403490051E+03  0.25500000000E-02 0. -1.
         -1   -1    0    0    0  501 -0.00000000000E+00 -0.00000000000E+00 -0.92429865847E+01  0.92429879588E+01  0.50400000000E-02 0.  1.
         24    2    1    2    0    0 -0.35527136788E-14  0.17763568394E-14  0.16479191391E+03  0.18327788847E+03  0.80214771162E+02 0.  0.
         66    2    3    3    0    0 -0.27714177918E+02  0.97125748278E+01  0.14477701107E+03  0.14773893425E+03  0.19999976848E+01 0.  0.
        -13    1    3    3    0    0  0.27714177918E+02 -0.97125748278E+01  0.20014902834E+02  0.35538954219E+02  0.10566000000E+00 0.  1.
         13    1    4    4    0    0 -0.10014474723E+02  0.32100404765E+01  0.50901390677E+02  0.51976502390E+02  0.10566000000E+00 0. -1.
        -13    1    4    4    0    0 -0.87790951063E+01  0.38174720278E+01  0.45057588174E+02  0.46063467300E+02  0.10566000000E+00 0.  1.
        -14    1    4    4    0    0 -0.89206080888E+01  0.26850623235E+01  0.48818032222E+02  0.49698964561E+02  0.00000000000E+00 0.  1.
<mgrwt>
<rscale>  0 0.80214771E+02</rscale>
<asrwt>0</asrwt>
<pdfrwt beam="1">  1        2 0.26774599E-01 0.80214771E+02</pdfrwt>
<pdfrwt beam="2">  1       -1 0.14219981E-02 0.80214771E+02</pdfrwt>
<totfact> 0.20885052E+05</totfact>
</mgrwt>
</event>
<event>
 8    1  0.2389776E-020  0.8085400E+02  0.7818608E-02  0.1326645E+00
          2   -1    0    0  501    0  0.00000000000E+00  0.00000000000E+00  0.48087829187E+02  0.48087829255E+02  0.25500000000E-02 0. -1.
         -1   -1    0    0    0  501 -0.00000000000E+00 -0.00000000000E+00 -0.33986606117E+02  0.33986606491E+02  0.50400000000E-02 0.  1.
         24    2    1    2    0    0  0.35527136788E-14  0.00000000000E+00  0.14101223070E+02  0.82074435746E+02  0.80853995022E+02 0.  0.
         66    2    3    3    0    0 -0.17478084570E+02  0.35928700385E+02  0.96585307055E+00  0.40016094592E+02  0.20000006486E+01 0.  0.
        -13    1    3    3    0    0  0.17478084570E+02 -0.35928700385E+02  0.13135370000E+02  0.42058341155E+02  0.10566000000E+00 0.  1.
         13    1    4    4    0    0 -0.46692718010E+01  0.11132651621E+02  0.68008058554E+00  0.12091803211E+02  0.10566000000E+00 0.  1.
        -13    1    4    4    0    0 -0.36331793397E+01  0.62225292368E+01  0.11288860261E+00  0.72072026535E+01  0.10566000000E+00 0. -1.
         14    1    4    4    0    0 -0.91756334292E+01  0.18573519528E+02  0.17288388240E+00  0.20717088727E+02  0.00000000000E+00 0. -1.
<mgrwt>
<rscale>  0 0.80853995E+02</rscale>
<asrwt>0</asrwt>
<pdfrwt beam="1">  1        2 0.73981276E-02 0.80853995E+02</pdfrwt>
<pdfrwt beam="2">  1       -1 0.52287086E-02 0.80853995E+02</pdfrwt>
<totfact> 0.14391689E+05</totfact>
</mgrwt>
</event>
<event>
 8    1  0.2389776E-020  0.7588704E+02  0.7818608E-02  0.1341146E+00
          2   -1    0    0  501    0  0.00000000000E+00  0.00000000000E+00  0.14814534173E+04  0.14814534174E+04  0.25500000000E-02 0. -1.
         -1   -1    0    0    0  501 -0.00000000000E+00 -0.00000000000E+00 -0.97181649005E+00  0.97182955909E+00  0.50400000000E-02 0.  1.
         24    2    1    2    0    0  0.00000000000E+00 -0.11102230246E-15  0.14804816009E+04  0.14824252469E+04  0.75887035751E+02 0.  0.
         66    2    3    3    0    0  0.20781032348E+02 -0.54514805241E+00  0.13602068611E+04  0.13603671760E+04  0.19999998121E+01 0.  0.
        -13    1    3    3    0    0 -0.20781032348E+02  0.54514805241E+00  0.12027473974E+03  0.12205807091E+03  0.10566000000E+00 0.  1.
         13    1    4    4    0    0  0.10740439642E+02  0.50350413722E+00  0.69426281043E+03  0.69434607485E+03  0.10566000000E+00 0. -1.
        -13    1    4    4    0    0  0.47973752997E+01 -0.66472438625E+00  0.34457972727E+03  0.34461377842E+03  0.10566000000E+00 0.  1.
         14    1    4    4    0    0  0.52432174058E+01 -0.38392780338E+00  0.32136432343E+03  0.32140732273E+03  0.00000000000E+00 0. -1.
<mgrwt>
<rscale>  0 0.75887036E+02</rscale>
<asrwt>0</asrwt>
<pdfrwt beam="1">  1        2 0.22791557E+00 0.75887036E+02</pdfrwt>
<pdfrwt beam="2">  1       -1 0.14951146E-03 0.75887036E+02</pdfrwt>
<totfact> 0.38300826E+05</totfact>
</mgrwt>
</event>
<event>
 8    1  0.2389776E-020  0.7977065E+02  0.7818608E-02  0.1329704E+00
         -1   -1    0    0    0  501 -0.00000000000E+00  0.00000000000E+00  0.71037834875E+01  0.71037852754E+01  0.50400000000E-02 0.  1.
          2   -1    0    0  501    0  0.00000000000E+00 -0.00000000000E+00 -0.22394246903E+03  0.22394246905E+03  0.25500000000E-02 0. -1.
         24    2    1    2    0    0  0.00000000000E+00  0.00000000000E+00 -0.21683868554E+03  0.23104625432E+03  0.79770646779E+02 0.  0.
         66    2    3    3    0    0 -0.29151272453E+02 -0.59258349906E+01 -0.18533273479E+03  0.18771556885E+03  0.20000001481E+01 0.  0.
        -13    1    3    3    0    0  0.29151272453E+02  0.59258349906E+01 -0.31505950758E+02  0.43330685468E+02  0.10566000000E+00 0.  1.
         13    1    4    4    0    0 -0.12879408352E+02 -0.25319747781E+01 -0.81676308559E+02  0.82724365211E+02  0.10566000000E+00 0. -1.
        -13    1    4    4    0    0 -0.70845333637E+01 -0.73432805126E+00 -0.44634333765E+02  0.45199167750E+02  0.10566000000E+00 0.  1.
        -14    1    4    4    0    0 -0.91873307367E+01 -0.26595321612E+01 -0.59022092462E+02  0.59792035891E+02  0.00000000000E+00 0.  1.
<mgrwt>
<rscale>  0 0.79770647E+02</rscale>
<asrwt>0</asrwt>
<pdfrwt beam="1">  1        2 0.34452682E-01 0.79770647E+02</pdfrwt>
<pdfrwt beam="2">  1       -1 0.10928901E-02 0.79770647E+02</pdfrwt>
<totfact> 0.23124968E+05</totfact>
</mgrwt>
</event>
<event>
 8    1  0.2389776E-020  0.8057709E+02  0.7818608E-02  0.1327422E+00
          2   -1    0    0  501    0  0.00000000000E+00  0.00000000000E+00  0.24419277145E+03  0.24419277147E+03  0.25500000000E-02 0. -1.
         -1   -1    0    0    0  501 -0.00000000000E+00 -0.00000000000E+00 -0.66470702215E+01  0.66470721322E+01  0.50400000000E-02 0.  1.
         24    2    1    2    0    0  0.71054273576E-14  0.00000000000E+00  0.23754570123E+03  0.25083984360E+03  0.80577087084E+02 0.  0.
         66    2    3    3    0    0 -0.35980403493E+02 -0.18053917671E+02  0.11637809249E+03  0.12316003332E+03  0.20000046717E+01 0.  0.
        -13    1    3    3    0    0  0.35980403493E+02  0.18053917671E+02  0.12116760875E+03  0.12767981028E+03  0.10566000000E+00 0.  1.
         13    1    4    4    0    0 -0.21343382148E+02 -0.10384582523E+02  0.67556305297E+02  0.71604783815E+02  0.10566000000E+00 0. -1.
        -13    1    4    4    0    0 -0.43511854621E+01 -0.19635807292E+01  0.12795571288E+02  0.13657462167E+02  0.10566000000E+00 0.  1.
         14    1    4    4    0    0 -0.10285835883E+02 -0.57057544184E+01  0.36026215900E+02  0.37897787341E+02  0.00000000000E+00 0. -1.
<mgrwt>
<rscale>  0 0.80577087E+02</rscale>
<asrwt>0</asrwt>
<pdfrwt beam="1">  1        2 0.37568124E-01 0.80577087E+02</pdfrwt>
<pdfrwt beam="2">  1       -1 0.10226262E-02 0.80577087E+02</pdfrwt>
<totfact> 0.23225118E+05</totfact>
</mgrwt>
</event>
<event>
 8    1  0.2389776E-020  0.7969554E+02  0.7818608E-02  0.1329918E+00
          2   -1    0    0  501    0  0.00000000000E+00  0.00000000000E+00  0.18544705252E+03  0.18544705254E+03  0.25500000000E-02 0. -1.
         -1   -1    0    0    0  501 -0.00000000000E+00 -0.00000000000E+00 -0.85622536417E+01  0.85622551251E+01  0.50400000000E-02 0.  1.
         24    2    1    2    0    0  0.44408920985E-15  0.35527136788E-14  0.17688479888E+03  0.19400930766E+03  0.79695541817E+02 0.  0.
         66    2    3    3    0    0  0.20063419990E+01  0.20782615271E+02  0.17104813439E+03  0.17232935559E+03  0.20000030495E+01 0.  0.
        -13    1    3    3    0    0 -0.20063419990E+01 -0.20782615271E+02  0.58366644888E+01  0.21679952078E+02  0.10566000000E+00 0.  1.
         13    1    4    4    0    0  0.27441890955E+00  0.79099738560E+01  0.67039632181E+02  0.67505306748E+02  0.10566000000E+00 0. -1.
        -13    1    4    4    0    0  0.12750513589E+01  0.11020589857E+02  0.85281502683E+02  0.86000145469E+02  0.10566000000E+00 0.  1.
        -14    1    4    4    0    0  0.45687173057E+00  0.18520515578E+01  0.18726999527E+02  0.18823903369E+02  0.00000000000E+00 0.  1.
<mgrwt>
<rscale>  0 0.79695542E+02</rscale>
<asrwt>0</asrwt>
<pdfrwt beam="1">  1        2 0.28530313E-01 0.79695542E+02</pdfrwt>
<pdfrwt beam="2">  1       -1 0.13172700E-02 0.79695542E+02</pdfrwt>
<totfact> 0.21709207E+05</totfact>
</mgrwt>
</event>
<event>
 8    1  0.2389776E-020  0.7813709E+02  0.7818608E-02  0.1334423E+00
          2   -1    0    0  501    0  0.00000000000E+00  0.00000000000E+00  0.18954620410E+03  0.18954620412E+03  0.25500000000E-02 0. -1.
         -1   -1    0    0    0  501 -0.00000000000E+00 -0.00000000000E+00 -0.80526599574E+01  0.80526615346E+01  0.50400000000E-02 0.  1.
         24    2    1    2    0    0  0.35527136788E-14 -0.35527136788E-14  0.18149354415E+03  0.19759886565E+03  0.78137091970E+02 0.  0.
         66    2    3    3    0    0 -0.25020853074E+02  0.27856332372E+02  0.11877591102E+03  0.12455414640E+03  0.20000014119E+01 0.  0.
        -13    1    3    3    0    0  0.25020853074E+02 -0.27856332372E+02  0.62717633129E+02  0.73044719255E+02  0.10566000000E+00 0.  1.
         13    1    4    4    0    0 -0.19182204100E+02  0.21957929808E+02  0.90983163351E+02  0.95540854157E+02  0.10566000000E+00 0. -1.
        -13    1    4    4    0    0 -0.56724952668E+01  0.58521345498E+01  0.27086724209E+02  0.28286506921E+02  0.10566000000E+00 0.  1.
         14    1    4    4    0    0 -0.16615370726E+00  0.46268014455E-01  0.70602345597E+00  0.72678532180E+00  0.00000000000E+00 0. -1.
<mgrwt>
<rscale>  0 0.78137092E+02</rscale>
<asrwt>0</asrwt>
<pdfrwt beam="1">  1        2 0.29160954E-01 0.78137092E+02</pdfrwt>
<pdfrwt beam="2">  1       -1 0.12388709E-02 0.78137092E+02</pdfrwt>
<totfact> 0.23041825E+05</totfact>
</mgrwt>
</event>
<event>
 8    1  0.2389776E-020  0.7935092E+02  0.7818608E-02  0.1330904E+00
          2   -1    0    0  501    0  0.00000000000E+00  0.00000000000E+00  0.72935745532E+03  0.72935745532E+03  0.25500000000E-02 0. -1.
         -1   -1    0    0    0  501 -0.00000000000E+00 -0.00000000000E+00 -0.21582557992E+01  0.21582616840E+01  0.50400000000E-02 0.  1.
         24    2    1    2    0    0  0.00000000000E+00  0.00000000000E+00  0.72719919952E+03  0.73151571701E+03  0.79350919633E+02 0.  0.
         66    2    3    3    0    0  0.12258256418E+02 -0.24929224154E+02  0.62464152850E+03  0.62526216122E+03  0.20000164847E+01 0.  0.
        -13    1    3    3    0    0 -0.12258256418E+02  0.24929224154E+02  0.10255767102E+03  0.10625355578E+03  0.10566000000E+00 0.  1.
         13    1    4    4    0    0  0.24911323322E+01 -0.54443678122E+01  0.14973215087E+03  0.14985184366E+03  0.10566000000E+00 0. -1.
        -13    1    4    4    0    0  0.38849629123E+01 -0.70650148856E+01  0.16780161055E+03  0.16799523517E+03  0.10566000000E+00 0.  1.
        -14    1    4    4    0    0  0.58821611738E+01 -0.12419841456E+02  0.30710776707E+03  0.30741508239E+03  0.00000000000E+00 0.  1.
<mgrwt>
<rscale>  0 0.79350920E+02</rscale>
<asrwt>0</asrwt>
<pdfrwt beam="1">  1        2 0.11220906E+00 0.79350920E+02</pdfrwt>
<pdfrwt beam="2">  1       -1 0.33203915E-03 0.79350920E+02</pdfrwt>
<totfact> 0.34478902E+05</totfact>
</mgrwt>
</event>
<event>
 8    1  0.2389776E-020  0.7864391E+02  0.7818608E-02  0.1332944E+00
          2   -1    0    0  501    0  0.00000000000E+00  0.00000000000E+00  0.59188585234E+03  0.59188585234E+03  0.25500000000E-02 0. -1.
         -1   -1    0    0    0  501 -0.00000000000E+00 -0.00000000000E+00 -0.26123531792E+01  0.26123580410E+01  0.50400000000E-02 0.  1.
         24    2    1    2    0    0  0.00000000000E+00  0.00000000000E+00  0.58927349916E+03  0.59449821038E+03  0.78643914828E+02 0.  0.
         66    2    3    3    0    0  0.32764508862E+02  0.13918422081E+02  0.42063423812E+03  0.42214262723E+03  0.19999845342E+01 0.  0.
        -13    1    3    3    0    0 -0.32764508862E+02 -0.13918422081E+02  0.16863926104E+03  0.17235558315E+03  0.10566000000E+00 0.  1.
         13    1    4    4    0    0  0.18157267328E+02  0.67862579580E+01  0.23135825742E+03  0.23216889132E+03  0.10566000000E+00 0. -1.
        -13    1    4    4    0    0  0.93597219500E+01  0.48693941314E+01  0.12153445784E+03  0.12199160217E+03  0.10566000000E+00 0.  1.
        -14    1    4    4    0    0  0.52475195843E+01  0.22627699915E+01  0.67741522855E+02  0.67982133745E+02  0.00000000000E+00 0.  1.
<mgrwt>
<rscale>  0 0.78643915E+02</rscale>
<asrwt>0</asrwt>
<pdfrwt beam="1">  1        2 0.91059392E-01 0.78643915E+02</pdfrwt>
<pdfrwt beam="2">  1       -1 0.40190073E-03 0.78643915E+02</pdfrwt>
<totfact> 0.33497566E+05</totfact>
</mgrwt>
</event>
<event>
 8    1  0.2389776E-020  0.7974662E+02  0.7818608E-02  0.1329772E+00
         -1   -1    0    0    0  501 -0.00000000000E+00  0.00000000000E+00  0.10836792648E+03  0.10836792660E+03  0.50400000000E-02 0.  1.
          2   -1    0    0  501    0  0.00000000000E+00 -0.00000000000E+00 -0.14671138070E+02  0.14671138291E+02  0.25500000000E-02 0. -1.
         24    2    1    2    0    0 -0.71054273576E-14  0.17763568394E-14  0.93696788410E+02  0.12303906489E+03  0.79746619554E+02 0.  0.
         66    2    3    3    0    0 -0.31372890749E+02  0.14670550982E+02  0.16471296591E+02  0.38402955037E+02  0.20000010270E+01 0.  0.
        -13    1    3    3    0    0  0.31372890749E+02 -0.14670550982E+02  0.77225491819E+02  0.84636109851E+02  0.10566000000E+00 0.  1.
         13    1    4    4    0    0 -0.20379316004E+02  0.92237564818E+01  0.11347033024E+02  0.25083072517E+02  0.10566000000E+00 0. -1.
        -13    1    4    4    0    0 -0.88206749502E+01  0.44748983091E+01  0.38021527714E+01  0.10597006709E+02  0.10566000000E+00 0.  1.
        -14    1    4    4    0    0 -0.21728997949E+01  0.97189619072E+00  0.13221107956E+01  0.27228758106E+01  0.00000000000E+00 0.  1.
<mgrwt>
<rscale>  0 0.79746620E+02</rscale>
<asrwt>0</asrwt>
<pdfrwt beam="1">  1        2 0.22570982E-02 0.79746620E+02</pdfrwt>
<pdfrwt beam="2">  1       -1 0.16671988E-01 0.79746620E+02</pdfrwt>
<totfact> 0.11740738E+05</totfact>
</mgrwt>
</event>
<event>
 8    1  0.3006785E-020  0.8000047E+02  0.7818608E-02  0.1329050E+00
          2   -1    0    0  501    0  0.00000000000E+00  0.00000000000E+00  0.50488485473E+03  0.50488485474E+03  0.25500000000E-02 0. -1.
         -1   -1    0    0    0  501 -0.00000000000E+00 -0.00000000000E+00 -0.31690746634E+01  0.31690786711E+01  0.50400000000E-02 0.  1.
         24    2    1    2    0    0  0.17763568394E-14  0.35527136788E-14  0.50171578007E+03  0.50805393341E+03  0.80000470518E+02 0.  0.
         66    2    3    3    0    0  0.99768076068E+01  0.28528274560E+02  0.41717955877E+03  0.41827763913E+03  0.19999999338E+01 0.  0.
        -13    1    3    3    0    0 -0.99768076068E+01 -0.28528274560E+02  0.84536221295E+02  0.89776294277E+02  0.10566000000E+00 0.  1.
         13    1    4    4    0    0  0.37543542469E+01  0.11536231156E+02  0.17448079125E+03  0.17490207971E+03  0.10566000000E+00 0. -1.
        -13    1    4    4    0    0  0.92087632195E+00  0.38863435740E+01  0.51188893359E+02  0.51344577580E+02  0.10566000000E+00 0.  1.
         14    1    4    4    0    0  0.53015770379E+01  0.13105699830E+02  0.19150987416E+03  0.19203098184E+03  0.00000000000E+00 0. -1.
<mgrwt>
<rscale>  0 0.80000471E+02</rscale>
<asrwt>0</asrwt>
<pdfrwt beam="1">  1        2 0.77674591E-01 0.80000471E+02</pdfrwt>
<pdfrwt beam="2">  1       -1 0.48755027E-03 0.80000471E+02</pdfrwt>
<totfact> 0.30545090E+05</totfact>
</mgrwt>
</event>
<event>
 8    1  0.2389776E-020  0.7958525E+02  0.7818608E-02  0.1330233E+00
         -1   -1    0    0    0  501 -0.00000000000E+00  0.00000000000E+00  0.37038940880E+01  0.37038975170E+01  0.50400000000E-02 0.  1.
          2   -1    0    0  501    0  0.00000000000E+00 -0.00000000000E+00 -0.42751010388E+03  0.42751010389E+03  0.25500000000E-02 0. -1.
         24    2    1    2    0    0  0.35527136788E-14  0.00000000000E+00 -0.42380620979E+03  0.43121400141E+03  0.79585247057E+02 0.  0.
         66    2    3    3    0    0  0.18629240231E+02  0.12488493221E+02 -0.38997002575E+03  0.39061954896E+03  0.19999985940E+01 0.  0.
        -13    1    3    3    0    0 -0.18629240231E+02 -0.12488493221E+02 -0.33836184048E+02  0.40594452448E+02  0.10566000000E+00 0.  1.
         13    1    4    4    0    0  0.45584233174E+01  0.26184070655E+01 -0.99350199779E+02  0.99489238809E+02  0.10566000000E+00 0. -1.
        -13    1    4    4    0    0  0.97705159835E+01  0.62649499402E+01 -0.19025905737E+03  0.19061278198E+03  0.10566000000E+00 0.  1.
         14    1    4    4    0    0  0.43003009305E+01  0.36051362152E+01 -0.10036076860E+03  0.10051752817E+03  0.00000000000E+00 0. -1.
<mgrwt>
<rscale>  0 0.79585247E+02</rscale>
<asrwt>0</asrwt>
<pdfrwt beam="1">  1        2 0.65770746E-01 0.79585247E+02</pdfrwt>
<pdfrwt beam="2">  1       -1 0.56983046E-03 0.79585247E+02</pdfrwt>
<totfact> 0.29306349E+05</totfact>
</mgrwt>
</event>
<event>
 8    1  0.2389776E-020  0.8045010E+02  0.7818608E-02  0.1327779E+00
          2   -1    0    0  501    0  0.00000000000E+00  0.00000000000E+00  0.50009218482E+03  0.50009218482E+03  0.25500000000E-02 0. -1.
         -1   -1    0    0    0  501 -0.00000000000E+00 -0.00000000000E+00 -0.32355108533E+01  0.32355147788E+01  0.50400000000E-02 0.  1.
         24    2    1    2    0    0 -0.71054273576E-14  0.88817841970E-15  0.49685667396E+03  0.50332769960E+03  0.80450100837E+02 0.  0.
         66    2    3    3    0    0 -0.38445388436E+02  0.73867173647E+01  0.30573019548E+03  0.30823297024E+03  0.20000065172E+01 0.  0.
        -13    1    3    3    0    0  0.38445388436E+02 -0.73867173647E+01  0.19112647848E+03  0.19509472936E+03  0.10566000000E+00 0.  1.
         13    1    4    4    0    0 -0.16608004854E+02  0.27975768618E+01  0.12536628526E+03  0.12649256463E+03  0.10566000000E+00 0. -1.
        -13    1    4    4    0    0 -0.13867058243E+02  0.31277830294E+01  0.11273288831E+03  0.11362567316E+03  0.10566000000E+00 0.  1.
         14    1    4    4    0    0 -0.79703253389E+01  0.14613574735E+01  0.67631021914E+02  0.68114732451E+02  0.00000000000E+00 0. -1.
<mgrwt>
<rscale>  0 0.80450101E+02</rscale>
<asrwt>0</asrwt>
<pdfrwt beam="1">  1        2 0.76937271E-01 0.80450101E+02</pdfrwt>
<pdfrwt beam="2">  1       -1 0.49777113E-03 0.80450101E+02</pdfrwt>
<totfact> 0.30010958E+05</totfact>
</mgrwt>
</event>
<event>
 8    1  0.2389776E-020  0.7920578E+02  0.7818608E-02  0.1331321E+00
          2   -1    0    0  501    0  0.00000000000E+00  0.00000000000E+00  0.70071810887E+03  0.70071810887E+03  0.25500000000E-02 0. -1.
         -1   -1    0    0    0  501 -0.00000000000E+00 -0.00000000000E+00 -0.22382567565E+01  0.22382624309E+01  0.50400000000E-02 0.  1.
         24    2    1    2    0    0  0.00000000000E+00 -0.17763568394E-14  0.69847985211E+03  0.70295637130E+03  0.79205783567E+02 0.  0.
         66    2    3    3    0    0 -0.24263733149E+02 -0.15921464843E+02  0.58829228350E+03  0.58901106324E+03  0.20000012021E+01 0.  0.
        -13    1    3    3    0    0  0.24263733149E+02  0.15921464843E+02  0.11018756861E+03  0.11394530807E+03  0.10566000000E+00 0.  1.
         13    1    4    4    0    0 -0.22891490899E+01 -0.90053108471E+00  0.47296917261E+02  0.47360961838E+02  0.10566000000E+00 0.  1.
        -13    1    4    4    0    0 -0.97684367399E+01 -0.63562427493E+01  0.23840200339E+03  0.23868672054E+03  0.10566000000E+00 0. -1.
        -14    1    4    4    0    0 -0.12206147319E+02 -0.86646910092E+01  0.30259336285E+03  0.30296338086E+03  0.00000000000E+00 0.  1.
<mgrwt>
<rscale>  0 0.79205784E+02</rscale>
<asrwt>0</asrwt>
<pdfrwt beam="1">  1        2 0.10780268E+00 0.79205784E+02</pdfrwt>
<pdfrwt beam="2">  1       -1 0.34434797E-03 0.79205784E+02</pdfrwt>
<totfact> 0.34338254E+05</totfact>
</mgrwt>
</event>
<event>
 8    1  0.2389776E-020  0.8024094E+02  0.7818608E-02  0.1328369E+00
         -1   -1    0    0    0  501 -0.00000000000E+00  0.00000000000E+00  0.88359154249E+01  0.88359168623E+01  0.50400000000E-02 0.  1.
          2   -1    0    0  501    0  0.00000000000E+00 -0.00000000000E+00 -0.18217150235E+03  0.18217150237E+03  0.25500000000E-02 0. -1.
         24    2    1    2    0    0  0.00000000000E+00  0.00000000000E+00 -0.17333558693E+03  0.19100741923E+03  0.80240940338E+02 0.  0.
         66    2    3    3    0    0  0.34609544284E+02  0.18659681294E+02 -0.68032068782E+02  0.78602586777E+02  0.20000009408E+01 0.  0.
        -13    1    3    3    0    0 -0.34609544284E+02 -0.18659681294E+02 -0.10530351814E+03  0.11240483245E+03  0.10566000000E+00 0.  1.
         13    1    4    4    0    0  0.30684521588E+02  0.16453198880E+02 -0.59135527182E+02  0.68624116443E+02  0.10566000000E+00 0. -1.
        -13    1    4    4    0    0  0.69108054985E+00  0.33237410007E+00 -0.13235305884E+01  0.15332847494E+01  0.10566000000E+00 0.  1.
        -14    1    4    4    0    0  0.32339421463E+01  0.18741083135E+01 -0.75730110117E+01  0.84451855847E+01  0.00000000000E+00 0.  1.
<mgrwt>
<rscale>  0 0.80240940E+02</rscale>
<asrwt>0</asrwt>
<pdfrwt beam="1">  1        2 0.28026382E-01 0.80240940E+02</pdfrwt>
<pdfrwt beam="2">  1       -1 0.13593719E-02 0.80240940E+02</pdfrwt>
<totfact> 0.21192210E+05</totfact>
</mgrwt>
</event>
<event>
 8    1  0.2389776E-020  0.8203602E+02  0.7818608E-02  0.1323371E+00
          2   -1    0    0  501    0  0.00000000000E+00  0.00000000000E+00  0.85351669276E+03  0.85351669276E+03  0.25500000000E-02 0. -1.
         -1   -1    0    0    0  501 -0.00000000000E+00 -0.00000000000E+00 -0.19712259129E+01  0.19712323560E+01  0.50400000000E-02 0.  1.
         24    2    1    2    0    0  0.00000000000E+00  0.00000000000E+00  0.85154546685E+03  0.85548792512E+03  0.82036015980E+02 0.  0.
         66    2    3    3    0    0  0.68372107673E+01 -0.20768679073E+02  0.78762754488E+03  0.78793352191E+03  0.20000001586E+01 0.  0.
        -13    1    3    3    0    0 -0.68372107673E+01  0.20768679073E+02  0.63917921961E+02  0.67554403213E+02  0.10566000000E+00 0.  1.
         13    1    4    4    0    0  0.26345268122E+01 -0.73386321646E+01  0.26576195344E+03  0.26587633086E+03  0.10566000000E+00 0. -1.
        -13    1    4    4    0    0  0.22605638237E+01 -0.62561808808E+01  0.22310307633E+03  0.22320224860E+03  0.10566000000E+00 0.  1.
        -14    1    4    4    0    0  0.19421201314E+01 -0.71738660279E+01  0.29876251512E+03  0.29885494244E+03  0.00000000000E+00 0.  1.
<mgrwt>
<rscale>  0 0.82036016E+02</rscale>
<asrwt>0</asrwt>
<pdfrwt beam="1">  1        2 0.13131008E+00 0.82036016E+02</pdfrwt>
<pdfrwt beam="2">  1       -1 0.30326645E-03 0.82036016E+02</pdfrwt>
<totfact> 0.32519340E+05</totfact>
</mgrwt>
</event>
<event>
 8    1  0.2389776E-020  0.7093977E+02  0.7818608E-02  0.1356926E+00
          2   -1    0    0  501    0  0.00000000000E+00  0.00000000000E+00  0.18055644231E+02  0.18055644411E+02  0.25500000000E-02 0. -1.
         -1   -1    0    0    0  501 -0.00000000000E+00 -0.00000000000E+00 -0.69679751153E+02  0.69679751335E+02  0.50400000000E-02 0.  1.
         24    2    1    2    0    0  0.35527136788E-14  0.17763568394E-14 -0.51624106922E+02  0.87735395746E+02  0.70939771998E+02 0.  0.
         66    2    3    3    0    0 -0.23562977526E+02 -0.10579570973E+02  0.41819417104E+01  0.26241758190E+02  0.20000011510E+01 0.  0.
        -13    1    3    3    0    0  0.23562977526E+02  0.10579570973E+02 -0.55806048633E+02  0.61493637556E+02  0.10566000000E+00 0.  1.
         13    1    4    4    0    0 -0.68398186964E+01 -0.28312836390E+01  0.66942582653E+00  0.74336116267E+01  0.10566000000E+00 0. -1.
        -13    1    4    4    0    0 -0.21473297883E+01 -0.11171516985E+01  0.89187832345E+00  0.25817947472E+01  0.10566000000E+00 0.  1.
        -14    1    4    4    0    0 -0.14575829041E+02 -0.66311356351E+01  0.26206375604E+01  0.16226351816E+02  0.00000000000E+00 0.  1.
<mgrwt>
<rscale>  0 0.70939772E+02</rscale>
<asrwt>0</asrwt>
<pdfrwt beam="1">  1        2 0.27777915E-02 0.70939772E+02</pdfrwt>
<pdfrwt beam="2">  1       -1 0.10719962E-01 0.70939772E+02</pdfrwt>
<totfact> 0.17135157E+05</totfact>
</mgrwt>
</event>
<event>
 8    1  0.2389776E-020  0.7940700E+02  0.7818608E-02  0.1330743E+00
         -1   -1    0    0    0  501 -0.00000000000E+00  0.00000000000E+00  0.16503569583E+01  0.16503646541E+01  0.50400000000E-02 0.  1.
          2   -1    0    0  501    0  0.00000000000E+00 -0.00000000000E+00 -0.95516566375E+03  0.95516566376E+03  0.25500000000E-02 0. -1.
         24    2    1    2    0    0  0.00000000000E+00  0.00000000000E+00 -0.95351530680E+03  0.95681602841E+03  0.79407001779E+02 0.  0.
         66    2    3    3    0    0 -0.18048536449E+02 -0.16518500471E+02 -0.85345046760E+03  0.85380343825E+03  0.19999961102E+01 0.  0.
        -13    1    3    3    0    0  0.18048536449E+02  0.16518500471E+02 -0.10006483919E+03  0.10301259016E+03  0.10566000000E+00 0.  1.
         13    1    4    4    0    0 -0.80215601317E+01 -0.65655743653E+01 -0.36383594276E+03  0.36398359386E+03  0.10566000000E+00 0. -1.
        -13    1    4    4    0    0 -0.61322396773E+01 -0.55649749968E+01 -0.30264155698E+03  0.30275484552E+03  0.10566000000E+00 0.  1.
        -14    1    4    4    0    0 -0.38947366400E+01 -0.43879511090E+01 -0.18697296786E+03  0.18706499886E+03  0.00000000000E+00 0.  1.
<mgrwt>
<rscale>  0 0.79407002E+02</rscale>
<asrwt>0</asrwt>
<pdfrwt beam="1">  1        2 0.14694812E+00 0.79407002E+02</pdfrwt>
<pdfrwt beam="2">  1       -1 0.25390243E-03 0.79407002E+02</pdfrwt>
<totfact> 0.35823175E+05</totfact>
</mgrwt>
</event>
<event>
 8    1  0.2389776E-020  0.8088194E+02  0.7818608E-02  0.1326567E+00
          2   -1    0    0  501    0  0.00000000000E+00  0.00000000000E+00  0.83585056786E+02  0.83585056825E+02  0.25500000000E-02 0. -1.
         -1   -1    0    0    0  501 -0.00000000000E+00 -0.00000000000E+00 -0.19566558710E+02  0.19566559359E+02  0.50400000000E-02 0.  1.
         24    2    1    2    0    0  0.35527136788E-14  0.00000000000E+00  0.64018498076E+02  0.10315161618E+03  0.80881937572E+02 0.  0.
         66    2    3    3    0    0 -0.31793990608E+02 -0.20541308133E+02  0.50094641701E+02  0.62819394338E+02  0.19999998178E+01 0.  0.
        -13    1    3    3    0    0  0.31793990608E+02  0.20541308133E+02  0.13923856375E+02  0.40332221845E+02  0.10566000000E+00 0.  1.
         13    1    4    4    0    0 -0.22393917557E+02 -0.14371298172E+02  0.35818579407E+02  0.44620662808E+02  0.10566000000E+00 0. -1.
        -13    1    4    4    0    0 -0.82737548100E+01 -0.56426590657E+01  0.12271055586E+02  0.15839336767E+02  0.10566000000E+00 0.  1.
         14    1    4    4    0    0 -0.11263182407E+01 -0.52735089473E+00  0.20050067087E+01  0.23593947630E+01  0.00000000000E+00 0. -1.
<mgrwt>
<rscale>  0 0.80881938E+02</rscale>
<asrwt>0</asrwt>
<pdfrwt beam="1">  1        2 0.12859239E-01 0.80881938E+02</pdfrwt>
<pdfrwt beam="2">  1       -1 0.30102399E-02 0.80881938E+02</pdfrwt>
<totfact> 0.16394809E+05</totfact>
</mgrwt>
</event>
<event>
 8    1  0.2389776E-020  0.8920734E+02  0.7818608E-02  0.1304783E+00
          2   -1    0    0  501    0  0.00000000000E+00  0.00000000000E+00  0.39425334444E+02  0.39425334526E+02  0.25500000000E-02 0. -1.
         -1   -1    0    0    0  501 -0.00000000000E+00 -0.00000000000E+00 -0.50462154958E+02  0.50462155210E+02  0.50400000000E-02 0.  1.
         24    2    1    2    0    0  0.00000000000E+00  0.00000000000E+00 -0.11036820514E+02  0.89887489736E+02  0.89207339406E+02 0.  0.
         66    2    3    3    0    0  0.11731957987E+02 -0.32542148362E+02 -0.33857680758E+02  0.48445565498E+02  0.20000029939E+01 0.  0.
        -13    1    3    3    0    0 -0.11731957987E+02  0.32542148362E+02  0.22820860243E+02  0.41441924237E+02  0.10566000000E+00 0.  1.
         13    1    4    4    0    0  0.56840319719E+01 -0.17257013332E+02 -0.16663852302E+02  0.24653759677E+02  0.10566000000E+00 0. -1.
        -13    1    4    4    0    0  0.27770036885E+01 -0.75583916451E+01 -0.85432108186E+01  0.11740470556E+02  0.10566000000E+00 0.  1.
         14    1    4    4    0    0  0.32709223265E+01 -0.77267433841E+01 -0.86506176365E+01  0.12051335266E+02  0.00000000000E+00 0. -1.
<mgrwt>
<rscale>  0 0.89207339E+02</rscale>
<asrwt>0</asrwt>
<pdfrwt beam="1">  1        2 0.60654360E-02 0.89207339E+02</pdfrwt>
<pdfrwt beam="2">  1       -1 0.77634085E-02 0.89207339E+02</pdfrwt>
<totfact> 0.10487515E+05</totfact>
</mgrwt>
</event>
<event>
 8    1  0.2389776E-020  0.8091833E+02  0.7818608E-02  0.1326465E+00
         -1   -1    0    0    0  501 -0.00000000000E+00  0.00000000000E+00  0.23842160832E+02  0.23842161364E+02  0.50400000000E-02 0.  1.
          2   -1    0    0  501    0  0.00000000000E+00 -0.00000000000E+00 -0.68657535313E+02  0.68657535360E+02  0.25500000000E-02 0. -1.
         24    2    1    2    0    0  0.71054273576E-14  0.00000000000E+00 -0.44815374481E+02  0.92499696725E+02  0.80918329841E+02 0.  0.
         66    2    3    3    0    0  0.35223163577E+02  0.18633596153E+02 -0.30262943911E+02  0.50077219693E+02  0.20000000099E+01 0.  0.
        -13    1    3    3    0    0 -0.35223163577E+02 -0.18633596153E+02 -0.14552430571E+02  0.42422477032E+02  0.10566000000E+00 0.  1.
         13    1    4    4    0    0  0.25341138398E+02  0.13716914278E+02 -0.21929617340E+02  0.36211135212E+02  0.10566000000E+00 0. -1.
        -13    1    4    4    0    0  0.30817101543E+00  0.99241460342E-01 -0.11224260976E+00  0.35858148480E+00  0.10566000000E+00 0. -1.
         14    1    4    4    0    0  0.95738541631E+01  0.48174404146E+01 -0.82210839607E+01  0.13507502996E+02  0.00000000000E+00 0. -1.
<mgrwt>
<rscale>  0 0.80918330E+02</rscale>
<asrwt>0</asrwt>
<pdfrwt beam="1">  1        2 0.10562698E-01 0.80918330E+02</pdfrwt>
<pdfrwt beam="2">  1       -1 0.36680248E-02 0.80918330E+02</pdfrwt>
<totfact> 0.15581029E+05</totfact>
</mgrwt>
</event>
<event>
 8    1  0.2389776E-020  0.8253486E+02  0.7818608E-02  0.1322008E+00
         -1   -1    0    0    0  501 -0.00000000000E+00  0.00000000000E+00  0.15541933026E+02  0.15541933843E+02  0.50400000000E-02 0.  1.
          2   -1    0    0  501    0  0.00000000000E+00 -0.00000000000E+00 -0.10957458827E+03  0.10957458830E+03  0.25500000000E-02 0. -1.
         24    2    1    2    0    0  0.00000000000E+00  0.00000000000E+00 -0.94032655240E+02  0.12511652214E+03  0.82534864515E+02 0.  0.
         66    2    3    3    0    0  0.29014932623E+02 -0.27750042875E+02 -0.32737463639E+02  0.51842769184E+02  0.19999990976E+01 0.  0.
        -13    1    3    3    0    0 -0.29014932623E+02  0.27750042875E+02 -0.61295191600E+02  0.73273752955E+02  0.10566000000E+00 0.  1.
         13    1    4    4    0    0  0.19660413490E+02 -0.19392506280E+02 -0.22658993956E+02  0.35721734694E+02  0.10566000000E+00 0. -1.
        -13    1    4    4    0    0  0.64992520100E+01 -0.60690902478E+01 -0.66240589413E+01  0.11088888764E+02  0.10566000000E+00 0.  1.
        -14    1    4    4    0    0  0.28552671237E+01 -0.22884463472E+01 -0.34544107422E+01  0.50321457260E+01  0.00000000000E+00 0.  1.
<mgrwt>
<rscale>  0 0.82534865E+02</rscale>
<asrwt>0</asrwt>
<pdfrwt beam="1">  1        2 0.16857628E-01 0.82534865E+02</pdfrwt>
<pdfrwt beam="2">  1       -1 0.23910668E-02 0.82534865E+02</pdfrwt>
<totfact> 0.16735493E+05</totfact>
</mgrwt>
</event>
<event>
 8    1  0.2389776E-020  0.8000379E+02  0.7818608E-02  0.1329041E+00
          2   -1    0    0  501    0  0.00000000000E+00  0.00000000000E+00  0.19519904436E+02  0.19519904602E+02  0.25500000000E-02 0. -1.
         -1   -1    0    0    0  501 -0.00000000000E+00 -0.00000000000E+00 -0.81975378629E+02  0.81975378784E+02  0.50400000000E-02 0.  1.
         24    2    1    2    0    0  0.00000000000E+00 -0.35527136788E-14 -0.62455474194E+02  0.10149528339E+03  0.80003789241E+02 0.  0.
         66    2    3    3    0    0 -0.65240449461E+00 -0.19822934011E+02  0.12786766075E+02  0.23682815046E+02  0.19999993564E+01 0.  0.
        -13    1    3    3    0    0  0.65240449461E+00  0.19822934011E+02 -0.75242240269E+02  0.77812468340E+02  0.10566000000E+00 0.  1.
         13    1    4    4    0    0  0.40623823991E+00 -0.14777579777E+01  0.10109732011E+01  0.18390293628E+01  0.10566000000E+00 0. -1.
        -13    1    4    4    0    0 -0.79678471984E+00 -0.65820914526E+01  0.43476516999E+01  0.79291886797E+01  0.10566000000E+00 0.  1.
         14    1    4    4    0    0 -0.26185801468E+00 -0.11763084581E+02  0.74281411742E+01  0.13914597004E+02  0.00000000000E+00 0. -1.
<mgrwt>
<rscale>  0 0.80003789E+02</rscale>
<asrwt>0</asrwt>
<pdfrwt beam="1">  1        2 0.30030623E-02 0.80003789E+02</pdfrwt>
<pdfrwt beam="2">  1       -1 0.12611597E-01 0.80003789E+02</pdfrwt>
<totfact> 0.12353020E+05</totfact>
</mgrwt>
</event>
<event>
 8    1  0.2389776E-020  0.7839158E+02  0.7818608E-02  0.1333679E+00
         -1   -1    0    0    0  501 -0.00000000000E+00  0.00000000000E+00  0.35018916845E+01  0.35018953113E+01  0.50400000000E-02 0.  1.
          2   -1    0    0  501    0  0.00000000000E+00 -0.00000000000E+00 -0.43870834813E+03  0.43870834813E+03  0.25500000000E-02 0. -1.
         24    2    1    2    0    0  0.00000000000E+00 -0.17763568394E-14 -0.43520645644E+03  0.44221024345E+03  0.78391579134E+02 0.  0.
         66    2    3    3    0    0  0.33188260023E+02  0.12933181468E+02 -0.30967394770E+03  0.31172212252E+03  0.20000002497E+01 0.  0.
        -13    1    3    3    0    0 -0.33188260023E+02 -0.12933181468E+02 -0.12553250874E+03  0.13048812092E+03  0.10566000000E+00 0.  1.
         13    1    4    4    0    0  0.64636597834E+01  0.24146695776E+01 -0.56445836120E+02  0.56866098039E+02  0.10566000000E+00 0.  1.
        -13    1    4    4    0    0  0.14456507076E+02  0.51692226806E+01 -0.13022114643E+03  0.13112310857E+03  0.10566000000E+00 0. -1.
        -14    1    4    4    0    0  0.12268093164E+02  0.53492892096E+01 -0.12300696515E+03  0.12373291592E+03  0.00000000000E+00 0.  1.
<mgrwt>
<rscale>  0 0.78391579E+02</rscale>
<asrwt>0</asrwt>
<pdfrwt beam="1">  1        2 0.67493549E-01 0.78391579E+02</pdfrwt>
<pdfrwt beam="2">  1       -1 0.53875320E-03 0.78391579E+02</pdfrwt>
<totfact> 0.30753318E+05</totfact>
</mgrwt>
</event>
<event>
 8    1  0.2389776E-020  0.8226570E+02  0.7818608E-02  0.1322742E+00
          2   -1    0    0  501    0  0.00000000000E+00  0.00000000000E+00  0.17562161468E+03  0.17562161470E+03  0.25500000000E-02 0. -1.
         -1   -1    0    0    0  501 -0.00000000000E+00 -0.00000000000E+00 -0.96338436613E+01  0.96338449797E+01  0.50400000000E-02 0.  1.
         24    2    1    2    0    0  0.71054273576E-14  0.00000000000E+00  0.16598777102E+03  0.18525545968E+03  0.82265698885E+02 0.  0.
         66    2    3    3    0    0 -0.32327994933E+02  0.25126527955E+02  0.74779575107E+02  0.85278523193E+02  0.20000003448E+01 0.  0.
        -13    1    3    3    0    0  0.32327994933E+02 -0.25126527955E+02  0.91208195915E+02  0.99976936488E+02  0.10566000000E+00 0.  1.
         13    1    4    4    0    0 -0.68137439023E+01  0.51615566688E+01  0.14970946270E+02  0.17239755493E+02  0.10566000000E+00 0. -1.
        -13    1    4    4    0    0 -0.14268420361E+02  0.10197906442E+02  0.32881853875E+02  0.37266776003E+02  0.10566000000E+00 0.  1.
         14    1    4    4    0    0 -0.11245830670E+02  0.97670648441E+01  0.26926774962E+02  0.30771991697E+02  0.00000000000E+00 0. -1.
<mgrwt>
<rscale>  0 0.82265699E+02</rscale>
<asrwt>0</asrwt>
<pdfrwt beam="1">  1        2 0.27018708E-01 0.82265699E+02</pdfrwt>
<pdfrwt beam="2">  1       -1 0.14821300E-02 0.82265699E+02</pdfrwt>
<totfact> 0.19593401E+05</totfact>
</mgrwt>
</event>
<event>
 8    1  0.2389776E-020  0.7962642E+02  0.7818608E-02  0.1330115E+00
         -1   -1    0    0    0  501 -0.00000000000E+00  0.00000000000E+00  0.25652698467E+02  0.25652698962E+02  0.50400000000E-02 0.  1.
          2   -1    0    0  501    0  0.00000000000E+00 -0.00000000000E+00 -0.61790447261E+02  0.61790447314E+02  0.25500000000E-02 0. -1.
         24    2    1    2    0    0  0.35527136788E-14  0.00000000000E+00 -0.36137748794E+02  0.87443146276E+02  0.79626421135E+02 0.  0.
         66    2    3    3    0    0  0.21758213353E+02  0.33029477824E+02 -0.22831708445E+02  0.45712724190E+02  0.19999971844E+01 0.  0.
        -13    1    3    3    0    0 -0.21758213353E+02 -0.33029477824E+02 -0.13306040349E+02  0.41730422086E+02  0.10566000000E+00 0.  1.
         13    1    4    4    0    0  0.11022492780E+02  0.16971245306E+02 -0.11966429042E+02  0.23510106388E+02  0.10566000000E+00 0. -1.
        -13    1    4    4    0    0  0.96297969714E+01  0.14016011865E+02 -0.99755167055E+01  0.19715569377E+02  0.10566000000E+00 0.  1.
         14    1    4    4    0    0  0.11059236019E+01  0.20422206532E+01 -0.88976269741E+00  0.24870484248E+01  0.00000000000E+00 0. -1.
<mgrwt>
<rscale>  0 0.79626421E+02</rscale>
<asrwt>0</asrwt>
<pdfrwt beam="1">  1        2 0.95062226E-02 0.79626421E+02</pdfrwt>
<pdfrwt beam="2">  1       -1 0.39465691E-02 0.79626421E+02</pdfrwt>
<totfact> 0.15873409E+05</totfact>
</mgrwt>
</event>
<event>
 8    1  0.2389776E-020  0.7704401E+02  0.7818608E-02  0.1337656E+00
          2   -1    0    0  501    0  0.00000000000E+00  0.00000000000E+00  0.13289772500E+04  0.13289772500E+04  0.25500000000E-02 0. -1.
         -1   -1    0    0    0  501 -0.00000000000E+00 -0.00000000000E+00 -0.11166009827E+01  0.11166123572E+01  0.50400000000E-02 0.  1.
         24    2    1    2    0    0 -0.17763568394E-14 -0.35527136788E-14  0.13278606490E+04  0.13300938624E+04  0.77044010008E+02 0.  0.
         66    2    3    3    0    0  0.13390432183E+02  0.18174605707E+02  0.12027057845E+04  0.12029192924E+04  0.20000015862E+01 0.  0.
        -13    1    3    3    0    0 -0.13390432183E+02 -0.18174605707E+02  0.12515486456E+03  0.12717457000E+03  0.10566000000E+00 0.  1.
         13    1    4    4    0    0  0.14787947099E+01  0.28963192709E+01  0.16235165952E+03  0.16238426036E+03  0.10566000000E+00 0. -1.
        -13    1    4    4    0    0  0.44363752511E+00  0.90853621870E+00  0.56628123121E+02  0.56637246972E+02  0.10566000000E+00 0.  1.
         14    1    4    4    0    0  0.11467999948E+02  0.14369750218E+02  0.98372600181E+03  0.98389778503E+03  0.00000000000E+00 0. -1.
<mgrwt>
<rscale>  0 0.77044010E+02</rscale>
<asrwt>0</asrwt>
<pdfrwt beam="1">  1        2 0.20445852E+00 0.77044010E+02</pdfrwt>
<pdfrwt beam="2">  1       -1 0.17178524E-03 0.77044010E+02</pdfrwt>
<totfact> 0.37992486E+05</totfact>
</mgrwt>
</event>
<event>
 8    1  0.2389776E-020  0.8209293E+02  0.7818608E-02  0.1323215E+00
         -1   -1    0    0    0  501 -0.00000000000E+00  0.00000000000E+00  0.52747671466E+02  0.52747671706E+02  0.50400000000E-02 0.  1.
          2   -1    0    0  501    0  0.00000000000E+00 -0.00000000000E+00 -0.31940977401E+02  0.31940977503E+02  0.25500000000E-02 0. -1.
         24    2    1    2    0    0 -0.88817841970E-15  0.35527136788E-14  0.20806694065E+02  0.84688649209E+02  0.82092927753E+02 0.  0.
         66    2    3    3    0    0 -0.45059072048E+01 -0.31903041716E+02 -0.15784281166E+02  0.35933978634E+02  0.20000045164E+01 0.  0.
        -13    1    3    3    0    0  0.45059072048E+01  0.31903041716E+02  0.36590975231E+02  0.48754670575E+02  0.10566000000E+00 0.  1.
         13    1    4    4    0    0 -0.35270697772E+01 -0.22235161251E+02 -0.11273768315E+02  0.25178396158E+02  0.10566000000E+00 0. -1.
        -13    1    4    4    0    0 -0.49097735029E+00 -0.20013889957E+01 -0.68812593095E+00  0.21751547078E+01  0.10566000000E+00 0.  1.
         14    1    4    4    0    0 -0.48786007735E+00 -0.76664914701E+01 -0.38223869201E+01  0.85804277681E+01  0.00000000000E+00 0. -1.
<mgrwt>
<rscale>  0 0.82092928E+02</rscale>
<asrwt>0</asrwt>
<pdfrwt beam="1">  1        2 0.49139965E-02 0.82092928E+02</pdfrwt>
<pdfrwt beam="2">  1       -1 0.81150265E-02 0.82092928E+02</pdfrwt>
<totfact> 0.12672865E+05</totfact>
</mgrwt>
</event>
<event>
 8    1  0.2389776E-020  0.8683439E+02  0.7818608E-02  0.1310704E+00
         -1   -1    0    0    0  501 -0.00000000000E+00  0.00000000000E+00  0.12333556735E+02  0.12333557765E+02  0.50400000000E-02 0.  1.
          2   -1    0    0  501    0  0.00000000000E+00 -0.00000000000E+00 -0.15283934022E+03  0.15283934024E+03  0.25500000000E-02 0. -1.
         24    2    1    2    0    0  0.00000000000E+00  0.00000000000E+00 -0.14050578348E+03  0.16517289800E+03  0.86834388596E+02 0.  0.
         66    2    3    3    0    0 -0.10813031878E+02  0.49682447752E+01 -0.14966832420E+03  0.15015396226E+03  0.19999994547E+01 0.  0.
        -13    1    3    3    0    0  0.10813031878E+02 -0.49682447752E+01  0.91625407173E+01  0.15018935747E+02  0.10566000000E+00 0.  1.
         13    1    4    4    0    0 -0.77841386885E+00  0.18544483412E+00 -0.10043342981E+02  0.10075724302E+02  0.10566000000E+00 0. -1.
        -13    1    4    4    0    0 -0.38637052017E+01  0.26185889479E+01 -0.51670137546E+02  0.51880627445E+02  0.10566000000E+00 0.  1.
         14    1    4    4    0    0 -0.61709128077E+01  0.21642109931E+01 -0.87954843674E+02  0.88197610511E+02  0.00000000000E+00 0. -1.
<mgrwt>
<rscale>  0 0.86834389E+02</rscale>
<asrwt>0</asrwt>
<pdfrwt beam="1">  1        2 0.23513743E-01 0.86834389E+02</pdfrwt>
<pdfrwt beam="2">  1       -1 0.18974705E-02 0.86834389E+02</pdfrwt>
<totfact> 0.16197925E+05</totfact>
</mgrwt>
</event>
<event>
 8    1  0.2389776E-020  0.7972201E+02  0.7818608E-02  0.1329842E+00
         -1   -1    0    0    0  501 -0.00000000000E+00  0.00000000000E+00  0.16217076271E+01  0.16217154588E+01  0.50400000000E-02 0.  1.
          2   -1    0    0  501    0  0.00000000000E+00 -0.00000000000E+00 -0.97976703884E+03  0.97976703885E+03  0.25500000000E-02 0. -1.
         24    2    1    2    0    0  0.17763568394E-14 -0.69388939039E-16 -0.97814533122E+03  0.98138875430E+03  0.79722005099E+02 0.  0.
         66    2    3    3    0    0  0.11176649551E+02 -0.78327090312E-01 -0.96006664502E+03  0.96013378573E+03  0.19999995574E+01 0.  0.
        -13    1    3    3    0    0 -0.11176649551E+02  0.78327090312E-01 -0.18078686195E+02  0.21254968569E+02  0.10566000000E+00 0.  1.
         13    1    4    4    0    0  0.60513131140E+01 -0.83335158992E+00 -0.53903848399E+03  0.53907310381E+03  0.10566000000E+00 0.  1.
        -13    1    4    4    0    0  0.42741813305E+01  0.35244457661E+00 -0.34912813523E+03  0.34915449133E+03  0.10566000000E+00 0. -1.
         14    1    4    4    0    0  0.85115510701E+00  0.40257992299E+00 -0.71900025804E+02  0.71906190597E+02  0.00000000000E+00 0. -1.
<mgrwt>
<rscale>  0 0.79722005E+02</rscale>
<asrwt>0</asrwt>
<pdfrwt beam="1">  1        2 0.15073292E+00 0.79722005E+02</pdfrwt>
<pdfrwt beam="2">  1       -1 0.24949487E-03 0.79722005E+02</pdfrwt>
<totfact> 0.35515364E+05</totfact>
</mgrwt>
</event>
<event>
 8    1  0.2389776E-020  0.8040244E+02  0.7818608E-02  0.1327913E+00
          2   -1    0    0  501    0  0.00000000000E+00  0.00000000000E+00  0.12861535896E+04  0.12861535896E+04  0.25500000000E-02 0. -1.
         -1   -1    0    0    0  501 -0.00000000000E+00 -0.00000000000E+00 -0.12565618937E+01  0.12565720012E+01  0.50400000000E-02 0.  1.
         24    2    1    2    0    0  0.00000000000E+00 -0.17763568394E-14  0.12848970277E+04  0.12874101616E+04  0.80402440212E+02 0.  0.
         66    2    3    3    0    0  0.17254807463E+02  0.14150007489E+02  0.11777974207E+04  0.11780104903E+04  0.20000001132E+01 0.  0.
        -13    1    3    3    0    0 -0.17254807463E+02 -0.14150007489E+02  0.10709960704E+03  0.10939967132E+03  0.10566000000E+00 0.  1.
         13    1    4    4    0    0  0.89138411169E+01  0.76706695603E+01  0.60417844701E+03  0.60429289482E+03  0.10566000000E+00 0. -1.
        -13    1    4    4    0    0  0.34984144852E+01  0.19790220826E+01  0.22612346776E+03  0.22615921222E+03  0.10566000000E+00 0.  1.
        -14    1    4    4    0    0  0.48425518608E+01  0.45003158456E+01  0.34749550590E+03  0.34755838326E+03  0.00000000000E+00 0.  1.
<mgrwt>
<rscale>  0 0.80402440E+02</rscale>
<asrwt>0</asrwt>
<pdfrwt beam="1">  1        2 0.19786891E+00 0.80402440E+02</pdfrwt>
<pdfrwt beam="2">  1       -1 0.19331885E-03 0.80402440E+02</pdfrwt>
<totfact> 0.34237519E+05</totfact>
</mgrwt>
</event>
<event>
 8    1  0.2389776E-020  0.8400707E+02  0.7818608E-02  0.1318050E+00
          2   -1    0    0  501    0  0.00000000000E+00  0.00000000000E+00  0.23601881664E+03  0.23601881665E+03  0.25500000000E-02 0. -1.
         -1   -1    0    0    0  501 -0.00000000000E+00 -0.00000000000E+00 -0.74752368415E+01  0.74752385405E+01  0.50400000000E-02 0.  1.
         24    2    1    2    0    0  0.17763568394E-14  0.00000000000E+00  0.22854357980E+03  0.24349405519E+03  0.84007065464E+02 0.  0.
         66    2    3    3    0    0 -0.11209932159E+02  0.56761177047E+01  0.23043587667E+03  0.23078685870E+03  0.19999999717E+01 0.  0.
        -13    1    3    3    0    0  0.11209932159E+02 -0.56761177047E+01 -0.18922968753E+01  0.12707196492E+02  0.10566000000E+00 0.  1.
         13    1    4    4    0    0 -0.54503947638E+01  0.28301314472E+01  0.11331110439E+03  0.11347746027E+03  0.10566000000E+00 0. -1.
        -13    1    4    4    0    0 -0.50483638214E+01  0.19300860273E+01  0.93402468286E+02  0.93558770061E+02  0.10566000000E+00 0.  1.
        -14    1    4    4    0    0 -0.71117357338E+00  0.91590023022E+00  0.23722303994E+02  0.23750628368E+02  0.00000000000E+00 0.  1.
<mgrwt>
<rscale>  0 0.84007065E+02</rscale>
<asrwt>0</asrwt>
<pdfrwt beam="1">  1        2 0.36310589E-01 0.84007065E+02</pdfrwt>
<pdfrwt beam="2">  1       -1 0.11500365E-02 0.84007065E+02</pdfrwt>
<totfact> 0.20554325E+05</totfact>
</mgrwt>
</event>
<event>
 8    1  0.2389776E-020  0.7807063E+02  0.7818608E-02  0.1334618E+00
         -1   -1    0    0    0  501 -0.00000000000E+00  0.00000000000E+00  0.20012757661E+02  0.20012758296E+02  0.50400000000E-02 0.  1.
          2   -1    0    0  501    0  0.00000000000E+00 -0.00000000000E+00 -0.76139213167E+02  0.76139213210E+02  0.25500000000E-02 0. -1.
         24    2    1    2    0    0 -0.88817841970E-15  0.35527136788E-14 -0.56126455506E+02  0.96151971505E+02  0.78070625825E+02 0.  0.
         66    2    3    3    0    0  0.54880050296E+01 -0.26572547078E+02 -0.62600143743E+02  0.68256841808E+02  0.19999998918E+01 0.  0.
        -13    1    3    3    0    0 -0.54880050296E+01  0.26572547078E+02  0.64736882370E+01  0.27895129697E+02  0.10566000000E+00 0.  1.
         13    1    4    4    0    0  0.78562583421E+00 -0.33025740829E+01 -0.68475803553E+01  0.76436067587E+01  0.10566000000E+00 0. -1.
        -13    1    4    4    0    0  0.29771682070E+01 -0.12960472388E+02 -0.32752582126E+02  0.35349401338E+02  0.10566000000E+00 0.  1.
        -14    1    4    4    0    0  0.17252109884E+01 -0.10309500607E+02 -0.22999981262E+02  0.25263833711E+02  0.00000000000E+00 0.  1.
<mgrwt>
<rscale>  0 0.78070626E+02</rscale>
<asrwt>0</asrwt>
<pdfrwt beam="1">  1        2 0.11713725E-01 0.78070626E+02</pdfrwt>
<pdfrwt beam="2">  1       -1 0.30788859E-02 0.78070626E+02</pdfrwt>
<totfact> 0.17608309E+05</totfact>
</mgrwt>
</event>
<event>
 8    1  0.2389776E-020  0.7930307E+02  0.7818608E-02  0.1331041E+00
         -1   -1    0    0    0  501 -0.00000000000E+00  0.00000000000E+00  0.13905831204E+03  0.13905831213E+03  0.50400000000E-02 0.  1.
          2   -1    0    0  501    0  0.00000000000E+00 -0.00000000000E+00 -0.11306366316E+02  0.11306366604E+02  0.25500000000E-02 0. -1.
         24    2    1    2    0    0  0.00000000000E+00  0.00000000000E+00  0.12775194572E+03  0.15036467873E+03  0.79303070400E+02 0.  0.
         66    2    3    3    0    0 -0.19441219864E+02  0.11385697080E+02  0.21077655700E+01  0.22716465672E+02  0.20000022851E+01 0.  0.
        -13    1    3    3    0    0  0.19441219864E+02 -0.11385697080E+02  0.12564418015E+03  0.12764821306E+03  0.10566000000E+00 0.  1.
         13    1    4    4    0    0 -0.75333573345E+01  0.48126371118E+01  0.94603220064E+00  0.89899438074E+01  0.10566000000E+00 0. -1.
        -13    1    4    4    0    0 -0.35602474189E+01  0.18909292508E+01  0.99700371268E+00  0.41540529070E+01  0.10566000000E+00 0.  1.
         14    1    4    4    0    0 -0.83476151105E+01  0.46821307171E+01  0.16472965670E+00  0.95724689576E+01  0.00000000000E+00 0. -1.
<mgrwt>
<rscale>  0 0.79303070E+02</rscale>
<asrwt>0</asrwt>
<pdfrwt beam="1">  1        2 0.17394410E-02 0.79303070E+02</pdfrwt>
<pdfrwt beam="2">  1       -1 0.21393586E-01 0.79303070E+02</pdfrwt>
<totfact> 0.11238755E+05</totfact>
</mgrwt>
</event>
<event>
 8    1  0.2389776E-020  0.7856309E+02  0.7818608E-02  0.1333179E+00
          2   -1    0    0  501    0  0.00000000000E+00  0.00000000000E+00  0.40115285494E+03  0.40115285495E+03  0.25500000000E-02 0. -1.
         -1   -1    0    0    0  501 -0.00000000000E+00 -0.00000000000E+00 -0.38465115391E+01  0.38465148410E+01  0.50400000000E-02 0.  1.
         24    2    1    2    0    0 -0.35527136788E-14  0.35527136788E-14  0.39730634340E+03  0.40499936979E+03  0.78563089445E+02 0.  0.
         66    2    3    3    0    0  0.22190856763E+02 -0.27201230403E+02  0.28935475524E+03  0.29148330216E+03  0.19999998407E+01 0.  0.
        -13    1    3    3    0    0 -0.22190856763E+02  0.27201230403E+02  0.10795158816E+03  0.11351606763E+03  0.10566000000E+00 0.  1.
         13    1    4    4    0    0  0.12266533554E+02 -0.15946900711E+02  0.16858903627E+03  0.16978529325E+03  0.10566000000E+00 0. -1.
        -13    1    4    4    0    0  0.75692235493E+01 -0.90589789554E+01  0.93046739936E+02  0.93792671471E+02  0.10566000000E+00 0.  1.
         14    1    4    4    0    0  0.23550996598E+01 -0.21953507363E+01  0.27718979032E+02  0.27905337443E+02  0.00000000000E+00 0. -1.
<mgrwt>
<rscale>  0 0.78563089E+02</rscale>
<asrwt>0</asrwt>
<pdfrwt beam="1">  1        2 0.61715828E-01 0.78563089E+02</pdfrwt>
<pdfrwt beam="2">  1       -1 0.59177122E-03 0.78563089E+02</pdfrwt>
<totfact> 0.29651968E+05</totfact>
</mgrwt>
</event>
<event>
 8    1  0.2389776E-020  0.7930967E+02  0.7818608E-02  0.1331022E+00
         -1   -1    0    0    0  501 -0.00000000000E+00  0.00000000000E+00  0.25005417865E+03  0.25005417870E+03  0.50400000000E-02 0.  1.
          2   -1    0    0  501    0  0.00000000000E+00 -0.00000000000E+00 -0.62886611279E+01  0.62886616449E+01  0.25500000000E-02 0. -1.
         24    2    1    2    0    0  0.00000000000E+00  0.00000000000E+00  0.24376551752E+03  0.25634284035E+03  0.79309673203E+02 0.  0.
         66    2    3    3    0    0  0.23771421293E+02 -0.22928536211E+02  0.51168538390E+02  0.60934535051E+02  0.19999994736E+01 0.  0.
        -13    1    3    3    0    0 -0.23771421293E+02  0.22928536211E+02  0.19259697913E+03  0.19540830529E+03  0.10566000000E+00 0.  1.
         13    1    4    4    0    0  0.96224326539E+01 -0.88679204884E+01  0.21197626104E+02  0.24911478086E+02  0.10566000000E+00 0. -1.
        -13    1    4    4    0    0  0.28063263197E+00 -0.44504704236E+00  0.60860357476E+00  0.81140858440E+00  0.10566000000E+00 0.  1.
         14    1    4    4    0    0  0.13868356007E+02 -0.13615568680E+02  0.29362308711E+02  0.35211648381E+02  0.00000000000E+00 0. -1.
<mgrwt>
<rscale>  0 0.79309673E+02</rscale>
<asrwt>0</asrwt>
<pdfrwt beam="1">  1        2 0.96748644E-03 0.79309673E+02</pdfrwt>
<pdfrwt beam="2">  1       -1 0.38469871E-01 0.79309673E+02</pdfrwt>
<totfact> 0.94674575E+04</totfact>
</mgrwt>
</event>
<event>
 8    1  0.2389776E-020  0.7847723E+02  0.7818608E-02  0.1333429E+00
          2   -1    0    0  501    0  0.00000000000E+00  0.00000000000E+00  0.16223066632E+04  0.16223066632E+04  0.25500000000E-02 0. -1.
         -1   -1    0    0    0  501 -0.00000000000E+00 -0.00000000000E+00 -0.94905492468E+00  0.94906830716E+00  0.50400000000E-02 0.  1.
         24    2    1    2    0    0  0.00000000000E+00 -0.27755575616E-16  0.16213576082E+04  0.16232557315E+04  0.78477232144E+02 0.  0.
         66    2    3    3    0    0 -0.15882965609E+02  0.23429516786E+00  0.15527742422E+04  0.15528567773E+04  0.20000000540E+01 0.  0.
        -13    1    3    3    0    0  0.15882965609E+02 -0.23429516786E+00  0.68583366028E+02  0.70398954186E+02  0.10566000000E+00 0.  1.
         13    1    4    4    0    0 -0.10612450925E+02  0.71815365498E+00  0.10063263388E+04  0.10063825571E+04  0.10566000000E+00 0. -1.
        -13    1    4    4    0    0 -0.22194587646E+01  0.14299781545E+00  0.25236442624E+03  0.25237424838E+03  0.10566000000E+00 0.  1.
         14    1    4    4    0    0 -0.30510559191E+01 -0.62685630257E+00  0.29408347717E+03  0.29409997183E+03  0.00000000000E+00 0. -1.
<mgrwt>
<rscale>  0 0.78477232E+02</rscale>
<asrwt>0</asrwt>
<pdfrwt beam="1">  1        2 0.24958612E+00 0.78477232E+02</pdfrwt>
<pdfrwt beam="2">  1       -1 0.14600920E-03 0.78477232E+02</pdfrwt>
<totfact> 0.33779845E+05</totfact>
</mgrwt>
</event>
<event>
 8    1  0.2389776E-020  0.7926739E+02  0.7818608E-02  0.1331143E+00
         -1   -1    0    0    0  501 -0.00000000000E+00  0.00000000000E+00  0.14796660662E+02  0.14796661521E+02  0.50400000000E-02 0.  1.
          2   -1    0    0  501    0  0.00000000000E+00 -0.00000000000E+00 -0.10616110538E+03  0.10616110541E+03  0.25500000000E-02 0. -1.
         24    2    1    2    0    0  0.00000000000E+00 -0.35527136788E-14 -0.91364444714E+02  0.12095776693E+03  0.79267393184E+02 0.  0.
         66    2    3    3    0    0 -0.21061235238E+02  0.27256856589E+02 -0.15874661206E+02  0.37980478234E+02  0.19999994030E+01 0.  0.
        -13    1    3    3    0    0  0.21061235238E+02 -0.27256856589E+02 -0.75489783508E+02  0.82977288694E+02  0.10566000000E+00 0.  1.
         13    1    4    4    0    0 -0.87594713976E+01  0.10452008196E+02 -0.64637772173E+01  0.15091865175E+02  0.10566000000E+00 0.  1.
        -13    1    4    4    0    0 -0.36905529800E+01  0.47868969914E+01 -0.21402394165E+01  0.64129831514E+01  0.10566000000E+00 0. -1.
         14    1    4    4    0    0 -0.86112108604E+01  0.12017951401E+02 -0.72706445722E+01  0.16475629907E+02  0.00000000000E+00 0. -1.
<mgrwt>
<rscale>  0 0.79267393E+02</rscale>
<asrwt>0</asrwt>
<pdfrwt beam="1">  1        2 0.16332477E-01 0.79267393E+02</pdfrwt>
<pdfrwt beam="2">  1       -1 0.22764095E-02 0.79267393E+02</pdfrwt>
<totfact> 0.18477253E+05</totfact>
</mgrwt>
</event>
<event>
 8    1  0.2389776E-020  0.7878925E+02  0.7818608E-02  0.1332523E+00
         -1   -1    0    0    0  501 -0.00000000000E+00  0.00000000000E+00  0.58183512483E+02  0.58183512701E+02  0.50400000000E-02 0.  1.
          2   -1    0    0  501    0  0.00000000000E+00 -0.00000000000E+00 -0.26673128057E+02  0.26673128179E+02  0.25500000000E-02 0. -1.
         24    2    1    2    0    0 -0.44408920985E-15 -0.71054273576E-14  0.31510384426E+02  0.84856640880E+02  0.78789245299E+02 0.  0.
         66    2    3    3    0    0  0.38812542652E+01  0.38303715850E+02  0.69041821694E+01  0.39165119389E+02  0.20000156808E+01 0.  0.
        -13    1    3    3    0    0 -0.38812542652E+01 -0.38303715850E+02  0.24606202256E+02  0.45691521491E+02  0.10566000000E+00 0.  1.
         13    1    4    4    0    0  0.28016936411E+01  0.24561065785E+02  0.47757521543E+01  0.25177657008E+02  0.10566000000E+00 0. -1.
        -13    1    4    4    0    0  0.17102854224E-01  0.33592132839E+01  0.88880975783E+00  0.34764569918E+01  0.10566000000E+00 0.  1.
         14    1    4    4    0    0  0.10624577699E+01  0.10383436781E+02  0.12396202573E+01  0.10511005389E+02  0.00000000000E+00 0. -1.
<mgrwt>
<rscale>  0 0.78789245E+02</rscale>
<asrwt>0</asrwt>
<pdfrwt beam="1">  1        2 0.41035582E-02 0.78789245E+02</pdfrwt>
<pdfrwt beam="2">  1       -1 0.89513097E-02 0.78789245E+02</pdfrwt>
<totfact> 0.13724391E+05</totfact>
</mgrwt>
</event>
<event>
 8    1  0.2389776E-020  0.8122992E+02  0.7818608E-02  0.1325597E+00
         -1   -1    0    0    0  501 -0.00000000000E+00  0.00000000000E+00  0.72302899003E+01  0.72302916569E+01  0.50400000000E-02 0.  1.
          2   -1    0    0  501    0  0.00000000000E+00 -0.00000000000E+00 -0.22814782527E+03  0.22814782529E+03  0.25500000000E-02 0. -1.
         24    2    1    2    0    0  0.00000000000E+00  0.35527136788E-14 -0.22091753537E+03  0.23537811694E+03  0.81229923679E+02 0.  0.
         66    2    3    3    0    0 -0.91522667731E+01 -0.28810210249E+02 -0.18901880252E+03  0.19143118846E+03  0.20000016504E+01 0.  0.
        -13    1    3    3    0    0  0.91522667731E+01  0.28810210249E+02 -0.31898732850E+02  0.43946928484E+02  0.10566000000E+00 0.  1.
         13    1    4    4    0    0 -0.19402046204E+01 -0.75967479043E+01 -0.45827502376E+02  0.46493506113E+02  0.10566000000E+00 0. -1.
        -13    1    4    4    0    0 -0.18076008352E+01 -0.67917366976E+01 -0.45697172465E+02  0.46234595742E+02  0.10566000000E+00 0.  1.
         14    1    4    4    0    0 -0.54044613174E+01 -0.14421725647E+02 -0.97494127680E+02  0.98703086603E+02  0.00000000000E+00 0. -1.
<mgrwt>
<rscale>  0 0.81229924E+02</rscale>
<asrwt>0</asrwt>
<pdfrwt beam="1">  1        2 0.35099660E-01 0.81229924E+02</pdfrwt>
<pdfrwt beam="2">  1       -1 0.11123526E-02 0.81229924E+02</pdfrwt>
<totfact> 0.22192238E+05</totfact>
</mgrwt>
</event>
<event>
 8    1  0.2389776E-020  0.8126734E+02  0.7818608E-02  0.1325493E+00
         -1   -1    0    0    0  501 -0.00000000000E+00  0.00000000000E+00  0.19786530719E+01  0.19786594908E+01  0.50400000000E-02 0.  1.
          2   -1    0    0  501    0  0.00000000000E+00 -0.00000000000E+00 -0.83445275224E+03  0.83445275224E+03  0.25500000000E-02 0. -1.
         24    2    1    2    0    0  0.00000000000E+00  0.00000000000E+00 -0.83247409917E+03  0.83643141173E+03  0.81267341232E+02 0.  0.
         66    2    3    3    0    0  0.10172791180E+02  0.27812278724E+01 -0.82010966858E+03  0.82017991283E+03  0.19999999481E+01 0.  0.
        -13    1    3    3    0    0 -0.10172791180E+02 -0.27812278724E+01 -0.12364430583E+02  0.16251498901E+02  0.10566000000E+00 0.  1.
         13    1    4    4    0    0  0.11064362381E+01  0.60319786293E+00 -0.10574869760E+03  0.10575625871E+03  0.10566000000E+00 0. -1.
        -13    1    4    4    0    0  0.51905581159E+01  0.20521950664E+01 -0.41223326809E+03  0.41227106603E+03  0.10566000000E+00 0.  1.
        -14    1    4    4    0    0  0.38757968256E+01  0.12583494302E+00 -0.30212770289E+03  0.30215258809E+03  0.00000000000E+00 0.  1.
<mgrwt>
<rscale>  0 0.81267341E+02</rscale>
<asrwt>0</asrwt>
<pdfrwt beam="1">  1        2 0.12837707E+00 0.81267341E+02</pdfrwt>
<pdfrwt beam="2">  1       -1 0.30440933E-03 0.81267341E+02</pdfrwt>
<totfact> 0.33216257E+05</totfact>
</mgrwt>
</event>
<event>
 8    1  0.2389776E-020  0.7687659E+02  0.7818608E-02  0.1338156E+00
         -1   -1    0    0    0  501 -0.00000000000E+00  0.00000000000E+00  0.23656611880E+03  0.23656611886E+03  0.50400000000E-02 0.  1.
          2   -1    0    0  501    0  0.00000000000E+00 -0.00000000000E+00 -0.62456219855E+01  0.62456225060E+01  0.25500000000E-02 0. -1.
         24    2    1    2    0    0  0.00000000000E+00  0.35527136788E-14  0.23032049682E+03  0.24281174136E+03  0.76876592597E+02 0.  0.
         66    2    3    3    0    0 -0.19818748574E+02  0.30951226666E+02  0.15051340304E+03  0.15494852603E+03  0.19999993019E+01 0.  0.
        -13    1    3    3    0    0  0.19818748574E+02 -0.30951226666E+02  0.79807093773E+02  0.87863215328E+02  0.10566000000E+00 0.  1.
         13    1    4    4    0    0 -0.10725581761E+02  0.16940866482E+02  0.79662046394E+02  0.82146721548E+02  0.10566000000E+00 0. -1.
        -13    1    4    4    0    0 -0.85267902199E+01  0.12708618296E+02  0.63932194670E+02  0.65738510858E+02  0.10566000000E+00 0.  1.
        -14    1    4    4    0    0 -0.56637659383E+00  0.13017418881E+01  0.69191619790E+01  0.70632936284E+01  0.00000000000E+00 0.  1.
<mgrwt>
<rscale>  0 0.76876593E+02</rscale>
<asrwt>0</asrwt>
<pdfrwt beam="1">  1        2 0.96086490E-03 0.76876593E+02</pdfrwt>
<pdfrwt beam="2">  1       -1 0.36394790E-01 0.76876593E+02</pdfrwt>
<totfact> 0.10448841E+05</totfact>
</mgrwt>
</event>
<event>
 8    1  0.2389776E-020  0.7821620E+02  0.7818608E-02  0.1334191E+00
          2   -1    0    0  501    0  0.00000000000E+00  0.00000000000E+00  0.81034552559E+01  0.81034556571E+01  0.25500000000E-02 0. -1.
         -1   -1    0    0    0  501 -0.00000000000E+00 -0.00000000000E+00 -0.18873965026E+03  0.18873965033E+03  0.50400000000E-02 0.  1.
         24    2    1    2    0    0  0.71054273576E-14  0.22204460493E-15 -0.18063619501E+03  0.19684310599E+03  0.78216196712E+02 0.  0.
         66    2    3    3    0    0  0.31089155981E+02  0.18493894527E+01 -0.30956094949E+02  0.43957202849E+02  0.20000017108E+01 0.  0.
        -13    1    3    3    0    0 -0.31089155981E+02 -0.18493894527E+01 -0.14968010006E+03  0.15288590314E+03  0.10566000000E+00 0.  1.
         13    1    4    4    0    0  0.99800918158E+01  0.13747600831E+01 -0.98727582849E+01  0.14105839859E+02  0.10566000000E+00 0. -1.
        -13    1    4    4    0    0  0.15591063568E+02  0.33631012515E-01 -0.15249330823E+02  0.21809072626E+02  0.10566000000E+00 0.  1.
        -14    1    4    4    0    0  0.55180005979E+01  0.44099835710E+00 -0.58340058414E+01  0.80422903645E+01  0.00000000000E+00 0.  1.
<mgrwt>
<rscale>  0 0.78216197E+02</rscale>
<asrwt>0</asrwt>
<pdfrwt beam="1">  1        2 0.12466856E-02 0.78216197E+02</pdfrwt>
<pdfrwt beam="2">  1       -1 0.29036866E-01 0.78216197E+02</pdfrwt>
<totfact> 0.10730947E+05</totfact>
</mgrwt>
</event>
<event>
 8    1  0.2389776E-020  0.7937204E+02  0.7818608E-02  0.1330843E+00
          2   -1    0    0  501    0  0.00000000000E+00  0.00000000000E+00  0.11644241771E+03  0.11644241774E+03  0.25500000000E-02 0. -1.
         -1   -1    0    0    0  501 -0.00000000000E+00 -0.00000000000E+00 -0.13525829132E+02  0.13525830071E+02  0.50400000000E-02 0.  1.
         24    2    1    2    0    0  0.00000000000E+00  0.00000000000E+00  0.10291658858E+03  0.12996824781E+03  0.79372043151E+02 0.  0.
         66    2    3    3    0    0  0.22377620387E+02 -0.28023318031E+02  0.79226846954E+02  0.86988260955E+02  0.20000045141E+01 0.  0.
        -13    1    3    3    0    0 -0.22377620387E+02  0.28023318031E+02  0.23689741623E+02  0.42979986852E+02  0.10566000000E+00 0.  1.
         13    1    4    4    0    0  0.17625264640E+02 -0.22102783096E+02  0.64332726540E+02  0.70270149013E+02  0.10566000000E+00 0. -1.
        -13    1    4    4    0    0  0.39419470862E+01 -0.49503943710E+01  0.12355955760E+02  0.13882584703E+02  0.10566000000E+00 0.  1.
         14    1    4    4    0    0  0.81040866091E+00 -0.97014056448E+00  0.25381646538E+01  0.28355272388E+01  0.00000000000E+00 0. -1.
<mgrwt>
<rscale>  0 0.79372043E+02</rscale>
<asrwt>0</asrwt>
<pdfrwt beam="1">  1        2 0.17914217E-01 0.79372043E+02</pdfrwt>
<pdfrwt beam="2">  1       -1 0.20808970E-02 0.79372043E+02</pdfrwt>
<totfact> 0.18913428E+05</totfact>
</mgrwt>
</event>
<event>
 8    1  0.2389776E-020  0.8089281E+02  0.7818608E-02  0.1326537E+00
          2   -1    0    0  501    0  0.00000000000E+00  0.00000000000E+00  0.39538407384E+03  0.39538407384E+03  0.25500000000E-02 0. -1.
         -1   -1    0    0    0  501 -0.00000000000E+00 -0.00000000000E+00 -0.41375243907E+01  0.41375274603E+01  0.50400000000E-02 0.  1.
         24    2    1    2    0    0  0.35527136788E-14 -0.17763568394E-14  0.39124654945E+03  0.39952160131E+03  0.80892814613E+02 0.  0.
         66    2    3    3    0    0 -0.25096357130E+02  0.10551176984E+02  0.34331175975E+03  0.34439529448E+03  0.20000000428E+01 0.  0.
        -13    1    3    3    0    0  0.25096357130E+02 -0.10551176984E+02  0.47934789694E+02  0.55126306824E+02  0.10566000000E+00 0.  1.
         13    1    4    4    0    0 -0.48684895673E+01  0.26724877191E+01  0.67645717902E+02  0.67873401975E+02  0.10566000000E+00 0.  1.
        -13    1    4    4    0    0 -0.17868896329E+02  0.73283968361E+01  0.24642184426E+03  0.24717754621E+03  0.10566000000E+00 0. -1.
         14    1    4    4    0    0 -0.23589712336E+01  0.55029242891E+00  0.29244197591E+02  0.29344346300E+02  0.00000000000E+00 0. -1.
<mgrwt>
<rscale>  0 0.80892815E+02</rscale>
<asrwt>0</asrwt>
<pdfrwt beam="1">  1        2 0.60828331E-01 0.80892815E+02</pdfrwt>
<pdfrwt beam="2">  1       -1 0.63654233E-03 0.80892815E+02</pdfrwt>
<totfact> 0.27334436E+05</totfact>
</mgrwt>
</event>
<event>
 8    1  0.2389776E-020  0.7437246E+02  0.7818608E-02  0.1345825E+00
         -1   -1    0    0    0  501 -0.00000000000E+00  0.00000000000E+00  0.64842665792E+02  0.64842665988E+02  0.50400000000E-02 0.  1.
          2   -1    0    0  501    0  0.00000000000E+00 -0.00000000000E+00 -0.21325706077E+02  0.21325706229E+02  0.25500000000E-02 0. -1.
         24    2    1    2    0    0  0.00000000000E+00 -0.17763568394E-14  0.43516959715E+02  0.86168372217E+02  0.74372458529E+02 0.  0.
         66    2    3    3    0    0 -0.33264930303E+02 -0.80186302803E+01  0.49861044311E+01  0.34636906173E+02  0.20000030539E+01 0.  0.
        -13    1    3    3    0    0  0.33264930303E+02  0.80186302803E+01  0.38530855284E+02  0.51531466044E+02  0.10566000000E+00 0.  1.
         13    1    4    4    0    0 -0.16808392398E+02 -0.41214107052E+01  0.32399266152E+01  0.17607281724E+02  0.10566000000E+00 0. -1.
        -13    1    4    4    0    0 -0.56429891104E+01 -0.16490900528E+01  0.94978887387E+00  0.59561805750E+01  0.10566000000E+00 0.  1.
        -14    1    4    4    0    0 -0.10813548795E+02 -0.22481295223E+01  0.79638894195E+00  0.11073443874E+02  0.00000000000E+00 0.  1.
<mgrwt>
<rscale>  0 0.74372459E+02</rscale>
<asrwt>0</asrwt>
<pdfrwt beam="1">  1        2 0.32808779E-02 0.74372459E+02</pdfrwt>
<pdfrwt beam="2">  1       -1 0.99757948E-02 0.74372459E+02</pdfrwt>
<totfact> 0.15470292E+05</totfact>
</mgrwt>
</event>
<event>
 8    1  0.2389776E-020  0.7890855E+02  0.7818608E-02  0.1332178E+00
          2   -1    0    0  501    0  0.00000000000E+00  0.00000000000E+00  0.79894044572E+02  0.79894044613E+02  0.25500000000E-02 0. -1.
         -1   -1    0    0    0  501 -0.00000000000E+00 -0.00000000000E+00 -0.19483802536E+02  0.19483803188E+02  0.50400000000E-02 0.  1.
         24    2    1    2    0    0  0.00000000000E+00  0.35527136788E-14  0.60410242037E+02  0.99377847801E+02  0.78908550174E+02 0.  0.
         66    2    3    3    0    0  0.41775135016E+01  0.30253238393E+02  0.61632050563E+02  0.68812932744E+02  0.20000009681E+01 0.  0.
        -13    1    3    3    0    0 -0.41775135016E+01 -0.30253238393E+02 -0.12218085268E+01  0.30564915057E+02  0.10566000000E+00 0.  1.
         13    1    4    4    0    0  0.70762531622E+00  0.37507734937E+01  0.68817861842E+01  0.78701448849E+01  0.10566000000E+00 0. -1.
        -13    1    4    4    0    0  0.30335996568E+01  0.19339901925E+02  0.40916860266E+02  0.45358958888E+02  0.10566000000E+00 0.  1.
        -14    1    4    4    0    0  0.43628852862E+00  0.71625629740E+01  0.13833404113E+02  0.15583828971E+02  0.00000000000E+00 0.  1.
<mgrwt>
<rscale>  0 0.78908550E+02</rscale>
<asrwt>0</asrwt>
<pdfrwt beam="1">  1        2 0.12291392E-01 0.78908550E+02</pdfrwt>
<pdfrwt beam="2">  1       -1 0.29975081E-02 0.78908550E+02</pdfrwt>
<totfact> 0.17319116E+05</totfact>
</mgrwt>
</event>
<event>
 8    1  0.2389776E-020  0.7994696E+02  0.7818608E-02  0.1329202E+00
         -1   -1    0    0    0  501 -0.00000000000E+00  0.00000000000E+00  0.58486285225E+01  0.58486306941E+01  0.50400000000E-02 0.  1.
          2   -1    0    0  501    0  0.00000000000E+00 -0.00000000000E+00 -0.27320573095E+03  0.27320573096E+03  0.25500000000E-02 0. -1.
         24    2    1    2    0    0  0.11102230246E-15 -0.71054273576E-14 -0.26735710242E+03  0.27905436165E+03  0.79946960798E+02 0.  0.
         66    2    3    3    0    0 -0.51752105347E+00  0.37474042946E+02 -0.18203973930E+03  0.18586833622E+03  0.19999998696E+01 0.  0.
        -13    1    3    3    0    0  0.51752105347E+00 -0.37474042946E+02 -0.85317363122E+02  0.93186025438E+02  0.10566000000E+00 0.  1.
         13    1    4    4    0    0  0.30310262994E+00  0.38946371896E+01 -0.21455060958E+02  0.21808046102E+02  0.10566000000E+00 0. -1.
        -13    1    4    4    0    0 -0.53829937504E+00  0.20417517412E+02 -0.97037001488E+02  0.99163277504E+02  0.10566000000E+00 0.  1.
         14    1    4    4    0    0 -0.28232430837E+00  0.13161888344E+02 -0.63547676856E+02  0.64897012609E+02  0.00000000000E+00 0. -1.
<mgrwt>
<rscale>  0 0.79946961E+02</rscale>
<asrwt>0</asrwt>
<pdfrwt beam="1">  1        2 0.42031641E-01 0.79946961E+02</pdfrwt>
<pdfrwt beam="2">  1       -1 0.89978938E-03 0.79946961E+02</pdfrwt>
<totfact> 0.24687879E+05</totfact>
</mgrwt>
</event>
<event>
 8    1  0.2389776E-020  0.8434834E+02  0.7818608E-02  0.1317146E+00
         -1   -1    0    0    0  501 -0.00000000000E+00  0.00000000000E+00  0.10366224303E+01  0.10366346823E+01  0.50400000000E-02 0.  1.
          2   -1    0    0  501    0  0.00000000000E+00 -0.00000000000E+00 -0.17158128409E+04  0.17158128409E+04  0.25500000000E-02 0. -1.
         24    2    1    2    0    0  0.00000000000E+00 -0.35527136788E-14 -0.17147762185E+04  0.17168494756E+04  0.84348339548E+02 0.  0.
         66    2    3    3    0    0 -0.34290391218E+01 -0.22102481349E+02 -0.15850543974E+04  0.15852134622E+04  0.20000177012E+01 0.  0.
        -13    1    3    3    0    0  0.34290391218E+01  0.22102481349E+02 -0.12972182115E+03  0.13163601346E+03  0.10566000000E+00 0.  1.
         13    1    4    4    0    0 -0.20258640042E+01 -0.14742651282E+02 -0.10742839399E+04  0.10743870088E+04  0.10566000000E+00 0. -1.
        -13    1    4    4    0    0 -0.88579607648E-01 -0.25982729011E+01 -0.15824896517E+03  0.15827035418E+03  0.10566000000E+00 0.  1.
         14    1    4    4    0    0 -0.13145955100E+01 -0.47615571665E+01 -0.35252149226E+03  0.35255609921E+03  0.00000000000E+00 0. -1.
<mgrwt>
<rscale>  0 0.84348340E+02</rscale>
<asrwt>0</asrwt>
<pdfrwt beam="1">  1        2 0.26396893E+00 0.84348340E+02</pdfrwt>
<pdfrwt beam="2">  1       -1 0.15948269E-03 0.84348340E+02</pdfrwt>
<totfact> 0.27143504E+05</totfact>
</mgrwt>
</event>
<event>
 8    1  0.2389776E-020  0.8222480E+02  0.7818608E-02  0.1322854E+00
          2   -1    0    0  501    0  0.00000000000E+00  0.00000000000E+00  0.98456242703E+03  0.98456242703E+03  0.25500000000E-02 0. -1.
         -1   -1    0    0    0  501 -0.00000000000E+00 -0.00000000000E+00 -0.17167276995E+01  0.17167350977E+01  0.50400000000E-02 0.  1.
         24    2    1    2    0    0  0.00000000000E+00  0.00000000000E+00  0.98284569933E+03  0.98627916213E+03  0.82224795295E+02 0.  0.
         66    2    3    3    0    0  0.11806778212E+02  0.22285331839E+02  0.88079714196E+03  0.88116039477E+03  0.19999980798E+01 0.  0.
        -13    1    3    3    0    0 -0.11806778212E+02 -0.22285331839E+02  0.10204855737E+03  0.10511876736E+03  0.10566000000E+00 0.  1.
         13    1    4    4    0    0  0.21796131452E+00  0.43483766636E+00  0.12094918065E+02  0.12105155843E+02  0.10566000000E+00 0. -1.
        -13    1    4    4    0    0  0.65084167264E+01  0.11379741153E+02  0.47754556197E+03  0.47772547861E+03  0.10566000000E+00 0. -1.
         14    1    4    4    0    0  0.50804001708E+01  0.10470753019E+02  0.39115666193E+03  0.39132976031E+03  0.00000000000E+00 0. -1.
<mgrwt>
<rscale>  0 0.82224795E+02</rscale>
<asrwt>0</asrwt>
<pdfrwt beam="1">  1        2 0.15147081E+00 0.82224795E+02</pdfrwt>
<pdfrwt beam="2">  1       -1 0.26411310E-03 0.82224795E+02</pdfrwt>
<totfact> 0.32782033E+05</totfact>
</mgrwt>
</event>
<event>
 8    1  0.2389776E-020  0.7979643E+02  0.7818608E-02  0.1329630E+00
          2   -1    0    0  501    0  0.00000000000E+00  0.00000000000E+00  0.84515940485E+02  0.84515940523E+02  0.25500000000E-02 0. -1.
         -1   -1    0    0    0  501 -0.00000000000E+00 -0.00000000000E+00 -0.18835118098E+02  0.18835118773E+02  0.50400000000E-02 0.  1.
         24    2    1    2    0    0  0.35527136788E-14 -0.22204460493E-15  0.65680822386E+02  0.10335105930E+03  0.79796434934E+02 0.  0.
         66    2    3    3    0    0 -0.19981104412E+02  0.12856857268E+01  0.77520707215E+02  0.80089684485E+02  0.19999981381E+01 0.  0.
        -13    1    3    3    0    0  0.19981104412E+02 -0.12856857268E+01 -0.11839884828E+02  0.23261374811E+02  0.10566000000E+00 0.  1.
         13    1    4    4    0    0 -0.14229431532E+02  0.29582669034E+00  0.53578091478E+02  0.55436335428E+02  0.10566000000E+00 0. -1.
        -13    1    4    4    0    0 -0.72456991861E+00  0.28130699298E+00  0.38676042001E+01  0.39463478655E+01  0.10566000000E+00 0.  1.
         14    1    4    4    0    0 -0.50271029606E+01  0.70855204348E+00  0.20075011537E+02  0.20707001192E+02  0.00000000000E+00 0. -1.
<mgrwt>
<rscale>  0 0.79796435E+02</rscale>
<asrwt>0</asrwt>
<pdfrwt beam="1">  1        2 0.13002452E-01 0.79796435E+02</pdfrwt>
<pdfrwt beam="2">  1       -1 0.28977106E-02 0.79796435E+02</pdfrwt>
<totfact> 0.17051902E+05</totfact>
</mgrwt>
</event>
<event>
 8    1  0.2389776E-020  0.8029574E+02  0.7818608E-02  0.1328214E+00
          2   -1    0    0  501    0  0.00000000000E+00  0.00000000000E+00  0.42667455051E+03  0.42667455052E+03  0.25500000000E-02 0. -1.
         -1   -1    0    0    0  501 -0.00000000000E+00 -0.00000000000E+00 -0.37777050399E+01  0.37777084019E+01  0.50400000000E-02 0.  1.
         24    2    1    2    0    0  0.00000000000E+00  0.00000000000E+00  0.42289684547E+03  0.43045225892E+03  0.80295736502E+02 0.  0.
         66    2    3    3    0    0  0.36462728158E+02 -0.61641132950E+01  0.29502931058E+03  0.29734461647E+03  0.20000001463E+01 0.  0.
        -13    1    3    3    0    0 -0.36462728158E+02  0.61641132950E+01  0.12786753489E+03  0.13310764245E+03  0.10566000000E+00 0.  1.
         13    1    4    4    0    0  0.16203144730E+02 -0.29433183007E+01  0.13299398242E+03  0.13400975915E+03  0.10566000000E+00 0. -1.
        -13    1    4    4    0    0  0.95644382327E+01 -0.21508707291E+01  0.79889822402E+02  0.80489127284E+02  0.10566000000E+00 0.  1.
        -14    1    4    4    0    0  0.10695145196E+02 -0.10699242652E+01  0.82145505760E+02  0.82845730037E+02  0.00000000000E+00 0.  1.
<mgrwt>
<rscale>  0 0.80295737E+02</rscale>
<asrwt>0</asrwt>
<pdfrwt beam="1">  1        2 0.65642235E-01 0.80295737E+02</pdfrwt>
<pdfrwt beam="2">  1       -1 0.58118568E-03 0.80295737E+02</pdfrwt>
<totfact> 0.28615144E+05</totfact>
</mgrwt>
</event>
<event>
 8    1  0.2389776E-020  0.7948182E+02  0.7818608E-02  0.1330528E+00
         -1   -1    0    0    0  501 -0.00000000000E+00  0.00000000000E+00  0.51150815363E+02  0.51150815611E+02  0.50400000000E-02 0.  1.
          2   -1    0    0  501    0  0.00000000000E+00 -0.00000000000E+00 -0.30876146851E+02  0.30876146956E+02  0.25500000000E-02 0. -1.
         24    2    1    2    0    0  0.71054273576E-14  0.00000000000E+00  0.20274668512E+02  0.82026962567E+02  0.79481824367E+02 0.  0.
         66    2    3    3    0    0 -0.33722618351E+02  0.88269103018E+01 -0.94973968160E+01  0.36184663630E+02  0.20000004547E+01 0.  0.
        -13    1    3    3    0    0  0.33722618351E+02 -0.88269103018E+01  0.29772065328E+02  0.45842298937E+02  0.10566000000E+00 0.  1.
         13    1    4    4    0    0 -0.18951756109E+02  0.53081940368E+01 -0.56284706783E+01  0.20470389097E+02  0.10566000000E+00 0. -1.
        -13    1    4    4    0    0 -0.95580704277E+01  0.28373783089E+01 -0.23966642309E+01  0.10254881249E+02  0.10566000000E+00 0.  1.
        -14    1    4    4    0    0 -0.52127918139E+01  0.68133795607E+00 -0.14722619068E+01  0.54593932839E+01  0.00000000000E+00 0.  1.
<mgrwt>
<rscale>  0 0.79481824E+02</rscale>
<asrwt>0</asrwt>
<pdfrwt beam="1">  1        2 0.47501765E-02 0.79481824E+02</pdfrwt>
<pdfrwt beam="2">  1       -1 0.78693562E-02 0.79481824E+02</pdfrwt>
<totfact> 0.13780190E+05</totfact>
</mgrwt>
</event>
<event>
 8    1  0.2389776E-020  0.7872117E+02  0.7818608E-02  0.1332720E+00
          2   -1    0    0  501    0  0.00000000000E+00  0.00000000000E+00  0.71311335898E+02  0.71311335944E+02  0.25500000000E-02 0. -1.
         -1   -1    0    0    0  501 -0.00000000000E+00 -0.00000000000E+00 -0.21725235439E+02  0.21725236024E+02  0.50400000000E-02 0.  1.
         24    2    1    2    0    0 -0.88817841970E-15  0.00000000000E+00  0.49586100459E+02  0.93036571967E+02  0.78721168466E+02 0.  0.
         66    2    3    3    0    0 -0.76398499799E+01  0.10682747611E+02  0.68629371364E+02  0.69903354832E+02  0.19999996632E+01 0.  0.
        -13    1    3    3    0    0  0.76398499799E+01 -0.10682747611E+02 -0.19043270905E+02  0.23133217136E+02  0.10566000000E+00 0.  1.
         13    1    4    4    0    0 -0.36478027097E+01  0.41914813881E+01  0.27295518510E+02  0.27855546586E+02  0.10566000000E+00 0. -1.
        -13    1    4    4    0    0 -0.34885468085E+01  0.62126470133E+01  0.38856228529E+02  0.39504235233E+02  0.10566000000E+00 0.  1.
        -14    1    4    4    0    0 -0.50350046159E+00  0.27861920971E+00  0.24776243248E+01  0.25435730132E+01  0.00000000000E+00 0.  1.
<mgrwt>
<rscale>  0 0.78721168E+02</rscale>
<asrwt>0</asrwt>
<pdfrwt beam="1">  1        2 0.10970975E-01 0.78721168E+02</pdfrwt>
<pdfrwt beam="2">  1       -1 0.33423440E-02 0.78721168E+02</pdfrwt>
<totfact> 0.16942096E+05</totfact>
</mgrwt>
</event>
<event>
 8    1  0.2389776E-020  0.8215892E+02  0.7818608E-02  0.1323034E+00
         -1   -1    0    0    0  501 -0.00000000000E+00  0.00000000000E+00  0.26734844399E+01  0.26734891906E+01  0.50400000000E-02 0.  1.
          2   -1    0    0  501    0  0.00000000000E+00 -0.00000000000E+00 -0.63120640254E+03  0.63120640255E+03  0.25500000000E-02 0. -1.
         24    2    1    2    0    0  0.35527136788E-14  0.00000000000E+00 -0.62853291810E+03  0.63387989174E+03  0.82158919245E+02 0.  0.
         66    2    3    3    0    0 -0.21372823933E+02  0.15122194340E+02 -0.55843577671E+03  0.55905276591E+03  0.19999988664E+01 0.  0.
        -13    1    3    3    0    0  0.21372823933E+02 -0.15122194340E+02 -0.70097141395E+02  0.74827125832E+02  0.10566000000E+00 0.  1.
         13    1    4    4    0    0 -0.13840611538E+02  0.96392569126E+01 -0.36802359795E+03  0.36840990434E+03  0.10566000000E+00 0. -1.
        -13    1    4    4    0    0 -0.55144037703E+01  0.34201141800E+01 -0.13113199719E+03  0.13129248905E+03  0.10566000000E+00 0.  1.
        -14    1    4    4    0    0 -0.20178086252E+01  0.20628232477E+01 -0.59280181565E+02  0.59350372516E+02  0.00000000000E+00 0.  1.
<mgrwt>
<rscale>  0 0.82158919E+02</rscale>
<asrwt>0</asrwt>
<pdfrwt beam="1">  1        2 0.97108559E-01 0.82158919E+02</pdfrwt>
<pdfrwt beam="2">  1       -1 0.41130617E-03 0.82158919E+02</pdfrwt>
<totfact> 0.30423566E+05</totfact>
</mgrwt>
</event>
<event>
 8    1  0.2389776E-020  0.8014270E+02  0.7818608E-02  0.1328647E+00
          2   -1    0    0  501    0  0.00000000000E+00  0.00000000000E+00  0.38910767393E+03  0.38910767393E+03  0.25500000000E-02 0. -1.
         -1   -1    0    0    0  501 -0.00000000000E+00 -0.00000000000E+00 -0.41266532034E+01  0.41266562812E+01  0.50400000000E-02 0.  1.
         24    2    1    2    0    0  0.00000000000E+00  0.00000000000E+00  0.38498102072E+03  0.39323433022E+03  0.80142698628E+02 0.  0.
         66    2    3    3    0    0 -0.37752908561E+02  0.35324960853E+01  0.25581815504E+03  0.25862074372E+03  0.20000003856E+01 0.  0.
        -13    1    3    3    0    0  0.37752908561E+02 -0.35324960853E+01  0.12916286568E+03  0.13461358649E+03  0.10566000000E+00 0.  1.
         13    1    4    4    0    0 -0.27104276299E+02  0.17797464033E+01  0.18254959150E+03  0.18455940456E+03  0.10566000000E+00 0. -1.
        -13    1    4    4    0    0 -0.26709405826E+01  0.63070744242E+00  0.19598766750E+02  0.19790263708E+02  0.10566000000E+00 0.  1.
         14    1    4    4    0    0 -0.79776916792E+01  0.11220422396E+01  0.53669796794E+02  0.54271075457E+02  0.00000000000E+00 0. -1.
<mgrwt>
<rscale>  0 0.80142699E+02</rscale>
<asrwt>0</asrwt>
<pdfrwt beam="1">  1        2 0.59862736E-01 0.80142699E+02</pdfrwt>
<pdfrwt beam="2">  1       -1 0.63486978E-03 0.80142699E+02</pdfrwt>
<totfact> 0.27851284E+05</totfact>
</mgrwt>
</event>
<event>
 8    1  0.2389776E-020  0.8061235E+02  0.7818608E-02  0.1327323E+00
         -1   -1    0    0    0  501 -0.00000000000E+00  0.00000000000E+00  0.35589812325E+02  0.35589812682E+02  0.50400000000E-02 0.  1.
          2   -1    0    0  501    0  0.00000000000E+00 -0.00000000000E+00 -0.45647547373E+02  0.45647547444E+02  0.25500000000E-02 0. -1.
         24    2    1    2    0    0 -0.35527136788E-14 -0.35527136788E-14 -0.10057735048E+02  0.81237360126E+02  0.80612347974E+02 0.  0.
         66    2    3    3    0    0  0.25975743491E+02  0.28228085758E+02 -0.17416197821E+02  0.42176865839E+02  0.19999975041E+01 0.  0.
        -13    1    3    3    0    0 -0.25975743491E+02 -0.28228085758E+02  0.73584627733E+01  0.39060494286E+02  0.10566000000E+00 0.  1.
         13    1    4    4    0    0  0.11113779795E+02  0.12571160419E+02 -0.77221664318E+01  0.18471415594E+02  0.10566000000E+00 0. -1.
        -13    1    4    4    0    0  0.21606633260E+01  0.16455523615E+01 -0.10819160237E+01  0.29254085016E+01  0.10566000000E+00 0.  1.
        -14    1    4    4    0    0  0.12701300370E+02  0.14011372978E+02 -0.86121153655E+01  0.20780041744E+02  0.00000000000E+00 0.  1.
<mgrwt>
<rscale>  0 0.80612348E+02</rscale>
<asrwt>0</asrwt>
<pdfrwt beam="1">  1        2 0.70226997E-02 0.80612348E+02</pdfrwt>
<pdfrwt beam="2">  1       -1 0.54753558E-02 0.80612348E+02</pdfrwt>
<totfact> 0.14349347E+05</totfact>
</mgrwt>
</event>
<event>
 8    1  0.2389776E-020  0.7491617E+02  0.7818608E-02  0.1344131E+00
          2   -1    0    0  501    0  0.00000000000E+00  0.00000000000E+00  0.29148818770E+03  0.29148818771E+03  0.25500000000E-02 0. -1.
         -1   -1    0    0    0  501 -0.00000000000E+00 -0.00000000000E+00 -0.48136010632E+01  0.48136037018E+01  0.50400000000E-02 0.  1.
         24    2    1    2    0    0  0.00000000000E+00  0.35527136788E-14  0.28667458664E+03  0.29630179141E+03  0.74916172961E+02 0.  0.
         66    2    3    3    0    0  0.16933676671E+02 -0.25186938421E+02  0.23008879058E+03  0.23209046256E+03  0.19999979847E+01 0.  0.
        -13    1    3    3    0    0 -0.16933676671E+02  0.25186938421E+02  0.56585796060E+02  0.64211328848E+02  0.10566000000E+00 0.  1.
         13    1    4    4    0    0  0.16076020393E+02 -0.23688695065E+02  0.21914726850E+03  0.22100934179E+03  0.10566000000E+00 0. -1.
        -13    1    4    4    0    0  0.67622267804E+00 -0.13130646527E+01  0.97432100336E+01  0.98550860822E+01  0.10566000000E+00 0.  1.
         14    1    4    4    0    0  0.18143360002E+00 -0.18517870321E+00  0.11983120449E+01  0.12260346897E+01  0.00000000000E+00 0. -1.
<mgrwt>
<rscale>  0 0.74916173E+02</rscale>
<asrwt>0</asrwt>
<pdfrwt beam="1">  1        2 0.44844332E-01 0.74916173E+02</pdfrwt>
<pdfrwt beam="2">  1       -1 0.74055429E-03 0.74916173E+02</pdfrwt>
<totfact> 0.29953802E+05</totfact>
</mgrwt>
</event>
<event>
 8    1  0.2389776E-020  0.7981067E+02  0.7818608E-02  0.1329590E+00
          2   -1    0    0  501    0  0.00000000000E+00  0.00000000000E+00  0.10348150908E+02  0.10348151222E+02  0.25500000000E-02 0. -1.
         -1   -1    0    0    0  501 -0.00000000000E+00 -0.00000000000E+00 -0.15388603561E+03  0.15388603570E+03  0.50400000000E-02 0.  1.
         24    2    1    2    0    0  0.35527136788E-14  0.00000000000E+00 -0.14353788470E+03  0.16423418692E+03  0.79810674768E+02 0.  0.
         66    2    3    3    0    0 -0.27276938561E+02 -0.29081381306E+02 -0.70125887451E+02  0.80693235160E+02  0.19999984404E+01 0.  0.
        -13    1    3    3    0    0  0.27276938561E+02  0.29081381306E+02 -0.73411997253E+02  0.83540951758E+02  0.10566000000E+00 0.  1.
         13    1    4    4    0    0 -0.48173653238E+01 -0.42162111284E+01 -0.11262209740E+02  0.12954998155E+02  0.10566000000E+00 0. -1.
        -13    1    4    4    0    0 -0.20288640840E+02 -0.22061930094E+02 -0.52490729316E+02  0.60445392999E+02  0.10566000000E+00 0.  1.
        -14    1    4    4    0    0 -0.21709323968E+01 -0.28032400828E+01 -0.63729483957E+01  0.72928440055E+01  0.00000000000E+00 0.  1.
<mgrwt>
<rscale>  0 0.79810675E+02</rscale>
<asrwt>0</asrwt>
<pdfrwt beam="1">  1        2 0.15920234E-02 0.79810675E+02</pdfrwt>
<pdfrwt beam="2">  1       -1 0.23674773E-01 0.79810675E+02</pdfrwt>
<totfact> 0.10781097E+05</totfact>
</mgrwt>
</event>
<event>
 8    1  0.2389776E-020  0.7965496E+02  0.7818608E-02  0.1330033E+00
          2   -1    0    0  501    0  0.00000000000E+00  0.00000000000E+00  0.73748380655E+03  0.73748380655E+03  0.25500000000E-02 0. -1.
         -1   -1    0    0    0  501 -0.00000000000E+00 -0.00000000000E+00 -0.21508621252E+01  0.21508680301E+01  0.50400000000E-02 0.  1.
         24    2    1    2    0    0 -0.17763568394E-14 -0.35527136788E-14  0.73533294442E+03  0.73963467458E+03  0.79654960243E+02 0.  0.
         66    2    3    3    0    0 -0.12603499683E+02 -0.24757403763E+02  0.63256576256E+03  0.63317866453E+03  0.20000002570E+01 0.  0.
        -13    1    3    3    0    0  0.12603499683E+02  0.24757403763E+02  0.10276718186E+03  0.10645601006E+03  0.10566000000E+00 0.  1.
         13    1    4    4    0    0 -0.70872556486E+01 -0.13071405716E+02  0.33140978447E+03  0.33174319472E+03  0.10566000000E+00 0. -1.
        -13    1    4    4    0    0 -0.38703484509E+01 -0.92774538321E+01  0.23760221776E+03  0.23781479305E+03  0.10566000000E+00 0.  1.
        -14    1    4    4    0    0 -0.16458955839E+01 -0.24085442150E+01  0.63553760337E+02  0.63620676753E+02  0.00000000000E+00 0.  1.
<mgrwt>
<rscale>  0 0.79654960E+02</rscale>
<asrwt>0</asrwt>
<pdfrwt beam="1">  1        2 0.11345917E+00 0.79654960E+02</pdfrwt>
<pdfrwt beam="2">  1       -1 0.33090196E-03 0.79654960E+02</pdfrwt>
<totfact> 0.34217925E+05</totfact>
</mgrwt>
</event>
<event>
 8    1  0.2389776E-020  0.7934837E+02  0.7818608E-02  0.1330911E+00
         -1   -1    0    0    0  501 -0.00000000000E+00  0.00000000000E+00  0.57848949705E+02  0.57848949925E+02  0.50400000000E-02 0.  1.
          2   -1    0    0  501    0  0.00000000000E+00 -0.00000000000E+00 -0.27209500903E+02  0.27209501022E+02  0.25500000000E-02 0. -1.
         24    2    1    2    0    0  0.00000000000E+00  0.00000000000E+00  0.30639448802E+02  0.85058450947E+02  0.79348372728E+02 0.  0.
         66    2    3    3    0    0 -0.32454570163E+02 -0.19363499293E+02  0.24751832768E+01  0.37925858763E+02  0.20000003364E+01 0.  0.
        -13    1    3    3    0    0  0.32454570163E+02  0.19363499293E+02  0.28164265526E+02  0.47132592184E+02  0.10566000000E+00 0.  1.
         13    1    4    4    0    0 -0.19726009268E+02 -0.10825179825E+02  0.13505290122E+01  0.22541851133E+02  0.10566000000E+00 0.  1.
        -13    1    4    4    0    0 -0.75229671952E+01 -0.54031181820E+01  0.52529378377E+00  0.92777054870E+01  0.10566000000E+00 0. -1.
         14    1    4    4    0    0 -0.52055936997E+01 -0.31352012862E+01  0.59936048087E+00  0.61063021426E+01  0.00000000000E+00 0. -1.
<mgrwt>
<rscale>  0 0.79348373E+02</rscale>
<asrwt>0</asrwt>
<pdfrwt beam="1">  1        2 0.41860771E-02 0.79348373E+02</pdfrwt>
<pdfrwt beam="2">  1       -1 0.88998383E-02 0.79348373E+02</pdfrwt>
<totfact> 0.13506405E+05</totfact>
</mgrwt>
</event>
<event>
 8    1  0.2389776E-020  0.7973665E+02  0.7818608E-02  0.1329800E+00
         -1   -1    0    0    0  501 -0.00000000000E+00  0.00000000000E+00  0.33853148638E+01  0.33853186155E+01  0.50400000000E-02 0.  1.
          2   -1    0    0  501    0  0.00000000000E+00 -0.00000000000E+00 -0.46952278593E+03  0.46952278594E+03  0.25500000000E-02 0. -1.
         24    2    1    2    0    0  0.71054273576E-14  0.00000000000E+00 -0.46613747107E+03  0.47290810455E+03  0.79736650415E+02 0.  0.
         66    2    3    3    0    0 -0.35120574485E+02  0.16747030193E+02 -0.28408258470E+03  0.28674175263E+03  0.20000004900E+01 0.  0.
        -13    1    3    3    0    0  0.35120574485E+02 -0.16747030193E+02 -0.18205488637E+03  0.18616635192E+03  0.10566000000E+00 0.  1.
         13    1    4    4    0    0 -0.20542911849E+02  0.10300517061E+02 -0.16934174171E+03  0.17089396867E+03  0.10566000000E+00 0. -1.
        -13    1    4    4    0    0 -0.30546516832E+01  0.89124039698E+00 -0.23233683914E+02  0.23450808911E+02  0.10566000000E+00 0.  1.
        -14    1    4    4    0    0 -0.11523010952E+02  0.55552727348E+01 -0.91507159077E+02  0.92396975053E+02  0.00000000000E+00 0.  1.
<mgrwt>
<rscale>  0 0.79736650E+02</rscale>
<asrwt>0</asrwt>
<pdfrwt beam="1">  1        2 0.72234223E-01 0.79736650E+02</pdfrwt>
<pdfrwt beam="2">  1       -1 0.52081833E-03 0.79736650E+02</pdfrwt>
<totfact> 0.30094523E+05</totfact>
</mgrwt>
</event>
<event>
 8    1  0.2389776E-020  0.7866811E+02  0.7818608E-02  0.1332874E+00
         -1   -1    0    0    0  501 -0.00000000000E+00  0.00000000000E+00  0.35018740109E+01  0.35018776377E+01  0.50400000000E-02 0.  1.
          2   -1    0    0  501    0  0.00000000000E+00 -0.00000000000E+00 -0.44181117328E+03  0.44181117329E+03  0.25500000000E-02 0. -1.
         24    2    1    2    0    0  0.00000000000E+00 -0.35527136788E-14 -0.43830929927E+03  0.44531305093E+03  0.78668109793E+02 0.  0.
         66    2    3    3    0    0  0.23974621865E+02 -0.31090577802E+02 -0.20832472136E+03  0.21200140578E+03  0.19999999985E+01 0.  0.
        -13    1    3    3    0    0 -0.23974621865E+02  0.31090577802E+02 -0.22998457791E+03  0.23331164515E+03  0.10566000000E+00 0.  1.
         13    1    4    4    0    0  0.10148402985E+02 -0.14067767031E+02 -0.90573205907E+02  0.92219352333E+02  0.10566000000E+00 0. -1.
        -13    1    4    4    0    0  0.91622467193E+01 -0.10388298601E+02 -0.74103645611E+02  0.75387167141E+02  0.10566000000E+00 0.  1.
        -14    1    4    4    0    0  0.46639721608E+01 -0.66345121707E+01 -0.43647869842E+02  0.44394886303E+02  0.00000000000E+00 0.  1.
<mgrwt>
<rscale>  0 0.78668110E+02</rscale>
<asrwt>0</asrwt>
<pdfrwt beam="1">  1        2 0.67970905E-01 0.78668110E+02</pdfrwt>
<pdfrwt beam="2">  1       -1 0.53875048E-03 0.78668110E+02</pdfrwt>
<totfact> 0.30545234E+05</totfact>
</mgrwt>
</event>
<event>
 8    1  0.2389776E-020  0.8168219E+02  0.7818608E-02  0.1324344E+00
          2   -1    0    0  501    0  0.00000000000E+00  0.00000000000E+00  0.59888412151E+02  0.59888412205E+02  0.25500000000E-02 0. -1.
         -1   -1    0    0    0  501 -0.00000000000E+00 -0.00000000000E+00 -0.27851714752E+02  0.27851715208E+02  0.50400000000E-02 0.  1.
         24    2    1    2    0    0  0.00000000000E+00 -0.88817841970E-15  0.32036697398E+02  0.87740127413E+02  0.81682188868E+02 0.  0.
         66    2    3    3    0    0  0.16310993906E+02  0.45469518019E+01  0.55920771357E+02  0.58462432050E+02  0.19999997839E+01 0.  0.
        -13    1    3    3    0    0 -0.16310993906E+02 -0.45469518019E+01 -0.23884073959E+02  0.29277695363E+02  0.10566000000E+00 0.  1.
         13    1    4    4    0    0  0.36395160674E+01  0.79693255376E+00  0.12047422653E+02  0.12610818186E+02  0.10566000000E+00 0. -1.
        -13    1    4    4    0    0  0.36348749153E+01  0.15970289398E+01  0.15242049284E+02  0.15751001476E+02  0.10566000000E+00 0.  1.
        -14    1    4    4    0    0  0.90366029232E+01  0.21529903084E+01  0.28631299420E+02  0.30100612388E+02  0.00000000000E+00 0.  1.
<mgrwt>
<rscale>  0 0.81682189E+02</rscale>
<asrwt>0</asrwt>
<pdfrwt beam="1">  1        2 0.92136018E-02 0.81682189E+02</pdfrwt>
<pdfrwt beam="2">  1       -1 0.42848793E-02 0.81682189E+02</pdfrwt>
<totfact> 0.14701793E+05</totfact>
</mgrwt>
</event>
<event>
 8    1  0.2389776E-020  0.7993550E+02  0.7818608E-02  0.1329235E+00
         -1   -1    0    0    0  501 -0.00000000000E+00  0.00000000000E+00  0.10721959844E+02  0.10721961028E+02  0.50400000000E-02 0.  1.
          2   -1    0    0  501    0  0.00000000000E+00 -0.00000000000E+00 -0.14898589716E+03  0.14898589718E+03  0.25500000000E-02 0. -1.
         24    2    1    2    0    0  0.17763568394E-14  0.35527136788E-14 -0.13826393732E+03  0.15970785821E+03  0.79935496571E+02 0.  0.
         66    2    3    3    0    0  0.12100466605E+02  0.24171256073E+02 -0.12792820636E+03  0.13076810336E+03  0.19999908673E+01 0.  0.
        -13    1    3    3    0    0 -0.12100466605E+02 -0.24171256073E+02 -0.10335730963E+02  0.28939754850E+02  0.10566000000E+00 0.  1.
         13    1    4    4    0    0  0.74604866237E+00  0.16630808630E+01 -0.90784021554E+01  0.92601823035E+01  0.10566000000E+00 0. -1.
        -13    1    4    4    0    0  0.97462528891E+01  0.17784576019E+02 -0.96441572715E+02  0.98550843230E+02  0.10566000000E+00 0.  1.
        -14    1    4    4    0    0  0.16081650531E+01  0.47235991905E+01 -0.22408231486E+02  0.22957077829E+02  0.00000000000E+00 0.  1.
<mgrwt>
<rscale>  0 0.79935497E+02</rscale>
<asrwt>0</asrwt>
<pdfrwt beam="1">  1        2 0.22920906E-01 0.79935497E+02</pdfrwt>
<pdfrwt beam="2">  1       -1 0.16495325E-02 0.79935497E+02</pdfrwt>
<totfact> 0.20029150E+05</totfact>
</mgrwt>
</event>
<event>
 8    1  0.2389776E-020  0.7977232E+02  0.7818608E-02  0.1329699E+00
          2   -1    0    0  501    0  0.00000000000E+00  0.00000000000E+00  0.44334178746E+03  0.44334178747E+03  0.25500000000E-02 0. -1.
         -1   -1    0    0    0  501 -0.00000000000E+00 -0.00000000000E+00 -0.35884394057E+01  0.35884429451E+01  0.50400000000E-02 0.  1.
         24    2    1    2    0    0  0.48572257327E-16  0.00000000000E+00  0.43975334805E+03  0.44693023041E+03  0.79772324346E+02 0.  0.
         66    2    3    3    0    0  0.34133999205E-01 -0.13345863417E+02  0.43044966603E+03  0.43066115242E+03  0.19999959814E+01 0.  0.
        -13    1    3    3    0    0 -0.34133999205E-01  0.13345863417E+02  0.93036820262E+01  0.16269077993E+02  0.10566000000E+00 0.  1.
         13    1    4    4    0    0 -0.50252447406E+00 -0.95648528708E+01  0.30084752109E+03  0.30099996852E+03  0.10566000000E+00 0. -1.
        -13    1    4    4    0    0 -0.12590128706E+00 -0.11023196264E+01  0.46050348400E+02  0.46063833009E+02  0.10566000000E+00 0.  1.
         14    1    4    4    0    0  0.66255976033E+00 -0.26786909195E+01  0.83551796539E+02  0.83597350887E+02  0.00000000000E+00 0. -1.
<mgrwt>
<rscale>  0 0.79772324E+02</rscale>
<asrwt>0</asrwt>
<pdfrwt beam="1">  1        2 0.68206435E-01 0.79772324E+02</pdfrwt>
<pdfrwt beam="2">  1       -1 0.55206783E-03 0.79772324E+02</pdfrwt>
<totfact> 0.29489687E+05</totfact>
</mgrwt>
</event>
<event>
 8    1  0.2389776E-020  0.7421483E+02  0.7818608E-02  0.1346320E+00
         -1   -1    0    0    0  501 -0.00000000000E+00  0.00000000000E+00  0.22488610516E+02  0.22488611081E+02  0.50400000000E-02 0.  1.
          2   -1    0    0  501    0  0.00000000000E+00 -0.00000000000E+00 -0.61229218454E+02  0.61229218507E+02  0.25500000000E-02 0. -1.
         24    2    1    2    0    0  0.00000000000E+00  0.00000000000E+00 -0.38740607938E+02  0.83717829588E+02  0.74214825254E+02 0.  0.
         66    2    3    3    0    0 -0.28098157309E+02  0.27429753553E+01 -0.46502664577E+02  0.54438296715E+02  0.19999946419E+01 0.  0.
        -13    1    3    3    0    0  0.28098157309E+02 -0.27429753553E+01  0.77620566391E+01  0.29279532873E+02  0.10566000000E+00 0.  1.
         13    1    4    4    0    0 -0.21259069470E+02  0.24594648325E+01 -0.35201077173E+02  0.41196164872E+02  0.10566000000E+00 0. -1.
        -13    1    4    4    0    0 -0.47545453380E+01 -0.15976794593E+00 -0.74410169712E+01  0.88323906599E+01  0.10566000000E+00 0.  1.
         14    1    4    4    0    0 -0.20845425006E+01  0.44327846866E+00 -0.38605704330E+01  0.44097411836E+01  0.00000000000E+00 0. -1.
<mgrwt>
<rscale>  0 0.74214825E+02</rscale>
<asrwt>0</asrwt>
<pdfrwt beam="1">  1        2 0.94198797E-02 0.74214825E+02</pdfrwt>
<pdfrwt beam="2">  1       -1 0.34597863E-02 0.74214825E+02</pdfrwt>
<totfact> 0.19158864E+05</totfact>
</mgrwt>
</event>
<event>
 8    1  0.2389776E-020  0.7939466E+02  0.7818608E-02  0.1330778E+00
          2   -1    0    0  501    0  0.00000000000E+00  0.00000000000E+00  0.14525677541E+03  0.14525677544E+03  0.25500000000E-02 0. -1.
         -1   -1    0    0    0  501 -0.00000000000E+00 -0.00000000000E+00 -0.10848912707E+02  0.10848913878E+02  0.50400000000E-02 0.  1.
         24    2    1    2    0    0  0.00000000000E+00  0.35527136788E-14  0.13440786271E+03  0.15610568931E+03  0.79394664045E+02 0.  0.
         66    2    3    3    0    0 -0.18341186334E+02  0.28620547035E+02  0.10746175442E+03  0.11272782924E+03  0.19999984012E+01 0.  0.
        -13    1    3    3    0    0  0.18341186334E+02 -0.28620547035E+02  0.26946108287E+02  0.43377860073E+02  0.10566000000E+00 0.  1.
         13    1    4    4    0    0 -0.12194715311E+02  0.19549362673E+02  0.74630047485E+02  0.78105978095E+02  0.10566000000E+00 0. -1.
        -13    1    4    4    0    0 -0.41833814739E+01  0.67527828879E+01  0.23207484300E+02  0.24529558676E+02  0.10566000000E+00 0.  1.
         14    1    4    4    0    0 -0.19630895485E+01  0.23184014735E+01  0.96242226357E+01  0.10092292470E+02  0.00000000000E+00 0. -1.
<mgrwt>
<rscale>  0 0.79394664E+02</rscale>
<asrwt>0</asrwt>
<pdfrwt beam="1">  1        2 0.22347195E-01 0.79394664E+02</pdfrwt>
<pdfrwt beam="2">  1       -1 0.16690637E-02 0.79394664E+02</pdfrwt>
<totfact> 0.20228391E+05</totfact>
</mgrwt>
</event>
<event>
 8    1  0.2389776E-020  0.8196999E+02  0.7818608E-02  0.1323552E+00
         -1   -1    0    0    0  501 -0.00000000000E+00  0.00000000000E+00  0.21952542227E+02  0.21952542805E+02  0.50400000000E-02 0.  1.
          2   -1    0    0  501    0  0.00000000000E+00 -0.00000000000E+00 -0.76518225923E+02  0.76518225966E+02  0.25500000000E-02 0. -1.
         24    2    1    2    0    0  0.00000000000E+00 -0.17763568394E-14 -0.54565683697E+02  0.98470768771E+02  0.81969985147E+02 0.  0.
         66    2    3    3    0    0 -0.38017010225E+02  0.13080227209E+02 -0.36710631876E+02  0.54479866873E+02  0.19999978680E+01 0.  0.
        -13    1    3    3    0    0  0.38017010225E+02 -0.13080227209E+02 -0.17855051821E+02  0.43990901898E+02  0.10566000000E+00 0.  1.
         13    1    4    4    0    0 -0.37253960842E+02  0.12742026300E+02 -0.35935840067E+02  0.53306778162E+02  0.10566000000E+00 0. -1.
        -13    1    4    4    0    0 -0.19147284618E+00  0.60555060538E-02 -0.16934662760E+00  0.27666014505E+00  0.10566000000E+00 0. -1.
         14    1    4    4    0    0 -0.57157653641E+00  0.33214540313E+00 -0.60544518112E+00  0.89642856555E+00  0.00000000000E+00 0. -1.
<mgrwt>
<rscale>  0 0.81969985E+02</rscale>
<asrwt>0</asrwt>
<pdfrwt beam="1">  1        2 0.11772035E-01 0.81969985E+02</pdfrwt>
<pdfrwt beam="2">  1       -1 0.33773143E-02 0.81969985E+02</pdfrwt>
<totfact> 0.15456731E+05</totfact>
</mgrwt>
</event>
<event>
 8    1  0.2389776E-020  0.8037500E+02  0.7818608E-02  0.1327991E+00
         -1   -1    0    0    0  501 -0.00000000000E+00  0.00000000000E+00  0.11428224929E+01  0.11428336064E+01  0.50400000000E-02 0.  1.
          2   -1    0    0  501    0  0.00000000000E+00 -0.00000000000E+00 -0.14131915960E+04  0.14131915960E+04  0.25500000000E-02 0. -1.
         24    2    1    2    0    0  0.44408920985E-15 -0.17763568394E-14 -0.14120487735E+04  0.14143344296E+04  0.80374996197E+02 0.  0.
         66    2    3    3    0    0  0.19316357532E+01 -0.11025039613E+02 -0.13851882788E+04  0.13852349441E+04  0.20000008510E+01 0.  0.
        -13    1    3    3    0    0 -0.19316357532E+01  0.11025039613E+02 -0.26860494724E+02  0.29099485494E+02  0.10566000000E+00 0.  1.
         13    1    4    4    0    0  0.70277468882E+00 -0.65476791510E+01 -0.78609353252E+03  0.78612112236E+03  0.10566000000E+00 0. -1.
        -13    1    4    4    0    0  0.88000674335E+00 -0.40491227079E+01 -0.48393998265E+03  0.48395773346E+03  0.10566000000E+00 0.  1.
        -14    1    4    4    0    0  0.34885432101E+00 -0.42823775452E+00 -0.11515476360E+03  0.11515608828E+03  0.00000000000E+00 0.  1.
<mgrwt>
<rscale>  0 0.80374996E+02</rscale>
<asrwt>0</asrwt>
<pdfrwt beam="1">  1        2 0.21741269E+00 0.80374996E+02</pdfrwt>
<pdfrwt beam="2">  1       -1 0.17582083E-03 0.80374996E+02</pdfrwt>
<totfact> 0.33512181E+05</totfact>
</mgrwt>
</event>
<event>
 8    1  0.2389776E-020  0.7681540E+02  0.7818608E-02  0.1338340E+00
         -1   -1    0    0    0  501 -0.00000000000E+00  0.00000000000E+00  0.15363612493E+02  0.15363613319E+02  0.50400000000E-02 0.  1.
          2   -1    0    0  501    0  0.00000000000E+00 -0.00000000000E+00 -0.96015913832E+02  0.96015913865E+02  0.25500000000E-02 0. -1.
         24    2    1    2    0    0  0.00000000000E+00  0.17763568394E-14 -0.80652301339E+02  0.11137952718E+03  0.76815397966E+02 0.  0.
         66    2    3    3    0    0 -0.34765398433E+02  0.14443741010E+02 -0.51193462487E+02  0.63576923353E+02  0.19999997426E+01 0.  0.
        -13    1    3    3    0    0  0.34765398433E+02 -0.14443741010E+02 -0.29458838852E+02  0.47802603832E+02  0.10566000000E+00 0.  1.
         13    1    4    4    0    0 -0.66148626144E+01  0.29640385302E+01 -0.98081644206E+01  0.12196441496E+02  0.10566000000E+00 0.  1.
        -13    1    4    4    0    0 -0.57655355159E+01  0.30534715160E+01 -0.93176838161E+01  0.11375213572E+02  0.10566000000E+00 0.  1.
         14    1    4    4    0    0 -0.22385000303E+02  0.84262309641E+01 -0.32067614251E+02  0.40005268285E+02  0.00000000000E+00 0. -1.
<mgrwt>
<rscale>  0 0.76815398E+02</rscale>
<asrwt>0</asrwt>
<pdfrwt beam="1">  1        2 0.14771679E-01 0.76815398E+02</pdfrwt>
<pdfrwt beam="2">  1       -1 0.23636328E-02 0.76815398E+02</pdfrwt>
<totfact> 0.19538822E+05</totfact>
</mgrwt>
</event>
<event>
 8    1  0.2389776E-020  0.7874449E+02  0.7818608E-02  0.1332653E+00
          2   -1    0    0  501    0  0.00000000000E+00  0.00000000000E+00  0.64235225061E+03  0.64235225062E+03  0.25500000000E-02 0. -1.
         -1   -1    0    0    0  501 -0.00000000000E+00 -0.00000000000E+00 -0.24132738405E+01  0.24132791034E+01  0.50400000000E-02 0.  1.
         24    2    1    2    0    0 -0.35527136788E-14 -0.88817841970E-15  0.63993897677E+03  0.64476552972E+03  0.78744487581E+02 0.  0.
         66    2    3    3    0    0  0.30878388075E+02  0.79904122479E+01  0.50882947671E+03  0.50983208795E+03  0.19999987702E+01 0.  0.
        -13    1    3    3    0    0 -0.30878388075E+02 -0.79904122479E+01  0.13110950006E+03  0.13493344177E+03  0.10566000000E+00 0.  1.
         13    1    4    4    0    0  0.14132190371E+02  0.37219592846E+01  0.22393173871E+03  0.22440812497E+03  0.10566000000E+00 0. -1.
        -13    1    4    4    0    0  0.94099620281E+01  0.18689496969E+01  0.15283598066E+03  0.15313682936E+03  0.10566000000E+00 0.  1.
         14    1    4    4    0    0  0.73362356758E+01  0.23995032665E+01  0.13206175734E+03  0.13228713362E+03  0.00000000000E+00 0. -1.
<mgrwt>
<rscale>  0 0.78744488E+02</rscale>
<asrwt>0</asrwt>
<pdfrwt beam="1">  1        2 0.98823537E-01 0.78744488E+02</pdfrwt>
<pdfrwt beam="2">  1       -1 0.37127288E-03 0.78744488E+02</pdfrwt>
<totfact> 0.34132574E+05</totfact>
</mgrwt>
</event>
<event>
 8    1  0.2389776E-020  0.7609663E+02  0.7818608E-02  0.1340508E+00
          2   -1    0    0  501    0  0.00000000000E+00  0.00000000000E+00  0.12588638461E+02  0.12588638720E+02  0.25500000000E-02 0. -1.
         -1   -1    0    0    0  501 -0.00000000000E+00 -0.00000000000E+00 -0.11499848169E+03  0.11499848180E+03  0.50400000000E-02 0.  1.
         24    2    1    2    0    0 -0.35527136788E-14  0.00000000000E+00 -0.10240984323E+03  0.12758712052E+03  0.76096631545E+02 0.  0.
         66    2    3    3    0    0  0.30308007518E+02  0.22834662000E+02 -0.47246982047E+02  0.60632288535E+02  0.19999980218E+01 0.  0.
        -13    1    3    3    0    0 -0.30308007518E+02 -0.22834662000E+02 -0.55162861180E+02  0.66954831984E+02  0.10566000000E+00 0.  1.
         13    1    4    4    0    0  0.26446087799E+02  0.20515942608E+02 -0.41341659391E+02  0.53192512877E+02  0.10566000000E+00 0. -1.
        -13    1    4    4    0    0  0.30257324040E+01  0.17763906891E+01 -0.48640263336E+01  0.59983778365E+01  0.10566000000E+00 0.  1.
         14    1    4    4    0    0  0.83618731541E+00  0.54232870250E+00 -0.10412963225E+01  0.14413978213E+01  0.00000000000E+00 0. -1.
<mgrwt>
<rscale>  0 0.76096632E+02</rscale>
<asrwt>0</asrwt>
<pdfrwt beam="1">  1        2 0.19367137E-02 0.76096632E+02</pdfrwt>
<pdfrwt beam="2">  1       -1 0.17692073E-01 0.76096632E+02</pdfrwt>
<totfact> 0.13029930E+05</totfact>
</mgrwt>
</event>
<event>
 8    1  0.2389776E-020  0.7709053E+02  0.7818608E-02  0.1337517E+00
         -1   -1    0    0    0  501 -0.00000000000E+00  0.00000000000E+00  0.12711754817E+02  0.12711755816E+02  0.50400000000E-02 0.  1.
          2   -1    0    0  501    0  0.00000000000E+00 -0.00000000000E+00 -0.11687902152E+03  0.11687902155E+03  0.25500000000E-02 0. -1.
         24    2    1    2    0    0 -0.35527136788E-14  0.00000000000E+00 -0.10416726671E+03  0.12959077737E+03  0.77090532008E+02 0.  0.
         66    2    3    3    0    0 -0.20378616444E+02 -0.22129090300E+02 -0.92559210100E+02  0.97345734524E+02  0.20000024957E+01 0.  0.
        -13    1    3    3    0    0  0.20378616444E+02  0.22129090300E+02 -0.11608056606E+02  0.32245042842E+02  0.10566000000E+00 0.  1.
         13    1    4    4    0    0 -0.90752920964E+01 -0.98628672159E+01 -0.43694385332E+02  0.45703911758E+02  0.10566000000E+00 0. -1.
        -13    1    4    4    0    0 -0.20164123982E+01 -0.24760379623E+01 -0.10310227365E+02  0.10793916588E+02  0.10566000000E+00 0. -1.
         14    1    4    4    0    0 -0.92869119493E+01 -0.97901851219E+01 -0.38554597403E+02  0.40847906179E+02  0.00000000000E+00 0. -1.
<mgrwt>
<rscale>  0 0.77090532E+02</rscale>
<asrwt>0</asrwt>
<pdfrwt beam="1">  1        2 0.17981387E-01 0.77090532E+02</pdfrwt>
<pdfrwt beam="2">  1       -1 0.19556548E-02 0.77090532E+02</pdfrwt>
<totfact> 0.20462705E+05</totfact>
</mgrwt>
</event>
<event>
 8    1  0.2389776E-020  0.7939128E+02  0.7818608E-02  0.1330788E+00
         -1   -1    0    0    0  501 -0.00000000000E+00  0.00000000000E+00  0.12612556577E+02  0.12612557584E+02  0.50400000000E-02 0.  1.
          2   -1    0    0  501    0  0.00000000000E+00 -0.00000000000E+00 -0.12493453106E+03  0.12493453109E+03  0.25500000000E-02 0. -1.
         24    2    1    2    0    0  0.00000000000E+00 -0.22204460493E-15 -0.11232197448E+03  0.13754708867E+03  0.79391281951E+02 0.  0.
         66    2    3    3    0    0  0.20835645622E+02 -0.16712841637E+01 -0.11461157891E+03  0.11651923163E+03  0.20000000062E+01 0.  0.
        -13    1    3    3    0    0 -0.20835645622E+02  0.16712841637E+01  0.22896044273E+01  0.21027857040E+02  0.10566000000E+00 0.  1.
         13    1    4    4    0    0  0.67414994046E+01 -0.51364402621E+00 -0.35483515458E+02  0.36122052513E+02  0.10566000000E+00 0. -1.
        -13    1    4    4    0    0  0.74688667837E+01 -0.60473467538E-01 -0.38524729566E+02  0.39242242294E+02  0.10566000000E+00 0.  1.
        -14    1    4    4    0    0  0.66252794336E+01 -0.10971666700E+01 -0.40603333886E+02  0.41154936823E+02  0.00000000000E+00 0.  1.
<mgrwt>
<rscale>  0 0.79391282E+02</rscale>
<asrwt>0</asrwt>
<pdfrwt beam="1">  1        2 0.19220696E-01 0.79391282E+02</pdfrwt>
<pdfrwt beam="2">  1       -1 0.19403935E-02 0.79391282E+02</pdfrwt>
<totfact> 0.19303733E+05</totfact>
</mgrwt>
</event>
<event>
 8    1  0.2389776E-020  0.7578593E+02  0.7818608E-02  0.1341454E+00
         -1   -1    0    0    0  501 -0.00000000000E+00  0.00000000000E+00  0.84965929657E+02  0.84965929807E+02  0.50400000000E-02 0.  1.
          2   -1    0    0  501    0  0.00000000000E+00 -0.00000000000E+00 -0.16899443565E+02  0.16899443757E+02  0.25500000000E-02 0. -1.
         24    2    1    2    0    0  0.35527136788E-14 -0.17763568394E-14  0.68066486092E+02  0.10186537356E+03  0.75785934067E+02 0.  0.
         66    2    3    3    0    0 -0.18318508885E+02  0.90923054908E+01 -0.87788979950E+01  0.22345174832E+02  0.20000003382E+01 0.  0.
        -13    1    3    3    0    0  0.18318508885E+02 -0.90923054908E+01  0.76845384087E+02  0.79520198732E+02  0.10566000000E+00 0.  1.
         13    1    4    4    0    0 -0.34799504713E+01  0.17217141295E+01 -0.10387959857E+01  0.40205243392E+01  0.10566000000E+00 0. -1.
        -13    1    4    4    0    0 -0.14136665049E+02  0.67688485554E+01 -0.74592724441E+01  0.17358413490E+02  0.10566000000E+00 0.  1.
        -14    1    4    4    0    0 -0.70189336486E+00  0.60174280596E+00 -0.28082956517E+00  0.96623700242E+00  0.00000000000E+00 0.  1.
<mgrwt>
<rscale>  0 0.75785934E+02</rscale>
<asrwt>0</asrwt>
<pdfrwt beam="1">  1        2 0.25999145E-02 0.75785934E+02</pdfrwt>
<pdfrwt beam="2">  1       -1 0.13071681E-01 0.75785934E+02</pdfrwt>
<totfact> 0.14022497E+05</totfact>
</mgrwt>
</event>
<event>
 8    1  0.2389776E-020  0.7759921E+02  0.7818608E-02  0.1336006E+00
          2   -1    0    0  501    0  0.00000000000E+00  0.00000000000E+00  0.74418475119E+03  0.74418475119E+03  0.25500000000E-02 0. -1.
         -1   -1    0    0    0  501 -0.00000000000E+00 -0.00000000000E+00 -0.20228939547E+01  0.20229002333E+01  0.50400000000E-02 0.  1.
         24    2    1    2    0    0  0.17763568394E-14 -0.35527136788E-14  0.74216185723E+03  0.74620765143E+03  0.77599205629E+02 0.  0.
         66    2    3    3    0    0  0.10936887557E+02 -0.21597088767E+02  0.66258015080E+03  0.66302526798E+03  0.19999986253E+01 0.  0.
        -13    1    3    3    0    0 -0.10936887557E+02  0.21597088767E+02  0.79581706435E+02  0.83182383446E+02  0.10566000000E+00 0.  1.
         13    1    4    4    0    0  0.56146361366E+00 -0.77702988436E+00  0.30380789194E+02  0.30396094040E+02  0.10566000000E+00 0. -1.
        -13    1    4    4    0    0  0.42362504951E+01 -0.10213265752E+02  0.29459368371E+03  0.29480113002E+03  0.10566000000E+00 0.  1.
        -14    1    4    4    0    0  0.61391734485E+01 -0.10606793131E+02  0.33760567790E+03  0.33782804392E+03  0.00000000000E+00 0.  1.
<mgrwt>
<rscale>  0 0.77599206E+02</rscale>
<asrwt>0</asrwt>
<pdfrwt beam="1">  1        2 0.11448989E+00 0.77599206E+02</pdfrwt>
<pdfrwt beam="2">  1       -1 0.31121513E-03 0.77599206E+02</pdfrwt>
<totfact> 0.36687859E+05</totfact>
</mgrwt>
</event>
<event>
 8    1  0.2389776E-020  0.7993166E+02  0.7818608E-02  0.1329245E+00
          2   -1    0    0  501    0  0.00000000000E+00  0.00000000000E+00  0.11192257279E+04  0.11192257279E+04  0.25500000000E-02 0. -1.
         -1   -1    0    0    0  501 -0.00000000000E+00 -0.00000000000E+00 -0.14271138996E+01  0.14271227992E+01  0.50400000000E-02 0.  1.
         24    2    1    2    0    0 -0.35527136788E-14  0.00000000000E+00  0.11177986140E+04  0.11206528507E+04  0.79931660346E+02 0.  0.
         66    2    3    3    0    0 -0.17199440170E+02  0.16003828811E+02  0.10121050424E+04  0.10123796522E+04  0.19999995393E+01 0.  0.
        -13    1    3    3    0    0  0.17199440170E+02 -0.16003828811E+02  0.10569357163E+03  0.10827319857E+03  0.10566000000E+00 0.  1.
         13    1    4    4    0    0 -0.67692627512E+01  0.71183021464E+01  0.39782016044E+03  0.39794143333E+03  0.10566000000E+00 0. -1.
        -13    1    4    4    0    0 -0.19759317946E+01  0.17389098381E+01  0.13232770923E+03  0.13235392668E+03  0.10566000000E+00 0. -1.
         14    1    4    4    0    0 -0.84542456244E+01  0.71466168270E+01  0.48195717273E+03  0.48208429216E+03  0.00000000000E+00 0. -1.
<mgrwt>
<rscale>  0 0.79931660E+02</rscale>
<asrwt>0</asrwt>
<pdfrwt beam="1">  1        2 0.17218841E+00 0.79931660E+02</pdfrwt>
<pdfrwt beam="2">  1       -1 0.21955688E-03 0.79931660E+02</pdfrwt>
<totfact> 0.35306374E+05</totfact>
</mgrwt>
</event>
<event>
 8    1  0.2389776E-020  0.8084522E+02  0.7818608E-02  0.1326670E+00
          2   -1    0    0  501    0  0.00000000000E+00  0.00000000000E+00  0.10235765187E+03  0.10235765191E+03  0.25500000000E-02 0. -1.
         -1   -1    0    0    0  501 -0.00000000000E+00 -0.00000000000E+00 -0.15963509314E+02  0.15963510110E+02  0.50400000000E-02 0.  1.
         24    2    1    2    0    0  0.35527136788E-14  0.00000000000E+00  0.86394142560E+02  0.11832116202E+03  0.80845219475E+02 0.  0.
         66    2    3    3    0    0 -0.29836482892E+02 -0.23313924750E+02  0.22617602317E+02  0.44150999227E+02  0.19999998788E+01 0.  0.
        -13    1    3    3    0    0  0.29836482892E+02  0.23313924750E+02  0.63776540243E+02  0.74170162788E+02  0.10566000000E+00 0.  1.
         13    1    4    4    0    0 -0.13186856764E+02 -0.95196365509E+01  0.10272753686E+02  0.19236873543E+02  0.10566000000E+00 0. -1.
        -13    1    4    4    0    0 -0.13521464330E+02 -0.10918968528E+02  0.10242375092E+02  0.20173529262E+02  0.10566000000E+00 0.  1.
        -14    1    4    4    0    0 -0.31281617985E+01 -0.28753196713E+01  0.21024735383E+01  0.47405964212E+01  0.00000000000E+00 0.  1.
<mgrwt>
<rscale>  0 0.80845219E+02</rscale>
<asrwt>0</asrwt>
<pdfrwt beam="1">  1        2 0.15747331E-01 0.80845219E+02</pdfrwt>
<pdfrwt beam="2">  1       -1 0.24559246E-02 0.80845219E+02</pdfrwt>
<totfact> 0.17347006E+05</totfact>
</mgrwt>
</event>
<event>
 8    1  0.2389776E-020  0.7972498E+02  0.7818608E-02  0.1329834E+00
         -1   -1    0    0    0  501 -0.00000000000E+00  0.00000000000E+00  0.31383723670E+03  0.31383723674E+03  0.50400000000E-02 0.  1.
          2   -1    0    0  501    0  0.00000000000E+00 -0.00000000000E+00 -0.50631918555E+01  0.50631924976E+01  0.25500000000E-02 0. -1.
         24    2    1    2    0    0  0.71054273576E-14 -0.35527136788E-14  0.30877404485E+03  0.31890042924E+03  0.79724983529E+02 0.  0.
         66    2    3    3    0    0 -0.35889540656E+02  0.17250521241E+02  0.15917208125E+03  0.16408958243E+03  0.20000009107E+01 0.  0.
        -13    1    3    3    0    0  0.35889540656E+02 -0.17250521241E+02  0.14960196360E+03  0.15481084681E+03  0.10566000000E+00 0.  1.
         13    1    4    4    0    0 -0.18930629206E+02  0.86813672965E+01  0.82380549902E+02  0.84972354483E+02  0.10566000000E+00 0. -1.
        -13    1    4    4    0    0 -0.56524932981E+01  0.35166198283E+01  0.26803210574E+02  0.27617757994E+02  0.10566000000E+00 0.  1.
        -14    1    4    4    0    0 -0.11306418152E+02  0.50525341165E+01  0.49988320770E+02  0.51499469956E+02  0.00000000000E+00 0.  1.
<mgrwt>
<rscale>  0 0.79724984E+02</rscale>
<asrwt>0</asrwt>
<pdfrwt beam="1">  1        2 0.77895270E-03 0.79724984E+02</pdfrwt>
<pdfrwt beam="2">  1       -1 0.48282649E-01 0.79724984E+02</pdfrwt>
<totfact> 0.85591999E+04</totfact>
</mgrwt>
</event>
<event>
 8    1  0.2389776E-020  0.7997760E+02  0.7818608E-02  0.1329115E+00
         -1   -1    0    0    0  501 -0.00000000000E+00  0.00000000000E+00  0.13035199310E+03  0.13035199320E+03  0.50400000000E-02 0.  1.
          2   -1    0    0  501    0  0.00000000000E+00 -0.00000000000E+00 -0.12267583971E+02  0.12267584236E+02  0.25500000000E-02 0. -1.
         24    2    1    2    0    0  0.35527136788E-14 -0.71054273576E-14  0.11808440913E+03  0.14261957744E+03  0.79977598039E+02 0.  0.
         66    2    3    3    0    0 -0.18359466957E+02 -0.35211544941E+02  0.67088978155E+02  0.77986241853E+02  0.20000010857E+01 0.  0.
        -13    1    3    3    0    0  0.18359466957E+02  0.35211544941E+02  0.50995430979E+02  0.64633335585E+02  0.10566000000E+00 0.  1.
         13    1    4    4    0    0 -0.14169049443E+02 -0.28521982375E+02  0.53551942296E+02  0.62306397171E+02  0.10566000000E+00 0. -1.
        -13    1    4    4    0    0 -0.13227805539E+01 -0.19061373089E+01  0.35840526679E+01  0.42707968104E+01  0.10566000000E+00 0.  1.
        -14    1    4    4    0    0 -0.28676369607E+01 -0.47834252566E+01  0.99529831918E+01  0.11409047872E+02  0.00000000000E+00 0.  1.
<mgrwt>
<rscale>  0 0.79977598E+02</rscale>
<asrwt>0</asrwt>
<pdfrwt beam="1">  1        2 0.18873208E-02 0.79977598E+02</pdfrwt>
<pdfrwt beam="2">  1       -1 0.20054151E-01 0.79977598E+02</pdfrwt>
<totfact> 0.11174448E+05</totfact>
</mgrwt>
</event>
<event>
 8    1  0.2389776E-020  0.8009338E+02  0.7818608E-02  0.1328787E+00
         -1   -1    0    0    0  501 -0.00000000000E+00  0.00000000000E+00  0.12220501330E+03  0.12220501340E+03  0.50400000000E-02 0.  1.
          2   -1    0    0  501    0  0.00000000000E+00 -0.00000000000E+00 -0.13123335594E+02  0.13123335842E+02  0.25500000000E-02 0. -1.
         24    2    1    2    0    0  0.00000000000E+00  0.00000000000E+00  0.10908167770E+03  0.13532834924E+03  0.80093381116E+02 0.  0.
         66    2    3    3    0    0  0.10051229841E+01 -0.30868499268E+02  0.11568455478E+02  0.33040939500E+02  0.20000004111E+01 0.  0.
        -13    1    3    3    0    0 -0.10051229841E+01  0.30868499268E+02  0.97513222227E+02  0.10228740974E+03  0.10566000000E+00 0.  1.
         13    1    4    4    0    0  0.56798314803E-01 -0.11114994428E+02  0.47317594662E+01  0.12080854227E+02  0.10566000000E+00 0. -1.
        -13    1    4    4    0    0  0.78764051925E+00 -0.17987819279E+02  0.58547186012E+01  0.18933328126E+02  0.10566000000E+00 0.  1.
        -14    1    4    4    0    0  0.16068415002E+00 -0.17656855606E+01  0.98197741043E+00  0.20267571462E+01  0.00000000000E+00 0.  1.
<mgrwt>
<rscale>  0 0.80093381E+02</rscale>
<asrwt>0</asrwt>
<pdfrwt beam="1">  1        2 0.20189747E-02 0.80093381E+02</pdfrwt>
<pdfrwt beam="2">  1       -1 0.18800772E-01 0.80093381E+02</pdfrwt>
<totfact> 0.11303729E+05</totfact>
</mgrwt>
</event>
<event>
 8    1  0.2389776E-020  0.7126083E+02  0.7818608E-02  0.1355857E+00
         -1   -1    0    0    0  501 -0.00000000000E+00  0.00000000000E+00  0.19793028388E+02  0.19793029030E+02  0.50400000000E-02 0.  1.
          2   -1    0    0  501    0  0.00000000000E+00 -0.00000000000E+00 -0.64140079997E+02  0.64140080048E+02  0.25500000000E-02 0. -1.
         24    2    1    2    0    0  0.00000000000E+00  0.17763568394E-14 -0.44347051609E+02  0.83933109078E+02  0.71260829444E+02 0.  0.
         66    2    3    3    0    0  0.82543159675E+01  0.11151100228E+02 -0.60809400992E+02  0.62404038508E+02  0.20000011601E+01 0.  0.
        -13    1    3    3    0    0 -0.82543159675E+01 -0.11151100228E+02  0.16462349383E+02  0.21529070571E+02  0.10566000000E+00 0.  1.
         13    1    4    4    0    0  0.32600886682E+01  0.55558553252E+01 -0.29299890446E+02  0.29999840845E+02  0.10566000000E+00 0. -1.
        -13    1    4    4    0    0  0.32730115814E+01  0.43093652981E+01 -0.22791106261E+02  0.23424963665E+02  0.10566000000E+00 0.  1.
        -14    1    4    4    0    0  0.17212157178E+01  0.12858796051E+01 -0.87184042850E+01  0.89792339975E+01  0.00000000000E+00 0.  1.
<mgrwt>
<rscale>  0 0.71260829E+02</rscale>
<asrwt>0</asrwt>
<pdfrwt beam="1">  1        2 0.98677045E-02 0.71260829E+02</pdfrwt>
<pdfrwt beam="2">  1       -1 0.30450814E-02 0.71260829E+02</pdfrwt>
<totfact> 0.21585132E+05</totfact>
</mgrwt>
</event>
<event>
 8    1  0.2389776E-020  0.8145139E+02  0.7818608E-02  0.1324982E+00
          2   -1    0    0  501    0  0.00000000000E+00  0.00000000000E+00  0.19879494361E+04  0.19879494361E+04  0.25500000000E-02 0. -1.
         -1   -1    0    0    0  501 -0.00000000000E+00 -0.00000000000E+00 -0.83431044923E+00  0.83432567220E+00  0.50400000000E-02 0.  1.
         24    2    1    2    0    0  0.17763568394E-14  0.00000000000E+00  0.19871151257E+04  0.19887837618E+04  0.81451387375E+02 0.  0.
         66    2    3    3    0    0  0.10016042506E+02  0.33148967611E+01  0.19539774038E+04  0.19540069099E+04  0.19999998796E+01 0.  0.
        -13    1    3    3    0    0 -0.10016042506E+02 -0.33148967611E+01  0.33137721876E+02  0.34776851830E+02  0.10566000000E+00 0.  1.
         13    1    4    4    0    0  0.50846570477E+01  0.15203827855E+01  0.10516666352E+04  0.10516800313E+04  0.10566000000E+00 0. -1.
        -13    1    4    4    0    0  0.67264542951E+00  0.69819870711E+00  0.19513982731E+03  0.19514226425E+03  0.10566000000E+00 0.  1.
        -14    1    4    4    0    0  0.42587400284E+01  0.10963152684E+01  0.70717094124E+03  0.70718461444E+03  0.00000000000E+00 0.  1.
<mgrwt>
<rscale>  0 0.81451387E+02</rscale>
<asrwt>0</asrwt>
<pdfrwt beam="1">  1        2 0.30583348E+00 0.81451387E+02</pdfrwt>
<pdfrwt beam="2">  1       -1 0.12835868E-03 0.81451387E+02</pdfrwt>
<totfact> 0.26636498E+05</totfact>
</mgrwt>
</event>
<event>
 8    1  0.2389776E-020  0.7965526E+02  0.7818608E-02  0.1330033E+00
         -1   -1    0    0    0  501 -0.00000000000E+00  0.00000000000E+00  0.21126845636E+01  0.21126905753E+01  0.50400000000E-02 0.  1.
          2   -1    0    0  501    0  0.00000000000E+00 -0.00000000000E+00 -0.75081619549E+03  0.75081619550E+03  0.25500000000E-02 0. -1.
         24    2    1    2    0    0  0.00000000000E+00  0.22204460493E-15 -0.74870351093E+03  0.75292888607E+03  0.79655258487E+02 0.  0.
         66    2    3    3    0    0  0.16131312459E+02  0.16946741622E+01 -0.71815657448E+03  0.71834250649E+03  0.19999998145E+01 0.  0.
        -13    1    3    3    0    0 -0.16131312459E+02 -0.16946741622E+01 -0.30546936450E+02  0.34586379583E+02  0.10566000000E+00 0.  1.
         13    1    4    4    0    0  0.26456734192E+01  0.41968495842E+00 -0.11751074259E+03  0.11754131832E+03  0.10566000000E+00 0. -1.
        -13    1    4    4    0    0  0.54085492325E-01 -0.62646282578E-01 -0.11325102840E+02  0.11325898117E+02  0.10566000000E+00 0.  1.
        -14    1    4    4    0    0  0.13431553547E+02  0.13376354863E+01 -0.58932072905E+03  0.58947529005E+03  0.00000000000E+00 0.  1.
<mgrwt>
<rscale>  0 0.79655258E+02</rscale>
<asrwt>0</asrwt>
<pdfrwt beam="1">  1        2 0.11550997E+00 0.79655258E+02</pdfrwt>
<pdfrwt beam="2">  1       -1 0.32502946E-03 0.79655258E+02</pdfrwt>
<totfact> 0.34343350E+05</totfact>
</mgrwt>
</event>
<event>
 8    1  0.2389776E-020  0.7918202E+02  0.7818608E-02  0.1331389E+00
          2   -1    0    0  501    0  0.00000000000E+00  0.00000000000E+00  0.59753352308E+01  0.59753357749E+01  0.25500000000E-02 0. -1.
         -1   -1    0    0    0  501 -0.00000000000E+00 -0.00000000000E+00 -0.26231966834E+03  0.26231966838E+03  0.50400000000E-02 0.  1.
         24    2    1    2    0    0 -0.17763568394E-14 -0.71054273576E-14 -0.25634433311E+03  0.26829500416E+03  0.79182019055E+02 0.  0.
         66    2    3    3    0    0 -0.15642380780E+02 -0.33947156436E+02 -0.17221718701E+03  0.17623805776E+03  0.19999985217E+01 0.  0.
        -13    1    3    3    0    0  0.15642380780E+02  0.33947156436E+02 -0.84127146094E+02  0.92056946400E+02  0.10566000000E+00 0.  1.
         13    1    4    4    0    0 -0.83615848670E+01 -0.18865853465E+02 -0.98380542720E+02  0.10052153440E+03  0.10566000000E+00 0. -1.
        -13    1    4    4    0    0 -0.63588925129E+01 -0.12601890480E+02 -0.61408976868E+02  0.63010449623E+02  0.10566000000E+00 0.  1.
        -14    1    4    4    0    0 -0.92190340034E+00 -0.24794124909E+01 -0.12427667425E+02  0.12706073737E+02  0.00000000000E+00 0.  1.
<mgrwt>
<rscale>  0 0.79182019E+02</rscale>
<asrwt>0</asrwt>
<pdfrwt beam="1">  1        2 0.91928259E-03 0.79182019E+02</pdfrwt>
<pdfrwt beam="2">  1       -1 0.40356863E-01 0.79182019E+02</pdfrwt>
<totfact> 0.93445317E+04</totfact>
</mgrwt>
</event>
<event>
 8    1  0.2389776E-020  0.8028082E+02  0.7818608E-02  0.1328256E+00
          2   -1    0    0  501    0  0.00000000000E+00  0.00000000000E+00  0.12543898707E+02  0.12543898966E+02  0.25500000000E-02 0. -1.
         -1   -1    0    0    0  501 -0.00000000000E+00 -0.00000000000E+00 -0.12844910190E+03  0.12844910200E+03  0.50400000000E-02 0.  1.
         24    2    1    2    0    0 -0.35527136788E-14  0.35527136788E-14 -0.11590520320E+03  0.14099300097E+03  0.80280820836E+02 0.  0.
         66    2    3    3    0    0 -0.18342386157E+02  0.29525350490E+02 -0.22817087760E+02  0.41627021624E+02  0.19999959981E+01 0.  0.
        -13    1    3    3    0    0  0.18342386157E+02 -0.29525350490E+02 -0.93088115436E+02  0.99365979343E+02  0.10566000000E+00 0.  1.
         13    1    4    4    0    0 -0.71639556423E+01  0.11567371581E+02 -0.91623796409E+01  0.16403862669E+02  0.10566000000E+00 0. -1.
        -13    1    4    4    0    0 -0.91634130866E+01  0.15121463240E+02 -0.12009429343E+02  0.21374385304E+02  0.10566000000E+00 0.  1.
         14    1    4    4    0    0 -0.20150174277E+01  0.28365156690E+01 -0.16452787754E+01  0.38487736518E+01  0.00000000000E+00 0. -1.
<mgrwt>
<rscale>  0 0.80280821E+02</rscale>
<asrwt>0</asrwt>
<pdfrwt beam="1">  1        2 0.19298307E-02 0.80280821E+02</pdfrwt>
<pdfrwt beam="2">  1       -1 0.19761399E-01 0.80280821E+02</pdfrwt>
<totfact> 0.11107250E+05</totfact>
</mgrwt>
</event>
<event>
 8    1  0.2389776E-020  0.7817651E+02  0.7818608E-02  0.1334307E+00
          2   -1    0    0  501    0  0.00000000000E+00  0.00000000000E+00  0.63755866223E+01  0.63755871323E+01  0.25500000000E-02 0. -1.
         -1   -1    0    0    0  501 -0.00000000000E+00 -0.00000000000E+00 -0.23964721628E+03  0.23964721633E+03  0.50400000000E-02 0.  1.
         24    2    1    2    0    0 -0.44408920985E-15  0.00000000000E+00 -0.23327162966E+03  0.24602280347E+03  0.78176509399E+02 0.  0.
         66    2    3    3    0    0  0.33559171591E+01  0.34476699957E+02 -0.59892662532E+02  0.69217310266E+02  0.19999988321E+01 0.  0.
        -13    1    3    3    0    0 -0.33559171591E+01 -0.34476699957E+02 -0.17337896713E+03  0.17680549320E+03  0.10566000000E+00 0.  1.
         13    1    4    4    0    0  0.43605828286E+00  0.21680916218E+01 -0.31162973317E+01  0.38227269327E+01  0.10566000000E+00 0. -1.
        -13    1    4    4    0    0  0.43941097318E+00  0.64379320156E+01 -0.10829487567E+02  0.12606705186E+02  0.10566000000E+00 0. -1.
         14    1    4    4    0    0  0.24804479031E+01  0.25870676320E+02 -0.45946877634E+02  0.52787878148E+02  0.00000000000E+00 0. -1.
<mgrwt>
<rscale>  0 0.78176509E+02</rscale>
<asrwt>0</asrwt>
<pdfrwt beam="1">  1        2 0.98085971E-03 0.78176509E+02</pdfrwt>
<pdfrwt beam="2">  1       -1 0.36868796E-01 0.78176509E+02</pdfrwt>
<totfact> 0.99675772E+04</totfact>
</mgrwt>
</event>
<event>
 8    1  0.2389776E-020  0.8242894E+02  0.7818608E-02  0.1322296E+00
          2   -1    0    0  501    0  0.00000000000E+00  0.00000000000E+00  0.27438509588E+03  0.27438509589E+03  0.25500000000E-02 0. -1.
         -1   -1    0    0    0  501 -0.00000000000E+00 -0.00000000000E+00 -0.61906869868E+01  0.61906890384E+01  0.50400000000E-02 0.  1.
         24    2    1    2    0    0 -0.71054273576E-14  0.00000000000E+00  0.26819440889E+03  0.28057578493E+03  0.82428939867E+02 0.  0.
         66    2    3    3    0    0  0.21099875640E+02  0.30502800459E+02  0.19516110780E+03  0.19866424838E+03  0.19999993645E+01 0.  0.
        -13    1    3    3    0    0 -0.21099875640E+02 -0.30502800459E+02  0.73033301087E+02  0.81911536547E+02  0.10566000000E+00 0.  1.
         13    1    4    4    0    0  0.12389479170E+02  0.18455279596E+02  0.11248115061E+03  0.11465651724E+03  0.10566000000E+00 0.  1.
        -13    1    4    4    0    0  0.27370333246E+01  0.41838489138E+01  0.27314179126E+02  0.27768174022E+02  0.10566000000E+00 0. -1.
        -14    1    4    4    0    0  0.59733631455E+01  0.78636719491E+01  0.55365778066E+02  0.56239557116E+02  0.00000000000E+00 0.  1.
<mgrwt>
<rscale>  0 0.82428940E+02</rscale>
<asrwt>0</asrwt>
<pdfrwt beam="1">  1        2 0.42213080E-01 0.82428940E+02</pdfrwt>
<pdfrwt beam="2">  1       -1 0.95241380E-03 0.82428940E+02</pdfrwt>
<totfact> 0.22816793E+05</totfact>
</mgrwt>
</event>
<event>
 8    1  0.2389776E-020  0.8001266E+02  0.7818608E-02  0.1329016E+00
         -1   -1    0    0    0  501 -0.00000000000E+00  0.00000000000E+00  0.78392755543E+01  0.78392771744E+01  0.50400000000E-02 0.  1.
          2   -1    0    0  501    0  0.00000000000E+00 -0.00000000000E+00 -0.20416507955E+03  0.20416507956E+03  0.25500000000E-02 0. -1.
         24    2    1    2    0    0  0.00000000000E+00  0.00000000000E+00 -0.19632580399E+03  0.21200435674E+03  0.80012661262E+02 0.  0.
         66    2    3    3    0    0 -0.26033307400E+02 -0.17350161555E+02 -0.16418562806E+03  0.16715167262E+03  0.19999987457E+01 0.  0.
        -13    1    3    3    0    0  0.26033307400E+02  0.17350161555E+02 -0.32140175927E+02  0.44852684120E+02  0.10566000000E+00 0.  1.
         13    1    4    4    0    0 -0.80172436313E+01 -0.56242017935E+01 -0.55845891626E+02  0.56698171195E+02  0.10566000000E+00 0. -1.
        -13    1    4    4    0    0 -0.13249628789E+02 -0.83858862821E+01 -0.78023049648E+02  0.79583184105E+02  0.10566000000E+00 0.  1.
        -14    1    4    4    0    0 -0.47664349791E+01 -0.33400734798E+01 -0.30316686790E+02  0.30870317316E+02  0.00000000000E+00 0.  1.
<mgrwt>
<rscale>  0 0.80012661E+02</rscale>
<asrwt>0</asrwt>
<pdfrwt beam="1">  1        2 0.31410008E-01 0.80012661E+02</pdfrwt>
<pdfrwt beam="2">  1       -1 0.12060427E-02 0.80012661E+02</pdfrwt>
<totfact> 0.22208049E+05</totfact>
</mgrwt>
</event>
<event>
 8    1  0.2389776E-020  0.8082319E+02  0.7818608E-02  0.1326731E+00
         -1   -1    0    0    0  501 -0.00000000000E+00  0.00000000000E+00  0.17864865915E+02  0.17864866626E+02  0.50400000000E-02 0.  1.
          2   -1    0    0  501    0  0.00000000000E+00 -0.00000000000E+00 -0.91413884429E+02  0.91413884465E+02  0.25500000000E-02 0. -1.
         24    2    1    2    0    0  0.00000000000E+00  0.00000000000E+00 -0.73549018514E+02  0.10927875109E+03  0.80823185508E+02 0.  0.
         66    2    3    3    0    0  0.20575305299E+02 -0.29723686598E+02 -0.61143687083E+02  0.71059068399E+02  0.19999996475E+01 0.  0.
        -13    1    3    3    0    0 -0.20575305299E+02  0.29723686598E+02 -0.12405331431E+02  0.38219682692E+02  0.10566000000E+00 0.  1.
         13    1    4    4    0    0  0.17292530868E+02 -0.25312385350E+02 -0.51122894006E+02  0.59609646296E+02  0.10566000000E+00 0. -1.
        -13    1    4    4    0    0  0.30108546136E+00 -0.54168062893E+00 -0.15209869699E+01  0.16457933519E+01  0.10566000000E+00 0.  1.
        -14    1    4    4    0    0  0.29816889691E+01 -0.38696206187E+01 -0.84998061066E+01  0.98036287512E+01  0.00000000000E+00 0.  1.
<mgrwt>
<rscale>  0 0.80823186E+02</rscale>
<asrwt>0</asrwt>
<pdfrwt beam="1">  1        2 0.14063674E-01 0.80823186E+02</pdfrwt>
<pdfrwt beam="2">  1       -1 0.27484410E-02 0.80823186E+02</pdfrwt>
<totfact> 0.16824078E+05</totfact>
</mgrwt>
</event>
<event>
 8    1  0.2389776E-020  0.8024544E+02  0.7818608E-02  0.1328356E+00
         -1   -1    0    0    0  501 -0.00000000000E+00  0.00000000000E+00  0.12001365681E+02  0.12001366739E+02  0.50400000000E-02 0.  1.
          2   -1    0    0  501    0  0.00000000000E+00 -0.00000000000E+00 -0.13413745611E+03  0.13413745613E+03  0.25500000000E-02 0. -1.
         24    2    1    2    0    0  0.00000000000E+00  0.00000000000E+00 -0.12213609043E+03  0.14613882287E+03  0.80245442022E+02 0.  0.
         66    2    3    3    0    0  0.42419274397E+01 -0.12113037968E+02 -0.13028812166E+03  0.13093400737E+03  0.20000006463E+01 0.  0.
        -13    1    3    3    0    0 -0.42419274397E+01  0.12113037968E+02  0.81520312328E+01  0.15204815503E+02  0.10566000000E+00 0.  1.
         13    1    4    4    0    0  0.68763302228E+00 -0.20621477690E+01 -0.27957793907E+02  0.28042373237E+02  0.10566000000E+00 0. -1.
        -13    1    4    4    0    0  0.34892301144E+01 -0.87572640294E+01 -0.88437807449E+02  0.88938862993E+02  0.10566000000E+00 0.  1.
        -14    1    4    4    0    0  0.65064302976E-01 -0.12936261697E+01 -0.13892520303E+02  0.13952771137E+02  0.00000000000E+00 0.  1.
<mgrwt>
<rscale>  0 0.80245442E+02</rscale>
<asrwt>0</asrwt>
<pdfrwt beam="1">  1        2 0.20636531E-01 0.80245442E+02</pdfrwt>
<pdfrwt beam="2">  1       -1 0.18463641E-02 0.80245442E+02</pdfrwt>
<totfact> 0.19176290E+05</totfact>
</mgrwt>
</event>
<event>
 8    1  0.2389776E-020  0.7930724E+02  0.7818608E-02  0.1331029E+00
         -1   -1    0    0    0  501 -0.00000000000E+00  0.00000000000E+00  0.65174094669E+02  0.65174094864E+02  0.50400000000E-02 0.  1.
          2   -1    0    0  501    0  0.00000000000E+00 -0.00000000000E+00 -0.24126298250E+02  0.24126298385E+02  0.25500000000E-02 0. -1.
         24    2    1    2    0    0 -0.17763568394E-14  0.00000000000E+00  0.41047796419E+02  0.89300393249E+02  0.79307242062E+02 0.  0.
         66    2    3    3    0    0  0.13902350952E+02 -0.31419888146E+02 -0.16976315535E+01  0.34458187698E+02  0.20000033685E+01 0.  0.
        -13    1    3    3    0    0 -0.13902350952E+02  0.31419888146E+02  0.42745427972E+02  0.54842205551E+02  0.10566000000E+00 0.  1.
         13    1    4    4    0    0  0.11755269383E+02 -0.27015245333E+02 -0.15296150074E+01  0.29501876632E+02  0.10566000000E+00 0. -1.
        -13    1    4    4    0    0  0.70372938239E+00 -0.17268925372E+01 -0.38342983682E+00  0.19067184779E+01  0.10566000000E+00 0.  1.
        -14    1    4    4    0    0  0.14433521861E+01 -0.26777502755E+01  0.21541329077E+00  0.30495925887E+01  0.00000000000E+00 0.  1.
<mgrwt>
<rscale>  0 0.79307242E+02</rscale>
<asrwt>0</asrwt>
<pdfrwt beam="1">  1        2 0.37117382E-02 0.79307242E+02</pdfrwt>
<pdfrwt beam="2">  1       -1 0.10026784E-01 0.79307242E+02</pdfrwt>
<totfact> 0.13211299E+05</totfact>
</mgrwt>
</event>
<event>
 8    1  0.2389776E-020  0.7973227E+02  0.7818608E-02  0.1329813E+00
         -1   -1    0    0    0  501 -0.00000000000E+00  0.00000000000E+00  0.16617412647E+02  0.16617413411E+02  0.50400000000E-02 0.  1.
          2   -1    0    0  501    0  0.00000000000E+00 -0.00000000000E+00 -0.95641168802E+02  0.95641168836E+02  0.25500000000E-02 0. -1.
         24    2    1    2    0    0  0.00000000000E+00  0.00000000000E+00 -0.79023756155E+02  0.11225858225E+03  0.79732272332E+02 0.  0.
         66    2    3    3    0    0 -0.74505587153E+01  0.26436958395E+02 -0.80169464710E+02  0.84767721829E+02  0.19999994796E+01 0.  0.
        -13    1    3    3    0    0  0.74505587153E+01 -0.26436958395E+02  0.11457085547E+01  0.27490860418E+02  0.10566000000E+00 0.  1.
         13    1    4    4    0    0 -0.42561196417E+01  0.17898231165E+02 -0.52146462669E+02  0.55296708457E+02  0.10566000000E+00 0. -1.
        -13    1    4    4    0    0 -0.24351957556E+01  0.61768237958E+01 -0.20730229182E+02  0.21767794940E+02  0.10566000000E+00 0.  1.
         14    1    4    4    0    0 -0.75924331801E+00  0.23619034350E+01 -0.72927728590E+01  0.77032184329E+01  0.00000000000E+00 0. -1.
<mgrwt>
<rscale>  0 0.79732272E+02</rscale>
<asrwt>0</asrwt>
<pdfrwt beam="1">  1        2 0.14714026E-01 0.79732272E+02</pdfrwt>
<pdfrwt beam="2">  1       -1 0.25565252E-02 0.79732272E+02</pdfrwt>
<totfact> 0.17666014E+05</totfact>
</mgrwt>
</event>
<event>
 8    1  0.2389776E-020  0.7937969E+02  0.7818608E-02  0.1330821E+00
         -1   -1    0    0    0  501 -0.00000000000E+00  0.00000000000E+00  0.22001856206E+01  0.22001913932E+01  0.50400000000E-02 0.  1.
          2   -1    0    0  501    0  0.00000000000E+00 -0.00000000000E+00 -0.71597664830E+03  0.71597664830E+03  0.25500000000E-02 0. -1.
         24    2    1    2    0    0  0.00000000000E+00 -0.35527136788E-14 -0.71377646268E+03  0.71817683970E+03  0.79379685078E+02 0.  0.
         66    2    3    3    0    0 -0.17716068631E+02  0.31221185109E+02 -0.50975932925E+03  0.51102563071E+03  0.20000000202E+01 0.  0.
        -13    1    3    3    0    0  0.17716068631E+02 -0.31221185109E+02 -0.20401713343E+03  0.20715120898E+03  0.10566000000E+00 0.  1.
         13    1    4    4    0    0 -0.86542226815E+01  0.15499426516E+02 -0.26019928948E+03  0.26080415871E+03  0.10566000000E+00 0. -1.
        -13    1    4    4    0    0 -0.17615141289E+01  0.26732461723E+01 -0.39106044276E+02  0.39237011100E+02  0.10566000000E+00 0.  1.
         14    1    4    4    0    0 -0.73003318207E+01  0.13048512421E+02 -0.21045399550E+03  0.21098446090E+03  0.00000000000E+00 0. -1.
<mgrwt>
<rscale>  0 0.79379685E+02</rscale>
<asrwt>0</asrwt>
<pdfrwt beam="1">  1        2 0.11015007E+00 0.79379685E+02</pdfrwt>
<pdfrwt beam="2">  1       -1 0.33849111E-03 0.79379685E+02</pdfrwt>
<totfact> 0.34308579E+05</totfact>
</mgrwt>
</event>
<event>
 8    1  0.2389776E-020  0.7964013E+02  0.7818608E-02  0.1330076E+00
          2   -1    0    0  501    0  0.00000000000E+00  0.00000000000E+00  0.12360430654E+04  0.12360430654E+04  0.25500000000E-02 0. -1.
         -1   -1    0    0    0  501 -0.00000000000E+00 -0.00000000000E+00 -0.12828287121E+01  0.12828386127E+01  0.50400000000E-02 0.  1.
         24    2    1    2    0    0  0.00000000000E+00 -0.69388939039E-17  0.12347602367E+04  0.12373259040E+04  0.79640132106E+02 0.  0.
         66    2    3    3    0    0  0.19981938164E+02  0.48805598555E-01  0.11524467633E+04  0.11526217170E+04  0.19999989030E+01 0.  0.
        -13    1    3    3    0    0 -0.19981938164E+02 -0.48805598555E-01  0.82313473372E+02  0.84704187012E+02  0.10566000000E+00 0.  1.
         13    1    4    4    0    0  0.35018257153E+00 -0.11727683970E+00  0.30547519121E+02  0.30549934046E+02  0.10566000000E+00 0.  1.
        -13    1    4    4    0    0  0.50934924472E+00  0.18845230279E+00  0.29739047362E+02  0.29744193601E+02  0.10566000000E+00 0.  1.
         14    1    4    4    0    0  0.19122406348E+02 -0.22369864534E-01  0.10921601968E+04  0.10923275893E+04  0.00000000000E+00 0. -1.
<mgrwt>
<rscale>  0 0.79640132E+02</rscale>
<asrwt>0</asrwt>
<pdfrwt beam="1">  1        2 0.19015905E+00 0.79640132E+02</pdfrwt>
<pdfrwt beam="2">  1       -1 0.19736050E-03 0.79640132E+02</pdfrwt>
<totfact> 0.35319754E+05</totfact>
</mgrwt>
</event>
<event>
 8    1  0.2389776E-020  0.7830487E+02  0.7818608E-02  0.1333932E+00
          2   -1    0    0  501    0  0.00000000000E+00  0.00000000000E+00  0.96627364116E+03  0.96627364116E+03  0.25500000000E-02 0. -1.
         -1   -1    0    0    0  501 -0.00000000000E+00 -0.00000000000E+00 -0.15864133138E+01  0.15864213198E+01  0.50400000000E-02 0.  1.
         24    2    1    2    0    0 -0.17763568394E-14  0.35527136788E-14  0.96468722785E+03  0.96786006248E+03  0.78304872009E+02 0.  0.
         66    2    3    3    0    0  0.56346788556E+01 -0.22120409707E+02  0.87543923270E+03  0.87573906632E+03  0.20000018650E+01 0.  0.
        -13    1    3    3    0    0 -0.56346788556E+01  0.22120409707E+02  0.89247995148E+02  0.92120996160E+02  0.10566000000E+00 0.  1.
         13    1    4    4    0    0  0.29226637109E+01 -0.12736126574E+02  0.51688762120E+03  0.51705277776E+03  0.10566000000E+00 0. -1.
        -13    1    4    4    0    0  0.24408265816E+01 -0.67467851331E+01  0.25910991366E+03  0.25920924996E+03  0.10566000000E+00 0.  1.
        -14    1    4    4    0    0  0.27118856310E+00 -0.26374979989E+01  0.99441697843E+02  0.99477038601E+02  0.00000000000E+00 0.  1.
<mgrwt>
<rscale>  0 0.78304872E+02</rscale>
<asrwt>0</asrwt>
<pdfrwt beam="1">  1        2 0.14865739E+00 0.78304872E+02</pdfrwt>
<pdfrwt beam="2">  1       -1 0.24406435E-03 0.78304872E+02</pdfrwt>
<totfact> 0.37174748E+05</totfact>
</mgrwt>
</event>
<event>
 8    1  0.2389776E-020  0.7839307E+02  0.7818608E-02  0.1333675E+00
          2   -1    0    0  501    0  0.00000000000E+00  0.00000000000E+00  0.34113310684E+03  0.34113310685E+03  0.25500000000E-02 0. -1.
         -1   -1    0    0    0  501 -0.00000000000E+00 -0.00000000000E+00 -0.45037197246E+01  0.45037225447E+01  0.50400000000E-02 0.  1.
         24    2    1    2    0    0  0.00000000000E+00  0.00000000000E+00  0.33662938712E+03  0.34563682939E+03  0.78393070893E+02 0.  0.
         66    2    3    3    0    0  0.23320937585E+02 -0.30794506783E+02  0.13978372416E+03  0.14503674474E+03  0.20000011966E+01 0.  0.
        -13    1    3    3    0    0 -0.23320937585E+02  0.30794506783E+02  0.19684566295E+03  0.20060008466E+03  0.10566000000E+00 0.  1.
         13    1    4    4    0    0  0.40110925109E+01 -0.49182820867E+01  0.23197441103E+02  0.24050172548E+02  0.10566000000E+00 0. -1.
        -13    1    4    4    0    0  0.13517421831E+02 -0.18034577248E+02  0.84252296947E+02  0.87214834600E+02  0.10566000000E+00 0.  1.
        -14    1    4    4    0    0  0.57924232432E+01 -0.78416474484E+01  0.32333986114E+02  0.33771737589E+02  0.00000000000E+00 0.  1.
<mgrwt>
<rscale>  0 0.78393071E+02</rscale>
<asrwt>0</asrwt>
<pdfrwt beam="1">  1        2 0.52482019E-01 0.78393071E+02</pdfrwt>
<pdfrwt beam="2">  1       -1 0.69288015E-03 0.78393071E+02</pdfrwt>
<totfact> 0.28158368E+05</totfact>
</mgrwt>
</event>
<event>
 8    1  0.2389776E-020  0.7698817E+02  0.7818608E-02  0.1337823E+00
          2   -1    0    0  501    0  0.00000000000E+00  0.00000000000E+00  0.17587380139E+02  0.17587380324E+02  0.25500000000E-02 0. -1.
         -1   -1    0    0    0  501 -0.00000000000E+00 -0.00000000000E+00 -0.84253295420E+02  0.84253295571E+02  0.50400000000E-02 0.  1.
         24    2    1    2    0    0  0.00000000000E+00  0.00000000000E+00 -0.66665915281E+02  0.10184067590E+03  0.76988174459E+02 0.  0.
         66    2    3    3    0    0  0.22627066717E+02  0.16829711650E+02  0.12548869947E+01  0.28298375902E+02  0.19999987340E+01 0.  0.
        -13    1    3    3    0    0 -0.22627066717E+02 -0.16829711650E+02 -0.67920802276E+02  0.73542299993E+02  0.10566000000E+00 0.  1.
         13    1    4    4    0    0  0.14716790168E+02  0.10333599052E+02  0.10161845437E+01  0.18011412418E+02  0.10566000000E+00 0. -1.
        -13    1    4    4    0    0  0.28676600442E+01  0.21771485454E+01  0.53199756680E+00  0.36411035915E+01  0.10566000000E+00 0.  1.
        -14    1    4    4    0    0  0.50426165044E+01  0.43189640519E+01 -0.29329511577E+00  0.66458598930E+01  0.00000000000E+00 0.  1.
<mgrwt>
<rscale>  0 0.76988174E+02</rscale>
<asrwt>0</asrwt>
<pdfrwt beam="1">  1        2 0.27057509E-02 0.76988174E+02</pdfrwt>
<pdfrwt beam="2">  1       -1 0.12962045E-01 0.76988174E+02</pdfrwt>
<totfact> 0.13509333E+05</totfact>
</mgrwt>
</event>
<event>
 8    1  0.2389776E-020  0.7937991E+02  0.7818608E-02  0.1330820E+00
         -1   -1    0    0    0  501 -0.00000000000E+00  0.00000000000E+00  0.28893184424E+01  0.28893228381E+01  0.50400000000E-02 0.  1.
          2   -1    0    0  501    0  0.00000000000E+00 -0.00000000000E+00 -0.54521205862E+03  0.54521205862E+03  0.25500000000E-02 0. -1.
         24    2    1    2    0    0  0.35527136788E-14 -0.35527136788E-14 -0.54232274017E+03  0.54810138146E+03  0.79379908346E+02 0.  0.
         66    2    3    3    0    0 -0.19113165620E+02  0.21527639054E+02 -0.45973823506E+03  0.46064302570E+03  0.20000018431E+01 0.  0.
        -13    1    3    3    0    0  0.19113165620E+02 -0.21527639054E+02 -0.82584505119E+02  0.87458355765E+02  0.10566000000E+00 0.  1.
         13    1    4    4    0    0 -0.17236309318E+02  0.19398407248E+02 -0.41598344577E+03  0.41679206672E+03  0.10566000000E+00 0. -1.
        -13    1    4    4    0    0 -0.56796227500E+00  0.90890266819E+00 -0.19915104559E+02  0.19944203139E+02  0.10566000000E+00 0. -1.
         14    1    4    4    0    0 -0.13088940273E+01  0.12203291384E+01 -0.23839684724E+02  0.23906755834E+02  0.00000000000E+00 0. -1.
<mgrwt>
<rscale>  0 0.79379908E+02</rscale>
<asrwt>0</asrwt>
<pdfrwt beam="1">  1        2 0.83878697E-01 0.79379908E+02</pdfrwt>
<pdfrwt beam="2">  1       -1 0.44451130E-03 0.79379908E+02</pdfrwt>
<totfact> 0.31920628E+05</totfact>
</mgrwt>
</event>
<event>
 8    1  0.2389776E-020  0.7841741E+02  0.7818608E-02  0.1333604E+00
         -1   -1    0    0    0  501 -0.00000000000E+00  0.00000000000E+00  0.51347346428E+01  0.51347371163E+01  0.50400000000E-02 0.  1.
          2   -1    0    0  501    0  0.00000000000E+00 -0.00000000000E+00 -0.29939663697E+03  0.29939663698E+03  0.25500000000E-02 0. -1.
         24    2    1    2    0    0 -0.88817841970E-15  0.00000000000E+00 -0.29426190233E+03  0.30453137410E+03  0.78417412915E+02 0.  0.
         66    2    3    3    0    0  0.60079381204E+01 -0.34925866298E+02 -0.21214027549E+03  0.21508930226E+03  0.20000004973E+01 0.  0.
        -13    1    3    3    0    0 -0.60079381204E+01  0.34925866298E+02 -0.82121626834E+02  0.89442071840E+02  0.10566000000E+00 0.  1.
         13    1    4    4    0    0  0.43662334249E+01 -0.21157061874E+02 -0.13163003316E+03  0.13339101190E+03  0.10566000000E+00 0. -1.
        -13    1    4    4    0    0  0.49467909791E+00 -0.23224719642E+01 -0.13343133731E+02  0.13553190224E+02  0.10566000000E+00 0.  1.
        -14    1    4    4    0    0  0.11470255976E+01 -0.11446332460E+02 -0.67167108603E+02  0.68145100136E+02  0.00000000000E+00 0.  1.
<mgrwt>
<rscale>  0 0.78417413E+02</rscale>
<asrwt>0</asrwt>
<pdfrwt beam="1">  1        2 0.46061008E-01 0.78417413E+02</pdfrwt>
<pdfrwt beam="2">  1       -1 0.78995960E-03 0.78417413E+02</pdfrwt>
<totfact> 0.26844682E+05</totfact>
</mgrwt>
</event>
<event>
 8    1  0.2389776E-020  0.8074401E+02  0.7818608E-02  0.1326953E+00
         -1   -1    0    0    0  501 -0.00000000000E+00  0.00000000000E+00  0.11042449057E+01  0.11042564074E+01  0.50400000000E-02 0.  1.
          2   -1    0    0  501    0  0.00000000000E+00 -0.00000000000E+00 -0.14760223891E+04  0.14760223891E+04  0.25500000000E-02 0. -1.
         24    2    1    2    0    0  0.00000000000E+00  0.17763568394E-14 -0.14749181442E+04  0.14771266455E+04  0.80744007833E+02 0.  0.
         66    2    3    3    0    0  0.91171208368E+01 -0.10006881451E+02 -0.14332329055E+04  0.14332982317E+04  0.20000000601E+01 0.  0.
        -13    1    3    3    0    0 -0.91171208368E+01  0.10006881451E+02 -0.41685238733E+02  0.43828413854E+02  0.10566000000E+00 0.  1.
         13    1    4    4    0    0  0.62105805224E+01 -0.71448030870E+01 -0.99108080616E+03  0.99112602378E+03  0.10566000000E+00 0. -1.
        -13    1    4    4    0    0  0.74016385702E+00 -0.31391438551E+00 -0.12023792261E+03  0.12024065695E+03  0.10566000000E+00 0.  1.
        -14    1    4    4    0    0  0.21663764574E+01 -0.25481639785E+01 -0.32191417669E+03  0.32193155093E+03  0.00000000000E+00 0.  1.
<mgrwt>
<rscale>  0 0.80744008E+02</rscale>
<asrwt>0</asrwt>
<pdfrwt beam="1">  1        2 0.22707879E+00 0.80744008E+02</pdfrwt>
<pdfrwt beam="2">  1       -1 0.16988590E-03 0.80744008E+02</pdfrwt>
<totfact> 0.32652253E+05</totfact>
</mgrwt>
</event>
<event>
 8    1  0.2389776E-020  0.7921203E+02  0.7818608E-02  0.1331303E+00
         -1   -1    0    0    0  501 -0.00000000000E+00  0.00000000000E+00  0.21458261422E+01  0.21458320611E+01  0.50400000000E-02 0.  1.
          2   -1    0    0  501    0  0.00000000000E+00 -0.00000000000E+00 -0.73101654452E+03  0.73101654453E+03  0.25500000000E-02 0. -1.
         24    2    1    2    0    0  0.35527136788E-14  0.17763568394E-14 -0.72887071838E+03  0.73316237659E+03  0.79212034010E+02 0.  0.
         66    2    3    3    0    0  0.26702345756E+02  0.12981676185E+02 -0.60692808734E+03  0.60765717505E+03  0.19999988364E+01 0.  0.
        -13    1    3    3    0    0 -0.26702345756E+02 -0.12981676185E+02 -0.12194263104E+03  0.12550520154E+03  0.10566000000E+00 0.  1.
         13    1    4    4    0    0  0.12068665060E+02  0.58375457287E+01 -0.26366837532E+03  0.26400900160E+03  0.10566000000E+00 0.  1.
        -13    1    4    4    0    0  0.97838698990E+01  0.41005034025E+01 -0.22170127225E+03  0.22195495832E+03  0.10566000000E+00 0. -1.
        -14    1    4    4    0    0  0.48498107972E+01  0.30436270539E+01 -0.12155843977E+03  0.12169321513E+03  0.00000000000E+00 0.  1.
<mgrwt>
<rscale>  0 0.79212034E+02</rscale>
<asrwt>0</asrwt>
<pdfrwt beam="1">  1        2 0.11246389E+00 0.79212034E+02</pdfrwt>
<pdfrwt beam="2">  1       -1 0.33012814E-03 0.79212034E+02</pdfrwt>
<totfact> 0.34652787E+05</totfact>
</mgrwt>
</event>
<event>
 8    1  0.2389776E-020  0.8059775E+02  0.7818608E-02  0.1327364E+00
          2   -1    0    0  501    0  0.00000000000E+00  0.00000000000E+00  0.10365719596E+04  0.10365719596E+04  0.25500000000E-02 0. -1.
         -1   -1    0    0    0  501 -0.00000000000E+00 -0.00000000000E+00 -0.15666980477E+01  0.15667061544E+01  0.50400000000E-02 0.  1.
         24    2    1    2    0    0 -0.88817841970E-15  0.00000000000E+00  0.10350052616E+04  0.10381386658E+04  0.80597753691E+02 0.  0.
         66    2    3    3    0    0  0.73229897577E+01 -0.16288424147E+02  0.98277858486E+03  0.98294287007E+03  0.20000011938E+01 0.  0.
        -13    1    3    3    0    0 -0.73229897577E+01  0.16288424147E+02  0.52226676690E+02  0.55195795694E+02  0.10566000000E+00 0.  1.
         13    1    4    4    0    0  0.10419953572E+01 -0.15428153176E+01  0.11563271258E+03  0.11564774713E+03  0.10566000000E+00 0.  1.
        -13    1    4    4    0    0  0.50335891945E+01 -0.12262455967E+02  0.68783569823E+03  0.68796341746E+03  0.10566000000E+00 0. -1.
        -14    1    4    4    0    0  0.12474052060E+01 -0.24831528621E+01  0.17931017406E+03  0.17933170547E+03  0.00000000000E+00 0.  1.
<mgrwt>
<rscale>  0 0.80597754E+02</rscale>
<asrwt>0</asrwt>
<pdfrwt beam="1">  1        2 0.15947224E+00 0.80597754E+02</pdfrwt>
<pdfrwt beam="2">  1       -1 0.24103165E-03 0.80597754E+02</pdfrwt>
<totfact> 0.34592473E+05</totfact>
</mgrwt>
</event>
<event>
 8    1  0.2389776E-020  0.8150792E+02  0.7818608E-02  0.1324826E+00
          2   -1    0    0  501    0  0.00000000000E+00  0.00000000000E+00  0.28878600837E+03  0.28878600838E+03  0.25500000000E-02 0. -1.
         -1   -1    0    0    0  501 -0.00000000000E+00 -0.00000000000E+00 -0.57512647204E+01  0.57512669287E+01  0.50400000000E-02 0.  1.
         24    2    1    2    0    0 -0.71054273576E-14  0.17763568394E-14  0.28303474365E+03  0.29453727531E+03  0.81507916390E+02 0.  0.
         66    2    3    3    0    0 -0.32585098581E+02  0.13515387147E+02  0.21516608994E+03  0.21804793187E+03  0.19999986279E+01 0.  0.
        -13    1    3    3    0    0  0.32585098581E+02 -0.13515387147E+02  0.67868653716E+02  0.76489343444E+02  0.10566000000E+00 0.  1.
         13    1    4    4    0    0 -0.19358882647E+02  0.83471878609E+01  0.12778387562E+03  0.12951128104E+03  0.10566000000E+00 0. -1.
        -13    1    4    4    0    0 -0.83487900431E+01  0.28708304271E+01  0.51411097214E+02  0.52163742612E+02  0.10566000000E+00 0.  1.
         14    1    4    4    0    0 -0.48774258907E+01  0.22973688587E+01  0.35971117097E+02  0.36372908218E+02  0.00000000000E+00 0. -1.
<mgrwt>
<rscale>  0 0.81507916E+02</rscale>
<asrwt>0</asrwt>
<pdfrwt beam="1">  1        2 0.44428624E-01 0.81507916E+02</pdfrwt>
<pdfrwt beam="2">  1       -1 0.88480998E-03 0.81507916E+02</pdfrwt>
<totfact> 0.23941982E+05</totfact>
</mgrwt>
</event>
<event>
 8    1  0.2389776E-020  0.8109551E+02  0.7818608E-02  0.1325971E+00
          2   -1    0    0  501    0  0.00000000000E+00  0.00000000000E+00  0.10352803120E+03  0.10352803124E+03  0.25500000000E-02 0. -1.
         -1   -1    0    0    0  501 -0.00000000000E+00 -0.00000000000E+00 -0.15880920774E+02  0.15880921574E+02  0.50400000000E-02 0.  1.
         24    2    1    2    0    0  0.00000000000E+00  0.00000000000E+00  0.87647110430E+02  0.11940895281E+03  0.81095511863E+02 0.  0.
         66    2    3    3    0    0  0.25631429244E+02 -0.17846176288E+01  0.89991143849E+02  0.93608552001E+02  0.20000028026E+01 0.  0.
        -13    1    3    3    0    0 -0.25631429244E+02  0.17846176288E+01 -0.23440334190E+01  0.25800400809E+02  0.10566000000E+00 0.  1.
         13    1    4    4    0    0  0.12001679947E+02 -0.10226412376E+01  0.40847928045E+02  0.42586975782E+02  0.10566000000E+00 0. -1.
        -13    1    4    4    0    0  0.42499179547E+01 -0.76137446380E+00  0.14305980556E+02  0.14943685536E+02  0.10566000000E+00 0.  1.
        -14    1    4    4    0    0  0.93798313424E+01 -0.60192746819E-03  0.34837235249E+02  0.36077890684E+02  0.00000000000E+00 0.  1.
<mgrwt>
<rscale>  0 0.81095512E+02</rscale>
<asrwt>0</asrwt>
<pdfrwt beam="1">  1        2 0.15927389E-01 0.81095512E+02</pdfrwt>
<pdfrwt beam="2">  1       -1 0.24432187E-02 0.81095512E+02</pdfrwt>
<totfact> 0.17259449E+05</totfact>
</mgrwt>
</event>
<event>
 8    1  0.2389776E-020  0.8111849E+02  0.7818608E-02  0.1325907E+00
         -1   -1    0    0    0  501 -0.00000000000E+00  0.00000000000E+00  0.42788782655E+01  0.42788812337E+01  0.50400000000E-02 0.  1.
          2   -1    0    0  501    0  0.00000000000E+00 -0.00000000000E+00 -0.38445866574E+03  0.38445866574E+03  0.25500000000E-02 0. -1.
         24    2    1    2    0    0  0.00000000000E+00  0.00000000000E+00 -0.38017978747E+03  0.38873754698E+03  0.81118491292E+02 0.  0.
         66    2    3    3    0    0  0.20428171705E+02  0.28395816886E+02 -0.28834793839E+03  0.29046887300E+03  0.19999981032E+01 0.  0.
        -13    1    3    3    0    0 -0.20428171705E+02 -0.28395816886E+02 -0.91831849085E+02  0.98268673982E+02  0.10566000000E+00 0.  1.
         13    1    4    4    0    0  0.11588228611E+02  0.15677053962E+02 -0.15894286957E+03  0.16013401892E+03  0.10566000000E+00 0. -1.
        -13    1    4    4    0    0  0.15597526305E+01  0.18034963182E+01 -0.23188060212E+02  0.23310571157E+02  0.10566000000E+00 0.  1.
        -14    1    4    4    0    0  0.72801904638E+01  0.10915266605E+02 -0.10621700860E+03  0.10702428292E+03  0.00000000000E+00 0.  1.
<mgrwt>
<rscale>  0 0.81118491E+02</rscale>
<asrwt>0</asrwt>
<pdfrwt beam="1">  1        2 0.59147460E-01 0.81118491E+02</pdfrwt>
<pdfrwt beam="2">  1       -1 0.65828950E-03 0.81118491E+02</pdfrwt>
<totfact> 0.26869415E+05</totfact>
</mgrwt>
</event>
<event>
 8    1  0.2389776E-020  0.8161128E+02  0.7818608E-02  0.1324540E+00
         -1   -1    0    0    0  501 -0.00000000000E+00  0.00000000000E+00  0.17462749511E+01  0.17462822242E+01  0.50400000000E-02 0.  1.
          2   -1    0    0  501    0  0.00000000000E+00 -0.00000000000E+00 -0.95351358256E+03  0.95351358256E+03  0.25500000000E-02 0. -1.
         24    2    1    2    0    0  0.00000000000E+00  0.00000000000E+00 -0.95176730761E+03  0.95525986479E+03  0.81611282559E+02 0.  0.
         66    2    3    3    0    0  0.16945750747E+02  0.21575763918E+02 -0.82934614390E+03  0.82980220442E+03  0.20000003165E+01 0.  0.
        -13    1    3    3    0    0 -0.16945750747E+02 -0.21575763918E+02 -0.12242116371E+03  0.12545766036E+03  0.10566000000E+00 0.  1.
         13    1    4    4    0    0  0.58806506676E+01  0.81205917950E+01 -0.29127287387E+03  0.29144540531E+03  0.10566000000E+00 0. -1.
        -13    1    4    4    0    0  0.44640789152E+01  0.63809819782E+01 -0.23289314373E+03  0.23302333036E+03  0.10566000000E+00 0.  1.
         14    1    4    4    0    0  0.66010211647E+01  0.70741901450E+01 -0.30518012631E+03  0.30533346875E+03  0.00000000000E+00 0. -1.
<mgrwt>
<rscale>  0 0.81611283E+02</rscale>
<asrwt>0</asrwt>
<pdfrwt beam="1">  1        2 0.14669398E+00 0.81611283E+02</pdfrwt>
<pdfrwt beam="2">  1       -1 0.26865901E-03 0.81611283E+02</pdfrwt>
<totfact> 0.33359157E+05</totfact>
</mgrwt>
</event>
<event>
 8    1  0.2389776E-020  0.7957741E+02  0.7818608E-02  0.1330255E+00
          2   -1    0    0  501    0  0.00000000000E+00  0.00000000000E+00  0.16440977520E+04  0.16440977520E+04  0.25500000000E-02 0. -1.
         -1   -1    0    0    0  501 -0.00000000000E+00 -0.00000000000E+00 -0.96291737958E+00  0.96293056940E+00  0.50400000000E-02 0.  1.
         24    2    1    2    0    0  0.00000000000E+00  0.00000000000E+00  0.16431348346E+04  0.16450606825E+04  0.79577412618E+02 0.  0.
         66    2    3    3    0    0  0.17346962773E+02 -0.40195663379E+01  0.15570662747E+04  0.15571693735E+04  0.20000190917E+01 0.  0.
        -13    1    3    3    0    0 -0.17346962773E+02  0.40195663379E+01  0.86068559902E+02  0.87891309005E+02  0.10566000000E+00 0.  1.
         13    1    4    4    0    0  0.28547354692E+01 -0.10254181073E+01  0.28130213181E+03  0.28131850547E+03  0.10566000000E+00 0. -1.
        -13    1    4    4    0    0  0.59143903623E+01 -0.15428688283E+01  0.46976684141E+03  0.46980661651E+03  0.10566000000E+00 0.  1.
         14    1    4    4    0    0  0.85778369413E+01 -0.14512794023E+01  0.80599730147E+03  0.80604425157E+03  0.00000000000E+00 0. -1.
<mgrwt>
<rscale>  0 0.79577413E+02</rscale>
<asrwt>0</asrwt>
<pdfrwt beam="1">  1        2 0.25293664E+00 0.79577413E+02</pdfrwt>
<pdfrwt beam="2">  1       -1 0.14814302E-03 0.79577413E+02</pdfrwt>
<totfact> 0.32359509E+05</totfact>
</mgrwt>
</event>
<event>
 8    1  0.2389776E-020  0.7808224E+02  0.7818608E-02  0.1334584E+00
          2   -1    0    0  501    0  0.00000000000E+00  0.00000000000E+00  0.78021553198E+03  0.78021553199E+03  0.25500000000E-02 0. -1.
         -1   -1    0    0    0  501 -0.00000000000E+00 -0.00000000000E+00 -0.19535708933E+01  0.19535773946E+01  0.50400000000E-02 0.  1.
         24    2    1    2    0    0  0.00000000000E+00  0.00000000000E+00  0.77826196109E+03  0.78216910938E+03  0.78082236083E+02 0.  0.
         66    2    3    3    0    0 -0.39139114530E+01  0.11737157113E+02  0.76004057827E+03  0.76014390755E+03  0.20000010734E+01 0.  0.
        -13    1    3    3    0    0  0.39139114530E+01 -0.11737157113E+02  0.18221382821E+02  0.22025201835E+02  0.10566000000E+00 0.  1.
         13    1    4    4    0    0 -0.28017704586E+01  0.60911131440E+01  0.43653150719E+03  0.43658300414E+03  0.10566000000E+00 0. -1.
        -13    1    4    4    0    0  0.37513000513E-02  0.85837470464E+00  0.41868102387E+02  0.41877034072E+02  0.10566000000E+00 0.  1.
         14    1    4    4    0    0 -0.11158922945E+01  0.47876692644E+01  0.28164096870E+03  0.28168386933E+03  0.00000000000E+00 0. -1.
<mgrwt>
<rscale>  0 0.78082236E+02</rscale>
<asrwt>0</asrwt>
<pdfrwt beam="1">  1        2 0.12003305E+00 0.78082236E+02</pdfrwt>
<pdfrwt beam="2">  1       -1 0.30055015E-03 0.78082236E+02</pdfrwt>
<totfact> 0.36435790E+05</totfact>
</mgrwt>
</event>
<event>
 8    1  0.2389776E-020  0.8332431E+02  0.7818608E-02  0.1319874E+00
         -1   -1    0    0    0  501 -0.00000000000E+00  0.00000000000E+00  0.29988269859E+02  0.29988270283E+02  0.50400000000E-02 0.  1.
          2   -1    0    0  501    0  0.00000000000E+00 -0.00000000000E+00 -0.57880468894E+02  0.57880468950E+02  0.25500000000E-02 0. -1.
         24    2    1    2    0    0 -0.17763568394E-14  0.00000000000E+00 -0.27892199034E+02  0.87868739232E+02  0.83324309582E+02 0.  0.
         66    2    3    3    0    0  0.13889750537E+02 -0.16801714367E+02 -0.51364356642E+02  0.55834755365E+02  0.19999994343E+01 0.  0.
        -13    1    3    3    0    0 -0.13889750537E+02  0.16801714367E+02  0.23472157608E+02  0.32033983868E+02  0.10566000000E+00 0.  1.
         13    1    4    4    0    0  0.15037886152E+01 -0.22134359379E+01 -0.57826040898E+01  0.63726252789E+01  0.10566000000E+00 0. -1.
        -13    1    4    4    0    0  0.11399373466E+02 -0.12788937099E+02 -0.39969824597E+02  0.43486787303E+02  0.10566000000E+00 0.  1.
        -14    1    4    4    0    0  0.98658845550E+00 -0.17993413297E+01 -0.56119279555E+01  0.59753427833E+01  0.00000000000E+00 0.  1.
<mgrwt>
<rscale>  0 0.83324310E+02</rscale>
<asrwt>0</asrwt>
<pdfrwt beam="1">  1        2 0.89046875E-02 0.83324310E+02</pdfrwt>
<pdfrwt beam="2">  1       -1 0.46135800E-02 0.83324310E+02</pdfrwt>
<totfact> 0.13812956E+05</totfact>
</mgrwt>
</event>
<event>
 8    1  0.2389776E-020  0.7921582E+02  0.7818608E-02  0.1331292E+00
         -1   -1    0    0    0  501 -0.00000000000E+00  0.00000000000E+00  0.70613638176E+01  0.70613656162E+01  0.50400000000E-02 0.  1.
          2   -1    0    0  501    0  0.00000000000E+00 -0.00000000000E+00 -0.22216476821E+03  0.22216476822E+03  0.25500000000E-02 0. -1.
         24    2    1    2    0    0 -0.17763568394E-14  0.00000000000E+00 -0.21510340439E+03  0.22922613384E+03  0.79215818208E+02 0.  0.
         66    2    3    3    0    0 -0.13293820430E+02 -0.24613283874E+02 -0.18865593704E+03  0.19072913269E+03  0.20000171112E+01 0.  0.
        -13    1    3    3    0    0  0.13293820430E+02  0.24613283874E+02 -0.26447467347E+02  0.38497001153E+02  0.10566000000E+00 0.  1.
         13    1    4    4    0    0 -0.60303210627E+01 -0.98881115547E+01 -0.75411993856E+02  0.76296261400E+02  0.10566000000E+00 0. -1.
        -13    1    4    4    0    0 -0.16264753267E+01 -0.43288273315E+01 -0.31289620684E+02  0.31629664788E+02  0.10566000000E+00 0.  1.
         14    1    4    4    0    0 -0.56370240405E+01 -0.10396344988E+02 -0.81954322504E+02  0.82803206498E+02  0.00000000000E+00 0. -1.
<mgrwt>
<rscale>  0 0.79215818E+02</rscale>
<asrwt>0</asrwt>
<pdfrwt beam="1">  1        2 0.34179190E-01 0.79215818E+02</pdfrwt>
<pdfrwt beam="2">  1       -1 0.10863640E-02 0.79215818E+02</pdfrwt>
<totfact> 0.23487491E+05</totfact>
</mgrwt>
</event>
<event>
 8    1  0.2389776E-020  0.7950872E+02  0.7818608E-02  0.1330451E+00
          2   -1    0    0  501    0  0.00000000000E+00  0.00000000000E+00  0.19465940623E+02  0.19465940790E+02  0.25500000000E-02 0. -1.
         -1   -1    0    0    0  501 -0.00000000000E+00 -0.00000000000E+00 -0.81188430546E+02  0.81188430702E+02  0.50400000000E-02 0.  1.
         24    2    1    2    0    0  0.00000000000E+00  0.00000000000E+00 -0.61722489922E+02  0.10065437149E+03  0.79508721147E+02 0.  0.
         66    2    3    3    0    0  0.19328896651E+02 -0.22384746992E+02  0.27021790791E+01  0.29765498716E+02  0.19999995988E+01 0.  0.
        -13    1    3    3    0    0 -0.19328896651E+02  0.22384746992E+02 -0.64424669001E+02  0.70888872777E+02  0.10566000000E+00 0.  1.
         13    1    4    4    0    0  0.80919680608E+01 -0.91122005476E+01  0.15840648887E+01  0.12289530973E+02  0.10566000000E+00 0. -1.
        -13    1    4    4    0    0  0.53302638888E+01 -0.72566157933E+01  0.37379418563E+00  0.90122734105E+01  0.10566000000E+00 0.  1.
         14    1    4    4    0    0  0.59066647013E+01 -0.60159306507E+01  0.74432000475E+00  0.84636943327E+01  0.00000000000E+00 0. -1.
<mgrwt>
<rscale>  0 0.79508721E+02</rscale>
<asrwt>0</asrwt>
<pdfrwt beam="1">  1        2 0.29947602E-02 0.79508721E+02</pdfrwt>
<pdfrwt beam="2">  1       -1 0.12490528E-01 0.79508721E+02</pdfrwt>
<totfact> 0.12568437E+05</totfact>
</mgrwt>
</event>
<event>
 8    1  0.2389776E-020  0.7998358E+02  0.7818608E-02  0.1329098E+00
         -1   -1    0    0    0  501 -0.00000000000E+00  0.00000000000E+00  0.87802331129E+02  0.87802331274E+02  0.50400000000E-02 0.  1.
          2   -1    0    0  501    0  0.00000000000E+00 -0.00000000000E+00 -0.18215273096E+02  0.18215273275E+02  0.25500000000E-02 0. -1.
         24    2    1    2    0    0  0.35527136788E-14  0.44408920985E-15  0.69587058033E+02  0.10601760455E+03  0.79983584744E+02 0.  0.
         66    2    3    3    0    0  0.18062991671E+02  0.19724331342E+01 -0.12368873654E+02  0.22071502416E+02  0.20000057141E+01 0.  0.
        -13    1    3    3    0    0 -0.18062991671E+02 -0.19724331342E+01  0.81955931687E+02  0.83946102133E+02  0.10566000000E+00 0.  1.
         13    1    4    4    0    0  0.14466443195E+02  0.15206694859E+01 -0.94516021929E+01  0.17347459827E+02  0.10566000000E+00 0. -1.
        -13    1    4    4    0    0  0.50312226848E+00 -0.82561302664E-01 -0.15693231866E+00  0.54381998307E+00  0.10566000000E+00 0. -1.
        -14    1    4    4    0    0  0.30934262075E+01  0.53432495096E+00 -0.27603391423E+01  0.41802226060E+01  0.00000000000E+00 0.  1.
<mgrwt>
<rscale>  0 0.79983585E+02</rscale>
<asrwt>0</asrwt>
<pdfrwt beam="1">  1        2 0.28023497E-02 0.79983585E+02</pdfrwt>
<pdfrwt beam="2">  1       -1 0.13508051E-01 0.79983585E+02</pdfrwt>
<totfact> 0.12187966E+05</totfact>
</mgrwt>
</event>
<event>
 8    1  0.2389776E-020  0.7291250E+02  0.7818608E-02  0.1350460E+00
         -1   -1    0    0    0  501 -0.00000000000E+00  0.00000000000E+00  0.26019978600E+01  0.26020027412E+01  0.50400000000E-02 0.  1.
          2   -1    0    0  501    0  0.00000000000E+00 -0.00000000000E+00 -0.51078322744E+03  0.51078322745E+03  0.25500000000E-02 0. -1.
         24    2    1    2    0    0  0.00000000000E+00  0.00000000000E+00 -0.50818122958E+03  0.51338523019E+03  0.72912498773E+02 0.  0.
         66    2    3    3    0    0  0.19414794095E+02 -0.79617387131E+01 -0.46395161845E+03  0.46443021842E+03  0.20000000031E+01 0.  0.
        -13    1    3    3    0    0 -0.19414794095E+02  0.79617387131E+01 -0.44229611129E+02  0.48955011774E+02  0.10566000000E+00 0.  1.
         13    1    4    4    0    0  0.44255793571E+01 -0.19974581465E+01 -0.11778734757E+03  0.11788742937E+03  0.10566000000E+00 0. -1.
        -13    1    4    4    0    0  0.24978677106E+01 -0.46112170856E+00 -0.53333536619E+02  0.53394093949E+02  0.10566000000E+00 0.  1.
         14    1    4    4    0    0  0.12491347027E+02 -0.55031588580E+01 -0.29283073426E+03  0.29314869510E+03  0.00000000000E+00 0. -1.
<mgrwt>
<rscale>  0 0.72912499E+02</rscale>
<asrwt>0</asrwt>
<pdfrwt beam="1">  1        2 0.78581955E-01 0.72912499E+02</pdfrwt>
<pdfrwt beam="2">  1       -1 0.40030815E-03 0.72912499E+02</pdfrwt>
<totfact> 0.38994585E+05</totfact>
</mgrwt>
</event>
<event>
 8    1  0.2389776E-020  0.7679799E+02  0.7818608E-02  0.1338392E+00
         -1   -1    0    0    0  501 -0.00000000000E+00  0.00000000000E+00  0.14037570061E+03  0.14037570070E+03  0.50400000000E-02 0.  1.
          2   -1    0    0  501    0  0.00000000000E+00 -0.00000000000E+00 -0.10503830767E+02  0.10503831077E+02  0.25500000000E-02 0. -1.
         24    2    1    2    0    0  0.00000000000E+00  0.00000000000E+00  0.12987186984E+03  0.15087953178E+03  0.76797985213E+02 0.  0.
         66    2    3    3    0    0 -0.81549976949E+01  0.25295868913E+02  0.10602108645E+02  0.28684310628E+02  0.19999992570E+01 0.  0.
        -13    1    3    3    0    0  0.81549976949E+01 -0.25295868913E+02  0.11926976120E+03  0.12219522115E+03  0.10566000000E+00 0.  1.
         13    1    4    4    0    0 -0.40296941790E+01  0.11730666989E+02  0.44300034161E+01  0.13171297487E+02  0.10566000000E+00 0. -1.
        -13    1    4    4    0    0 -0.36033957105E+01  0.12836212068E+02  0.57054467265E+01  0.14502278693E+02  0.10566000000E+00 0.  1.
        -14    1    4    4    0    0 -0.52190780541E+00  0.72898985544E+00  0.46665850221E+00  0.10107344480E+01  0.00000000000E+00 0.  1.
<mgrwt>
<rscale>  0 0.76797985E+02</rscale>
<asrwt>0</asrwt>
<pdfrwt beam="1">  1        2 0.16159740E-02 0.76797985E+02</pdfrwt>
<pdfrwt beam="2">  1       -1 0.21596261E-01 0.76797985E+02</pdfrwt>
<totfact> 0.12157971E+05</totfact>
</mgrwt>
</event>
<event>
 8    1  0.2389776E-020  0.7770111E+02  0.7818608E-02  0.1335705E+00
          2   -1    0    0  501    0  0.00000000000E+00  0.00000000000E+00  0.41890683263E+03  0.41890683264E+03  0.25500000000E-02 0. -1.
         -1   -1    0    0    0  501 -0.00000000000E+00 -0.00000000000E+00 -0.36031039064E+01  0.36031074314E+01  0.50400000000E-02 0.  1.
         24    2    1    2    0    0  0.35527136788E-14  0.17763568394E-14  0.41530372873E+03  0.42250994007E+03  0.77701109165E+02 0.  0.
         66    2    3    3    0    0 -0.29708430357E+02 -0.15122366463E+02  0.31600799865E+03  0.31776773284E+03  0.20000044114E+01 0.  0.
        -13    1    3    3    0    0  0.29708430357E+02  0.15122366463E+02  0.99295730071E+02  0.10474220723E+03  0.10566000000E+00 0.  1.
         13    1    4    4    0    0 -0.11298668439E+02 -0.59643801391E+01  0.12183882951E+03  0.12250691931E+03  0.10566000000E+00 0. -1.
        -13    1    4    4    0    0 -0.13828826622E+02 -0.62248920751E+01  0.14594131899E+03  0.14672718044E+03  0.10566000000E+00 0.  1.
        -14    1    4    4    0    0 -0.45809352952E+01 -0.29330942489E+01  0.48227850156E+02  0.48533633088E+02  0.00000000000E+00 0.  1.
<mgrwt>
<rscale>  0 0.77701109E+02</rscale>
<asrwt>0</asrwt>
<pdfrwt beam="1">  1        2 0.64447158E-01 0.77701109E+02</pdfrwt>
<pdfrwt beam="2">  1       -1 0.55432436E-03 0.77701109E+02</pdfrwt>
<totfact> 0.30977834E+05</totfact>
</mgrwt>
</event>
<event>
 8    1  0.2389776E-020  0.8019970E+02  0.7818608E-02  0.1328486E+00
         -1   -1    0    0    0  501 -0.00000000000E+00  0.00000000000E+00  0.26825091168E+01  0.26825138515E+01  0.50400000000E-02 0.  1.
          2   -1    0    0  501    0  0.00000000000E+00 -0.00000000000E+00 -0.59943747673E+03  0.59943747673E+03  0.25500000000E-02 0. -1.
         24    2    1    2    0    0  0.00000000000E+00 -0.17763568394E-14 -0.59675496761E+03  0.60211999058E+03  0.80199698836E+02 0.  0.
         66    2    3    3    0    0  0.18519551888E+02 -0.89765430963E+01 -0.55672910204E+03  0.55711295551E+03  0.20000005657E+01 0.  0.
        -13    1    3    3    0    0 -0.18519551888E+02  0.89765430963E+01 -0.40025865565E+02  0.45007035076E+02  0.10566000000E+00 0.  1.
         13    1    4    4    0    0  0.15300251605E+02 -0.80346252445E+01 -0.46868431267E+03  0.46900282409E+03  0.10566000000E+00 0. -1.
        -13    1    4    4    0    0  0.96808781748E+00 -0.34139997301E+00 -0.32806141215E+02  0.32822367578E+02  0.10566000000E+00 0.  1.
         14    1    4    4    0    0  0.22512124662E+01 -0.60051787871E+00 -0.55238648161E+02  0.55287763836E+02  0.00000000000E+00 0. -1.
<mgrwt>
<rscale>  0 0.80199699E+02</rscale>
<asrwt>0</asrwt>
<pdfrwt beam="1">  1        2 0.92221044E-01 0.80199699E+02</pdfrwt>
<pdfrwt beam="2">  1       -1 0.41269455E-03 0.80199699E+02</pdfrwt>
<totfact> 0.31947159E+05</totfact>
</mgrwt>
</event>
<event>
 8    1  0.2389776E-020  0.7983400E+02  0.7818608E-02  0.1329523E+00
         -1   -1    0    0    0  501 -0.00000000000E+00  0.00000000000E+00  0.63748244965E+01  0.63748264888E+01  0.50400000000E-02 0.  1.
          2   -1    0    0  501    0  0.00000000000E+00 -0.00000000000E+00 -0.24994676420E+03  0.24994676421E+03  0.25500000000E-02 0. -1.
         24    2    1    2    0    0  0.00000000000E+00  0.00000000000E+00 -0.24357193970E+03  0.25632159070E+03  0.79834003087E+02 0.  0.
         66    2    3    3    0    0  0.87152134807E+01 -0.10927519774E+02 -0.24182301230E+03  0.24223487548E+03  0.19999967272E+01 0.  0.
        -13    1    3    3    0    0 -0.87152134807E+01  0.10927519774E+02 -0.17489273955E+01  0.14086715213E+02  0.10566000000E+00 0.  1.
         13    1    4    4    0    0  0.52460295018E+01 -0.64901621337E+01 -0.12875325983E+03  0.12902347117E+03  0.10566000000E+00 0. -1.
        -13    1    4    4    0    0  0.72233860751E+00 -0.89352073209E+00 -0.27633115237E+02  0.27657193894E+02  0.10566000000E+00 0.  1.
         14    1    4    4    0    0  0.27468453714E+01 -0.35438369081E+01 -0.85436637234E+02  0.85554210425E+02  0.00000000000E+00 0. -1.
<mgrwt>
<rscale>  0 0.79834003E+02</rscale>
<asrwt>0</asrwt>
<pdfrwt beam="1">  1        2 0.38453341E-01 0.79834003E+02</pdfrwt>
<pdfrwt beam="2">  1       -1 0.98074258E-03 0.79834003E+02</pdfrwt>
<totfact> 0.23997217E+05</totfact>
</mgrwt>
</event>
<event>
 8    1  0.2389776E-020  0.7401388E+02  0.7818608E-02  0.1346952E+00
         -1   -1    0    0    0  501 -0.00000000000E+00  0.00000000000E+00  0.51741387109E+01  0.51741411656E+01  0.50400000000E-02 0.  1.
          2   -1    0    0  501    0  0.00000000000E+00 -0.00000000000E+00 -0.26468427608E+03  0.26468427609E+03  0.25500000000E-02 0. -1.
         24    2    1    2    0    0  0.00000000000E+00  0.00000000000E+00 -0.25951013737E+03  0.26985841726E+03  0.74013876858E+02 0.  0.
         66    2    3    3    0    0 -0.53186617376E+01  0.31098188933E+02 -0.20018368310E+03  0.20266448258E+03  0.20000003916E+01 0.  0.
        -13    1    3    3    0    0  0.53186617376E+01 -0.31098188933E+02 -0.59326454270E+02  0.67193934680E+02  0.10566000000E+00 0.  1.
         13    1    4    4    0    0 -0.17247915828E+01  0.87230172464E+01 -0.55210153107E+02  0.55921714083E+02  0.10566000000E+00 0. -1.
        -13    1    4    4    0    0 -0.23855894229E+01  0.13077144748E+02 -0.89683124673E+02  0.90662984546E+02  0.10566000000E+00 0.  1.
         14    1    4    4    0    0 -0.12082807318E+01  0.92980269383E+01 -0.55290405320E+02  0.56079783948E+02  0.00000000000E+00 0. -1.
<mgrwt>
<rscale>  0 0.74013877E+02</rscale>
<asrwt>0</asrwt>
<pdfrwt beam="1">  1        2 0.40720647E-01 0.74013877E+02</pdfrwt>
<pdfrwt beam="2">  1       -1 0.79602174E-03 0.74013877E+02</pdfrwt>
<totfact> 0.29859674E+05</totfact>
</mgrwt>
</event>
<event>
 8    1  0.2389776E-020  0.7820971E+02  0.7818608E-02  0.1334210E+00
          2   -1    0    0  501    0  0.00000000000E+00  0.00000000000E+00  0.62128365831E+02  0.62128365883E+02  0.25500000000E-02 0. -1.
         -1   -1    0    0    0  501 -0.00000000000E+00 -0.00000000000E+00 -0.24613387461E+02  0.24613387977E+02  0.50400000000E-02 0.  1.
         24    2    1    2    0    0  0.00000000000E+00 -0.35527136788E-14  0.37514978370E+02  0.86741753860E+02  0.78209706946E+02 0.  0.
         66    2    3    3    0    0 -0.14008552324E+02  0.24832957284E+02  0.48411109588E+02  0.56218776527E+02  0.19999992337E+01 0.  0.
        -13    1    3    3    0    0  0.14008552324E+02 -0.24832957284E+02 -0.10896131218E+02  0.30522977333E+02  0.10566000000E+00 0.  1.
         13    1    4    4    0    0 -0.21035378871E+01  0.26758227208E+01  0.65135434000E+01  0.73499871112E+01  0.10566000000E+00 0. -1.
        -13    1    4    4    0    0 -0.17311519906E+01  0.32429135675E+01  0.60666168824E+01  0.70942497880E+01  0.10566000000E+00 0.  1.
         14    1    4    4    0    0 -0.10173862447E+02  0.18914220996E+02  0.35830949306E+02  0.41774539628E+02  0.00000000000E+00 0. -1.
<mgrwt>
<rscale>  0 0.78209707E+02</rscale>
<asrwt>0</asrwt>
<pdfrwt beam="1">  1        2 0.95582101E-02 0.78209707E+02</pdfrwt>
<pdfrwt beam="2">  1       -1 0.37866751E-02 0.78209707E+02</pdfrwt>
<totfact> 0.16686698E+05</totfact>
</mgrwt>
</event>
<event>
 8    1  0.2389776E-020  0.8082246E+02  0.7818608E-02  0.1326733E+00
          2   -1    0    0  501    0  0.00000000000E+00  0.00000000000E+00  0.26029571481E+03  0.26029571482E+03  0.25500000000E-02 0. -1.
         -1   -1    0    0    0  501 -0.00000000000E+00 -0.00000000000E+00 -0.62738921047E+01  0.62738941291E+01  0.50400000000E-02 0.  1.
         24    2    1    2    0    0  0.00000000000E+00  0.00000000000E+00  0.25402182270E+03  0.26656960895E+03  0.80822459787E+02 0.  0.
         66    2    3    3    0    0  0.36661359625E+02  0.53729168778E+01  0.18007986952E+03  0.18386321785E+03  0.19999859003E+01 0.  0.
        -13    1    3    3    0    0 -0.36661359625E+02 -0.53729168778E+01  0.73941953180E+02  0.82706391104E+02  0.10566000000E+00 0.  1.
         13    1    4    4    0    0  0.16281649464E+02  0.20304252936E+01  0.75509068031E+02  0.77271244684E+02  0.10566000000E+00 0.  1.
        -13    1    4    4    0    0  0.34654011447E+01  0.59000927344E+00  0.16908917590E+02  0.17270778041E+02  0.10566000000E+00 0. -1.
        -14    1    4    4    0    0  0.16914309017E+02  0.27524823108E+01  0.87661883904E+02  0.89321195122E+02  0.00000000000E+00 0.  1.
<mgrwt>
<rscale>  0 0.80822460E+02</rscale>
<asrwt>0</asrwt>
<pdfrwt beam="1">  1        2 0.40045493E-01 0.80822460E+02</pdfrwt>
<pdfrwt beam="2">  1       -1 0.96521438E-03 0.80822460E+02</pdfrwt>
<totfact> 0.23574763E+05</totfact>
</mgrwt>
</event>
<event>
 8    1  0.2389776E-020  0.7964055E+02  0.7818608E-02  0.1330075E+00
         -1   -1    0    0    0  501 -0.00000000000E+00  0.00000000000E+00  0.16060033410E+01  0.16060112493E+01  0.50400000000E-02 0.  1.
          2   -1    0    0  501    0  0.00000000000E+00 -0.00000000000E+00 -0.98732690271E+03  0.98732690272E+03  0.25500000000E-02 0. -1.
         24    2    1    2    0    0  0.00000000000E+00  0.00000000000E+00 -0.98572089937E+03  0.98893291397E+03  0.79640547875E+02 0.  0.
         66    2    3    3    0    0  0.11029427254E+02  0.10198969222E+02 -0.95076364976E+03  0.95088442250E+03  0.19999997951E+01 0.  0.
        -13    1    3    3    0    0 -0.11029427254E+02 -0.10198969222E+02 -0.34957249611E+02  0.38048491470E+02  0.10566000000E+00 0.  1.
         13    1    4    4    0    0  0.67157098532E+01  0.65032059479E+01 -0.56327222928E+03  0.56334980952E+03  0.10566000000E+00 0. -1.
        -13    1    4    4    0    0  0.39964054989E+01  0.31568914733E+01 -0.36026818166E+03  0.36030419245E+03  0.10566000000E+00 0.  1.
         14    1    4    4    0    0  0.31731190225E+00  0.53887180045E+00 -0.27223238821E+02  0.27230420518E+02  0.00000000000E+00 0. -1.
<mgrwt>
<rscale>  0 0.79640548E+02</rscale>
<asrwt>0</asrwt>
<pdfrwt beam="1">  1        2 0.15189596E+00 0.79640548E+02</pdfrwt>
<pdfrwt beam="2">  1       -1 0.24707884E-03 0.79640548E+02</pdfrwt>
<totfact> 0.35624340E+05</totfact>
</mgrwt>
</event>
<event>
 8    1  0.2389776E-020  0.7985304E+02  0.7818608E-02  0.1329469E+00
          2   -1    0    0  501    0  0.00000000000E+00  0.00000000000E+00  0.13738506019E+03  0.13738506021E+03  0.25500000000E-02 0. -1.
         -1   -1    0    0    0  501 -0.00000000000E+00 -0.00000000000E+00 -0.11603350070E+02  0.11603351165E+02  0.50400000000E-02 0.  1.
         24    2    1    2    0    0 -0.17763568394E-14 -0.35527136788E-14  0.12578171012E+03  0.14898841138E+03  0.79853040797E+02 0.  0.
         66    2    3    3    0    0 -0.11823906026E+02 -0.22577379390E+02  0.12021243370E+03  0.12290065912E+03  0.19999957659E+01 0.  0.
        -13    1    3    3    0    0  0.11823906026E+02  0.22577379390E+02  0.55692764195E+01  0.26087752255E+02  0.10566000000E+00 0.  1.
         13    1    4    4    0    0 -0.30932422658E+01 -0.52500459403E+01  0.28086564787E+02  0.28740170766E+02  0.10566000000E+00 0. -1.
        -13    1    4    4    0    0 -0.43145040341E+01 -0.68292762198E+01  0.37838120358E+02  0.38690935308E+02  0.10566000000E+00 0.  1.
         14    1    4    4    0    0 -0.44161597264E+01 -0.10498057230E+02  0.54287748555E+02  0.55469553050E+02  0.00000000000E+00 0. -1.
<mgrwt>
<rscale>  0 0.79853041E+02</rscale>
<asrwt>0</asrwt>
<pdfrwt beam="1">  1        2 0.21136165E-01 0.79853041E+02</pdfrwt>
<pdfrwt beam="2">  1       -1 0.17851307E-02 0.79853041E+02</pdfrwt>
<totfact> 0.19573686E+05</totfact>
</mgrwt>
</event>
<event>
 8    1  0.2389776E-020  0.8116312E+02  0.7818608E-02  0.1325783E+00
         -1   -1    0    0    0  501 -0.00000000000E+00  0.00000000000E+00  0.84916804958E+01  0.84916819915E+01  0.50400000000E-02 0.  1.
          2   -1    0    0  501    0  0.00000000000E+00 -0.00000000000E+00 -0.19393837100E+03  0.19393837102E+03  0.25500000000E-02 0. -1.
         24    2    1    2    0    0  0.00000000000E+00  0.00000000000E+00 -0.18544669050E+03  0.20243005301E+03  0.81163115650E+02 0.  0.
         66    2    3    3    0    0 -0.12929176417E+02  0.75163039680E+01 -0.18680458830E+03  0.18741294681E+03  0.19999979641E+01 0.  0.
        -13    1    3    3    0    0  0.12929176417E+02 -0.75163039680E+01  0.13578977998E+01  0.15017106200E+02  0.10566000000E+00 0.  1.
         13    1    4    4    0    0 -0.66142073942E+01  0.30906666631E+01 -0.84217105362E+02  0.84533022893E+02  0.10566000000E+00 0. -1.
        -13    1    4    4    0    0 -0.25014077069E+01  0.13098592541E+01 -0.36453520357E+02  0.36562864798E+02  0.10566000000E+00 0. -1.
        -14    1    4    4    0    0 -0.38135613154E+01  0.31157780508E+01 -0.66133962585E+02  0.66317059117E+02  0.00000000000E+00 0.  1.
<mgrwt>
<rscale>  0 0.81163116E+02</rscale>
<asrwt>0</asrwt>
<pdfrwt beam="1">  1        2 0.29836669E-01 0.81163116E+02</pdfrwt>
<pdfrwt beam="2">  1       -1 0.13064126E-02 0.81163116E+02</pdfrwt>
<totfact> 0.21008100E+05</totfact>
</mgrwt>
</event>
<event>
 8    1  0.2389776E-020  0.8199088E+02  0.7818608E-02  0.1323495E+00
          2   -1    0    0  501    0  0.00000000000E+00  0.00000000000E+00  0.14248541677E+02  0.14248541905E+02  0.25500000000E-02 0. -1.
         -1   -1    0    0    0  501 -0.00000000000E+00 -0.00000000000E+00 -0.11795073147E+03  0.11795073157E+03  0.50400000000E-02 0.  1.
         24    2    1    2    0    0  0.35527136788E-14  0.88817841970E-15 -0.10370218979E+03  0.13219927348E+03  0.81990875965E+02 0.  0.
         66    2    3    3    0    0  0.19888417600E+02  0.67070009366E+01  0.48516008567E+01  0.21634949922E+02  0.20000027624E+01 0.  0.
        -13    1    3    3    0    0 -0.19888417600E+02 -0.67070009366E+01 -0.10855379065E+03  0.11056432356E+03  0.10566000000E+00 0.  1.
         13    1    4    4    0    0  0.89535689003E+01  0.22389696720E+01  0.15133325584E+01  0.93531128889E+01  0.10566000000E+00 0. -1.
        -13    1    4    4    0    0  0.25934719281E+01  0.10875956872E+01  0.64595878099E+00  0.28874535153E+01  0.10566000000E+00 0.  1.
         14    1    4    4    0    0  0.83413767716E+01  0.33804355774E+01  0.26923095172E+01  0.93943835176E+01  0.00000000000E+00 0. -1.
<mgrwt>
<rscale>  0 0.81990876E+02</rscale>
<asrwt>0</asrwt>
<pdfrwt beam="1">  1        2 0.21920834E-02 0.81990876E+02</pdfrwt>
<pdfrwt beam="2">  1       -1 0.18146266E-01 0.81990876E+02</pdfrwt>
<totfact> 0.10745796E+05</totfact>
</mgrwt>
</event>
<event>
 8    1  0.2389776E-020  0.7873985E+02  0.7818608E-02  0.1332666E+00
          2   -1    0    0  501    0  0.00000000000E+00  0.00000000000E+00  0.60810388823E+01  0.60810394170E+01  0.25500000000E-02 0. -1.
         -1   -1    0    0    0  501 -0.00000000000E+00 -0.00000000000E+00 -0.25488915442E+03  0.25488915447E+03  0.50400000000E-02 0.  1.
         24    2    1    2    0    0  0.00000000000E+00  0.00000000000E+00 -0.24880811554E+03  0.26097019389E+03  0.78739848488E+02 0.  0.
         66    2    3    3    0    0  0.36919666781E+02  0.30316405269E+01 -0.80547799553E+02  0.88680328431E+02  0.19999995739E+01 0.  0.
        -13    1    3    3    0    0 -0.36919666781E+02 -0.30316405269E+01 -0.16826031599E+03  0.17228986546E+03  0.10566000000E+00 0.  1.
         13    1    4    4    0    0  0.98944547863E+01  0.61381923926E+00 -0.20047985448E+02  0.22365372658E+02  0.10566000000E+00 0. -1.
        -13    1    4    4    0    0  0.21228678334E+02  0.14575684633E+01 -0.47694393404E+02  0.52225928578E+02  0.10566000000E+00 0.  1.
         14    1    4    4    0    0  0.57965336610E+01  0.96025282435E+00 -0.12805420701E+02  0.14089027195E+02  0.00000000000E+00 0. -1.
<mgrwt>
<rscale>  0 0.78739848E+02</rscale>
<asrwt>0</asrwt>
<pdfrwt beam="1">  1        2 0.93554468E-03 0.78739848E+02</pdfrwt>
<pdfrwt beam="2">  1       -1 0.39213708E-01 0.78739848E+02</pdfrwt>
<totfact> 0.95782751E+04</totfact>
</mgrwt>
</event>
<event>
 8    1  0.2389776E-020  0.7771325E+02  0.7818608E-02  0.1335669E+00
         -1   -1    0    0    0  501 -0.00000000000E+00  0.00000000000E+00  0.41024530355E+01  0.41024561314E+01  0.50400000000E-02 0.  1.
          2   -1    0    0  501    0  0.00000000000E+00 -0.00000000000E+00 -0.36803266185E+03  0.36803266186E+03  0.25500000000E-02 0. -1.
         24    2    1    2    0    0 -0.88817841970E-15  0.00000000000E+00 -0.36393020882E+03  0.37213511799E+03  0.77713249538E+02 0.  0.
         66    2    3    3    0    0 -0.62539551892E+01  0.20402355934E+02 -0.33743457662E+03  0.33811456872E+03  0.19999998573E+01 0.  0.
        -13    1    3    3    0    0  0.62539551892E+01 -0.20402355934E+02 -0.26495632195E+02  0.34020549270E+02  0.10566000000E+00 0.  1.
         13    1    4    4    0    0 -0.21801494355E+01  0.68852120793E+01 -0.11906257346E+03  0.11928146025E+03  0.10566000000E+00 0. -1.
        -13    1    4    4    0    0 -0.14927742804E+01  0.64216739394E+01 -0.11140865134E+03  0.11160360670E+03  0.10566000000E+00 0.  1.
         14    1    4    4    0    0 -0.25810314733E+01  0.70954699153E+01 -0.10696335182E+03  0.10722950177E+03  0.00000000000E+00 0. -1.
<mgrwt>
<rscale>  0 0.77713250E+02</rscale>
<asrwt>0</asrwt>
<pdfrwt beam="1">  1        2 0.56620383E-01 0.77713250E+02</pdfrwt>
<pdfrwt beam="2">  1       -1 0.63114715E-03 0.77713250E+02</pdfrwt>
<totfact> 0.29593534E+05</totfact>
</mgrwt>
</event>
<event>
 8    1  0.2389776E-020  0.8234956E+02  0.7818608E-02  0.1322513E+00
         -1   -1    0    0    0  501 -0.00000000000E+00  0.00000000000E+00  0.41563354505E+01  0.41563385063E+01  0.50400000000E-02 0.  1.
          2   -1    0    0  501    0  0.00000000000E+00 -0.00000000000E+00 -0.40789819425E+03  0.40789819426E+03  0.25500000000E-02 0. -1.
         24    2    1    2    0    0  0.00000000000E+00 -0.35527136788E-14 -0.40374185880E+03  0.41205453276E+03  0.82349556311E+02 0.  0.
         66    2    3    3    0    0 -0.12046474511E+01 -0.26423204531E+02 -0.35972375260E+03  0.36070045064E+03  0.19999989636E+01 0.  0.
        -13    1    3    3    0    0  0.12046474511E+01  0.26423204531E+02 -0.44018106199E+02  0.51354082122E+02  0.10566000000E+00 0.  1.
         13    1    4    4    0    0 -0.11461420787E+01 -0.20052251058E+02 -0.28208451841E+03  0.28279867946E+03  0.10566000000E+00 0. -1.
        -13    1    4    4    0    0 -0.11655481467E+00 -0.22760911902E+01 -0.25402386621E+02  0.25504638524E+02  0.10566000000E+00 0.  1.
         14    1    4    4    0    0  0.58049442353E-01 -0.40948622824E+01 -0.52236847567E+02  0.52397132656E+02  0.00000000000E+00 0. -1.
<mgrwt>
<rscale>  0 0.82349556E+02</rscale>
<asrwt>0</asrwt>
<pdfrwt beam="1">  1        2 0.62753537E-01 0.82349556E+02</pdfrwt>
<pdfrwt beam="2">  1       -1 0.63943678E-03 0.82349556E+02</pdfrwt>
<totfact> 0.26372769E+05</totfact>
</mgrwt>
</event>
<event>
 8    1  0.2389776E-020  0.8297054E+02  0.7818608E-02  0.1320827E+00
          2   -1    0    0  501    0  0.00000000000E+00  0.00000000000E+00  0.42106176914E+03  0.42106176914E+03  0.25500000000E-02 0. -1.
         -1   -1    0    0    0  501 -0.00000000000E+00 -0.00000000000E+00 -0.40873508155E+01  0.40873539228E+01  0.50400000000E-02 0.  1.
         24    2    1    2    0    0  0.71054273576E-14  0.00000000000E+00  0.41697441832E+03  0.42514912307E+03  0.82970544837E+02 0.  0.
         66    2    3    3    0    0 -0.35659237828E+02 -0.21152249407E+02  0.20781509543E+03  0.21192006217E+03  0.19999903557E+01 0.  0.
        -13    1    3    3    0    0  0.35659237828E+02  0.21152249407E+02  0.20915932289E+03  0.21322906090E+03  0.10566000000E+00 0.  1.
         13    1    4    4    0    0 -0.20467039154E+02 -0.12136825676E+02  0.11962935745E+03  0.12197293371E+03  0.10566000000E+00 0. -1.
        -13    1    4    4    0    0 -0.12959260999E+02 -0.73782244869E+01  0.72311060678E+02  0.73832792867E+02  0.10566000000E+00 0.  1.
         14    1    4    4    0    0 -0.22329376748E+01 -0.16371992443E+01  0.15874677301E+02  0.16114335588E+02  0.00000000000E+00 0. -1.
<mgrwt>
<rscale>  0 0.82970545E+02</rscale>
<asrwt>0</asrwt>
<pdfrwt beam="1">  1        2 0.64778690E-01 0.82970545E+02</pdfrwt>
<pdfrwt beam="2">  1       -1 0.62882387E-03 0.82970545E+02</pdfrwt>
<totfact> 0.26145268E+05</totfact>
</mgrwt>
</event>
<event>
 8    1  0.2389776E-020  0.7073854E+02  0.7818608E-02  0.1357599E+00
         -1   -1    0    0    0  501 -0.00000000000E+00  0.00000000000E+00  0.16644133364E+01  0.16644209672E+01  0.50400000000E-02 0.  1.
          2   -1    0    0  501    0  0.00000000000E+00 -0.00000000000E+00 -0.75160564543E+03  0.75160564544E+03  0.25500000000E-02 0. -1.
         24    2    1    2    0    0  0.00000000000E+00  0.00000000000E+00 -0.74994123210E+03  0.75327006641E+03  0.70738542129E+02 0.  0.
         66    2    3    3    0    0 -0.16336256920E+02 -0.18057853360E+02 -0.64801247252E+03  0.64847291687E+03  0.20000029606E+01 0.  0.
        -13    1    3    3    0    0  0.16336256920E+02  0.18057853360E+02 -0.10192875958E+03  0.10479714954E+03  0.10566000000E+00 0.  1.
         13    1    4    4    0    0 -0.60310869406E+00 -0.10535715632E+01 -0.36787092668E+02  0.36807269719E+02  0.10566000000E+00 0. -1.
        -13    1    4    4    0    0 -0.13843951736E+01 -0.16562876844E+01 -0.66977073523E+02  0.67011934613E+02  0.10566000000E+00 0.  1.
         14    1    4    4    0    0 -0.14348753052E+02 -0.15347994112E+02 -0.54424830633E+03  0.54465371253E+03  0.00000000000E+00 0. -1.
<mgrwt>
<rscale>  0 0.70738542E+02</rscale>
<asrwt>0</asrwt>
<pdfrwt beam="1">  1        2 0.11563137E+00 0.70738542E+02</pdfrwt>
<pdfrwt beam="2">  1       -1 0.25606478E-03 0.70738542E+02</pdfrwt>
<totfact> 0.46668117E+05</totfact>
</mgrwt>
</event>
<event>
 8    1  0.2389776E-020  0.7940984E+02  0.7818608E-02  0.1330735E+00
         -1   -1    0    0    0  501 -0.00000000000E+00  0.00000000000E+00  0.42315371988E+01  0.42315402002E+01  0.50400000000E-02 0.  1.
          2   -1    0    0  501    0  0.00000000000E+00 -0.00000000000E+00 -0.37255490444E+03  0.37255490445E+03  0.25500000000E-02 0. -1.
         24    2    1    2    0    0 -0.44408920985E-15  0.17763568394E-14 -0.36832336724E+03  0.37678644465E+03  0.79409835759E+02 0.  0.
         66    2    3    3    0    0  0.38746140300E+01 -0.15794283411E+02 -0.35601253955E+03  0.35638939425E+03  0.19999992277E+01 0.  0.
        -13    1    3    3    0    0 -0.38746140300E+01  0.15794283411E+02 -0.12310827689E+02  0.20397050393E+02  0.10566000000E+00 0.  1.
         13    1    4    4    0    0  0.20034382642E+01 -0.10965388131E+02 -0.25385387172E+03  0.25409851013E+03  0.10566000000E+00 0. -1.
        -13    1    4    4    0    0  0.52286983347E+00 -0.19227719606E+01 -0.38864544736E+02  0.38915735203E+02  0.10566000000E+00 0. -1.
         14    1    4    4    0    0  0.13483059323E+01 -0.29061233190E+01 -0.63294123097E+02  0.63375148917E+02  0.00000000000E+00 0. -1.
<mgrwt>
<rscale>  0 0.79409836E+02</rscale>
<asrwt>0</asrwt>
<pdfrwt beam="1">  1        2 0.57316113E-01 0.79409836E+02</pdfrwt>
<pdfrwt beam="2">  1       -1 0.65100625E-03 0.79409836E+02</pdfrwt>
<totfact> 0.28092633E+05</totfact>
</mgrwt>
</event>
<event>
 8    1  0.2389776E-020  0.7993397E+02  0.7818608E-02  0.1329239E+00
         -1   -1    0    0    0  501 -0.00000000000E+00  0.00000000000E+00  0.11156266095E+03  0.11156266106E+03  0.50400000000E-02 0.  1.
          2   -1    0    0  501    0  0.00000000000E+00 -0.00000000000E+00 -0.14318049654E+02  0.14318049881E+02  0.25500000000E-02 0. -1.
         24    2    1    2    0    0  0.88817841970E-15  0.00000000000E+00  0.97244611293E+02  0.12588071094E+03  0.79933966257E+02 0.  0.
         66    2    3    3    0    0  0.69517244984E+01  0.17175513977E+02 -0.70704301369E+01  0.19932781342E+02  0.20000089520E+01 0.  0.
        -13    1    3    3    0    0 -0.69517244984E+01 -0.17175513977E+02  0.10431504143E+03  0.10594792960E+03  0.10566000000E+00 0.  1.
         13    1    4    4    0    0  0.13398237451E+01  0.42702356789E+01 -0.11759539588E+01  0.46286144979E+01  0.10566000000E+00 0.  1.
        -13    1    4    4    0    0  0.33579555231E+01  0.90681025224E+01 -0.41790611624E+01  0.10534802556E+02  0.10566000000E+00 0. -1.
         14    1    4    4    0    0  0.22539452302E+01  0.38371757758E+01 -0.17154150157E+01  0.47693642879E+01  0.00000000000E+00 0. -1.
<mgrwt>
<rscale>  0 0.79933966E+02</rscale>
<asrwt>0</asrwt>
<pdfrwt beam="1">  1        2 0.22027769E-02 0.79933966E+02</pdfrwt>
<pdfrwt beam="2">  1       -1 0.17163486E-01 0.79933966E+02</pdfrwt>
<totfact> 0.11597267E+05</totfact>
</mgrwt>
</event>
<event>
 8    1  0.2389776E-020  0.7530945E+02  0.7818608E-02  0.1342915E+00
         -1   -1    0    0    0  501 -0.00000000000E+00  0.00000000000E+00  0.19137499316E+01  0.19137565682E+01  0.50400000000E-02 0.  1.
          2   -1    0    0  501    0  0.00000000000E+00 -0.00000000000E+00 -0.74088868893E+03  0.74088868893E+03  0.25500000000E-02 0. -1.
         24    2    1    2    0    0 -0.35527136788E-14  0.00000000000E+00 -0.73897493900E+03  0.74280244550E+03  0.75309445469E+02 0.  0.
         66    2    3    3    0    0  0.24503189667E+02  0.22472017834E+02 -0.54354240481E+03  0.54456197417E+03  0.19999999610E+01 0.  0.
        -13    1    3    3    0    0 -0.24503189667E+02 -0.22472017834E+02 -0.19543253419E+03  0.19824047133E+03  0.10566000000E+00 0.  1.
         13    1    4    4    0    0  0.14413403651E+02  0.12740487009E+02 -0.32359727719E+03  0.32416859068E+03  0.10566000000E+00 0. -1.
        -13    1    4    4    0    0  0.99890134551E+01  0.95415722743E+01 -0.21774837662E+03  0.21818613310E+03  0.10566000000E+00 0.  1.
         14    1    4    4    0    0  0.10077256057E+00  0.18995855091E+00 -0.21967509896E+01  0.22072503868E+01  0.00000000000E+00 0. -1.
<mgrwt>
<rscale>  0 0.75309445E+02</rscale>
<asrwt>0</asrwt>
<pdfrwt beam="1">  1        2 0.11398265E+00 0.75309445E+02</pdfrwt>
<pdfrwt beam="2">  1       -1 0.29442417E-03 0.75309445E+02</pdfrwt>
<totfact> 0.39607036E+05</totfact>
</mgrwt>
</event>
<event>
 8    1  0.2389776E-020  0.7665541E+02  0.7818608E-02  0.1338820E+00
         -1   -1    0    0    0  501 -0.00000000000E+00  0.00000000000E+00  0.14104957876E+02  0.14104958776E+02  0.50400000000E-02 0.  1.
          2   -1    0    0  501    0  0.00000000000E+00 -0.00000000000E+00 -0.10414869375E+03  0.10414869378E+03  0.25500000000E-02 0. -1.
         24    2    1    2    0    0  0.00000000000E+00 -0.35527136788E-14 -0.90043735874E+02  0.11825365256E+03  0.76655410591E+02 0.  0.
         66    2    3    3    0    0 -0.11753948249E+02  0.26117815825E+02 -0.84283248946E+02  0.89039101789E+02  0.19999978937E+01 0.  0.
        -13    1    3    3    0    0  0.11753948249E+02 -0.26117815825E+02 -0.57604869279E+01  0.29214550768E+02  0.10566000000E+00 0.  1.
         13    1    4    4    0    0 -0.19706594958E+01  0.35221330734E+01 -0.12211726789E+02  0.12861817735E+02  0.10566000000E+00 0.  1.
        -13    1    4    4    0    0 -0.50435221876E+01  0.10619951017E+02 -0.36411687674E+02  0.38262810129E+02  0.10566000000E+00 0. -1.
        -14    1    4    4    0    0 -0.47397665652E+01  0.11975731735E+02 -0.35659834483E+02  0.37914473925E+02  0.00000000000E+00 0.  1.
<mgrwt>
<rscale>  0 0.76655411E+02</rscale>
<asrwt>0</asrwt>
<pdfrwt beam="1">  1        2 0.16022876E-01 0.76655411E+02</pdfrwt>
<pdfrwt beam="2">  1       -1 0.21699937E-02 0.76655411E+02</pdfrwt>
<totfact> 0.20095381E+05</totfact>
</mgrwt>
</event>
<event>
 8    1  0.2389776E-020  0.7851943E+02  0.7818608E-02  0.1333306E+00
          2   -1    0    0  501    0  0.00000000000E+00  0.00000000000E+00  0.57070000737E+03  0.57070000738E+03  0.25500000000E-02 0. -1.
         -1   -1    0    0    0  501 -0.00000000000E+00 -0.00000000000E+00 -0.27007599306E+01  0.27007646333E+01  0.50400000000E-02 0.  1.
         24    2    1    2    0    0  0.00000000000E+00  0.00000000000E+00  0.56799924744E+03  0.57340077201E+03  0.78519425933E+02 0.  0.
         66    2    3    3    0    0 -0.35633660880E+02  0.61842559442E+01  0.39525041450E+03  0.39690665523E+03  0.19999998605E+01 0.  0.
        -13    1    3    3    0    0  0.35633660880E+02 -0.61842559442E+01  0.17274883294E+03  0.17649411678E+03  0.10566000000E+00 0.  1.
         13    1    4    4    0    0 -0.63123293063E+01  0.13347824048E+01  0.78102837175E+02  0.78368944641E+02  0.10566000000E+00 0. -1.
        -13    1    4    4    0    0 -0.18994918895E+01  0.26349182081E+00  0.19304095757E+02  0.19399401393E+02  0.10566000000E+00 0. -1.
         14    1    4    4    0    0 -0.27421839684E+02  0.45859817186E+01  0.29784348156E+03  0.29913830920E+03  0.00000000000E+00 0. -1.
<mgrwt>
<rscale>  0 0.78519426E+02</rscale>
<asrwt>0</asrwt>
<pdfrwt beam="1">  1        2 0.87799944E-01 0.78519426E+02</pdfrwt>
<pdfrwt beam="2">  1       -1 0.41550216E-03 0.78519426E+02</pdfrwt>
<totfact> 0.33286369E+05</totfact>
</mgrwt>
</event>
<event>
 8    1  0.2389776E-020  0.8234065E+02  0.7818608E-02  0.1322537E+00
          2   -1    0    0  501    0  0.00000000000E+00  0.00000000000E+00  0.46486528585E+03  0.46486528586E+03  0.25500000000E-02 0. -1.
         -1   -1    0    0    0  501 -0.00000000000E+00 -0.00000000000E+00 -0.36462067265E+01  0.36462102098E+01  0.50400000000E-02 0.  1.
         24    2    1    2    0    0 -0.71054273576E-14  0.00000000000E+00  0.46121907912E+03  0.46851149607E+03  0.82340652166E+02 0.  0.
         66    2    3    3    0    0 -0.39776786277E+02 -0.84983845528E+01  0.26608481553E+03  0.26918310557E+03  0.20000002977E+01 0.  0.
        -13    1    3    3    0    0  0.39776786277E+02  0.84983845528E+01  0.19513426360E+03  0.19932839050E+03  0.10566000000E+00 0.  1.
         13    1    4    4    0    0 -0.25282736817E+02 -0.51616714516E+01  0.17392934827E+03  0.17583312824E+03  0.10566000000E+00 0. -1.
        -13    1    4    4    0    0 -0.16745510005E+01 -0.55897280289E+00  0.10756262979E+02  0.10900684793E+02  0.10566000000E+00 0.  1.
         14    1    4    4    0    0 -0.12819498459E+02 -0.27777402983E+01  0.81399204283E+02  0.82449292537E+02  0.00000000000E+00 0. -1.
<mgrwt>
<rscale>  0 0.82340652E+02</rscale>
<asrwt>0</asrwt>
<pdfrwt beam="1">  1        2 0.71517704E-01 0.82340652E+02</pdfrwt>
<pdfrwt beam="2">  1       -1 0.56095541E-03 0.82340652E+02</pdfrwt>
<totfact> 0.27581276E+05</totfact>
</mgrwt>
</event>
<event>
 8    1  0.2389776E-020  0.8085968E+02  0.7818608E-02  0.1326629E+00
          2   -1    0    0  501    0  0.00000000000E+00  0.00000000000E+00  0.18593404003E+02  0.18593404178E+02  0.25500000000E-02 0. -1.
         -1   -1    0    0    0  501 -0.00000000000E+00 -0.00000000000E+00 -0.87911387784E+02  0.87911387928E+02  0.50400000000E-02 0.  1.
         24    2    1    2    0    0 -0.88817841970E-15 -0.71054273576E-14 -0.69317983780E+02  0.10650479211E+03  0.80859680102E+02 0.  0.
         66    2    3    3    0    0  0.51615765393E+01  0.39146915879E+02 -0.45968100166E+02  0.60631585068E+02  0.19999949239E+01 0.  0.
        -13    1    3    3    0    0 -0.51615765393E+01 -0.39146915879E+02 -0.23349883614E+02  0.45873207039E+02  0.10566000000E+00 0.  1.
         13    1    4    4    0    0  0.30905163833E+01  0.24086282206E+02 -0.28274187207E+02  0.37271183350E+02  0.10566000000E+00 0. -1.
        -13    1    4    4    0    0 -0.15699420062E-01  0.33744701269E+01 -0.41736674774E+01  0.53682361495E+01  0.10566000000E+00 0.  1.
        -14    1    4    4    0    0  0.20867595761E+01  0.11686163546E+02 -0.13520245482E+02  0.17992165568E+02  0.00000000000E+00 0.  1.
<mgrwt>
<rscale>  0 0.80859680E+02</rscale>
<asrwt>0</asrwt>
<pdfrwt beam="1">  1        2 0.28605237E-02 0.80859680E+02</pdfrwt>
<pdfrwt beam="2">  1       -1 0.13524829E-01 0.80859680E+02</pdfrwt>
<totfact> 0.11860274E+05</totfact>
</mgrwt>
</event>
<event>
 8    1  0.2389776E-020  0.8004940E+02  0.7818608E-02  0.1328911E+00
          2   -1    0    0  501    0  0.00000000000E+00  0.00000000000E+00  0.61248862640E+03  0.61248862641E+03  0.25500000000E-02 0. -1.
         -1   -1    0    0    0  501 -0.00000000000E+00 -0.00000000000E+00 -0.26155184675E+01  0.26155233234E+01  0.50400000000E-02 0.  1.
         24    2    1    2    0    0  0.35527136788E-14  0.88817841970E-15  0.60987310793E+03  0.61510414973E+03  0.80049404958E+02 0.  0.
         66    2    3    3    0    0 -0.18092117437E+02 -0.41768986744E+01  0.57736335828E+03  0.57766531718E+03  0.19999990219E+01 0.  0.
        -13    1    3    3    0    0  0.18092117437E+02  0.41768986744E+01  0.32509749653E+02  0.37438832546E+02  0.10566000000E+00 0.  1.
         13    1    4    4    0    0 -0.64157214414E+00 -0.39774194341E+00  0.33901271032E+02  0.33909838618E+02  0.10566000000E+00 0. -1.
        -13    1    4    4    0    0 -0.12916221154E+02 -0.26671799604E+01  0.39761568588E+03  0.39783437187E+03  0.10566000000E+00 0.  1.
         14    1    4    4    0    0 -0.45343241385E+01 -0.11119767706E+01  0.14584640137E+03  0.14592110670E+03  0.00000000000E+00 0. -1.
<mgrwt>
<rscale>  0 0.80049405E+02</rscale>
<asrwt>0</asrwt>
<pdfrwt beam="1">  1        2 0.94229150E-01 0.80049405E+02</pdfrwt>
<pdfrwt beam="2">  1       -1 0.40238728E-03 0.80049405E+02</pdfrwt>
<totfact> 0.32294627E+05</totfact>
</mgrwt>
</event>
<event>
 8    1  0.2389776E-020  0.7918506E+02  0.7818608E-02  0.1331380E+00
         -1   -1    0    0    0  501 -0.00000000000E+00  0.00000000000E+00  0.72331886488E+01  0.72331904047E+01  0.50400000000E-02 0.  1.
          2   -1    0    0  501    0  0.00000000000E+00 -0.00000000000E+00 -0.21671883348E+03  0.21671883350E+03  0.25500000000E-02 0. -1.
         24    2    1    2    0    0  0.35527136788E-14 -0.17763568394E-14 -0.20948564484E+03  0.22395202390E+03  0.79185059314E+02 0.  0.
         66    2    3    3    0    0 -0.23660452802E+02 -0.15085255905E+02 -0.18370494712E+03  0.18584641394E+03  0.20000006182E+01 0.  0.
        -13    1    3    3    0    0  0.23660452802E+02  0.15085255905E+02 -0.25780697712E+02  0.38105609969E+02  0.10566000000E+00 0.  1.
         13    1    4    4    0    0 -0.17833830927E+02 -0.11146391820E+02 -0.13760613594E+03  0.13920397763E+03  0.10566000000E+00 0. -1.
        -13    1    4    4    0    0 -0.37184040524E+01 -0.25677744833E+01 -0.32530950035E+02  0.32843475284E+02  0.10566000000E+00 0.  1.
        -14    1    4    4    0    0 -0.21082178222E+01 -0.13710896025E+01 -0.13567861146E+02  0.13798961018E+02  0.00000000000E+00 0.  1.
<mgrwt>
<rscale>  0 0.79185059E+02</rscale>
<asrwt>0</asrwt>
<pdfrwt beam="1">  1        2 0.33341354E-01 0.79185059E+02</pdfrwt>
<pdfrwt beam="2">  1       -1 0.11127986E-02 0.79185059E+02</pdfrwt>
<totfact> 0.23306832E+05</totfact>
</mgrwt>
</event>
<event>
 8    1  0.2389776E-020  0.7798149E+02  0.7818608E-02  0.1334879E+00
          2   -1    0    0  501    0  0.00000000000E+00  0.00000000000E+00  0.14238947646E+03  0.14238947648E+03  0.25500000000E-02 0. -1.
         -1   -1    0    0    0  501 -0.00000000000E+00 -0.00000000000E+00 -0.10676899335E+02  0.10676900525E+02  0.50400000000E-02 0.  1.
         24    2    1    2    0    0  0.17763568394E-14 -0.71054273576E-14  0.13171257712E+03  0.15306637701E+03  0.77981490095E+02 0.  0.
         66    2    3    3    0    0 -0.13527656815E+02  0.35473846930E+02  0.48688708951E+02  0.61773632688E+02  0.20000002894E+01 0.  0.
        -13    1    3    3    0    0  0.13527656815E+02 -0.35473846930E+02  0.83023868174E+02  0.91292744320E+02  0.10566000000E+00 0.  1.
         13    1    4    4    0    0 -0.14840320567E+01  0.47037199289E+01  0.68906736713E+01  0.84746610549E+01  0.10566000000E+00 0. -1.
        -13    1    4    4    0    0 -0.10181891752E+02  0.25040969924E+02  0.33547150370E+02  0.43082984534E+02  0.10566000000E+00 0.  1.
        -14    1    4    4    0    0 -0.18617330067E+01  0.57291570773E+01  0.82508849099E+01  0.10215987099E+02  0.00000000000E+00 0.  1.
<mgrwt>
<rscale>  0 0.77981490E+02</rscale>
<asrwt>0</asrwt>
<pdfrwt beam="1">  1        2 0.21906073E-01 0.77981490E+02</pdfrwt>
<pdfrwt beam="2">  1       -1 0.16426001E-02 0.77981490E+02</pdfrwt>
<totfact> 0.21081021E+05</totfact>
</mgrwt>
</event>
<event>
 8    1  0.2389776E-020  0.8048500E+02  0.7818608E-02  0.1327681E+00
          2   -1    0    0  501    0  0.00000000000E+00  0.00000000000E+00  0.25855482633E+03  0.25855482634E+03  0.25500000000E-02 0. -1.
         -1   -1    0    0    0  501 -0.00000000000E+00 -0.00000000000E+00 -0.62635018661E+01  0.62635038938E+01  0.50400000000E-02 0.  1.
         24    2    1    2    0    0 -0.17763568394E-14  0.00000000000E+00  0.25229132446E+03  0.26481833023E+03  0.80485002512E+02 0.  0.
         66    2    3    3    0    0  0.14728342841E+02 -0.29853168516E+02  0.20047867538E+03  0.20323344960E+03  0.20000005889E+01 0.  0.
        -13    1    3    3    0    0 -0.14728342841E+02  0.29853168516E+02  0.51812649078E+02  0.61584880627E+02  0.10566000000E+00 0.  1.
         13    1    4    4    0    0  0.51354387158E+01 -0.11841744383E+02  0.75075288137E+02  0.76176831739E+02  0.10566000000E+00 0. -1.
        -13    1    4    4    0    0  0.27056402673E+01 -0.44475271675E+01  0.30231833764E+02  0.30676960800E+02  0.10566000000E+00 0.  1.
        -14    1    4    4    0    0  0.68872638579E+01 -0.13563896966E+02  0.95171553480E+02  0.96379657066E+02  0.00000000000E+00 0.  1.
<mgrwt>
<rscale>  0 0.80485003E+02</rscale>
<asrwt>0</asrwt>
<pdfrwt beam="1">  1        2 0.39777656E-01 0.80485003E+02</pdfrwt>
<pdfrwt beam="2">  1       -1 0.96361605E-03 0.80485003E+02</pdfrwt>
<totfact> 0.23777813E+05</totfact>
</mgrwt>
</event>
<event>
 8    1  0.2389776E-020  0.7917313E+02  0.7818608E-02  0.1331414E+00
         -1   -1    0    0    0  501 -0.00000000000E+00  0.00000000000E+00  0.29579825503E+03  0.29579825507E+03  0.50400000000E-02 0.  1.
          2   -1    0    0  501    0  0.00000000000E+00 -0.00000000000E+00 -0.52978535754E+01  0.52978541890E+01  0.25500000000E-02 0. -1.
         24    2    1    2    0    0  0.00000000000E+00  0.88817841970E-15  0.29050040145E+03  0.30109610926E+03  0.79173125285E+02 0.  0.
         66    2    3    3    0    0 -0.37788976988E+02 -0.54408096428E+01  0.10591553093E+03  0.11260421346E+03  0.20000015099E+01 0.  0.
        -13    1    3    3    0    0  0.37788976988E+02  0.54408096428E+01  0.18458487052E+03  0.18849189580E+03  0.10566000000E+00 0.  1.
         13    1    4    4    0    0 -0.26944666974E+02 -0.32958568497E+01  0.76781440037E+02  0.81438801863E+02  0.10566000000E+00 0. -1.
        -13    1    4    4    0    0 -0.77202061383E+01 -0.12954586551E+01  0.20417269363E+02  0.21866774984E+02  0.10566000000E+00 0.  1.
         14    1    4    4    0    0 -0.31241038758E+01 -0.84949413790E+00  0.87168215309E+01  0.92986366161E+01  0.00000000000E+00 0. -1.
<mgrwt>
<rscale>  0 0.79173125E+02</rscale>
<asrwt>0</asrwt>
<pdfrwt beam="1">  1        2 0.81505416E-03 0.79173125E+02</pdfrwt>
<pdfrwt beam="2">  1       -1 0.45507440E-01 0.79173125E+02</pdfrwt>
<totfact> 0.89270904E+04</totfact>
</mgrwt>
</event>
<event>
 8    1  0.2389776E-020  0.8068177E+02  0.7818608E-02  0.1327128E+00
          2   -1    0    0  501    0  0.00000000000E+00  0.00000000000E+00  0.13617715445E+04  0.13617715445E+04  0.25500000000E-02 0. -1.
         -1   -1    0    0    0  501 -0.00000000000E+00 -0.00000000000E+00 -0.11950461392E+01  0.11950567670E+01  0.50400000000E-02 0.  1.
         24    2    1    2    0    0  0.00000000000E+00  0.00000000000E+00  0.13605764984E+04  0.13629666013E+04  0.80681771698E+02 0.  0.
         66    2    3    3    0    0  0.19874993250E+02 -0.37632785348E+01  0.12698377497E+04  0.12700004284E+04  0.19999998061E+01 0.  0.
        -13    1    3    3    0    0 -0.19874993250E+02  0.37632785348E+01  0.90738748693E+02  0.92966172883E+02  0.10566000000E+00 0.  1.
         13    1    4    4    0    0  0.11357854163E+02 -0.16427385698E+01  0.74056524788E+03  0.74065416827E+03  0.10566000000E+00 0. -1.
        -13    1    4    4    0    0  0.43156158575E+01 -0.71052072108E+00  0.24129614420E+03  0.24133580287E+03  0.10566000000E+00 0.  1.
        -14    1    4    4    0    0  0.42015232297E+01 -0.14100192439E+01  0.28797635764E+03  0.28801045729E+03  0.00000000000E+00 0.  1.
<mgrwt>
<rscale>  0 0.80681772E+02</rscale>
<asrwt>0</asrwt>
<pdfrwt beam="1">  1        2 0.20950370E+00 0.80681772E+02</pdfrwt>
<pdfrwt beam="2">  1       -1 0.18385373E-03 0.80681772E+02</pdfrwt>
<totfact> 0.33516939E+05</totfact>
</mgrwt>
</event>
<event>
 8    1  0.2389776E-020  0.7914315E+02  0.7818608E-02  0.1331501E+00
         -1   -1    0    0    0  501 -0.00000000000E+00  0.00000000000E+00  0.51262470707E+01  0.51262495483E+01  0.50400000000E-02 0.  1.
          2   -1    0    0  501    0  0.00000000000E+00 -0.00000000000E+00 -0.30546892658E+03  0.30546892659E+03  0.25500000000E-02 0. -1.
         24    2    1    2    0    0  0.00000000000E+00  0.00000000000E+00 -0.30034267951E+03  0.31059517614E+03  0.79143150720E+02 0.  0.
         66    2    3    3    0    0 -0.15950652109E+01  0.22376394210E+02 -0.27807817752E+03  0.27898874540E+03  0.19999998981E+01 0.  0.
        -13    1    3    3    0    0  0.15950652109E+01 -0.22376394210E+02 -0.22264501992E+02  0.31606430735E+02  0.10566000000E+00 0.  1.
         13    1    4    4    0    0 -0.11665090272E+01  0.13183228788E+02 -0.15802015724E+03  0.15857345151E+03  0.10566000000E+00 0. -1.
        -13    1    4    4    0    0  0.18839229762E+00  0.60021851077E+01 -0.80882024096E+02  0.81104714435E+02  0.10566000000E+00 0.  1.
        -14    1    4    4    0    0 -0.61694848133E+00  0.31909803143E+01 -0.39175996177E+02  0.39310579457E+02  0.00000000000E+00 0.  1.
<mgrwt>
<rscale>  0 0.79143151E+02</rscale>
<asrwt>0</asrwt>
<pdfrwt beam="1">  1        2 0.46995205E-01 0.79143151E+02</pdfrwt>
<pdfrwt beam="2">  1       -1 0.78865383E-03 0.79143151E+02</pdfrwt>
<totfact> 0.26395960E+05</totfact>
</mgrwt>
</event>
<event>
 8    1  0.2389776E-020  0.8091297E+02  0.7818608E-02  0.1326480E+00
         -1   -1    0    0    0  501 -0.00000000000E+00  0.00000000000E+00  0.21679738947E+01  0.21679797531E+01  0.50400000000E-02 0.  1.
          2   -1    0    0  501    0  0.00000000000E+00 -0.00000000000E+00 -0.75495600065E+03  0.75495600065E+03  0.25500000000E-02 0. -1.
         24    2    1    2    0    0  0.00000000000E+00  0.00000000000E+00 -0.75278802675E+03  0.75712398040E+03  0.80912968564E+02 0.  0.
         66    2    3    3    0    0  0.28773664542E+02  0.22266685732E+01 -0.64159096404E+03  0.64224282553E+03  0.19999975478E+01 0.  0.
        -13    1    3    3    0    0 -0.28773664542E+02 -0.22266685732E+01 -0.11119706271E+03  0.11488115487E+03  0.10566000000E+00 0.  1.
         13    1    4    4    0    0  0.22922680789E+01  0.45967259074E+00 -0.61169729609E+02  0.61214481753E+02  0.10566000000E+00 0.  1.
        -13    1    4    4    0    0  0.33550532002E+01 -0.30192949739E-01 -0.75312371150E+02  0.75387145495E+02  0.10566000000E+00 0. -1.
         14    1    4    4    0    0  0.23126343263E+02  0.17971889322E+01 -0.50510886328E+03  0.50564119828E+03  0.00000000000E+00 0. -1.
<mgrwt>
<rscale>  0 0.80912969E+02</rscale>
<asrwt>0</asrwt>
<pdfrwt beam="1">  1        2 0.11614687E+00 0.80912969E+02</pdfrwt>
<pdfrwt beam="2">  1       -1 0.33353550E-03 0.80912969E+02</pdfrwt>
<totfact> 0.33009175E+05</totfact>
</mgrwt>
</event>
<event>
 8    1  0.2389776E-020  0.8006074E+02  0.7818608E-02  0.1328879E+00
         -1   -1    0    0    0  501 -0.00000000000E+00  0.00000000000E+00  0.15991569791E+01  0.15991649212E+01  0.50400000000E-02 0.  1.
          2   -1    0    0  501    0  0.00000000000E+00 -0.00000000000E+00 -0.10020445686E+04  0.10020445686E+04  0.25500000000E-02 0. -1.
         24    2    1    2    0    0  0.35527136788E-14 -0.17763568394E-14 -0.10004454117E+04  0.10036437336E+04  0.80060740752E+02 0.  0.
         66    2    3    3    0    0 -0.22791513201E+02  0.65328048800E+01 -0.90447724446E+03  0.90479015046E+03  0.20000002121E+01 0.  0.
        -13    1    3    3    0    0  0.22791513201E+02 -0.65328048800E+01 -0.95968167193E+02  0.98853583101E+02  0.10566000000E+00 0.  1.
         13    1    4    4    0    0 -0.46812012489E+01  0.79192421370E+00 -0.17830822635E+03  0.17837145382E+03  0.10566000000E+00 0. -1.
        -13    1    4    4    0    0 -0.35262463254E+01  0.10500171387E+01 -0.12226997367E+03  0.12232536358E+03  0.10566000000E+00 0.  1.
         14    1    4    4    0    0 -0.14584065627E+02  0.46908635276E+01 -0.60389904444E+03  0.60409333306E+03  0.00000000000E+00 0. -1.
<mgrwt>
<rscale>  0 0.80060741E+02</rscale>
<asrwt>0</asrwt>
<pdfrwt beam="1">  1        2 0.15416020E+00 0.80060741E+02</pdfrwt>
<pdfrwt beam="2">  1       -1 0.24602556E-03 0.80060741E+02</pdfrwt>
<totfact> 0.35164774E+05</totfact>
</mgrwt>
</event>
<event>
 8    1  0.2389776E-020  0.8043216E+02  0.7818608E-02  0.1327829E+00
         -1   -1    0    0    0  501 -0.00000000000E+00  0.00000000000E+00  0.24043104068E+02  0.24043104597E+02  0.50400000000E-02 0.  1.
          2   -1    0    0  501    0  0.00000000000E+00 -0.00000000000E+00 -0.67268069587E+02  0.67268069636E+02  0.25500000000E-02 0. -1.
         24    2    1    2    0    0 -0.27755575616E-16  0.00000000000E+00 -0.43224965519E+02  0.91311174232E+02  0.80432163315E+02 0.  0.
         66    2    3    3    0    0  0.16800066324E+00 -0.23556661438E+02 -0.58593787316E+02  0.63183672214E+02  0.20000000203E+01 0.  0.
        -13    1    3    3    0    0 -0.16800066324E+00  0.23556661438E+02  0.15368821797E+02  0.28127502018E+02  0.10566000000E+00 0.  1.
         13    1    4    4    0    0 -0.18086152513E+00 -0.14336320683E+02 -0.36297626033E+02  0.39026806445E+02  0.10566000000E+00 0. -1.
        -13    1    4    4    0    0  0.67262881644E+00 -0.58162542767E+01 -0.14857762099E+02  0.15970144081E+02  0.10566000000E+00 0.  1.
        -14    1    4    4    0    0 -0.32376662807E+00 -0.34040864779E+01 -0.74383991837E+01  0.81867216879E+01  0.00000000000E+00 0.  1.
<mgrwt>
<rscale>  0 0.80432163E+02</rscale>
<asrwt>0</asrwt>
<pdfrwt beam="1">  1        2 0.10348934E-01 0.80432163E+02</pdfrwt>
<pdfrwt beam="2">  1       -1 0.36989392E-02 0.80432163E+02</pdfrwt>
<totfact> 0.15759546E+05</totfact>
</mgrwt>
</event>
<event>
 8    1  0.2389776E-020  0.7632739E+02  0.7818608E-02  0.1339809E+00
         -1   -1    0    0    0  501 -0.00000000000E+00  0.00000000000E+00  0.72718362233E+01  0.72718379699E+01  0.50400000000E-02 0.  1.
          2   -1    0    0  501    0  0.00000000000E+00 -0.00000000000E+00 -0.20028880482E+03  0.20028880484E+03  0.25500000000E-02 0. -1.
         24    2    1    2    0    0  0.00000000000E+00  0.00000000000E+00 -0.19301696860E+03  0.20756064281E+03  0.76327388766E+02 0.  0.
         66    2    3    3    0    0  0.34466406410E+02  0.16183427066E+02 -0.10242349137E+03  0.10929047560E+03  0.19999975759E+01 0.  0.
        -13    1    3    3    0    0 -0.34466406410E+02 -0.16183427066E+02 -0.90593477222E+02  0.98270167201E+02  0.10566000000E+00 0.  1.
         13    1    4    4    0    0  0.67203162994E+01  0.33984718642E+01 -0.20808012219E+02  0.22129093942E+02  0.10566000000E+00 0. -1.
        -13    1    4    4    0    0  0.21230678784E+01  0.58208526945E+00 -0.53259872054E+01  0.57639868342E+01  0.10566000000E+00 0.  1.
        -14    1    4    4    0    0  0.25623022232E+02  0.12202869933E+02 -0.76289491950E+02  0.81397394828E+02  0.00000000000E+00 0.  1.
<mgrwt>
<rscale>  0 0.76327389E+02</rscale>
<asrwt>0</asrwt>
<pdfrwt beam="1">  1        2 0.30813658E-01 0.76327389E+02</pdfrwt>
<pdfrwt beam="2">  1       -1 0.11187443E-02 0.76327389E+02</pdfrwt>
<totfact> 0.24975646E+05</totfact>
</mgrwt>
</event>
<event>
 8    1  0.2389776E-020  0.8202976E+02  0.7818608E-02  0.1323388E+00
         -1   -1    0    0    0  501 -0.00000000000E+00  0.00000000000E+00  0.70066800317E+01  0.70066818444E+01  0.50400000000E-02 0.  1.
          2   -1    0    0  501    0  0.00000000000E+00 -0.00000000000E+00 -0.24008803698E+03  0.24008803700E+03  0.25500000000E-02 0. -1.
         24    2    1    2    0    0  0.00000000000E+00  0.00000000000E+00 -0.23308135695E+03  0.24709471884E+03  0.82029757532E+02 0.  0.
         66    2    3    3    0    0  0.25164045710E+02  0.51954274477E+01 -0.21281323908E+03  0.21436813288E+03  0.20000004621E+01 0.  0.
        -13    1    3    3    0    0 -0.25164045710E+02 -0.51954274477E+01 -0.20268117870E+02  0.32726585965E+02  0.10566000000E+00 0.  1.
         13    1    4    4    0    0  0.12249226444E+02  0.24086429285E+01 -0.99476328411E+02  0.10025665159E+03  0.10566000000E+00 0. -1.
        -13    1    4    4    0    0  0.11474595069E+02  0.28758771313E+01 -0.10117818162E+03  0.10186742659E+03  0.10566000000E+00 0.  1.
        -14    1    4    4    0    0  0.14402241971E+01 -0.89092612115E-01 -0.12158729054E+02  0.12244054698E+02  0.00000000000E+00 0.  1.
<mgrwt>
<rscale>  0 0.82029758E+02</rscale>
<asrwt>0</asrwt>
<pdfrwt beam="1">  1        2 0.36936615E-01 0.82029758E+02</pdfrwt>
<pdfrwt beam="2">  1       -1 0.10779511E-02 0.82029758E+02</pdfrwt>
<totfact> 0.22023159E+05</totfact>
</mgrwt>
</event>
<event>
 8    1  0.2389776E-020  0.7617169E+02  0.7818608E-02  0.1340281E+00
         -1   -1    0    0    0  501 -0.00000000000E+00  0.00000000000E+00  0.70047442518E+01  0.70047460649E+01  0.50400000000E-02 0.  1.
          2   -1    0    0  501    0  0.00000000000E+00 -0.00000000000E+00 -0.20707840037E+03  0.20707840038E+03  0.25500000000E-02 0. -1.
         24    2    1    2    0    0  0.88817841970E-15  0.00000000000E+00 -0.20007365611E+03  0.21408314645E+03  0.76171685826E+02 0.  0.
         66    2    3    3    0    0 -0.48734922155E+01  0.21123047684E+02 -0.18802603955E+03  0.18928213238E+03  0.20000048292E+01 0.  0.
        -13    1    3    3    0    0  0.48734922155E+01 -0.21123047684E+02 -0.12047616564E+02  0.24801014067E+02  0.10566000000E+00 0.  1.
         13    1    4    4    0    0 -0.11315444334E+01  0.63261435689E+01 -0.54456465527E+02  0.54834462585E+02  0.10566000000E+00 0. -1.
        -13    1    4    4    0    0 -0.11579227315E+01  0.76201422343E+01 -0.65449202320E+02  0.65901567516E+02  0.10566000000E+00 0.  1.
         14    1    4    4    0    0 -0.25840250507E+01  0.71767618813E+01 -0.68120371703E+02  0.68546102278E+02  0.00000000000E+00 0. -1.
<mgrwt>
<rscale>  0 0.76171686E+02</rscale>
<asrwt>0</asrwt>
<pdfrwt beam="1">  1        2 0.31858211E-01 0.76171686E+02</pdfrwt>
<pdfrwt beam="2">  1       -1 0.10776533E-02 0.76171686E+02</pdfrwt>
<totfact> 0.25401421E+05</totfact>
</mgrwt>
</event>
<event>
 8    1  0.2389776E-020  0.7954254E+02  0.7818608E-02  0.1330355E+00
         -1   -1    0    0    0  501 -0.00000000000E+00  0.00000000000E+00  0.20568719985E+02  0.20568720602E+02  0.50400000000E-02 0.  1.
          2   -1    0    0  501    0  0.00000000000E+00 -0.00000000000E+00 -0.76900940874E+02  0.76900940916E+02  0.25500000000E-02 0. -1.
         24    2    1    2    0    0  0.00000000000E+00  0.00000000000E+00 -0.56332220889E+02  0.97469661518E+02  0.79542540858E+02 0.  0.
         66    2    3    3    0    0  0.13880042618E+02  0.30777727710E+02 -0.53882493455E+02  0.63617978626E+02  0.19999993564E+01 0.  0.
        -13    1    3    3    0    0 -0.13880042618E+02 -0.30777727710E+02 -0.24497274339E+01  0.33851682892E+02  0.10566000000E+00 0.  1.
         13    1    4    4    0    0  0.35240705463E+00  0.62544253236E+00 -0.81012419132E+00  0.10875818748E+01  0.10566000000E+00 0.  1.
        -13    1    4    4    0    0  0.36023029691E+01  0.85567620158E+01 -0.15745715876E+02  0.18279318788E+02  0.10566000000E+00 0.  1.
         14    1    4    4    0    0  0.99253325945E+01  0.21595523162E+02 -0.37326653388E+02  0.44251077963E+02  0.00000000000E+00 0. -1.
<mgrwt>
<rscale>  0 0.79542541E+02</rscale>
<asrwt>0</asrwt>
<pdfrwt beam="1">  1        2 0.11830914E-01 0.79542541E+02</pdfrwt>
<pdfrwt beam="2">  1       -1 0.31644185E-02 0.79542541E+02</pdfrwt>
<totfact> 0.16786051E+05</totfact>
</mgrwt>
</event>
<event>
 8    1  0.2389776E-020  0.7994000E+02  0.7818608E-02  0.1329222E+00
          2   -1    0    0  501    0  0.00000000000E+00  0.00000000000E+00  0.25191009939E+03  0.25191009941E+03  0.25500000000E-02 0. -1.
         -1   -1    0    0    0  501 -0.00000000000E+00 -0.00000000000E+00 -0.63419469878E+01  0.63419489905E+01  0.50400000000E-02 0.  1.
         24    2    1    2    0    0  0.00000000000E+00  0.00000000000E+00  0.24556815241E+03  0.25825204840E+03  0.79939996405E+02 0.  0.
         66    2    3    3    0    0  0.23931541709E+02 -0.31895060482E+02  0.13049350560E+03  0.13646453231E+03  0.20000011538E+01 0.  0.
        -13    1    3    3    0    0 -0.23931541709E+02  0.31895060482E+02  0.11507464681E+03  0.12178751608E+03  0.10566000000E+00 0.  1.
         13    1    4    4    0    0  0.10767811886E+02 -0.14733339788E+02  0.60369891224E+02  0.63067836530E+02  0.10566000000E+00 0. -1.
        -13    1    4    4    0    0  0.83666153304E+01 -0.10139023589E+02  0.44223093979E+02  0.46135596414E+02  0.10566000000E+00 0.  1.
        -14    1    4    4    0    0  0.47971144925E+01 -0.70226971058E+01  0.25900520396E+02  0.27261099370E+02  0.00000000000E+00 0.  1.
<mgrwt>
<rscale>  0 0.79939996E+02</rscale>
<asrwt>0</asrwt>
<pdfrwt beam="1">  1        2 0.38755402E-01 0.79939996E+02</pdfrwt>
<pdfrwt beam="2">  1       -1 0.97568426E-03 0.79939996E+02</pdfrwt>
<totfact> 0.23980803E+05</totfact>
</mgrwt>
</event>
<event>
 8    1  0.2389776E-020  0.8014433E+02  0.7818608E-02  0.1328642E+00
         -1   -1    0    0    0  501 -0.00000000000E+00  0.00000000000E+00  0.42057932049E+02  0.42057932351E+02  0.50400000000E-02 0.  1.
          2   -1    0    0  501    0  0.00000000000E+00 -0.00000000000E+00 -0.38180159141E+02  0.38180159227E+02  0.25500000000E-02 0. -1.
         24    2    1    2    0    0  0.00000000000E+00  0.88817841970E-15  0.38777729071E+01  0.80238091577E+02  0.80144333656E+02 0.  0.
         66    2    3    3    0    0  0.34136628787E+02 -0.70796028062E+01 -0.17789393479E+02  0.39190467236E+02  0.20000002365E+01 0.  0.
        -13    1    3    3    0    0 -0.34136628787E+02  0.70796028062E+01  0.21667166386E+02  0.41047624342E+02  0.10566000000E+00 0.  1.
         13    1    4    4    0    0  0.47096166935E+01 -0.56443942295E+00 -0.27355452039E+01  0.54766278731E+01  0.10566000000E+00 0.  1.
        -13    1    4    4    0    0  0.11353004100E+02 -0.22593444417E+01 -0.51593176605E+01  0.12673794307E+02  0.10566000000E+00 0. -1.
         14    1    4    4    0    0  0.18074007994E+02 -0.42558189416E+01 -0.98945306149E+01  0.21040045055E+02  0.00000000000E+00 0. -1.
<mgrwt>
<rscale>  0 0.80144334E+02</rscale>
<asrwt>0</asrwt>
<pdfrwt beam="1">  1        2 0.58738706E-02 0.80144334E+02</pdfrwt>
<pdfrwt beam="2">  1       -1 0.64704511E-02 0.80144334E+02</pdfrwt>
<totfact> 0.14049714E+05</totfact>
</mgrwt>
</event>
<event>
 8    1  0.2389776E-020  0.7966242E+02  0.7818608E-02  0.1330012E+00
          2   -1    0    0  501    0  0.00000000000E+00  0.00000000000E+00  0.19407810247E+03  0.19407810249E+03  0.25500000000E-02 0. -1.
         -1   -1    0    0    0  501 -0.00000000000E+00 -0.00000000000E+00 -0.81746741963E+01  0.81746757500E+01  0.50400000000E-02 0.  1.
         24    2    1    2    0    0  0.00000000000E+00  0.00000000000E+00  0.18590342827E+03  0.20225277824E+03  0.79662423140E+02 0.  0.
         66    2    3    3    0    0  0.18887977150E+02 -0.20022183597E+01  0.18182556071E+03  0.18282587094E+03  0.19999998495E+01 0.  0.
        -13    1    3    3    0    0 -0.18887977150E+02  0.20022183597E+01  0.40778675660E+01  0.19426907296E+02  0.10566000000E+00 0.  1.
         13    1    4    4    0    0  0.63986704495E+01 -0.13360555677E+01  0.67145667336E+02  0.67463173911E+02  0.10566000000E+00 0. -1.
        -13    1    4    4    0    0  0.71165893356E+00  0.10635719492E+00  0.61198044528E+01  0.61628679093E+01  0.10566000000E+00 0.  1.
         14    1    4    4    0    0  0.11777647767E+02 -0.77251998690E+00  0.10856008892E+03  0.10919982912E+03  0.00000000000E+00 0. -1.
<mgrwt>
<rscale>  0 0.79662423E+02</rscale>
<asrwt>0</asrwt>
<pdfrwt beam="1">  1        2 0.29858168E-01 0.79662423E+02</pdfrwt>
<pdfrwt beam="2">  1       -1 0.12576424E-02 0.79662423E+02</pdfrwt>
<totfact> 0.22075200E+05</totfact>
</mgrwt>
</event>
<event>
 8    1  0.2389776E-020  0.7467505E+02  0.7818608E-02  0.1344880E+00
          2   -1    0    0  501    0  0.00000000000E+00  0.00000000000E+00  0.55645126935E+02  0.55645126994E+02  0.25500000000E-02 0. -1.
         -1   -1    0    0    0  501 -0.00000000000E+00 -0.00000000000E+00 -0.25053243070E+02  0.25053243577E+02  0.50400000000E-02 0.  1.
         24    2    1    2    0    0  0.00000000000E+00  0.00000000000E+00  0.30591883865E+02  0.80698370571E+02  0.74675053762E+02 0.  0.
         66    2    3    3    0    0  0.26261922830E+02  0.20865423882E+02  0.32966061641E+02  0.47072452165E+02  0.20000070503E+01 0.  0.
        -13    1    3    3    0    0 -0.26261922830E+02 -0.20865423882E+02 -0.23741777761E+01  0.33625918406E+02  0.10566000000E+00 0.  1.
         13    1    4    4    0    0  0.10680893304E+02  0.89189411813E+01  0.12924814469E+02  0.18991866329E+02  0.10566000000E+00 0. -1.
        -13    1    4    4    0    0  0.56315368715E+01  0.50025943045E+01  0.74559013994E+01  0.10599140863E+02  0.10566000000E+00 0.  1.
        -14    1    4    4    0    0  0.99494926538E+01  0.69438883959E+01  0.12585345773E+02  0.17481444973E+02  0.00000000000E+00 0.  1.
<mgrwt>
<rscale>  0 0.74675054E+02</rscale>
<asrwt>0</asrwt>
<pdfrwt beam="1">  1        2 0.85607888E-02 0.74675054E+02</pdfrwt>
<pdfrwt beam="2">  1       -1 0.38543451E-02 0.74675054E+02</pdfrwt>
<totfact> 0.18446663E+05</totfact>
</mgrwt>
</event>
<event>
 8    1  0.2389776E-020  0.7635766E+02  0.7818608E-02  0.1339718E+00
          2   -1    0    0  501    0  0.00000000000E+00  0.00000000000E+00  0.16847194217E+02  0.16847194410E+02  0.25500000000E-02 0. -1.
         -1   -1    0    0    0  501 -0.00000000000E+00 -0.00000000000E+00 -0.86520218702E+02  0.86520218849E+02  0.50400000000E-02 0.  1.
         24    2    1    2    0    0  0.44408920985E-15  0.35527136788E-14 -0.69673024485E+02  0.10336741326E+03  0.76357657003E+02 0.  0.
         66    2    3    3    0    0  0.31306094385E+01  0.19720870562E+02  0.91494096686E+01  0.22055048018E+02  0.19999986517E+01 0.  0.
        -13    1    3    3    0    0 -0.31306094385E+01 -0.19720870562E+02 -0.78822434153E+02  0.81312365241E+02  0.10566000000E+00 0.  1.
         13    1    4    4    0    0  0.20238505407E+01  0.15163283398E+02  0.72333024192E+01  0.16921966858E+02  0.10566000000E+00 0. -1.
        -13    1    4    4    0    0  0.11382690893E+01  0.32665947272E+01  0.15402648682E+01  0.37881232202E+01  0.10566000000E+00 0.  1.
         14    1    4    4    0    0 -0.31510191505E-01  0.12909924371E+01  0.37584238123E+00  0.13449579400E+01  0.00000000000E+00 0. -1.
<mgrwt>
<rscale>  0 0.76357657E+02</rscale>
<asrwt>0</asrwt>
<pdfrwt beam="1">  1        2 0.25918761E-02 0.76357657E+02</pdfrwt>
<pdfrwt beam="2">  1       -1 0.13310803E-01 0.76357657E+02</pdfrwt>
<totfact> 0.13714051E+05</totfact>
</mgrwt>
</event>
<event>
 8    1  0.2389776E-020  0.8507559E+02  0.7818608E-02  0.1315235E+00
         -1   -1    0    0    0  501 -0.00000000000E+00  0.00000000000E+00  0.13558807793E+03  0.13558807802E+03  0.50400000000E-02 0.  1.
          2   -1    0    0  501    0  0.00000000000E+00 -0.00000000000E+00 -0.13345301885E+02  0.13345302129E+02  0.25500000000E-02 0. -1.
         24    2    1    2    0    0  0.00000000000E+00  0.00000000000E+00  0.12224277604E+03  0.14893338015E+03  0.85075586560E+02 0.  0.
         66    2    3    3    0    0  0.31199485748E+02 -0.23547626602E+02  0.31884935094E+02  0.50483142902E+02  0.20000004376E+01 0.  0.
        -13    1    3    3    0    0 -0.31199485748E+02  0.23547626602E+02  0.90357840950E+02  0.98450237250E+02  0.10566000000E+00 0.  1.
         13    1    4    4    0    0  0.11599783542E+02 -0.79663094109E+01  0.11270544289E+02  0.18029237268E+02  0.10566000000E+00 0. -1.
        -13    1    4    4    0    0  0.17014970931E+02 -0.13395902112E+02  0.18313015265E+02  0.28360837810E+02  0.10566000000E+00 0.  1.
        -14    1    4    4    0    0  0.25847312747E+01 -0.21854150787E+01  0.23013755407E+01  0.40930678236E+01  0.00000000000E+00 0.  1.
<mgrwt>
<rscale>  0 0.85075587E+02</rscale>
<asrwt>0</asrwt>
<pdfrwt beam="1">  1        2 0.20531235E-02 0.85075587E+02</pdfrwt>
<pdfrwt beam="2">  1       -1 0.20859703E-01 0.85075587E+02</pdfrwt>
<totfact> 0.94725783E+04</totfact>
</mgrwt>
</event>
<event>
 8    1  0.2389776E-020  0.7886460E+02  0.7818608E-02  0.1332305E+00
          2   -1    0    0  501    0  0.00000000000E+00  0.00000000000E+00  0.13746608964E+03  0.13746608966E+03  0.25500000000E-02 0. -1.
         -1   -1    0    0    0  501 -0.00000000000E+00 -0.00000000000E+00 -0.11311198699E+02  0.11311199822E+02  0.50400000000E-02 0.  1.
         24    2    1    2    0    0  0.17763568394E-14  0.00000000000E+00  0.12615489094E+03  0.14877728949E+03  0.78864601429E+02 0.  0.
         66    2    3    3    0    0  0.14226102134E+02  0.36493329885E+01  0.13210263440E+03  0.13293158251E+03  0.20000000251E+01 0.  0.
        -13    1    3    3    0    0 -0.14226102134E+02 -0.36493329885E+01 -0.59477434610E+01  0.15845706974E+02  0.10566000000E+00 0.  1.
         13    1    4    4    0    0  0.88182417525E+01  0.22826830497E+01  0.81462590869E+02  0.81970341616E+02  0.10566000000E+00 0. -1.
        -13    1    4    4    0    0  0.11739219379E+01  0.77993966005E+00  0.14750187090E+02  0.14817745504E+02  0.10566000000E+00 0.  1.
         14    1    4    4    0    0  0.42339384438E+01  0.58671027878E+00  0.35889856443E+02  0.36143495393E+02  0.00000000000E+00 0. -1.
<mgrwt>
<rscale>  0 0.78864601E+02</rscale>
<asrwt>0</asrwt>
<pdfrwt beam="1">  1        2 0.21148630E-01 0.78864601E+02</pdfrwt>
<pdfrwt beam="2">  1       -1 0.17401844E-02 0.78864601E+02</pdfrwt>
<totfact> 0.20235787E+05</totfact>
</mgrwt>
</event>
<event>
 8    1  0.2389776E-020  0.7912349E+02  0.7818608E-02  0.1331557E+00
         -1   -1    0    0    0  501 -0.00000000000E+00  0.00000000000E+00  0.81801459607E+02  0.81801459762E+02  0.50400000000E-02 0.  1.
          2   -1    0    0  501    0  0.00000000000E+00 -0.00000000000E+00 -0.19133296588E+02  0.19133296758E+02  0.25500000000E-02 0. -1.
         24    2    1    2    0    0  0.00000000000E+00  0.00000000000E+00  0.62668163019E+02  0.10093475652E+03  0.79123488407E+02 0.  0.
         66    2    3    3    0    0 -0.22548894287E+02  0.32397655693E+02  0.34225259869E+02  0.52282206417E+02  0.19999916819E+01 0.  0.
        -13    1    3    3    0    0  0.22548894287E+02 -0.32397655693E+02  0.28442903150E+02  0.48652550104E+02  0.10566000000E+00 0.  1.
         13    1    4    4    0    0 -0.54199734878E+01  0.81584554208E+01  0.81130145051E+01  0.12718831544E+02  0.10566000000E+00 0.  1.
        -13    1    4    4    0    0 -0.14809581857E+01  0.15037840549E+01  0.16129835241E+01  0.26584739073E+01  0.10566000000E+00 0. -1.
         14    1    4    4    0    0 -0.15647962613E+02  0.22735416217E+02  0.24499261840E+02  0.36904900965E+02  0.00000000000E+00 0. -1.
<mgrwt>
<rscale>  0 0.79123488E+02</rscale>
<asrwt>0</asrwt>
<pdfrwt beam="1">  1        2 0.29435841E-02 0.79123488E+02</pdfrwt>
<pdfrwt beam="2">  1       -1 0.12584840E-01 0.79123488E+02</pdfrwt>
<totfact> 0.12700830E+05</totfact>
</mgrwt>
</event>
<event>
 8    1  0.2389776E-020  0.8003533E+02  0.7818608E-02  0.1328951E+00
          2   -1    0    0  501    0  0.00000000000E+00  0.00000000000E+00  0.73363580736E+03  0.73363580737E+03  0.25500000000E-02 0. -1.
         -1   -1    0    0    0  501 -0.00000000000E+00 -0.00000000000E+00 -0.21828425540E+01  0.21828483725E+01  0.50400000000E-02 0.  1.
         24    2    1    2    0    0  0.00000000000E+00  0.00000000000E+00  0.73145296481E+03  0.73581865574E+03  0.80035332242E+02 0.  0.
         66    2    3    3    0    0  0.28483849514E+02 -0.57927354248E+01  0.61849140808E+03  0.61917728259E+03  0.19999860755E+01 0.  0.
        -13    1    3    3    0    0 -0.28483849514E+02  0.57927354248E+01  0.11296155673E+03  0.11664137315E+03  0.10566000000E+00 0.  1.
         13    1    4    4    0    0  0.10426642500E+02 -0.23805187952E+01  0.23988258851E+03  0.24012090533E+03  0.10566000000E+00 0. -1.
        -13    1    4    4    0    0  0.77965959741E+01 -0.99516824620E+00  0.15482220869E+03  0.15502162667E+03  0.10566000000E+00 0.  1.
        -14    1    4    4    0    0  0.10260611040E+02 -0.24170483835E+01  0.22378661087E+03  0.22403475058E+03  0.00000000000E+00 0.  1.
<mgrwt>
<rscale>  0 0.80035332E+02</rscale>
<asrwt>0</asrwt>
<pdfrwt beam="1">  1        2 0.11286717E+00 0.80035332E+02</pdfrwt>
<pdfrwt beam="2">  1       -1 0.33582201E-03 0.80035332E+02</pdfrwt>
<totfact> 0.33759952E+05</totfact>
</mgrwt>
</event>
<event>
 8    1  0.2389776E-020  0.8025948E+02  0.7818608E-02  0.1328317E+00
         -1   -1    0    0    0  501 -0.00000000000E+00  0.00000000000E+00  0.16243891533E+01  0.16243969721E+01  0.50400000000E-02 0.  1.
          2   -1    0    0  501    0  0.00000000000E+00 -0.00000000000E+00 -0.99138315691E+03  0.99138315691E+03  0.25500000000E-02 0. -1.
         24    2    1    2    0    0  0.35527136788E-14  0.00000000000E+00 -0.98975876776E+03  0.99300755388E+03  0.80259477461E+02 0.  0.
         66    2    3    3    0    0 -0.23639185343E+02 -0.10189702128E+01 -0.89582098244E+03  0.89613563815E+03  0.19999998290E+01 0.  0.
        -13    1    3    3    0    0  0.23639185343E+02  0.10189702128E+01 -0.93937785317E+02  0.96871915736E+02  0.10566000000E+00 0.  1.
         13    1    4    4    0    0 -0.59381658531E+01 -0.89468796037E+00 -0.23218049527E+03  0.23225816633E+03  0.10566000000E+00 0. -1.
        -13    1    4    4    0    0 -0.35293023013E+01  0.15955591225E+00 -0.14798793597E+03  0.14803013811E+03  0.10566000000E+00 0.  1.
         14    1    4    4    0    0 -0.14171717188E+02 -0.28383816464E+00 -0.51565255120E+03  0.51584733370E+03  0.00000000000E+00 0. -1.
<mgrwt>
<rscale>  0 0.80259477E+02</rscale>
<asrwt>0</asrwt>
<pdfrwt beam="1">  1        2 0.15252000E+00 0.80259477E+02</pdfrwt>
<pdfrwt beam="2">  1       -1 0.24990742E-03 0.80259477E+02</pdfrwt>
<totfact> 0.34922603E+05</totfact>
</mgrwt>
</event>
<event>
 8    1  0.2389776E-020  0.7921063E+02  0.7818608E-02  0.1331307E+00
          2   -1    0    0  501    0  0.00000000000E+00  0.00000000000E+00  0.26300524075E+02  0.26300524198E+02  0.25500000000E-02 0. -1.
         -1   -1    0    0    0  501 -0.00000000000E+00 -0.00000000000E+00 -0.59640678106E+02  0.59640678319E+02  0.50400000000E-02 0.  1.
         24    2    1    2    0    0 -0.71054273576E-14  0.00000000000E+00 -0.33340154031E+02  0.85941202517E+02  0.79210633246E+02 0.  0.
         66    2    3    3    0    0 -0.37985549541E+02  0.49560620265E+01 -0.58792699437E+01  0.38807606817E+02  0.20000017671E+01 0.  0.
        -13    1    3    3    0    0  0.37985549541E+02 -0.49560620265E+01 -0.27460884088E+02  0.47133595700E+02  0.10566000000E+00 0.  1.
         13    1    4    4    0    0 -0.99297055401E+01  0.17191547227E+01 -0.12551278603E+01  0.10155838471E+02  0.10566000000E+00 0. -1.
        -13    1    4    4    0    0 -0.24170029288E+02  0.23228901327E+01 -0.41080529122E+01  0.24626680595E+02  0.10566000000E+00 0.  1.
        -14    1    4    4    0    0 -0.38858147124E+01  0.91401717112E+00 -0.51608917120E+00  0.40250877507E+01  0.00000000000E+00 0.  1.
<mgrwt>
<rscale>  0 0.79210633E+02</rscale>
<asrwt>0</asrwt>
<pdfrwt beam="1">  1        2 0.40462345E-02 0.79210633E+02</pdfrwt>
<pdfrwt beam="2">  1       -1 0.91754889E-02 0.79210633E+02</pdfrwt>
<totfact> 0.13482743E+05</totfact>
</mgrwt>
</event>
<event>
 8    1  0.2389776E-020  0.7594153E+02  0.7818608E-02  0.1340980E+00
         -1   -1    0    0    0  501 -0.00000000000E+00  0.00000000000E+00  0.14971760427E+02  0.14971761276E+02  0.50400000000E-02 0.  1.
          2   -1    0    0  501    0  0.00000000000E+00 -0.00000000000E+00 -0.96299889090E+02  0.96299889124E+02  0.25500000000E-02 0. -1.
         24    2    1    2    0    0  0.00000000000E+00  0.00000000000E+00 -0.81328128662E+02  0.11127165040E+03  0.75941527973E+02 0.  0.
         66    2    3    3    0    0  0.26638241134E+02  0.23101419211E+02 -0.20152716115E+02  0.40662063765E+02  0.20000006242E+01 0.  0.
        -13    1    3    3    0    0 -0.26638241134E+02 -0.23101419211E+02 -0.61175412548E+02  0.70609586635E+02  0.10566000000E+00 0.  1.
         13    1    4    4    0    0  0.79478031151E+01  0.68672197123E+01 -0.61749224125E+01  0.12184708112E+02  0.10566000000E+00 0. -1.
        -13    1    4    4    0    0  0.17712799330E+02  0.15486410977E+02 -0.12853734259E+02  0.26810479919E+02  0.10566000000E+00 0.  1.
        -14    1    4    4    0    0  0.97763868936E+00  0.74778852175E+00 -0.11240594430E+01  0.16668757337E+01  0.00000000000E+00 0.  1.
<mgrwt>
<rscale>  0 0.75941528E+02</rscale>
<asrwt>0</asrwt>
<pdfrwt beam="1">  1        2 0.14815367E-01 0.75941528E+02</pdfrwt>
<pdfrwt beam="2">  1       -1 0.23033479E-02 0.75941528E+02</pdfrwt>
<totfact> 0.20160427E+05</totfact>
</mgrwt>
</event>
<event>
 8    1  0.2389776E-020  0.8073457E+02  0.7818608E-02  0.1326980E+00
         -1   -1    0    0    0  501 -0.00000000000E+00  0.00000000000E+00  0.32696860957E+01  0.32696899801E+01  0.50400000000E-02 0.  1.
          2   -1    0    0  501    0  0.00000000000E+00 -0.00000000000E+00 -0.49837101251E+03  0.49837101252E+03  0.25500000000E-02 0. -1.
         24    2    1    2    0    0  0.00000000000E+00 -0.35527136788E-14 -0.49510132641E+03  0.50164070250E+03  0.80734571183E+02 0.  0.
         66    2    3    3    0    0 -0.22947144912E+02  0.27887318897E+02 -0.35941289681E+03  0.36122832730E+03  0.20000095887E+01 0.  0.
        -13    1    3    3    0    0  0.22947144912E+02 -0.27887318897E+02 -0.13568842961E+03  0.14041237520E+03  0.10566000000E+00 0.  1.
         13    1    4    4    0    0 -0.15893151451E+02  0.19156836903E+02 -0.24968524739E+03  0.25092291763E+03  0.10566000000E+00 0. -1.
        -13    1    4    4    0    0 -0.60445762031E+01  0.68690066054E+01 -0.90583485879E+02  0.91044490394E+02  0.10566000000E+00 0.  1.
        -14    1    4    4    0    0 -0.10094172576E+01  0.18614753885E+01 -0.19144163536E+02  0.19260919275E+02  0.00000000000E+00 0.  1.
<mgrwt>
<rscale>  0 0.80734571E+02</rscale>
<asrwt>0</asrwt>
<pdfrwt beam="1">  1        2 0.76672403E-01 0.80734571E+02</pdfrwt>
<pdfrwt beam="2">  1       -1 0.50302933E-03 0.80734571E+02</pdfrwt>
<totfact> 0.29703237E+05</totfact>
</mgrwt>
</event>
<event>
 8    1  0.2389776E-020  0.7813035E+02  0.7818608E-02  0.1334443E+00
         -1   -1    0    0    0  501 -0.00000000000E+00  0.00000000000E+00  0.12399287853E+01  0.12399390284E+01  0.50400000000E-02 0.  1.
          2   -1    0    0  501    0  0.00000000000E+00 -0.00000000000E+00 -0.12307815809E+04  0.12307815809E+04  0.25500000000E-02 0. -1.
         24    2    1    2    0    0 -0.35527136788E-14 -0.17763568394E-14 -0.12295416521E+04  0.12320215200E+04  0.78130348063E+02 0.  0.
         66    2    3    3    0    0 -0.18462973848E+02  0.80315019838E+01 -0.11425902027E+04  0.11427693371E+04  0.19999994802E+01 0.  0.
        -13    1    3    3    0    0  0.18462973848E+02 -0.80315019838E+01 -0.86951449427E+02  0.89252182881E+02  0.10566000000E+00 0.  1.
         13    1    4    4    0    0 -0.98424638016E+01  0.48818304535E+01 -0.60792033180E+03  0.60801961099E+03  0.10566000000E+00 0. -1.
        -13    1    4    4    0    0 -0.79450475612E+01  0.25901509560E+01 -0.47755746729E+03  0.47763058778E+03  0.10566000000E+00 0.  1.
         14    1    4    4    0    0 -0.67546248508E+00  0.55952057430E+00 -0.57112403633E+02  0.57119138312E+02  0.00000000000E+00 0. -1.
<mgrwt>
<rscale>  0 0.78130348E+02</rscale>
<asrwt>0</asrwt>
<pdfrwt beam="1">  1        2 0.18935004E+00 0.78130348E+02</pdfrwt>
<pdfrwt beam="2">  1       -1 0.19076005E-03 0.78130348E+02</pdfrwt>
<totfact> 0.37138394E+05</totfact>
</mgrwt>
</event>
<event>
 8    1  0.2389776E-020  0.7999010E+02  0.7818608E-02  0.1329080E+00
          2   -1    0    0  501    0  0.00000000000E+00  0.00000000000E+00  0.46713708913E+02  0.46713708983E+02  0.25500000000E-02 0. -1.
         -1   -1    0    0    0  501 -0.00000000000E+00 -0.00000000000E+00 -0.34242707771E+02  0.34242708142E+02  0.50400000000E-02 0.  1.
         24    2    1    2    0    0  0.35527136788E-14  0.00000000000E+00  0.12471001143E+02  0.80956417125E+02  0.79990096913E+02 0.  0.
         66    2    3    3    0    0  0.22122819947E+02 -0.30035496102E+01  0.39793458247E+02  0.45672308819E+02  0.20000002376E+01 0.  0.
        -13    1    3    3    0    0 -0.22122819947E+02  0.30035496102E+01 -0.27322457104E+02  0.35284108306E+02  0.10566000000E+00 0.  1.
         13    1    4    4    0    0  0.11865552417E+02 -0.71315838644E+00  0.21265829081E+02  0.24362811406E+02  0.10566000000E+00 0.  1.
        -13    1    4    4    0    0  0.35068935475E+01 -0.71949626840E+00  0.57827636000E+01  0.68020214733E+01  0.10566000000E+00 0. -1.
        -14    1    4    4    0    0  0.67503739822E+01 -0.15708949553E+01  0.12744865566E+02  0.14507475940E+02  0.00000000000E+00 0.  1.
<mgrwt>
<rscale>  0 0.79990097E+02</rscale>
<asrwt>0</asrwt>
<pdfrwt beam="1">  1        2 0.71867244E-02 0.79990097E+02</pdfrwt>
<pdfrwt beam="2">  1       -1 0.52681090E-02 0.79990097E+02</pdfrwt>
<totfact> 0.14730653E+05</totfact>
</mgrwt>
</event>
<event>
 8    1  0.2389776E-020  0.8268958E+02  0.7818608E-02  0.1321588E+00
          2   -1    0    0  501    0  0.00000000000E+00  0.00000000000E+00  0.10651014445E+03  0.10651014448E+03  0.25500000000E-02 0. -1.
         -1   -1    0    0    0  501 -0.00000000000E+00 -0.00000000000E+00 -0.16049098191E+02  0.16049098983E+02  0.50400000000E-02 0.  1.
         24    2    1    2    0    0  0.00000000000E+00  0.00000000000E+00  0.90461046255E+02  0.12255924346E+03  0.82689583793E+02 0.  0.
         66    2    3    3    0    0  0.36402973811E+02  0.17381823720E+02  0.31993226446E+02  0.51525438723E+02  0.19999997702E+01 0.  0.
        -13    1    3    3    0    0 -0.36402973811E+02 -0.17381823720E+02  0.58467819808E+02  0.71033804736E+02  0.10566000000E+00 0.  1.
         13    1    4    4    0    0  0.26371112668E+02  0.12460398155E+02  0.23256773704E+02  0.37303964839E+02  0.10566000000E+00 0. -1.
        -13    1    4    4    0    0  0.60789280683E+01  0.35245944642E+01  0.55855755068E+01  0.89769677717E+01  0.10566000000E+00 0.  1.
         14    1    4    4    0    0  0.39529330746E+01  0.13968311014E+01  0.31508772356E+01  0.52445061132E+01  0.00000000000E+00 0. -1.
<mgrwt>
<rscale>  0 0.82689584E+02</rscale>
<asrwt>0</asrwt>
<pdfrwt beam="1">  1        2 0.16386176E-01 0.82689584E+02</pdfrwt>
<pdfrwt beam="2">  1       -1 0.24690921E-02 0.82689584E+02</pdfrwt>
<totfact> 0.16515090E+05</totfact>
</mgrwt>
</event>
<event>
 8    1  0.2389776E-020  0.7615777E+02  0.7818608E-02  0.1340323E+00
         -1   -1    0    0    0  501 -0.00000000000E+00  0.00000000000E+00  0.34583436287E+02  0.34583436654E+02  0.50400000000E-02 0.  1.
          2   -1    0    0  501    0  0.00000000000E+00 -0.00000000000E+00 -0.41927629669E+02  0.41927629747E+02  0.25500000000E-02 0. -1.
         24    2    1    2    0    0  0.35527136788E-14  0.00000000000E+00 -0.73441933824E+01  0.76511066401E+02  0.76157771142E+02 0.  0.
         66    2    3    3    0    0  0.24903806640E+02 -0.62102182227E+01 -0.31898188287E+02  0.40990984400E+02  0.19999976378E+01 0.  0.
        -13    1    3    3    0    0 -0.24903806640E+02  0.62102182227E+01  0.24553994904E+02  0.35520082001E+02  0.10566000000E+00 0.  1.
         13    1    4    4    0    0  0.52528381827E+01 -0.97889045522E+00 -0.76527532173E+01  0.93341486670E+01  0.10566000000E+00 0. -1.
        -13    1    4    4    0    0  0.15199341342E+02 -0.39558903568E+01 -0.19270122366E+02  0.24859964316E+02  0.10566000000E+00 0.  1.
        -14    1    4    4    0    0  0.44516271156E+01 -0.12754374106E+01 -0.49753127034E+01  0.67968714172E+01  0.00000000000E+00 0.  1.
<mgrwt>
<rscale>  0 0.76157771E+02</rscale>
<asrwt>0</asrwt>
<pdfrwt beam="1">  1        2 0.64504046E-02 0.76157771E+02</pdfrwt>
<pdfrwt beam="2">  1       -1 0.53205287E-02 0.76157771E+02</pdfrwt>
<totfact> 0.16479678E+05</totfact>
</mgrwt>
</event>
<event>
 8    1  0.2389776E-020  0.7772201E+02  0.7818608E-02  0.1335643E+00
         -1   -1    0    0    0  501 -0.00000000000E+00  0.00000000000E+00  0.27696290797E+01  0.27696336655E+01  0.50400000000E-02 0.  1.
          2   -1    0    0  501    0  0.00000000000E+00 -0.00000000000E+00 -0.54526309280E+03  0.54526309281E+03  0.25500000000E-02 0. -1.
         24    2    1    2    0    0 -0.88817841970E-15  0.00000000000E+00 -0.54249346372E+03  0.54803272647E+03  0.77722011712E+02 0.  0.
         66    2    3    3    0    0  0.57208689922E+01  0.30359964607E+02 -0.43734877456E+03  0.43844316212E+03  0.20000010466E+01 0.  0.
        -13    1    3    3    0    0 -0.57208689922E+01 -0.30359964607E+02 -0.10514468916E+03  0.10958956435E+03  0.10566000000E+00 0.  1.
         13    1    4    4    0    0  0.75888359326E+00  0.60943092888E+01 -0.77877890950E+02  0.78119738690E+02  0.10566000000E+00 0. -1.
        -13    1    4    4    0    0  0.89753853348E+00  0.37318835865E+01 -0.55331415572E+02  0.55464486329E+02  0.10566000000E+00 0.  1.
         14    1    4    4    0    0  0.40644468655E+01  0.20533771732E+02 -0.30413946804E+03  0.30485893710E+03  0.00000000000E+00 0. -1.
<mgrwt>
<rscale>  0 0.77722012E+02</rscale>
<asrwt>0</asrwt>
<pdfrwt beam="1">  1        2 0.83886544E-01 0.77722012E+02</pdfrwt>
<pdfrwt beam="2">  1       -1 0.42609757E-03 0.77722012E+02</pdfrwt>
<totfact> 0.33721835E+05</totfact>
</mgrwt>
</event>
<event>
 8    1  0.2389776E-020  0.7828560E+02  0.7818608E-02  0.1333988E+00
         -1   -1    0    0    0  501 -0.00000000000E+00  0.00000000000E+00  0.48615551785E+01  0.48615577910E+01  0.50400000000E-02 0.  1.
          2   -1    0    0  501    0  0.00000000000E+00 -0.00000000000E+00 -0.31515808619E+03  0.31515808620E+03  0.25500000000E-02 0. -1.
         24    2    1    2    0    0  0.00000000000E+00 -0.88817841970E-15 -0.31029653101E+03  0.32001964399E+03  0.78285601375E+02 0.  0.
         66    2    3    3    0    0  0.37108065936E+02 -0.70521765563E+01 -0.19681929458E+03  0.20042099808E+03  0.20000001566E+01 0.  0.
        -13    1    3    3    0    0 -0.37108065936E+02  0.70521765563E+01 -0.11347723643E+03  0.11959864591E+03  0.10566000000E+00 0.  1.
         13    1    4    4    0    0  0.61736654478E+01 -0.83630287458E+00 -0.29606032585E+02  0.30254617450E+02  0.10566000000E+00 0.  1.
        -13    1    4    4    0    0  0.14858939175E+02 -0.29055185519E+01 -0.77985292757E+02  0.79441470039E+02  0.10566000000E+00 0. -1.
        -14    1    4    4    0    0  0.16075461313E+02 -0.33103551298E+01 -0.89227969241E+02  0.90724910594E+02  0.00000000000E+00 0.  1.
<mgrwt>
<rscale>  0 0.78285601E+02</rscale>
<asrwt>0</asrwt>
<pdfrwt beam="1">  1        2 0.48485843E-01 0.78285601E+02</pdfrwt>
<pdfrwt beam="2">  1       -1 0.74793202E-03 0.78285601E+02</pdfrwt>
<totfact> 0.27466994E+05</totfact>
</mgrwt>
</event>
<event>
 8    1  0.2389776E-020  0.7996660E+02  0.7818608E-02  0.1329146E+00
         -1   -1    0    0    0  501 -0.00000000000E+00  0.00000000000E+00  0.10128710927E+02  0.10128712181E+02  0.50400000000E-02 0.  1.
          2   -1    0    0  501    0  0.00000000000E+00 -0.00000000000E+00 -0.15783492209E+03  0.15783492211E+03  0.25500000000E-02 0. -1.
         24    2    1    2    0    0  0.00000000000E+00 -0.17763568394E-14 -0.14770621116E+03  0.16796363429E+03  0.79966603205E+02 0.  0.
         66    2    3    3    0    0 -0.79332829792E+01  0.75223891670E+01 -0.15462581306E+03  0.15502472506E+03  0.19999993577E+01 0.  0.
        -13    1    3    3    0    0  0.79332829792E+01 -0.75223891670E+01  0.69196018991E+01  0.12938909231E+02  0.10566000000E+00 0.  1.
         13    1    4    4    0    0 -0.16668496509E+01  0.14218047958E+01 -0.26609396575E+02  0.26699645442E+02  0.10566000000E+00 0. -1.
        -13    1    4    4    0    0 -0.78691915792E-01  0.22952278355E+00 -0.87643587230E+01  0.87683533794E+01  0.10566000000E+00 0.  1.
        -14    1    4    4    0    0 -0.61877414125E+01  0.58710615877E+01 -0.11925205776E+03  0.11955672623E+03  0.00000000000E+00 0.  1.
<mgrwt>
<rscale>  0 0.79966603E+02</rscale>
<asrwt>0</asrwt>
<pdfrwt beam="1">  1        2 0.24282294E-01 0.79966603E+02</pdfrwt>
<pdfrwt beam="2">  1       -1 0.15582634E-02 0.79966603E+02</pdfrwt>
<totfact> 0.20386338E+05</totfact>
</mgrwt>
</event>
<event>
 8    1  0.2389776E-020  0.8127823E+02  0.7818608E-02  0.1325463E+00
          2   -1    0    0  501    0  0.00000000000E+00  0.00000000000E+00  0.64455439326E+02  0.64455439377E+02  0.25500000000E-02 0. -1.
         -1   -1    0    0    0  501 -0.00000000000E+00 -0.00000000000E+00 -0.25622939327E+02  0.25622939823E+02  0.50400000000E-02 0.  1.
         24    2    1    2    0    0  0.00000000000E+00  0.00000000000E+00  0.38832499999E+02  0.90078379200E+02  0.81278234129E+02 0.  0.
         66    2    3    3    0    0  0.22320503999E+02 -0.13048750931E+01  0.57005176753E+02  0.61265796147E+02  0.20000007621E+01 0.  0.
        -13    1    3    3    0    0 -0.22320503999E+02  0.13048750931E+01 -0.18172676754E+02  0.28812583053E+02  0.10566000000E+00 0.  1.
         13    1    4    4    0    0  0.76634821475E+01 -0.13641870105E+00  0.19840297815E+02  0.21269606252E+02  0.10566000000E+00 0. -1.
        -13    1    4    4    0    0  0.12198191826E+02 -0.15116680955E+01  0.30483464739E+02  0.32868431827E+02  0.10566000000E+00 0.  1.
        -14    1    4    4    0    0  0.24588300247E+01  0.34321170350E+00  0.66814141998E+01  0.71277580678E+01  0.00000000000E+00 0.  1.
<mgrwt>
<rscale>  0 0.81278234E+02</rscale>
<asrwt>0</asrwt>
<pdfrwt beam="1">  1        2 0.99162213E-02 0.81278234E+02</pdfrwt>
<pdfrwt beam="2">  1       -1 0.39419908E-02 0.81278234E+02</pdfrwt>
<totfact> 0.15161924E+05</totfact>
</mgrwt>
</event>
<event>
 8    1  0.2389776E-020  0.7912141E+02  0.7818608E-02  0.1331563E+00
          2   -1    0    0  501    0  0.00000000000E+00  0.00000000000E+00  0.39856865932E+02  0.39856866014E+02  0.25500000000E-02 0. -1.
         -1   -1    0    0    0  501 -0.00000000000E+00 -0.00000000000E+00 -0.39266743733E+02  0.39266744056E+02  0.50400000000E-02 0.  1.
         24    2    1    2    0    0  0.00000000000E+00 -0.35527136788E-14  0.59012219905E+00  0.79123610070E+02  0.79121409406E+02 0.  0.
         66    2    3    3    0    0 -0.30901600815E+02  0.24416037726E+02  0.37583752819E+01  0.39612841629E+02  0.20000014828E+01 0.  0.
        -13    1    3    3    0    0  0.30901600815E+02 -0.24416037726E+02 -0.31682530828E+01  0.39510768442E+02  0.10566000000E+00 0.  1.
         13    1    4    4    0    0 -0.26402744697E+02  0.20134000581E+02  0.33610956321E+01  0.33373507979E+02  0.10566000000E+00 0. -1.
        -13    1    4    4    0    0 -0.37669055596E+01  0.35666573678E+01  0.17266908011E+00  0.51914931302E+01  0.10566000000E+00 0.  1.
         14    1    4    4    0    0 -0.73195055922E+00  0.71537977751E+00  0.22461056970E+00  0.10478405199E+01  0.00000000000E+00 0. -1.
<mgrwt>
<rscale>  0 0.79121409E+02</rscale>
<asrwt>0</asrwt>
<pdfrwt beam="1">  1        2 0.61318256E-02 0.79121409E+02</pdfrwt>
<pdfrwt beam="2">  1       -1 0.60410375E-02 0.79121409E+02</pdfrwt>
<totfact> 0.14686010E+05</totfact>
</mgrwt>
</event>
<event>
 8    1  0.3369572E-020  0.7897623E+02  0.7818608E-02  0.1331982E+00
         -1   -1    0    0    0  501 -0.00000000000E+00  0.00000000000E+00  0.36260093657E+01  0.36260128684E+01  0.50400000000E-02 0.  1.
          2   -1    0    0  501    0  0.00000000000E+00 -0.00000000000E+00 -0.43003486062E+03  0.43003486062E+03  0.25500000000E-02 0. -1.
         24    2    1    2    0    0  0.00000000000E+00  0.00000000000E+00 -0.42640885125E+03  0.43366087349E+03  0.78976229166E+02 0.  0.
         66    2    3    3    0    0  0.32133044328E+02  0.91339626004E+01 -0.32869743458E+03  0.33039667872E+03  0.19999994933E+01 0.  0.
        -13    1    3    3    0    0 -0.32133044328E+02 -0.91339626004E+01 -0.97711416672E+02  0.10326419478E+03  0.10566000000E+00 0.  1.
         13    1    4    4    0    0  0.77041851121E+01  0.25598382496E+01 -0.76055673946E+02  0.76487802580E+02  0.10566000000E+00 0. -1.
        -13    1    4    4    0    0  0.90911327721E+00  0.40082817514E+00 -0.82089504987E+01  0.82695333909E+01  0.10566000000E+00 0. -1.
         14    1    4    4    0    0  0.23519745938E+02  0.61732961757E+01 -0.24443281013E+03  0.24563934275E+03  0.00000000000E+00 0. -1.
<mgrwt>
<rscale>  0 0.78976229E+02</rscale>
<asrwt>0</asrwt>
<pdfrwt beam="1">  1        2 0.66159169E-01 0.78976229E+02</pdfrwt>
<pdfrwt beam="2">  1       -1 0.55784821E-03 0.78976229E+02</pdfrwt>
<totfact> 0.29959600E+05</totfact>
</mgrwt>
</event>
<event>
 8    1  0.2389776E-020  0.7859161E+02  0.7818608E-02  0.1333096E+00
          2   -1    0    0  501    0  0.00000000000E+00  0.00000000000E+00  0.19618745173E+02  0.19618745338E+02  0.25500000000E-02 0. -1.
         -1   -1    0    0    0  501 -0.00000000000E+00 -0.00000000000E+00 -0.78708408894E+02  0.78708409055E+02  0.50400000000E-02 0.  1.
         24    2    1    2    0    0  0.00000000000E+00  0.00000000000E+00 -0.59089663721E+02  0.98327154394E+02  0.78591608537E+02 0.  0.
         66    2    3    3    0    0  0.18209267834E+02  0.85814701139E+01  0.12621796699E+02  0.23843842277E+02  0.19999995648E+01 0.  0.
        -13    1    3    3    0    0 -0.18209267834E+02 -0.85814701139E+01 -0.71711460420E+02  0.74483312117E+02  0.10566000000E+00 0.  1.
         13    1    4    4    0    0  0.12510901230E+02  0.50046219951E+01  0.84076504169E+01  0.15882966992E+02  0.10566000000E+00 0. -1.
        -13    1    4    4    0    0  0.23991020724E+01  0.14527845548E+01  0.14329254827E+01  0.31513034115E+01  0.10566000000E+00 0.  1.
         14    1    4    4    0    0  0.32992645318E+01  0.21240635640E+01  0.27812207990E+01  0.48095718736E+01  0.00000000000E+00 0. -1.
<mgrwt>
<rscale>  0 0.78591609E+02</rscale>
<asrwt>0</asrwt>
<pdfrwt beam="1">  1        2 0.30182685E-02 0.78591609E+02</pdfrwt>
<pdfrwt beam="2">  1       -1 0.12108986E-01 0.78591609E+02</pdfrwt>
<totfact> 0.13014363E+05</totfact>
</mgrwt>
</event>
<event>
 8    1  0.2389776E-020  0.8007364E+02  0.7818608E-02  0.1328843E+00
          2   -1    0    0  501    0  0.00000000000E+00  0.00000000000E+00  0.34256851576E+02  0.34256851671E+02  0.25500000000E-02 0. -1.
         -1   -1    0    0    0  501 -0.00000000000E+00 -0.00000000000E+00 -0.46792010163E+02  0.46792010435E+02  0.50400000000E-02 0.  1.
         24    2    1    2    0    0  0.00000000000E+00  0.17763568394E-14 -0.12535158587E+02  0.81048862106E+02  0.80073640156E+02 0.  0.
         66    2    3    3    0    0 -0.13639488717E+02 -0.15097724789E+02  0.28600478079E+02  0.35156284120E+02  0.20000051252E+01 0.  0.
        -13    1    3    3    0    0  0.13639488717E+02  0.15097724789E+02 -0.41135636666E+02  0.45892577986E+02  0.10566000000E+00 0.  1.
         13    1    4    4    0    0 -0.30257054992E+01 -0.29643629013E+01  0.48405050052E+01  0.64330392444E+01  0.10566000000E+00 0. -1.
        -13    1    4    4    0    0 -0.30821290255E+01 -0.40512717476E+01  0.73717425188E+01  0.89591335464E+01  0.10566000000E+00 0.  1.
        -14    1    4    4    0    0 -0.75316541920E+01 -0.80820901403E+01  0.16388230555E+02  0.19764111329E+02  0.00000000000E+00 0.  1.
<mgrwt>
<rscale>  0 0.80073640E+02</rscale>
<asrwt>0</asrwt>
<pdfrwt beam="1">  1        2 0.52702848E-02 0.80073640E+02</pdfrwt>
<pdfrwt beam="2">  1       -1 0.71987709E-02 0.80073640E+02</pdfrwt>
<totfact> 0.13779118E+05</totfact>
</mgrwt>
</event>
<event>
 8    1  0.2389776E-020  0.8113065E+02  0.7818608E-02  0.1325873E+00
         -1   -1    0    0    0  501 -0.00000000000E+00  0.00000000000E+00  0.28109862337E+02  0.28109862789E+02  0.50400000000E-02 0.  1.
          2   -1    0    0  501    0  0.00000000000E+00 -0.00000000000E+00 -0.58539795513E+02  0.58539795568E+02  0.25500000000E-02 0. -1.
         24    2    1    2    0    0  0.00000000000E+00  0.88817841970E-15 -0.30429933175E+02  0.86649658357E+02  0.81130650560E+02 0.  0.
         66    2    3    3    0    0 -0.27888814685E+02 -0.79069848936E+01 -0.45493530529E+02  0.53981179300E+02  0.20000009921E+01 0.  0.
        -13    1    3    3    0    0  0.27888814685E+02  0.79069848936E+01  0.15063597353E+02  0.32668479057E+02  0.10566000000E+00 0.  1.
         13    1    4    4    0    0 -0.33748630157E+01 -0.10514159246E+01 -0.53968785853E+01  0.64523358810E+01  0.10566000000E+00 0. -1.
        -13    1    4    4    0    0 -0.16806713082E+02 -0.51018418540E+01 -0.26231989971E+02  0.31569334120E+02  0.10566000000E+00 0.  1.
        -14    1    4    4    0    0 -0.77072385881E+01 -0.17537271149E+01 -0.13864661972E+02  0.15959509299E+02  0.00000000000E+00 0.  1.
<mgrwt>
<rscale>  0 0.81130651E+02</rscale>
<asrwt>0</asrwt>
<pdfrwt beam="1">  1        2 0.90061224E-02 0.81130651E+02</pdfrwt>
<pdfrwt beam="2">  1       -1 0.43245943E-02 0.81130651E+02</pdfrwt>
<totfact> 0.14897281E+05</totfact>
</mgrwt>
</event>
<event>
 8    1  0.2389776E-020  0.7922737E+02  0.7818608E-02  0.1331258E+00
         -1   -1    0    0    0  501 -0.00000000000E+00  0.00000000000E+00  0.14255567958E+02  0.14255568849E+02  0.50400000000E-02 0.  1.
          2   -1    0    0  501    0  0.00000000000E+00 -0.00000000000E+00 -0.11007937485E+03  0.11007937488E+03  0.25500000000E-02 0. -1.
         24    2    1    2    0    0  0.00000000000E+00  0.00000000000E+00 -0.95823806893E+02  0.12433494373E+03  0.79227370679E+02 0.  0.
         66    2    3    3    0    0 -0.13297693397E+02  0.21877432610E+02 -0.95329980514E+02  0.98728191967E+02  0.19999992751E+01 0.  0.
        -13    1    3    3    0    0  0.13297693397E+02 -0.21877432610E+02 -0.49382637901E+00  0.25606751762E+02  0.10566000000E+00 0.  1.
         13    1    4    4    0    0 -0.71106826598E+01  0.10198526915E+02 -0.45785485205E+02  0.47443583113E+02  0.10566000000E+00 0. -1.
        -13    1    4    4    0    0 -0.18175460271E+01  0.36478277252E+01 -0.13827262072E+02  0.14415771263E+02  0.10566000000E+00 0.  1.
         14    1    4    4    0    0 -0.43694647105E+01  0.80310779697E+01 -0.35717233237E+02  0.36868837591E+02  0.00000000000E+00 0. -1.
<mgrwt>
<rscale>  0 0.79227371E+02</rscale>
<asrwt>0</asrwt>
<pdfrwt beam="1">  1        2 0.16935288E-01 0.79227371E+02</pdfrwt>
<pdfrwt beam="2">  1       -1 0.21931645E-02 0.79227371E+02</pdfrwt>
<totfact> 0.18695972E+05</totfact>
</mgrwt>
</event>
<event>
 8    1  0.2389776E-020  0.7953648E+02  0.7818608E-02  0.1330372E+00
         -1   -1    0    0    0  501 -0.00000000000E+00  0.00000000000E+00  0.19081882520E+02  0.19081883186E+02  0.50400000000E-02 0.  1.
          2   -1    0    0  501    0  0.00000000000E+00 -0.00000000000E+00 -0.82880337277E+02  0.82880337316E+02  0.25500000000E-02 0. -1.
         24    2    1    2    0    0  0.00000000000E+00  0.00000000000E+00 -0.63798454757E+02  0.10196222050E+03  0.79536479557E+02 0.  0.
         66    2    3    3    0    0  0.11690737806E+02 -0.26521998464E+02 -0.66778586910E+02  0.72824923018E+02  0.19999975043E+01 0.  0.
        -13    1    3    3    0    0 -0.11690737806E+02  0.26521998464E+02  0.29801321526E+01  0.29137297484E+02  0.10566000000E+00 0.  1.
         13    1    4    4    0    0  0.50107772225E+01 -0.12634637981E+02 -0.30700065549E+02  0.33574501545E+02  0.10566000000E+00 0. -1.
        -13    1    4    4    0    0  0.32509236683E+01 -0.63180252751E+01 -0.15203878616E+02  0.16782581360E+02  0.10566000000E+00 0.  1.
         14    1    4    4    0    0  0.34290369150E+01 -0.75693352081E+01 -0.20874642744E+02  0.22467840113E+02  0.00000000000E+00 0. -1.
<mgrwt>
<rscale>  0 0.79536480E+02</rscale>
<asrwt>0</asrwt>
<pdfrwt beam="1">  1        2 0.12750821E-01 0.79536480E+02</pdfrwt>
<pdfrwt beam="2">  1       -1 0.29356743E-02 0.79536480E+02</pdfrwt>
<totfact> 0.17114732E+05</totfact>
</mgrwt>
</event>
<event>
 8    1  0.2389776E-020  0.7843711E+02  0.7818608E-02  0.1333546E+00
          2   -1    0    0  501    0  0.00000000000E+00  0.00000000000E+00  0.89413228131E+01  0.89413231767E+01  0.25500000000E-02 0. -1.
         -1   -1    0    0    0  501 -0.00000000000E+00 -0.00000000000E+00 -0.17202097729E+03  0.17202097737E+03  0.50400000000E-02 0.  1.
         24    2    1    2    0    0  0.00000000000E+00  0.00000000000E+00 -0.16307965448E+03  0.18096230054E+03  0.78437111833E+02 0.  0.
         66    2    3    3    0    0 -0.38442677119E+02  0.24341183008E+01 -0.64903912280E+02  0.75500213154E+02  0.20000002643E+01 0.  0.
        -13    1    3    3    0    0  0.38442677119E+02 -0.24341183008E+01 -0.98175742199E+02  0.10546208739E+03  0.10566000000E+00 0.  1.
         13    1    4    4    0    0 -0.14745760003E+02  0.13576752339E+01 -0.23523908924E+02  0.27796873479E+02  0.10566000000E+00 0. -1.
        -13    1    4    4    0    0 -0.13217527438E+02  0.22147419160E+00 -0.23071767507E+02  0.26590782281E+02  0.10566000000E+00 0.  1.
         14    1    4    4    0    0 -0.10479389678E+02  0.85496887533E+00 -0.18308235849E+02  0.21112557394E+02  0.00000000000E+00 0. -1.
<mgrwt>
<rscale>  0 0.78437112E+02</rscale>
<asrwt>0</asrwt>
<pdfrwt beam="1">  1        2 0.13755883E-02 0.78437112E+02</pdfrwt>
<pdfrwt beam="2">  1       -1 0.26464763E-01 0.78437112E+02</pdfrwt>
<totfact> 0.10936921E+05</totfact>
</mgrwt>
</event>
<event>
 8    1  0.2389776E-020  0.8319291E+02  0.7818608E-02  0.1320227E+00
         -1   -1    0    0    0  501 -0.00000000000E+00  0.00000000000E+00  0.14098873055E+02  0.14098873956E+02  0.50400000000E-02 0.  1.
          2   -1    0    0  501    0  0.00000000000E+00 -0.00000000000E+00 -0.12272363770E+03  0.12272363773E+03  0.25500000000E-02 0. -1.
         24    2    1    2    0    0  0.11102230246E-15  0.00000000000E+00 -0.10862476464E+03  0.13682251168E+03  0.83192909606E+02 0.  0.
         66    2    3    3    0    0  0.65226226121E+00  0.41269731753E+02 -0.46179263225E+02  0.61968867705E+02  0.20000019113E+01 0.  0.
        -13    1    3    3    0    0 -0.65226226121E+00 -0.41269731753E+02 -0.62445501420E+02  0.74853643977E+02  0.10566000000E+00 0.  1.
         13    1    4    4    0    0  0.26948653289E+00  0.80213747302E+00 -0.92395037482E+00  0.12573368076E+01  0.10566000000E+00 0. -1.
        -13    1    4    4    0    0  0.63841526737E-01  0.68528895960E+01 -0.76141187133E+01  0.10244615140E+02  0.10566000000E+00 0. -1.
         14    1    4    4    0    0  0.31893420158E+00  0.33614704684E+02 -0.37641194137E+02  0.50466915757E+02  0.00000000000E+00 0. -1.
<mgrwt>
<rscale>  0 0.83192910E+02</rscale>
<asrwt>0</asrwt>
<pdfrwt beam="1">  1        2 0.18880559E-01 0.83192910E+02</pdfrwt>
<pdfrwt beam="2">  1       -1 0.21690576E-02 0.83192910E+02</pdfrwt>
<totfact> 0.16945509E+05</totfact>
</mgrwt>
</event>
<event>
 8    1  0.2389776E-020  0.8611984E+02  0.7818608E-02  0.1312530E+00
          2   -1    0    0  501    0  0.00000000000E+00  0.00000000000E+00  0.91650726181E+01  0.91650729729E+01  0.25500000000E-02 0. -1.
         -1   -1    0    0    0  501 -0.00000000000E+00 -0.00000000000E+00 -0.20230679732E+03  0.20230679738E+03  0.50400000000E-02 0.  1.
         24    2    1    2    0    0 -0.17763568394E-14  0.00000000000E+00 -0.19314172470E+03  0.21147187036E+03  0.86119835874E+02 0.  0.
         66    2    3    3    0    0 -0.13191322940E+02  0.26065669621E+02 -0.19021039242E+02  0.34917475331E+02  0.20000039748E+01 0.  0.
        -13    1    3    3    0    0  0.13191322940E+02 -0.26065669621E+02 -0.17412068546E+03  0.17655439503E+03  0.10566000000E+00 0.  1.
         13    1    4    4    0    0 -0.41019899135E+01  0.92108557451E+01 -0.73005586112E+01  0.12448915811E+02  0.10566000000E+00 0. -1.
        -13    1    4    4    0    0 -0.57695429588E+01  0.98129994115E+01 -0.68921468634E+01  0.13307720910E+02  0.10566000000E+00 0.  1.
         14    1    4    4    0    0 -0.33197900676E+01  0.70418144647E+01 -0.48283337678E+01  0.91608386090E+01  0.00000000000E+00 0. -1.
<mgrwt>
<rscale>  0 0.86119836E+02</rscale>
<asrwt>0</asrwt>
<pdfrwt beam="1">  1        2 0.14100113E-02 0.86119836E+02</pdfrwt>
<pdfrwt beam="2">  1       -1 0.31124120E-01 0.86119836E+02</pdfrwt>
<totfact> 0.82253458E+04</totfact>
</mgrwt>
</event>
<event>
 8    1  0.2389776E-020  0.7878002E+02  0.7818608E-02  0.1332550E+00
          2   -1    0    0  501    0  0.00000000000E+00  0.00000000000E+00  0.22034200320E+03  0.22034200321E+03  0.25500000000E-02 0. -1.
         -1   -1    0    0    0  501 -0.00000000000E+00 -0.00000000000E+00 -0.70416556078E+01  0.70416574114E+01  0.50400000000E-02 0.  1.
         24    2    1    2    0    0  0.00000000000E+00  0.00000000000E+00  0.21330034759E+03  0.22738366062E+03  0.78780015465E+02 0.  0.
         66    2    3    3    0    0 -0.36639449255E+02  0.30953103282E+01  0.14728526718E+03  0.15181890565E+03  0.19999996958E+01 0.  0.
        -13    1    3    3    0    0  0.36639449255E+02 -0.30953103282E+01  0.66015080413E+02  0.75564754970E+02  0.10566000000E+00 0.  1.
         13    1    4    4    0    0 -0.25544718494E+02  0.22311856511E+01  0.10349305933E+03  0.10662239599E+03  0.10566000000E+00 0. -1.
        -13    1    4    4    0    0 -0.75882429709E+01  0.84419649698E+00  0.31654009205E+02  0.32561964957E+02  0.10566000000E+00 0.  1.
         14    1    4    4    0    0 -0.35064877904E+01  0.19928180099E-01  0.12138198643E+02  0.12634544711E+02  0.00000000000E+00 0. -1.
<mgrwt>
<rscale>  0 0.78780015E+02</rscale>
<asrwt>0</asrwt>
<pdfrwt beam="1">  1        2 0.33898766E-01 0.78780015E+02</pdfrwt>
<pdfrwt beam="2">  1       -1 0.10833319E-02 0.78780015E+02</pdfrwt>
<totfact> 0.23761719E+05</totfact>
</mgrwt>
</event>
<event>
 8    1  0.2389776E-020  0.8094192E+02  0.7818608E-02  0.1326399E+00
         -1   -1    0    0    0  501 -0.00000000000E+00  0.00000000000E+00  0.18660539691E+01  0.18660607753E+01  0.50400000000E-02 0.  1.
          2   -1    0    0  501    0  0.00000000000E+00 -0.00000000000E+00 -0.87773211585E+03  0.87773211585E+03  0.25500000000E-02 0. -1.
         24    2    1    2    0    0  0.00000000000E+00  0.00000000000E+00 -0.87586606188E+03  0.87959817663E+03  0.80941917288E+02 0.  0.
         66    2    3    3    0    0  0.13574268780E+02  0.31658042062E+02 -0.66857071405E+03  0.66946044847E+03  0.19999945150E+01 0.  0.
        -13    1    3    3    0    0 -0.13574268780E+02 -0.31658042062E+02 -0.20729534783E+03  0.21013772816E+03  0.10566000000E+00 0.  1.
         13    1    4    4    0    0  0.33957584074E+01  0.98026664989E+01 -0.19895767625E+03  0.19922798887E+03  0.10566000000E+00 0. -1.
        -13    1    4    4    0    0  0.27322583969E+01  0.56665966672E+01 -0.13046346579E+03  0.13061509340E+03  0.10566000000E+00 0.  1.
         14    1    4    4    0    0  0.74462519760E+01  0.16188778896E+02 -0.33914957200E+03  0.33961736619E+03  0.00000000000E+00 0. -1.
<mgrwt>
<rscale>  0 0.80941917E+02</rscale>
<asrwt>0</asrwt>
<pdfrwt beam="1">  1        2 0.13503538E+00 0.80941917E+02</pdfrwt>
<pdfrwt beam="2">  1       -1 0.28708645E-03 0.80941917E+02</pdfrwt>
<totfact> 0.33800246E+05</totfact>
</mgrwt>
</event>
<event>
 8    1  0.2389776E-020  0.8211450E+02  0.7818608E-02  0.1323156E+00
         -1   -1    0    0    0  501 -0.00000000000E+00  0.00000000000E+00  0.58277256056E+01  0.58277277850E+01  0.50400000000E-02 0.  1.
          2   -1    0    0  501    0  0.00000000000E+00 -0.00000000000E+00 -0.28925478026E+03  0.28925478027E+03  0.25500000000E-02 0. -1.
         24    2    1    2    0    0  0.00000000000E+00  0.00000000000E+00 -0.28342705465E+03  0.29508250805E+03  0.82114500855E+02 0.  0.
         66    2    3    3    0    0 -0.20003445362E+02  0.20865691668E+02 -0.24645407284E+03  0.24815141534E+03  0.20000002213E+01 0.  0.
        -13    1    3    3    0    0  0.20003445362E+02 -0.20865691668E+02 -0.36972981810E+02  0.46931092711E+02  0.10566000000E+00 0.  1.
         13    1    4    4    0    0 -0.13301450883E+02  0.14418855387E+02 -0.17351940832E+03  0.17462482130E+03  0.10566000000E+00 0. -1.
        -13    1    4    4    0    0 -0.45593920033E+01  0.46518339566E+01 -0.51608681745E+02  0.52018216137E+02  0.10566000000E+00 0.  1.
        -14    1    4    4    0    0 -0.21426024760E+01  0.17950023247E+01 -0.21325982779E+02  0.21508377908E+02  0.00000000000E+00 0.  1.
<mgrwt>
<rscale>  0 0.82114501E+02</rscale>
<asrwt>0</asrwt>
<pdfrwt beam="1">  1        2 0.44500724E-01 0.82114501E+02</pdfrwt>
<pdfrwt beam="2">  1       -1 0.89657357E-03 0.82114501E+02</pdfrwt>
<totfact> 0.23493638E+05</totfact>
</mgrwt>
</event>
<event>
 8    1  0.2389776E-020  0.8031302E+02  0.7818608E-02  0.1328165E+00
          2   -1    0    0  501    0  0.00000000000E+00  0.00000000000E+00  0.19349209033E+02  0.19349209201E+02  0.25500000000E-02 0. -1.
         -1   -1    0    0    0  501 -0.00000000000E+00 -0.00000000000E+00 -0.83339070349E+02  0.83339070501E+02  0.50400000000E-02 0.  1.
         24    2    1    2    0    0 -0.35527136788E-14  0.00000000000E+00 -0.63989861316E+02  0.10268827970E+03  0.80313015364E+02 0.  0.
         66    2    3    3    0    0  0.24839601114E+02 -0.27046120702E+02 -0.52712324831E+02  0.64273537457E+02  0.19999999263E+01 0.  0.
        -13    1    3    3    0    0 -0.24839601114E+02  0.27046120702E+02 -0.11277536486E+02  0.38414742245E+02  0.10566000000E+00 0.  1.
         13    1    4    4    0    0  0.66591430358E+01 -0.62704775604E+01 -0.13709849505E+02  0.16481329203E+02  0.10566000000E+00 0. -1.
        -13    1    4    4    0    0  0.14668217014E+02 -0.16245806212E+02 -0.30789476412E+02  0.37776789589E+02  0.10566000000E+00 0.  1.
        -14    1    4    4    0    0  0.35122410633E+01 -0.45298369295E+01 -0.82129989134E+01  0.10015418666E+02  0.00000000000E+00 0.  1.
<mgrwt>
<rscale>  0 0.80313015E+02</rscale>
<asrwt>0</asrwt>
<pdfrwt beam="1">  1        2 0.29768015E-02 0.80313015E+02</pdfrwt>
<pdfrwt beam="2">  1       -1 0.12821395E-01 0.80313015E+02</pdfrwt>
<totfact> 0.12194724E+05</totfact>
</mgrwt>
</event>
<event>
 8    1  0.2389776E-020  0.7816534E+02  0.7818608E-02  0.1334340E+00
         -1   -1    0    0    0  501 -0.00000000000E+00  0.00000000000E+00  0.21874217282E+03  0.21874217288E+03  0.50400000000E-02 0.  1.
          2   -1    0    0  501    0  0.00000000000E+00 -0.00000000000E+00 -0.69829023328E+01  0.69829027984E+01  0.25500000000E-02 0. -1.
         24    2    1    2    0    0  0.00000000000E+00 -0.35527136788E-14  0.21175927049E+03  0.22572507568E+03  0.78165344955E+02 0.  0.
         66    2    3    3    0    0  0.35617782856E+02  0.12782904664E+02  0.78036923906E+02  0.86751314677E+02  0.19999995516E+01 0.  0.
        -13    1    3    3    0    0 -0.35617782856E+02 -0.12782904664E+02  0.13372234658E+03  0.13897376100E+03  0.10566000000E+00 0.  1.
         13    1    4    4    0    0  0.12292422415E+02  0.38733682882E+01  0.27166897014E+02  0.30069221609E+02  0.10566000000E+00 0. -1.
        -13    1    4    4    0    0  0.90200194726E+00  0.49610234899E+00  0.17169726543E+01  0.20047154872E+01  0.10566000000E+00 0. -1.
        -14    1    4    4    0    0  0.22423358494E+02  0.84134340269E+01  0.49153054237E+02  0.54677377581E+02  0.00000000000E+00 0.  1.
<mgrwt>
<rscale>  0 0.78165345E+02</rscale>
<asrwt>0</asrwt>
<pdfrwt beam="1">  1        2 0.10742927E-02 0.78165345E+02</pdfrwt>
<pdfrwt beam="2">  1       -1 0.33652643E-01 0.78165345E+02</pdfrwt>
<totfact> 0.10276266E+05</totfact>
</mgrwt>
</event>
<event>
 8    1  0.2389776E-020  0.7885526E+02  0.7818608E-02  0.1332332E+00
          2   -1    0    0  501    0  0.00000000000E+00  0.00000000000E+00  0.16200873691E+03  0.16200873693E+03  0.25500000000E-02 0. -1.
         -1   -1    0    0    0  501 -0.00000000000E+00 -0.00000000000E+00 -0.95953958596E+01  0.95953971832E+01  0.50400000000E-02 0.  1.
         24    2    1    2    0    0  0.00000000000E+00  0.00000000000E+00  0.15241334105E+03  0.17160413411E+03  0.78855261807E+02 0.  0.
         66    2    3    3    0    0  0.85440264229E+01 -0.94432597920E+01  0.15740028674E+03  0.15792728015E+03  0.20000012725E+01 0.  0.
        -13    1    3    3    0    0 -0.85440264229E+01  0.94432597920E+01 -0.49869456927E+01  0.13676853965E+02  0.10566000000E+00 0.  1.
         13    1    4    4    0    0  0.22100759015E+01 -0.21961789929E+01  0.39361274526E+02  0.39484537911E+02  0.10566000000E+00 0. -1.
        -13    1    4    4    0    0  0.23903050241E+01 -0.17715927558E+01  0.41655460213E+02  0.41761712472E+02  0.10566000000E+00 0.  1.
        -14    1    4    4    0    0  0.39436454973E+01 -0.54754880433E+01  0.76383552003E+02  0.76681029764E+02  0.00000000000E+00 0.  1.
<mgrwt>
<rscale>  0 0.78855262E+02</rscale>
<asrwt>0</asrwt>
<pdfrwt beam="1">  1        2 0.24924421E-01 0.78855262E+02</pdfrwt>
<pdfrwt beam="2">  1       -1 0.14762148E-02 0.78855262E+02</pdfrwt>
<totfact> 0.21337737E+05</totfact>
</mgrwt>
</event>
<event>
 8    1  0.2389776E-020  0.7910022E+02  0.7818608E-02  0.1331624E+00
          2   -1    0    0  501    0  0.00000000000E+00  0.00000000000E+00  0.77333174941E+03  0.77333174942E+03  0.25500000000E-02 0. -1.
         -1   -1    0    0    0  501 -0.00000000000E+00 -0.00000000000E+00 -0.20226878832E+01  0.20226941623E+01  0.50400000000E-02 0.  1.
         24    2    1    2    0    0 -0.35527136788E-14  0.88817841970E-15  0.77130906153E+03  0.77535444358E+03  0.79100219851E+02 0.  0.
         66    2    3    3    0    0 -0.23491806746E+02  0.43620356975E+01  0.69452332099E+03  0.69493707323E+03  0.20000027977E+01 0.  0.
        -13    1    3    3    0    0  0.23491806746E+02 -0.43620356975E+01  0.76785740542E+02  0.80417370351E+02  0.10566000000E+00 0.  1.
         13    1    4    4    0    0 -0.31072051141E+01  0.50165323790E+00  0.82512704762E+02  0.82572779963E+02  0.10566000000E+00 0. -1.
        -13    1    4    4    0    0 -0.11526159818E+02  0.28902364515E+01  0.36101727703E+03  0.36121280612E+03  0.10566000000E+00 0.  1.
        -14    1    4    4    0    0 -0.88584418137E+01  0.97014600804E+00  0.25099333919E+03  0.25115148714E+03  0.00000000000E+00 0.  1.
<mgrwt>
<rscale>  0 0.79100220E+02</rscale>
<asrwt>0</asrwt>
<pdfrwt beam="1">  1        2 0.11897423E+00 0.79100220E+02</pdfrwt>
<pdfrwt beam="2">  1       -1 0.31118295E-03 0.79100220E+02</pdfrwt>
<totfact> 0.35174219E+05</totfact>
</mgrwt>
</event>
<event>
 8    1  0.2389776E-020  0.7913318E+02  0.7818608E-02  0.1331529E+00
          2   -1    0    0  501    0  0.00000000000E+00  0.00000000000E+00  0.55675449237E+03  0.55675449238E+03  0.25500000000E-02 0. -1.
         -1   -1    0    0    0  501 -0.00000000000E+00 -0.00000000000E+00 -0.28118564733E+01  0.28118609902E+01  0.50400000000E-02 0.  1.
         24    2    1    2    0    0  0.00000000000E+00 -0.35527136788E-14  0.55394263590E+03  0.55956635337E+03  0.79133178599E+02 0.  0.
         66    2    3    3    0    0  0.53618167301E+01  0.19156553125E+02  0.51879111283E+03  0.51917621417E+03  0.20000006826E+01 0.  0.
        -13    1    3    3    0    0 -0.53618167301E+01 -0.19156553125E+02  0.35151523066E+02  0.40390139195E+02  0.10566000000E+00 0.  1.
         13    1    4    4    0    0 -0.41291721402E-01  0.11376985355E+01  0.26297978449E+02  0.26322820850E+02  0.10566000000E+00 0. -1.
        -13    1    4    4    0    0  0.15353726474E+01  0.36662867888E+01  0.10318564866E+03  0.10326223066E+03  0.10566000000E+00 0.  1.
         14    1    4    4    0    0  0.38677358041E+01  0.14352567801E+02  0.38930748573E+03  0.38959116266E+03  0.00000000000E+00 0. -1.
<mgrwt>
<rscale>  0 0.79133179E+02</rscale>
<asrwt>0</asrwt>
<pdfrwt beam="1">  1        2 0.85654524E-01 0.79133179E+02</pdfrwt>
<pdfrwt beam="2">  1       -1 0.43259372E-03 0.79133179E+02</pdfrwt>
<totfact> 0.32382869E+05</totfact>
</mgrwt>
</event>
<event>
 8    1  0.2389776E-020  0.8283546E+02  0.7818608E-02  0.1321192E+00
         -1   -1    0    0    0  501 -0.00000000000E+00  0.00000000000E+00  0.13816339152E+03  0.13816339161E+03  0.50400000000E-02 0.  1.
          2   -1    0    0  501    0  0.00000000000E+00 -0.00000000000E+00 -0.12415940260E+02  0.12415940522E+02  0.25500000000E-02 0. -1.
         24    2    1    2    0    0  0.00000000000E+00  0.00000000000E+00  0.12574745126E+03  0.15057933213E+03  0.82835462015E+02 0.  0.
         66    2    3    3    0    0  0.69299293124E+01 -0.24156038641E+02  0.31187433943E+01  0.25402060714E+02  0.20000012740E+01 0.  0.
        -13    1    3    3    0    0 -0.69299293124E+01  0.24156038641E+02  0.12262870786E+03  0.12517727142E+03  0.10566000000E+00 0.  1.
         13    1    4    4    0    0  0.28812820592E+01 -0.87501959167E+01  0.12704454062E+01  0.93001564745E+01  0.10566000000E+00 0. -1.
        -13    1    4    4    0    0  0.14429946419E+01 -0.67717120227E+01  0.14477126144E+01  0.70742740338E+01  0.10566000000E+00 0.  1.
         14    1    4    4    0    0  0.26056526113E+01 -0.86341307013E+01  0.40058537365E+00  0.90276302061E+01  0.00000000000E+00 0. -1.
<mgrwt>
<rscale>  0 0.82835462E+02</rscale>
<asrwt>0</asrwt>
<pdfrwt beam="1">  1        2 0.19101446E-02 0.82835462E+02</pdfrwt>
<pdfrwt beam="2">  1       -1 0.21255908E-01 0.82835462E+02</pdfrwt>
<totfact> 0.10084986E+05</totfact>
</mgrwt>
</event>
<event>
 8    1  0.2389776E-020  0.8091981E+02  0.7818608E-02  0.1326461E+00
          2   -1    0    0  501    0  0.00000000000E+00  0.00000000000E+00  0.32375993002E+03  0.32375993003E+03  0.25500000000E-02 0. -1.
         -1   -1    0    0    0  501 -0.00000000000E+00 -0.00000000000E+00 -0.50562263022E+01  0.50562288141E+01  0.50400000000E-02 0.  1.
         24    2    1    2    0    0  0.00000000000E+00  0.00000000000E+00  0.31870370372E+03  0.32881615885E+03  0.80919809402E+02 0.  0.
         66    2    3    3    0    0  0.37632662746E+02 -0.76714149216E+01  0.21083726850E+03  0.21431617229E+03  0.20000001532E+01 0.  0.
        -13    1    3    3    0    0 -0.37632662746E+02  0.76714149216E+01  0.10786643522E+03  0.11449998656E+03  0.10566000000E+00 0.  1.
         13    1    4    4    0    0  0.12864147030E+02 -0.33590109197E+01  0.73277183055E+02  0.74473659462E+02  0.10566000000E+00 0.  1.
        -13    1    4    4    0    0  0.98201024076E+01 -0.12713562095E+01  0.52755754569E+02  0.53677104636E+02  0.10566000000E+00 0. -1.
         14    1    4    4    0    0  0.14948413308E+02 -0.30410477923E+01  0.84804330880E+02  0.86165408188E+02  0.00000000000E+00 0. -1.
<mgrwt>
<rscale>  0 0.80919809E+02</rscale>
<asrwt>0</asrwt>
<pdfrwt beam="1">  1        2 0.49809227E-01 0.80919809E+02</pdfrwt>
<pdfrwt beam="2">  1       -1 0.77788105E-03 0.80919809E+02</pdfrwt>
<totfact> 0.25432918E+05</totfact>
</mgrwt>
</event>
<event>
 8    1  0.2389776E-020  0.8197508E+02  0.7818608E-02  0.1323538E+00
          2   -1    0    0  501    0  0.00000000000E+00  0.00000000000E+00  0.18915044561E+03  0.18915044562E+03  0.25500000000E-02 0. -1.
         -1   -1    0    0    0  501 -0.00000000000E+00 -0.00000000000E+00 -0.88817043871E+01  0.88817058171E+01  0.50400000000E-02 0.  1.
         24    2    1    2    0    0  0.17763568394E-14 -0.71054273576E-14  0.18026874122E+03  0.19803215144E+03  0.81975081234E+02 0.  0.
         66    2    3    3    0    0 -0.94117242393E+01  0.33544437180E+02  0.38141625079E+02  0.51697131280E+02  0.20000000300E+01 0.  0.
        -13    1    3    3    0    0  0.94117242393E+01 -0.33544437180E+02  0.14212711614E+03  0.14633502016E+03  0.10566000000E+00 0.  1.
         13    1    4    4    0    0 -0.10234571596E+01  0.25010938071E+01  0.30681062238E+01  0.40899113225E+01  0.10566000000E+00 0. -1.
        -13    1    4    4    0    0 -0.14117994532E+01  0.54283321244E+01  0.53168822237E+01  0.77291893472E+01  0.10566000000E+00 0.  1.
         14    1    4    4    0    0 -0.69764676265E+01  0.25615011248E+02  0.29756636631E+02  0.39878030611E+02  0.00000000000E+00 0. -1.
<mgrwt>
<rscale>  0 0.81975081E+02</rscale>
<asrwt>0</asrwt>
<pdfrwt beam="1">  1        2 0.29100067E-01 0.81975081E+02</pdfrwt>
<pdfrwt beam="2">  1       -1 0.13664162E-02 0.81975081E+02</pdfrwt>
<totfact> 0.20286159E+05</totfact>
</mgrwt>
</event>
<event>
 8    1  0.2389776E-020  0.8573568E+02  0.7818608E-02  0.1313520E+00
         -1   -1    0    0    0  501 -0.00000000000E+00  0.00000000000E+00  0.42932048523E+01  0.42932078106E+01  0.50400000000E-02 0.  1.
          2   -1    0    0  501    0  0.00000000000E+00 -0.00000000000E+00 -0.42803711229E+03  0.42803711229E+03  0.25500000000E-02 0. -1.
         24    2    1    2    0    0  0.00000000000E+00  0.35527136788E-14 -0.42374390743E+03  0.43233032010E+03  0.85735678654E+02 0.  0.
         66    2    3    3    0    0  0.26894342006E+02 -0.28815477234E+02 -0.29666788907E+03  0.29928159607E+03  0.19999950655E+01 0.  0.
        -13    1    3    3    0    0 -0.26894342006E+02  0.28815477234E+02 -0.12707601836E+03  0.13304872403E+03  0.10566000000E+00 0.  1.
         13    1    4    4    0    0  0.14597106836E+02 -0.16427700598E+02 -0.16475536927E+03  0.16621458342E+03  0.10566000000E+00 0. -1.
        -13    1    4    4    0    0  0.77019267391E+01 -0.76206273314E+01 -0.85826588500E+02  0.86507849898E+02  0.10566000000E+00 0.  1.
        -14    1    4    4    0    0  0.45953084305E+01 -0.47671493039E+01 -0.46085931301E+02  0.46559162750E+02  0.00000000000E+00 0.  1.
<mgrwt>
<rscale>  0 0.85735679E+02</rscale>
<asrwt>0</asrwt>
<pdfrwt beam="1">  1        2 0.65851830E-01 0.85735679E+02</pdfrwt>
<pdfrwt beam="2">  1       -1 0.66049362E-03 0.85735679E+02</pdfrwt>
<totfact> 0.24126427E+05</totfact>
</mgrwt>
</event>
<event>
 8    1  0.2389776E-020  0.7622055E+02  0.7818608E-02  0.1340132E+00
          2   -1    0    0  501    0  0.00000000000E+00  0.00000000000E+00  0.25595630207E+03  0.25595630208E+03  0.25500000000E-02 0. -1.
         -1   -1    0    0    0  501 -0.00000000000E+00 -0.00000000000E+00 -0.56743784107E+01  0.56743806489E+01  0.50400000000E-02 0.  1.
         24    2    1    2    0    0  0.35527136788E-14  0.00000000000E+00  0.25028192366E+03  0.26163068273E+03  0.76220553894E+02 0.  0.
         66    2    3    3    0    0  0.20472492211E+02  0.26021767134E+02  0.18982201395E+03  0.19269834527E+03  0.19999965935E+01 0.  0.
        -13    1    3    3    0    0 -0.20472492211E+02 -0.26021767134E+02  0.60459909701E+02  0.68932337457E+02  0.10566000000E+00 0.  1.
         13    1    4    4    0    0  0.94711935691E+01  0.12724632613E+02  0.93869548471E+02  0.95200436327E+02  0.10566000000E+00 0. -1.
        -13    1    4    4    0    0  0.42349026948E+01  0.57412435047E+01  0.37779470267E+02  0.38447312201E+02  0.10566000000E+00 0.  1.
        -14    1    4    4    0    0  0.67663959476E+01  0.75558910173E+01  0.58172995218E+02  0.59050596744E+02  0.00000000000E+00 0.  1.
<mgrwt>
<rscale>  0 0.76220554E+02</rscale>
<asrwt>0</asrwt>
<pdfrwt beam="1">  1        2 0.39377888E-01 0.76220554E+02</pdfrwt>
<pdfrwt beam="2">  1       -1 0.87298157E-03 0.76220554E+02</pdfrwt>
<totfact> 0.27326619E+05</totfact>
</mgrwt>
</event>
<event>
 8    1  0.2389776E-020  0.8997168E+02  0.7818608E-02  0.1302920E+00
         -1   -1    0    0    0  501 -0.00000000000E+00  0.00000000000E+00  0.25615034874E+01  0.25615084457E+01  0.50400000000E-02 0.  1.
          2   -1    0    0  501    0  0.00000000000E+00 -0.00000000000E+00 -0.79005320687E+03  0.79005320688E+03  0.25500000000E-02 0. -1.
         24    2    1    2    0    0  0.00000000000E+00  0.88817841970E-15 -0.78749170338E+03  0.79261471532E+03  0.89971684686E+02 0.  0.
         66    2    3    3    0    0 -0.11944112286E+02  0.62587757382E+01 -0.77181806972E+03  0.77193844756E+03  0.19999982865E+01 0.  0.
        -13    1    3    3    0    0  0.11944112286E+02 -0.62587757382E+01 -0.15673633668E+02  0.20676267758E+02  0.10566000000E+00 0.  1.
         13    1    4    4    0    0 -0.31040242823E+01  0.17458233307E+01 -0.19542941479E+03  0.19546188937E+03  0.10566000000E+00 0.  1.
        -13    1    4    4    0    0 -0.82112890962E+01  0.46077823794E+01 -0.54677092084E+03  0.54685199823E+03  0.10566000000E+00 0. -1.
        -14    1    4    4    0    0 -0.62879890714E+00 -0.94829971940E-01 -0.29617734084E+02  0.29624559964E+02  0.00000000000E+00 0.  1.
<mgrwt>
<rscale>  0 0.89971685E+02</rscale>
<asrwt>0</asrwt>
<pdfrwt beam="1">  1        2 0.12154645E+00 0.89971685E+02</pdfrwt>
<pdfrwt beam="2">  1       -1 0.39407847E-03 0.89971685E+02</pdfrwt>
<totfact> 0.25226950E+05</totfact>
</mgrwt>
</event>
<event>
 8    1  0.2389776E-020  0.8214515E+02  0.7818608E-02  0.1323072E+00
          2   -1    0    0  501    0  0.00000000000E+00  0.00000000000E+00  0.55393095873E+03  0.55393095874E+03  0.25500000000E-02 0. -1.
         -1   -1    0    0    0  501 -0.00000000000E+00 -0.00000000000E+00 -0.30454249128E+01  0.30454290833E+01  0.50400000000E-02 0.  1.
         24    2    1    2    0    0  0.00000000000E+00  0.00000000000E+00  0.55088553382E+03  0.55697638782E+03  0.82145147264E+02 0.  0.
         66    2    3    3    0    0 -0.26106423489E+02 -0.11929246670E+02  0.47457275981E+03  0.47544416772E+03  0.19999981399E+01 0.  0.
        -13    1    3    3    0    0  0.26106423489E+02  0.11929246670E+02  0.76312774013E+02  0.81532220104E+02  0.10566000000E+00 0.  1.
         13    1    4    4    0    0 -0.53997609976E+01 -0.22131132583E+01  0.10621395851E+03  0.10637420474E+03  0.10566000000E+00 0. -1.
        -13    1    4    4    0    0 -0.15041459906E+02 -0.65737412551E+01  0.26010583441E+03  0.26062332177E+03  0.10566000000E+00 0.  1.
         14    1    4    4    0    0 -0.56652025854E+01 -0.31423921564E+01  0.10825296689E+03  0.10844664121E+03  0.00000000000E+00 0. -1.
<mgrwt>
<rscale>  0 0.82145147E+02</rscale>
<asrwt>0</asrwt>
<pdfrwt beam="1">  1        2 0.85220199E-01 0.82145147E+02</pdfrwt>
<pdfrwt beam="2">  1       -1 0.46852695E-03 0.82145147E+02</pdfrwt>
<totfact> 0.29334785E+05</totfact>
</mgrwt>
</event>
<event>
 8    1  0.2389776E-020  0.7873562E+02  0.7818608E-02  0.1332678E+00
          2   -1    0    0  501    0  0.00000000000E+00  0.00000000000E+00  0.72487451667E+03  0.72487451667E+03  0.25500000000E-02 0. -1.
         -1   -1    0    0    0  501 -0.00000000000E+00 -0.00000000000E+00 -0.21380559922E+01  0.21380619325E+01  0.50400000000E-02 0.  1.
         24    2    1    2    0    0  0.00000000000E+00  0.00000000000E+00  0.72273646068E+03  0.72701257860E+03  0.78735620019E+02 0.  0.
         66    2    3    3    0    0  0.20624645627E+02 -0.23308196490E+02  0.58381620260E+03  0.58464861793E+03  0.19999999227E+01 0.  0.
        -13    1    3    3    0    0 -0.20624645627E+02  0.23308196490E+02  0.13892025807E+03  0.14236396067E+03  0.10566000000E+00 0.  1.
         13    1    4    4    0    0  0.10151190641E+02 -0.11574204727E+02  0.29997439326E+03  0.30036920059E+03  0.10566000000E+00 0. -1.
        -13    1    4    4    0    0  0.57770011950E+01 -0.56890434734E+01  0.14917473143E+03  0.14939494844E+03  0.10566000000E+00 0. -1.
         14    1    4    4    0    0  0.46964537909E+01 -0.60449482895E+01  0.13466707791E+03  0.13488446891E+03  0.00000000000E+00 0. -1.
<mgrwt>
<rscale>  0 0.78735620E+02</rscale>
<asrwt>0</asrwt>
<pdfrwt beam="1">  1        2 0.11151896E+00 0.78735620E+02</pdfrwt>
<pdfrwt beam="2">  1       -1 0.32893274E-03 0.78735620E+02</pdfrwt>
<totfact> 0.35136263E+05</totfact>
</mgrwt>
</event>
<event>
 8    1  0.2389776E-020  0.8020328E+02  0.7818608E-02  0.1328476E+00
          2   -1    0    0  501    0  0.00000000000E+00  0.00000000000E+00  0.33613004869E+02  0.33613004965E+02  0.25500000000E-02 0. -1.
         -1   -1    0    0    0  501 -0.00000000000E+00 -0.00000000000E+00 -0.47842837791E+02  0.47842838056E+02  0.50400000000E-02 0.  1.
         24    2    1    2    0    0  0.00000000000E+00  0.00000000000E+00 -0.14229832922E+02  0.81455843022E+02  0.80203280590E+02 0.  0.
         66    2    3    3    0    0 -0.14982034158E+02  0.35587533942E+02  0.37815471423E+01  0.38848861253E+02  0.20000005777E+01 0.  0.
        -13    1    3    3    0    0  0.14982034158E+02 -0.35587533942E+02 -0.18011380065E+02  0.42606981769E+02  0.10566000000E+00 0.  1.
         13    1    4    4    0    0 -0.64391595423E+01  0.15366888535E+02  0.24914559672E+01  0.16847034034E+02  0.10566000000E+00 0. -1.
        -13    1    4    4    0    0 -0.43845183165E+01  0.94409988124E+01  0.64297745447E+00  0.10429815122E+02  0.10566000000E+00 0.  1.
         14    1    4    4    0    0 -0.41583562994E+01  0.10779646594E+02  0.64711372068E+00  0.11572012097E+02  0.00000000000E+00 0. -1.
<mgrwt>
<rscale>  0 0.80203281E+02</rscale>
<asrwt>0</asrwt>
<pdfrwt beam="1">  1        2 0.51712315E-02 0.80203281E+02</pdfrwt>
<pdfrwt beam="2">  1       -1 0.73604367E-02 0.80203281E+02</pdfrwt>
<totfact> 0.13665177E+05</totfact>
</mgrwt>
</event>
<event>
 8    1  0.2389776E-020  0.8229267E+02  0.7818608E-02  0.1322668E+00
         -1   -1    0    0    0  501 -0.00000000000E+00  0.00000000000E+00  0.45593297613E+01  0.45593325470E+01  0.50400000000E-02 0.  1.
          2   -1    0    0  501    0  0.00000000000E+00 -0.00000000000E+00 -0.37133092840E+03  0.37133092841E+03  0.25500000000E-02 0. -1.
         24    2    1    2    0    0 -0.44408920985E-15  0.00000000000E+00 -0.36677159864E+03  0.37589026096E+03  0.82292665003E+02 0.  0.
         66    2    3    3    0    0  0.20443782553E+01  0.39919305664E+02 -0.22761085931E+03  0.23110264759E+03  0.20000009930E+01 0.  0.
        -13    1    3    3    0    0 -0.20443782553E+01 -0.39919305664E+02 -0.13916073933E+03  0.14478761336E+03  0.10566000000E+00 0.  1.
         13    1    4    4    0    0  0.32160834556E+00  0.60909716948E+01 -0.34321227438E+02  0.34859162139E+02  0.10566000000E+00 0. -1.
        -13    1    4    4    0    0  0.14257108701E+00  0.10707291248E+02 -0.56898658766E+02  0.57897624699E+02  0.10566000000E+00 0.  1.
        -14    1    4    4    0    0  0.15801988228E+01  0.23121042722E+02 -0.13639097310E+03  0.13834586076E+03  0.00000000000E+00 0.  1.
<mgrwt>
<rscale>  0 0.82292665E+02</rscale>
<asrwt>0</asrwt>
<pdfrwt beam="1">  1        2 0.57127811E-01 0.82292665E+02</pdfrwt>
<pdfrwt beam="2">  1       -1 0.70143586E-03 0.82292665E+02</pdfrwt>
<totfact> 0.25559548E+05</totfact>
</mgrwt>
</event>
<event>
 8    1  0.2389776E-020  0.8230860E+02  0.7818608E-02  0.1322625E+00
          2   -1    0    0  501    0  0.00000000000E+00  0.00000000000E+00  0.24848341691E+03  0.24848341693E+03  0.25500000000E-02 0. -1.
         -1   -1    0    0    0  501 -0.00000000000E+00 -0.00000000000E+00 -0.68160530961E+01  0.68160549595E+01  0.50400000000E-02 0.  1.
         24    2    1    2    0    0  0.00000000000E+00  0.00000000000E+00  0.24166736382E+03  0.25529947189E+03  0.82308599860E+02 0.  0.
         66    2    3    3    0    0  0.33165934989E+02  0.20054051293E+02  0.16360606474E+03  0.16814603366E+03  0.19999997192E+01 0.  0.
        -13    1    3    3    0    0 -0.33165934989E+02 -0.20054051293E+02  0.78061299074E+02  0.87153438223E+02  0.10566000000E+00 0.  1.
         13    1    4    4    0    0  0.73491727237E+01  0.51603114075E+01  0.39293100356E+02  0.40306302896E+02  0.10566000000E+00 0. -1.
        -13    1    4    4    0    0  0.18706670628E+02  0.10287414597E+02  0.88970151198E+02  0.91495734290E+02  0.10566000000E+00 0.  1.
        -14    1    4    4    0    0  0.71100916367E+01  0.46063252889E+01  0.35342813189E+02  0.36343996476E+02  0.00000000000E+00 0.  1.
<mgrwt>
<rscale>  0 0.82308600E+02</rscale>
<asrwt>0</asrwt>
<pdfrwt beam="1">  1        2 0.38228214E-01 0.82308600E+02</pdfrwt>
<pdfrwt beam="2">  1       -1 0.10486238E-02 0.82308600E+02</pdfrwt>
<totfact> 0.22097587E+05</totfact>
</mgrwt>
</event>
<event>
 8    1  0.2389776E-020  0.8164317E+02  0.7818608E-02  0.1324452E+00
         -1   -1    0    0    0  501 -0.00000000000E+00  0.00000000000E+00  0.62595575375E+02  0.62595575578E+02  0.50400000000E-02 0.  1.
          2   -1    0    0  501    0  0.00000000000E+00 -0.00000000000E+00 -0.26621715557E+02  0.26621715679E+02  0.25500000000E-02 0. -1.
         24    2    1    2    0    0  0.00000000000E+00 -0.71054273576E-14  0.35973859818E+02  0.89217291257E+02  0.81643165477E+02 0.  0.
         66    2    3    3    0    0  0.11197215881E+02 -0.37397535015E+02  0.50473943820E+01  0.39413569538E+02  0.20000012459E+01 0.  0.
        -13    1    3    3    0    0 -0.11197215881E+02  0.37397535015E+02  0.30926465436E+02  0.49803721719E+02  0.10566000000E+00 0.  1.
         13    1    4    4    0    0  0.81465813003E+01 -0.26350216227E+02  0.38083288063E+01  0.27842686911E+02  0.10566000000E+00 0. -1.
        -13    1    4    4    0    0  0.83306076147E+00 -0.45880212607E+01  0.74866190125E+00  0.47239377641E+01  0.10566000000E+00 0.  1.
        -14    1    4    4    0    0  0.22175738189E+01 -0.64592975277E+01  0.49040367446E+00  0.68469448631E+01  0.00000000000E+00 0.  1.
<mgrwt>
<rscale>  0 0.81643165E+02</rscale>
<asrwt>0</asrwt>
<pdfrwt beam="1">  1        2 0.40956486E-02 0.81643165E+02</pdfrwt>
<pdfrwt beam="2">  1       -1 0.96300885E-02 0.81643165E+02</pdfrwt>
<totfact> 0.12408245E+05</totfact>
</mgrwt>
</event>
<event>
 8    1  0.2389776E-020  0.7910305E+02  0.7818608E-02  0.1331616E+00
         -1   -1    0    0    0  501 -0.00000000000E+00  0.00000000000E+00  0.55697663612E+01  0.55697686416E+01  0.50400000000E-02 0.  1.
          2   -1    0    0  501    0  0.00000000000E+00 -0.00000000000E+00 -0.28085970318E+03  0.28085970319E+03  0.25500000000E-02 0. -1.
         24    2    1    2    0    0  0.00000000000E+00  0.35527136788E-14 -0.27528993681E+03  0.28642947183E+03  0.79103053170E+02 0.  0.
         66    2    3    3    0    0 -0.86876730864E+01  0.21634144443E+02 -0.25330941455E+03  0.25438783653E+03  0.20000015066E+01 0.  0.
        -13    1    3    3    0    0  0.86876730864E+01 -0.21634144443E+02 -0.21980522263E+02  0.32041635296E+02  0.10566000000E+00 0.  1.
         13    1    4    4    0    0 -0.16498830711E+01  0.41916341217E+01 -0.44176672397E+02  0.44405871896E+02  0.10566000000E+00 0. -1.
        -13    1    4    4    0    0 -0.44798013141E+00  0.46924996610E+00 -0.69059704967E+01  0.69371805704E+01  0.10566000000E+00 0.  1.
         14    1    4    4    0    0 -0.65898098838E+01  0.16973260355E+02 -0.20222677166E+03  0.20304478407E+03  0.00000000000E+00 0. -1.
<mgrwt>
<rscale>  0 0.79103053E+02</rscale>
<asrwt>0</asrwt>
<pdfrwt beam="1">  1        2 0.43209174E-01 0.79103053E+02</pdfrwt>
<pdfrwt beam="2">  1       -1 0.85688753E-03 0.79103053E+02</pdfrwt>
<totfact> 0.25639929E+05</totfact>
</mgrwt>
</event>
<event>
 8    1  0.2389776E-020  0.8062126E+02  0.7818608E-02  0.1327298E+00
         -1   -1    0    0    0  501 -0.00000000000E+00  0.00000000000E+00  0.71594225305E+02  0.71594225482E+02  0.50400000000E-02 0.  1.
          2   -1    0    0  501    0  0.00000000000E+00 -0.00000000000E+00 -0.22696621274E+02  0.22696621418E+02  0.25500000000E-02 0. -1.
         24    2    1    2    0    0  0.00000000000E+00 -0.71054273576E-14  0.48897604031E+02  0.94290846900E+02  0.80621263505E+02 0.  0.
         66    2    3    3    0    0 -0.18739628059E+02  0.35419138387E+02  0.29321752358E+02  0.49693603077E+02  0.20000003759E+01 0.  0.
        -13    1    3    3    0    0  0.18739628059E+02 -0.35419138387E+02  0.19575851672E+02  0.44597243823E+02  0.10566000000E+00 0.  1.
         13    1    4    4    0    0 -0.78381407892E+01  0.13942488751E+02  0.12008265086E+02  0.20000975926E+02  0.10566000000E+00 0. -1.
        -13    1    4    4    0    0 -0.97837722932E+01  0.19974978804E+02  0.15760784281E+02  0.27260511068E+02  0.10566000000E+00 0.  1.
        -14    1    4    4    0    0 -0.11177149766E+01  0.15016708319E+01  0.15527029921E+01  0.24321160824E+01  0.00000000000E+00 0.  1.
<mgrwt>
<rscale>  0 0.80621264E+02</rscale>
<asrwt>0</asrwt>
<pdfrwt beam="1">  1        2 0.34917879E-02 0.80621264E+02</pdfrwt>
<pdfrwt beam="2">  1       -1 0.11014496E-01 0.80621264E+02</pdfrwt>
<totfact> 0.12456649E+05</totfact>
</mgrwt>
</event>
<event>
 8    1  0.2389776E-020  0.8378728E+02  0.7818608E-02  0.1318635E+00
         -1   -1    0    0    0  501 -0.00000000000E+00  0.00000000000E+00  0.31852663417E+01  0.31852703290E+01  0.50400000000E-02 0.  1.
          2   -1    0    0  501    0  0.00000000000E+00 -0.00000000000E+00 -0.55099820590E+03  0.55099820591E+03  0.25500000000E-02 0. -1.
         24    2    1    2    0    0  0.44408920985E-15  0.00000000000E+00 -0.54781293956E+03  0.55418347624E+03  0.83787281758E+02 0.  0.
         66    2    3    3    0    0 -0.22887651605E+01  0.20127220155E+02 -0.51642693350E+03  0.51682794147E+03  0.20000010042E+01 0.  0.
        -13    1    3    3    0    0  0.22887651605E+01 -0.20127220155E+02 -0.31386006057E+02  0.37355534762E+02  0.10566000000E+00 0.  1.
         13    1    4    4    0    0 -0.62866960366E+00  0.99510694112E+01 -0.25421035209E+03  0.25440584365E+03  0.10566000000E+00 0. -1.
        -13    1    4    4    0    0 -0.82191364426E-01  0.49460034823E+00 -0.80450610502E+01  0.80613619359E+01  0.10566000000E+00 0.  1.
         14    1    4    4    0    0 -0.15779041924E+01  0.96815503957E+01 -0.25417152036E+03  0.25436073589E+03  0.00000000000E+00 0. -1.
<mgrwt>
<rscale>  0 0.83787282E+02</rscale>
<asrwt>0</asrwt>
<pdfrwt beam="1">  1        2 0.84768879E-01 0.83787282E+02</pdfrwt>
<pdfrwt beam="2">  1       -1 0.49004172E-03 0.83787282E+02</pdfrwt>
<totfact> 0.27811671E+05</totfact>
</mgrwt>
</event>
<event>
 8    1  0.2389776E-020  0.7980286E+02  0.7818608E-02  0.1329612E+00
          2   -1    0    0  501    0  0.00000000000E+00  0.00000000000E+00  0.11064109574E+02  0.11064109868E+02  0.25500000000E-02 0. -1.
         -1   -1    0    0    0  501 -0.00000000000E+00 -0.00000000000E+00 -0.14389987161E+03  0.14389987170E+03  0.50400000000E-02 0.  1.
         24    2    1    2    0    0  0.35527136788E-14  0.00000000000E+00 -0.13283576203E+03  0.15496398157E+03  0.79802856511E+02 0.  0.
         66    2    3    3    0    0  0.18280539356E+02  0.19383346022E+02 -0.88479228617E+01  0.28145656198E+02  0.20000004240E+01 0.  0.
        -13    1    3    3    0    0 -0.18280539356E+02 -0.19383346022E+02 -0.12398783917E+03  0.12681832537E+03  0.10566000000E+00 0.  1.
         13    1    4    4    0    0  0.46088760534E+01  0.46368709602E+01 -0.15765157021E+01  0.67259851748E+01  0.10566000000E+00 0. -1.
        -13    1    4    4    0    0  0.11617940319E+02  0.12771533000E+02 -0.58057203843E+01  0.18215546812E+02  0.10566000000E+00 0.  1.
        -14    1    4    4    0    0  0.20537229834E+01  0.19749420618E+01 -0.14656867753E+01  0.32041242116E+01  0.00000000000E+00 0.  1.
<mgrwt>
<rscale>  0 0.79802857E+02</rscale>
<asrwt>0</asrwt>
<pdfrwt beam="1">  1        2 0.17021708E-02 0.79802857E+02</pdfrwt>
<pdfrwt beam="2">  1       -1 0.22138441E-01 0.79802857E+02</pdfrwt>
<totfact> 0.10968911E+05</totfact>
</mgrwt>
</event>
<event>
 8    1  0.2389776E-020  0.7721935E+02  0.7818608E-02  0.1337133E+00
          2   -1    0    0  501    0  0.00000000000E+00  0.00000000000E+00  0.88896514913E+02  0.88896514950E+02  0.25500000000E-02 0. -1.
         -1   -1    0    0    0  501 -0.00000000000E+00 -0.00000000000E+00 -0.16769013534E+02  0.16769014292E+02  0.50400000000E-02 0.  1.
         24    2    1    2    0    0  0.00000000000E+00  0.00000000000E+00  0.72127501379E+02  0.10566552924E+03  0.77219347412E+02 0.  0.
         66    2    3    3    0    0  0.15481460007E+02 -0.12363287883E+01  0.84419023782E+02  0.85859045458E+02  0.19999994541E+01 0.  0.
        -13    1    3    3    0    0 -0.15481460007E+02  0.12363287883E+01 -0.12291522403E+02  0.19806483783E+02  0.10566000000E+00 0.  1.
         13    1    4    4    0    0  0.49621617792E+01 -0.28637615513E+00  0.25331025750E+02  0.25814280745E+02  0.10566000000E+00 0. -1.
        -13    1    4    4    0    0  0.43976309083E+01 -0.86999221064E+00  0.21650185758E+02  0.22109675517E+02  0.10566000000E+00 0.  1.
         14    1    4    4    0    0  0.61216673194E+01 -0.79960422498E-01  0.37437812274E+02  0.37935089196E+02  0.00000000000E+00 0. -1.
<mgrwt>
<rscale>  0 0.77219347E+02</rscale>
<asrwt>0</asrwt>
<pdfrwt beam="1">  1        2 0.13676387E-01 0.77219347E+02</pdfrwt>
<pdfrwt beam="2">  1       -1 0.25798483E-02 0.77219347E+02</pdfrwt>
<totfact> 0.18871755E+05</totfact>
</mgrwt>
</event>
<event>
 8    1  0.2389776E-020  0.8439726E+02  0.7818608E-02  0.1317016E+00
         -1   -1    0    0    0  501 -0.00000000000E+00  0.00000000000E+00  0.54736207139E+02  0.54736207371E+02  0.50400000000E-02 0.  1.
          2   -1    0    0  501    0  0.00000000000E+00 -0.00000000000E+00 -0.32532839705E+02  0.32532839805E+02  0.25500000000E-02 0. -1.
         24    2    1    2    0    0  0.00000000000E+00  0.00000000000E+00  0.22203367434E+02  0.87269047176E+02  0.84397257477E+02 0.  0.
         66    2    3    3    0    0 -0.20528506467E+02 -0.22756287011E+02 -0.18851256429E+02  0.36036621108E+02  0.20000039039E+01 0.  0.
        -13    1    3    3    0    0  0.20528506467E+02  0.22756287011E+02  0.41054623862E+02  0.51232426068E+02  0.10566000000E+00 0.  1.
         13    1    4    4    0    0 -0.78975192699E+01 -0.91194974555E+01 -0.83156999704E+01  0.14652579107E+02  0.10566000000E+00 0. -1.
        -13    1    4    4    0    0 -0.72390383336E+01 -0.80301039951E+01 -0.56619874894E+01  0.12204733202E+02  0.10566000000E+00 0.  1.
        -14    1    4    4    0    0 -0.53919488639E+01 -0.56066855604E+01 -0.48735689688E+01  0.91793087985E+01  0.00000000000E+00 0.  1.
<mgrwt>
<rscale>  0 0.84397257E+02</rscale>
<asrwt>0</asrwt>
<pdfrwt beam="1">  1        2 0.50050523E-02 0.84397257E+02</pdfrwt>
<pdfrwt beam="2">  1       -1 0.84209549E-02 0.84397257E+02</pdfrwt>
<totfact> 0.11768053E+05</totfact>
</mgrwt>
</event>
<event>
 8    1  0.2389776E-020  0.7461068E+02  0.7818608E-02  0.1345081E+00
          2   -1    0    0  501    0  0.00000000000E+00  0.00000000000E+00  0.34280978840E+02  0.34280978934E+02  0.25500000000E-02 0. -1.
         -1   -1    0    0    0  501 -0.00000000000E+00 -0.00000000000E+00 -0.40596521971E+02  0.40596522284E+02  0.50400000000E-02 0.  1.
         24    2    1    2    0    0  0.00000000000E+00  0.00000000000E+00 -0.63155431315E+01  0.74877501218E+02  0.74610683576E+02 0.  0.
         66    2    3    3    0    0 -0.36202268277E+02 -0.59180484190E+01  0.35011817186E+01  0.36903736902E+02  0.19999996007E+01 0.  0.
        -13    1    3    3    0    0  0.36202268277E+02  0.59180484190E+01 -0.98167248501E+01  0.37973764316E+02  0.10566000000E+00 0.  1.
         13    1    4    4    0    0 -0.13417921777E+02 -0.13123318436E+01  0.12499067322E+01  0.13540172471E+02  0.10566000000E+00 0. -1.
        -13    1    4    4    0    0 -0.13624600175E+02 -0.25665476920E+01  0.10771640374E+01  0.13906413750E+02  0.10566000000E+00 0.  1.
         14    1    4    4    0    0 -0.91597463260E+01 -0.20391688835E+01  0.11741109491E+01  0.94571506815E+01  0.00000000000E+00 0. -1.
<mgrwt>
<rscale>  0 0.74610684E+02</rscale>
<asrwt>0</asrwt>
<pdfrwt beam="1">  1        2 0.52739968E-02 0.74610684E+02</pdfrwt>
<pdfrwt beam="2">  1       -1 0.62456188E-02 0.74610684E+02</pdfrwt>
<totfact> 0.16758237E+05</totfact>
</mgrwt>
</event>
<event>
 8    1  0.2389776E-020  0.8030823E+02  0.7818608E-02  0.1328179E+00
          2   -1    0    0  501    0  0.00000000000E+00  0.00000000000E+00  0.11366452454E+02  0.11366452740E+02  0.25500000000E-02 0. -1.
         -1   -1    0    0    0  501 -0.00000000000E+00 -0.00000000000E+00 -0.14185190215E+03  0.14185190224E+03  0.50400000000E-02 0.  1.
         24    2    1    2    0    0  0.00000000000E+00  0.00000000000E+00 -0.13048544969E+03  0.15321835498E+03  0.80308229468E+02 0.  0.
         66    2    3    3    0    0 -0.31695297374E+02 -0.23622238982E+02 -0.52099937536E+02  0.65429393653E+02  0.20000031328E+01 0.  0.
        -13    1    3    3    0    0  0.31695297374E+02  0.23622238982E+02 -0.78385512156E+02  0.87788961323E+02  0.10566000000E+00 0.  1.
         13    1    4    4    0    0 -0.25017965668E+01 -0.23880576252E+01 -0.47380747355E+01  0.58670539044E+01  0.10566000000E+00 0.  1.
        -13    1    4    4    0    0 -0.35119636722E+01 -0.30235657520E+01 -0.60768727579E+01  0.76429958291E+01  0.10566000000E+00 0.  1.
         14    1    4    4    0    0 -0.25681537135E+02 -0.18210615605E+02 -0.41284990042E+02  0.51919343920E+02  0.00000000000E+00 0. -1.
<mgrwt>
<rscale>  0 0.80308229E+02</rscale>
<asrwt>0</asrwt>
<pdfrwt beam="1">  1        2 0.17486851E-02 0.80308229E+02</pdfrwt>
<pdfrwt beam="2">  1       -1 0.21823368E-01 0.80308229E+02</pdfrwt>
<totfact> 0.10834085E+05</totfact>
</mgrwt>
</event>
<event>
 8    1  0.2389776E-020  0.7849505E+02  0.7818608E-02  0.1333377E+00
         -1   -1    0    0    0  501 -0.00000000000E+00  0.00000000000E+00  0.39353927189E+01  0.39353959462E+01  0.50400000000E-02 0.  1.
          2   -1    0    0  501    0  0.00000000000E+00 -0.00000000000E+00 -0.39141395633E+03  0.39141395634E+03  0.25500000000E-02 0. -1.
         24    2    1    2    0    0  0.35527136788E-14  0.00000000000E+00 -0.38747856361E+03  0.39534935228E+03  0.78495051396E+02 0.  0.
         66    2    3    3    0    0  0.25361825089E+02  0.17585935511E+02 -0.31577534826E+03  0.31728623964E+03  0.19999995133E+01 0.  0.
        -13    1    3    3    0    0 -0.25361825089E+02 -0.17585935511E+02 -0.71703215349E+02  0.78063112640E+02  0.10566000000E+00 0.  1.
         13    1    4    4    0    0  0.43151134364E+01  0.32340194542E+01 -0.61171575925E+02  0.61408891465E+02  0.10566000000E+00 0. -1.
        -13    1    4    4    0    0  0.81091211249E+01  0.48986276612E+01 -0.94489979523E+02  0.94963792009E+02  0.10566000000E+00 0.  1.
        -14    1    4    4    0    0  0.12937590527E+02  0.94532883958E+01 -0.16011379281E+03  0.16091355617E+03  0.00000000000E+00 0.  1.
<mgrwt>
<rscale>  0 0.78495051E+02</rscale>
<asrwt>0</asrwt>
<pdfrwt beam="1">  1        2 0.60217501E-01 0.78495051E+02</pdfrwt>
<pdfrwt beam="2">  1       -1 0.60544559E-03 0.78495051E+02</pdfrwt>
<totfact> 0.29464589E+05</totfact>
</mgrwt>
</event>
<event>
 8    1  0.2389776E-020  0.8009302E+02  0.7818608E-02  0.1328788E+00
         -1   -1    0    0    0  501 -0.00000000000E+00  0.00000000000E+00  0.45017523702E+01  0.45017551915E+01  0.50400000000E-02 0.  1.
          2   -1    0    0  501    0  0.00000000000E+00 -0.00000000000E+00 -0.35624400350E+03  0.35624400351E+03  0.25500000000E-02 0. -1.
         24    2    1    2    0    0  0.35527136788E-14  0.17763568394E-14 -0.35174225113E+03  0.36074575870E+03  0.80093015867E+02 0.  0.
         66    2    3    3    0    0 -0.18366116598E+02 -0.11855699109E+02 -0.32697458725E+03  0.32771062319E+03  0.20000005750E+01 0.  0.
        -13    1    3    3    0    0  0.18366116598E+02  0.11855699109E+02 -0.24767663879E+02  0.33035135513E+02  0.10566000000E+00 0.  1.
         13    1    4    4    0    0 -0.53790510661E+01 -0.39481469897E+01 -0.10020860080E+03  0.10043055757E+03  0.10566000000E+00 0. -1.
        -13    1    4    4    0    0 -0.24853418561E+01 -0.22243240613E+01 -0.49390170579E+02  0.49502774220E+02  0.10566000000E+00 0.  1.
        -14    1    4    4    0    0 -0.10501723676E+02 -0.56832280579E+01 -0.17737581587E+03  0.17777729140E+03  0.00000000000E+00 0.  1.
<mgrwt>
<rscale>  0 0.80093016E+02</rscale>
<asrwt>0</asrwt>
<pdfrwt beam="1">  1        2 0.54806748E-01 0.80093016E+02</pdfrwt>
<pdfrwt beam="2">  1       -1 0.69257779E-03 0.80093016E+02</pdfrwt>
<totfact> 0.27037728E+05</totfact>
</mgrwt>
</event>
<event>
 8    1  0.2389776E-020  0.8079466E+02  0.7818608E-02  0.1326811E+00
          2   -1    0    0  501    0  0.00000000000E+00  0.00000000000E+00  0.71003797411E+03  0.71003797412E+03  0.25500000000E-02 0. -1.
         -1   -1    0    0    0  501 -0.00000000000E+00 -0.00000000000E+00 -0.22983872259E+01  0.22983927519E+01  0.50400000000E-02 0.  1.
         24    2    1    2    0    0  0.35527136788E-14 -0.17763568394E-14  0.70773958689E+03  0.71233636687E+03  0.80794657729E+02 0.  0.
         66    2    3    3    0    0 -0.29838904354E+02  0.13514632779E+02  0.56215351250E+03  0.56311062602E+03  0.20000024198E+01 0.  0.
        -13    1    3    3    0    0  0.29838904354E+02 -0.13514632779E+02  0.14558607439E+03  0.14922574085E+03  0.10566000000E+00 0.  1.
         13    1    4    4    0    0 -0.94752674229E+01  0.43948816216E+01  0.18085606061E+03  0.18115744948E+03  0.10566000000E+00 0. -1.
        -13    1    4    4    0    0 -0.60144141608E+01  0.35110289407E+01  0.11880573663E+03  0.11900972533E+03  0.10566000000E+00 0.  1.
         14    1    4    4    0    0 -0.14349222771E+02  0.56087222165E+01  0.26249171525E+03  0.26294345121E+03  0.00000000000E+00 0. -1.
<mgrwt>
<rscale>  0 0.80794658E+02</rscale>
<asrwt>0</asrwt>
<pdfrwt beam="1">  1        2 0.10923659E+00 0.80794658E+02</pdfrwt>
<pdfrwt beam="2">  1       -1 0.35359854E-03 0.80794658E+02</pdfrwt>
<totfact> 0.32707954E+05</totfact>
</mgrwt>
</event>
<event>
 8    1  0.2389776E-020  0.8010123E+02  0.7818608E-02  0.1328764E+00
         -1   -1    0    0    0  501 -0.00000000000E+00  0.00000000000E+00  0.30680894869E+01  0.30680936266E+01  0.50400000000E-02 0.  1.
          2   -1    0    0  501    0  0.00000000000E+00 -0.00000000000E+00 -0.52281749598E+03  0.52281749599E+03  0.25500000000E-02 0. -1.
         24    2    1    2    0    0  0.00000000000E+00 -0.35527136788E-14 -0.51974940650E+03  0.52588558962E+03  0.80101234775E+02 0.  0.
         66    2    3    3    0    0 -0.26311863385E+02  0.26495420911E+02 -0.35465931912E+03  0.35662522923E+03  0.20000001401E+01 0.  0.
        -13    1    3    3    0    0  0.26311863385E+02 -0.26495420911E+02 -0.16509008737E+03  0.16926036038E+03  0.10566000000E+00 0.  1.
         13    1    4    4    0    0 -0.17670028457E+02  0.18818850543E+02 -0.24003086097E+03  0.24141500455E+03  0.10566000000E+00 0. -1.
        -13    1    4    4    0    0 -0.30200977374E+01  0.25393508469E+01 -0.38507642551E+02  0.38709417355E+02  0.10566000000E+00 0. -1.
         14    1    4    4    0    0 -0.56217371908E+01  0.51372195217E+01 -0.76120815604E+02  0.76500807327E+02  0.00000000000E+00 0. -1.
<mgrwt>
<rscale>  0 0.80101235E+02</rscale>
<asrwt>0</asrwt>
<pdfrwt beam="1">  1        2 0.80433390E-01 0.80101235E+02</pdfrwt>
<pdfrwt beam="2">  1       -1 0.47201450E-03 0.80101235E+02</pdfrwt>
<totfact> 0.30780049E+05</totfact>
</mgrwt>
</event>
<event>
 8    1  0.2389776E-020  0.7826811E+02  0.7818608E-02  0.1334039E+00
         -1   -1    0    0    0  501 -0.00000000000E+00  0.00000000000E+00  0.62598660297E+01  0.62598680586E+01  0.50400000000E-02 0.  1.
          2   -1    0    0  501    0  0.00000000000E+00 -0.00000000000E+00 -0.24464965298E+03  0.24464965299E+03  0.25500000000E-02 0. -1.
         24    2    1    2    0    0  0.00000000000E+00  0.00000000000E+00 -0.23838978695E+03  0.25090952105E+03  0.78268111209E+02 0.  0.
         66    2    3    3    0    0  0.32073964765E+02 -0.22343199886E+02 -0.11533113662E+03  0.12179174388E+03  0.20000015188E+01 0.  0.
        -13    1    3    3    0    0 -0.32073964765E+02  0.22343199886E+02 -0.12305865033E+03  0.12911777717E+03  0.10566000000E+00 0.  1.
         13    1    4    4    0    0  0.99942046594E+01 -0.67444456983E+01 -0.33206815409E+02  0.35328111020E+02  0.10566000000E+00 0. -1.
        -13    1    4    4    0    0  0.17618123512E+01 -0.13745387588E+01 -0.73962994432E+01  0.77272083606E+01  0.10566000000E+00 0. -1.
         14    1    4    4    0    0  0.20317947755E+02 -0.14224215429E+02 -0.74728021767E+02  0.78736424498E+02  0.00000000000E+00 0. -1.
<mgrwt>
<rscale>  0 0.78268111E+02</rscale>
<asrwt>0</asrwt>
<pdfrwt beam="1">  1        2 0.37638401E-01 0.78268111E+02</pdfrwt>
<pdfrwt beam="2">  1       -1 0.96305667E-03 0.78268111E+02</pdfrwt>
<totfact> 0.25085930E+05</totfact>
</mgrwt>
</event>
<event>
 8    1  0.2389776E-020  0.8136805E+02  0.7818608E-02  0.1325213E+00
         -1   -1    0    0    0  501 -0.00000000000E+00  0.00000000000E+00  0.11815117075E+02  0.11815118150E+02  0.50400000000E-02 0.  1.
          2   -1    0    0  501    0  0.00000000000E+00 -0.00000000000E+00 -0.14009083642E+03  0.14009083644E+03  0.25500000000E-02 0. -1.
         24    2    1    2    0    0  0.00000000000E+00  0.00000000000E+00 -0.12827571934E+03  0.15190595459E+03  0.81368045739E+02 0.  0.
         66    2    3    3    0    0 -0.26864213309E+02 -0.40715546700E+01 -0.12064584776E+03  0.12368380693E+03  0.20000002211E+01 0.  0.
        -13    1    3    3    0    0  0.26864213309E+02  0.40715546700E+01 -0.76298715803E+01  0.28222147659E+02  0.10566000000E+00 0.  1.
         13    1    4    4    0    0 -0.22674798329E+01 -0.66179620455E+00 -0.10463918092E+02  0.10727729717E+02  0.10566000000E+00 0. -1.
        -13    1    4    4    0    0 -0.92076416555E+01 -0.52840691233E+00 -0.40650796166E+02  0.41684028977E+02  0.10566000000E+00 0.  1.
        -14    1    4    4    0    0 -0.15389091820E+02 -0.28813515532E+01 -0.69531133503E+02  0.71272048238E+02  0.00000000000E+00 0.  1.
<mgrwt>
<rscale>  0 0.81368046E+02</rscale>
<asrwt>0</asrwt>
<pdfrwt beam="1">  1        2 0.21552435E-01 0.81368046E+02</pdfrwt>
<pdfrwt beam="2">  1       -1 0.18177105E-02 0.81368046E+02</pdfrwt>
<totfact> 0.18733926E+05</totfact>
</mgrwt>
</event>
<event>
 8    1  0.2389776E-020  0.7786597E+02  0.7818608E-02  0.1335219E+00
         -1   -1    0    0    0  501 -0.00000000000E+00  0.00000000000E+00  0.40110967887E+02  0.40110968204E+02  0.50400000000E-02 0.  1.
          2   -1    0    0  501    0  0.00000000000E+00 -0.00000000000E+00 -0.37789596496E+02  0.37789596582E+02  0.25500000000E-02 0. -1.
         24    2    1    2    0    0  0.17763568394E-14  0.00000000000E+00  0.23213713915E+01  0.77900564786E+02  0.77865969646E+02 0.  0.
         66    2    3    3    0    0  0.14635381648E+02 -0.14391703757E+02 -0.31905570549E+02  0.37990537830E+02  0.19999998818E+01 0.  0.
        -13    1    3    3    0    0 -0.14635381648E+02  0.14391703757E+02  0.34226941941E+02  0.39910026956E+02  0.10566000000E+00 0.  1.
         13    1    4    4    0    0  0.31888498382E+01 -0.40189186320E+01 -0.86681009211E+01  0.10073113117E+02  0.10566000000E+00 0. -1.
        -13    1    4    4    0    0  0.10518767671E+02 -0.94097709581E+01 -0.21615632598E+02  0.25815402368E+02  0.10566000000E+00 0.  1.
        -14    1    4    4    0    0  0.92776413883E+00 -0.96301416688E+00 -0.16218370302E+01  0.21020223442E+01  0.00000000000E+00 0.  1.
<mgrwt>
<rscale>  0 0.77865970E+02</rscale>
<asrwt>0</asrwt>
<pdfrwt beam="1">  1        2 0.58137841E-02 0.77865970E+02</pdfrwt>
<pdfrwt beam="2">  1       -1 0.61709181E-02 0.77865970E+02</pdfrwt>
<totfact> 0.15184655E+05</totfact>
</mgrwt>
</event>
<event>
 8    1  0.2389776E-020  0.7991183E+02  0.7818608E-02  0.1329302E+00
         -1   -1    0    0    0  501 -0.00000000000E+00  0.00000000000E+00  0.26423458065E+01  0.26423506132E+01  0.50400000000E-02 0.  1.
          2   -1    0    0  501    0  0.00000000000E+00 -0.00000000000E+00 -0.60418804464E+03  0.60418804464E+03  0.25500000000E-02 0. -1.
         24    2    1    2    0    0  0.00000000000E+00  0.00000000000E+00 -0.60154569883E+03  0.60683039526E+03  0.79911831568E+02 0.  0.
         66    2    3    3    0    0 -0.35062573053E+02 -0.10918429873E+02 -0.42003354145E+03  0.42164057215E+03  0.20000005290E+01 0.  0.
        -13    1    3    3    0    0  0.35062573053E+02  0.10918429873E+02 -0.18151215738E+03  0.18518982311E+03  0.10566000000E+00 0.  1.
         13    1    4    4    0    0 -0.78718795949E+01 -0.30712205161E+01 -0.90981474013E+02  0.91373074051E+02  0.10566000000E+00 0. -1.
        -13    1    4    4    0    0 -0.81519241244E+01 -0.25192801369E+01 -0.10209054742E+03  0.10244653082E+03  0.10566000000E+00 0.  1.
         14    1    4    4    0    0 -0.19038769334E+02 -0.53279292196E+01 -0.22696152001E+03  0.22782096728E+03  0.00000000000E+00 0. -1.
<mgrwt>
<rscale>  0 0.79911832E+02</rscale>
<asrwt>0</asrwt>
<pdfrwt beam="1">  1        2 0.92951897E-01 0.79911832E+02</pdfrwt>
<pdfrwt beam="2">  1       -1 0.40651559E-03 0.79911832E+02</pdfrwt>
<totfact> 0.32318215E+05</totfact>
</mgrwt>
</event>
<event>
 8    1  0.2401866E-020  0.8252562E+02  0.7818608E-02  0.1322033E+00
          2   -1    0    0  501    0  0.00000000000E+00  0.00000000000E+00  0.70727597101E+03  0.70727597101E+03  0.25500000000E-02 0. -1.
         -1   -1    0    0    0  501 -0.00000000000E+00 -0.00000000000E+00 -0.24072887770E+01  0.24072940530E+01  0.50400000000E-02 0.  1.
         24    2    1    2    0    0  0.17763568394E-14  0.00000000000E+00  0.70486868223E+03  0.70968326507E+03  0.82525617381E+02 0.  0.
         66    2    3    3    0    0 -0.87262219117E+01  0.13347430822E+02  0.67968537634E+03  0.67987536480E+03  0.19999996895E+01 0.  0.
        -13    1    3    3    0    0  0.87262219117E+01 -0.13347430822E+02  0.25183305895E+02  0.29807900265E+02  0.10566000000E+00 0.  1.
         13    1    4    4    0    0 -0.60548890181E+01  0.90420604307E+01  0.45618135017E+03  0.45631113941E+03  0.10566000000E+00 0. -1.
        -13    1    4    4    0    0 -0.16505474069E+01  0.21594739239E+01  0.13987124814E+03  0.13989769424E+03  0.10566000000E+00 0.  1.
        -14    1    4    4    0    0 -0.10207854867E+01  0.21458964672E+01  0.83632778026E+02  0.83666531152E+02  0.00000000000E+00 0.  1.
<mgrwt>
<rscale>  0 0.82525617E+02</rscale>
<asrwt>0</asrwt>
<pdfrwt beam="1">  1        2 0.10881181E+00 0.82525617E+02</pdfrwt>
<pdfrwt beam="2">  1       -1 0.37035211E-03 0.82525617E+02</pdfrwt>
<totfact> 0.30923945E+05</totfact>
</mgrwt>
</event>
<event>
 8    1  0.2389776E-020  0.8208776E+02  0.7818608E-02  0.1323229E+00
         -1   -1    0    0    0  501 -0.00000000000E+00  0.00000000000E+00  0.41376185961E+02  0.41376186268E+02  0.50400000000E-02 0.  1.
          2   -1    0    0  501    0  0.00000000000E+00 -0.00000000000E+00 -0.40714240783E+02  0.40714240863E+02  0.25500000000E-02 0. -1.
         24    2    1    2    0    0  0.00000000000E+00  0.00000000000E+00  0.66194517845E+00  0.82090427131E+02  0.82087758253E+02 0.  0.
         66    2    3    3    0    0  0.13659597391E+02  0.38620160158E+02 -0.17887217370E+01  0.41052416654E+02  0.20000040520E+01 0.  0.
        -13    1    3    3    0    0 -0.13659597391E+02 -0.38620160158E+02  0.24506669154E+01  0.41038010476E+02  0.10566000000E+00 0.  1.
         13    1    4    4    0    0  0.37804964150E+01  0.11381967557E+02 -0.26773858687E+00  0.11996840693E+02  0.10566000000E+00 0. -1.
        -13    1    4    4    0    0  0.22654368418E+01  0.48120123477E+01 -0.61237132822E+00  0.53547950099E+01  0.10566000000E+00 0.  1.
        -14    1    4    4    0    0  0.76136641344E+01  0.22426180253E+02 -0.90861182187E+00  0.23700780952E+02  0.00000000000E+00 0.  1.
<mgrwt>
<rscale>  0 0.82087758E+02</rscale>
<asrwt>0</asrwt>
<pdfrwt beam="1">  1        2 0.62637293E-02 0.82087758E+02</pdfrwt>
<pdfrwt beam="2">  1       -1 0.63655672E-02 0.82087758E+02</pdfrwt>
<totfact> 0.13322586E+05</totfact>
</mgrwt>
</event>
<event>
 8    1  0.2389776E-020  0.8134318E+02  0.7818608E-02  0.1325282E+00
          2   -1    0    0  501    0  0.00000000000E+00  0.00000000000E+00  0.77011118702E+03  0.77011118703E+03  0.25500000000E-02 0. -1.
         -1   -1    0    0    0  501 -0.00000000000E+00 -0.00000000000E+00 -0.21479702705E+01  0.21479761834E+01  0.50400000000E-02 0.  1.
         24    2    1    2    0    0 -0.17763568394E-14  0.00000000000E+00  0.76796321675E+03  0.77225916321E+03  0.81343179665E+02 0.  0.
         66    2    3    3    0    0  0.10162752644E+02  0.35272932590E+02  0.54993756293E+03  0.55116493397E+03  0.20000004482E+01 0.  0.
        -13    1    3    3    0    0 -0.10162752644E+02 -0.35272932590E+02  0.21802565382E+03  0.22109422924E+03  0.10566000000E+00 0.  1.
         13    1    4    4    0    0  0.52807407496E+01  0.18499600135E+02  0.27833273529E+03  0.27899685325E+03  0.10566000000E+00 0. -1.
        -13    1    4    4    0    0  0.25869875806E+01  0.70758740950E+01  0.11829260679E+03  0.11853232675E+03  0.10566000000E+00 0.  1.
        -14    1    4    4    0    0  0.22950243139E+01  0.96974583605E+01  0.15331222085E+03  0.15363575397E+03  0.00000000000E+00 0.  1.
<mgrwt>
<rscale>  0 0.81343180E+02</rscale>
<asrwt>0</asrwt>
<pdfrwt beam="1">  1        2 0.11847854E+00 0.81343180E+02</pdfrwt>
<pdfrwt beam="2">  1       -1 0.33045771E-03 0.81343180E+02</pdfrwt>
<totfact> 0.32683037E+05</totfact>
</mgrwt>
</event>
<event>
 8    1  0.2389776E-020  0.8137038E+02  0.7818608E-02  0.1325207E+00
          2   -1    0    0  501    0  0.00000000000E+00  0.00000000000E+00  0.10806537816E+04  0.10806537816E+04  0.25500000000E-02 0. -1.
         -1   -1    0    0    0  501 -0.00000000000E+00 -0.00000000000E+00 -0.15317396862E+01  0.15317479780E+01  0.50400000000E-02 0.  1.
         24    2    1    2    0    0  0.00000000000E+00  0.00000000000E+00  0.10791220419E+04  0.10821855296E+04  0.81370382145E+02 0.  0.
         66    2    3    3    0    0 -0.21419471196E+02 -0.16254470965E+02  0.94552702579E+03  0.94591139018E+03  0.19999996330E+01 0.  0.
        -13    1    3    3    0    0  0.21419471196E+02  0.16254470965E+02  0.13359501614E+03  0.13627413941E+03  0.10566000000E+00 0.  1.
         13    1    4    4    0    0 -0.30245261483E+01 -0.25814751797E+01  0.13195094853E+03  0.13201089256E+03  0.10566000000E+00 0.  1.
        -13    1    4    4    0    0 -0.93286060897E+01 -0.78973983604E+01  0.42421908513E+03  0.42439514034E+03  0.10566000000E+00 0. -1.
         14    1    4    4    0    0 -0.90663389578E+01 -0.57755974248E+01  0.38935699214E+03  0.38950535728E+03  0.00000000000E+00 0. -1.
<mgrwt>
<rscale>  0 0.81370382E+02</rscale>
<asrwt>0</asrwt>
<pdfrwt beam="1">  1        2 0.16625421E+00 0.81370382E+02</pdfrwt>
<pdfrwt beam="2">  1       -1 0.23565321E-03 0.81370382E+02</pdfrwt>
<totfact> 0.33744469E+05</totfact>
</mgrwt>
</event>
<event>
 8    1  0.2389776E-020  0.8038095E+02  0.7818608E-02  0.1327974E+00
         -1   -1    0    0    0  501 -0.00000000000E+00  0.00000000000E+00  0.35986506447E+01  0.35986541740E+01  0.50400000000E-02 0.  1.
          2   -1    0    0  501    0  0.00000000000E+00 -0.00000000000E+00 -0.44885527177E+03  0.44885527177E+03  0.25500000000E-02 0. -1.
         24    2    1    2    0    0  0.00000000000E+00  0.00000000000E+00 -0.44525662112E+03  0.45245392595E+03  0.80380945831E+02 0.  0.
         66    2    3    3    0    0 -0.27558603894E+02  0.18370740143E+02 -0.35066731427E+03  0.35223362423E+03  0.19999994178E+01 0.  0.
        -13    1    3    3    0    0  0.27558603894E+02 -0.18370740143E+02 -0.94589306849E+02  0.10022030172E+03  0.10566000000E+00 0.  1.
         13    1    4    4    0    0 -0.13293434732E+02  0.89293802149E+01 -0.17194955532E+03  0.17269368829E+03  0.10566000000E+00 0. -1.
        -13    1    4    4    0    0 -0.13207597246E+02  0.85326871036E+01 -0.16025709023E+03  0.16102668570E+03  0.10566000000E+00 0.  1.
        -14    1    4    4    0    0 -0.10575719158E+01  0.90867282425E+00 -0.18460668723E+02  0.18513250238E+02  0.00000000000E+00 0.  1.
<mgrwt>
<rscale>  0 0.80380946E+02</rscale>
<asrwt>0</asrwt>
<pdfrwt beam="1">  1        2 0.69054613E-01 0.80380946E+02</pdfrwt>
<pdfrwt beam="2">  1       -1 0.55363919E-03 0.80380946E+02</pdfrwt>
<totfact> 0.29031203E+05</totfact>
</mgrwt>
</event>
<event>
 8    1  0.2389776E-020  0.7959238E+02  0.7818608E-02  0.1330212E+00
          2   -1    0    0  501    0  0.00000000000E+00  0.00000000000E+00  0.19603428338E+03  0.19603428339E+03  0.25500000000E-02 0. -1.
         -1   -1    0    0    0  501 -0.00000000000E+00 -0.00000000000E+00 -0.80788762274E+01  0.80788777995E+01  0.50400000000E-02 0.  1.
         24    2    1    2    0    0  0.00000000000E+00  0.00000000000E+00  0.18795540715E+03  0.20411316119E+03  0.79592383401E+02 0.  0.
         66    2    3    3    0    0  0.22377505437E+02  0.88779948557E+01  0.17522044114E+03  0.17687785202E+03  0.20000001448E+01 0.  0.
        -13    1    3    3    0    0 -0.22377505437E+02 -0.88779948557E+01  0.12734966007E+02  0.27235309168E+02  0.10566000000E+00 0.  1.
         13    1    4    4    0    0  0.81600319152E+01  0.39129302281E+01  0.64639391163E+02  0.65269895035E+02  0.10566000000E+00 0. -1.
        -13    1    4    4    0    0  0.83745232308E+01  0.30022611962E+01  0.69468338195E+02  0.70035757919E+02  0.10566000000E+00 0.  1.
         14    1    4    4    0    0  0.58429502908E+01  0.19628034315E+01  0.41112711783E+02  0.41572199070E+02  0.00000000000E+00 0. -1.
<mgrwt>
<rscale>  0 0.79592383E+02</rscale>
<asrwt>0</asrwt>
<pdfrwt beam="1">  1        2 0.30159117E-01 0.79592383E+02</pdfrwt>
<pdfrwt beam="2">  1       -1 0.12429043E-02 0.79592383E+02</pdfrwt>
<totfact> 0.22203261E+05</totfact>
</mgrwt>
</event>
<event>
 8    1  0.2389776E-020  0.7998678E+02  0.7818608E-02  0.1329089E+00
          2   -1    0    0  501    0  0.00000000000E+00  0.00000000000E+00  0.57025281122E+03  0.57025281122E+03  0.25500000000E-02 0. -1.
         -1   -1    0    0    0  501 -0.00000000000E+00 -0.00000000000E+00 -0.28048436611E+01  0.28048481893E+01  0.50400000000E-02 0.  1.
         24    2    1    2    0    0  0.00000000000E+00  0.00000000000E+00  0.56744796756E+03  0.57305765941E+03  0.79986780954E+02 0.  0.
         66    2    3    3    0    0 -0.20429165865E+02  0.24404726472E+02  0.45711431379E+03  0.45822531288E+03  0.20000005678E+01 0.  0.
        -13    1    3    3    0    0  0.20429165865E+02 -0.24404726472E+02  0.11033365376E+03  0.11483234653E+03  0.10566000000E+00 0.  1.
         13    1    4    4    0    0 -0.20342760047E+01  0.27761632916E+01  0.46394800412E+02  0.46522403537E+02  0.10566000000E+00 0. -1.
        -13    1    4    4    0    0 -0.14772012002E+02  0.16344366577E+02  0.31964176452E+03  0.32040009277E+03  0.10566000000E+00 0.  1.
        -14    1    4    4    0    0 -0.36228778586E+01  0.52841966034E+01  0.91077748855E+02  0.91302816573E+02  0.00000000000E+00 0.  1.
<mgrwt>
<rscale>  0 0.79986781E+02</rscale>
<asrwt>0</asrwt>
<pdfrwt beam="1">  1        2 0.87731144E-01 0.79986781E+02</pdfrwt>
<pdfrwt beam="2">  1       -1 0.43151504E-03 0.79986781E+02</pdfrwt>
<totfact> 0.31714251E+05</totfact>
</mgrwt>
</event>
<event>
 8    1  0.2389776E-020  0.8005056E+02  0.7818608E-02  0.1328908E+00
          2   -1    0    0  501    0  0.00000000000E+00  0.00000000000E+00  0.17860254379E+03  0.17860254381E+03  0.25500000000E-02 0. -1.
         -1   -1    0    0    0  501 -0.00000000000E+00 -0.00000000000E+00 -0.89697661266E+01  0.89697675425E+01  0.50400000000E-02 0.  1.
         24    2    1    2    0    0 -0.17763568394E-14  0.00000000000E+00  0.16963277766E+03  0.18757231135E+03  0.80050563569E+02 0.  0.
         66    2    3    3    0    0 -0.98836105542E+01  0.83013485401E+01  0.17358296301E+03  0.17407367166E+03  0.19999935603E+01 0.  0.
        -13    1    3    3    0    0  0.98836105542E+01 -0.83013485401E+01 -0.39501853437E+01  0.13498639689E+02  0.10566000000E+00 0.  1.
         13    1    4    4    0    0 -0.24210313688E+01  0.31312324743E+01  0.51055358111E+02  0.51208659088E+02  0.10566000000E+00 0.  1.
        -13    1    4    4    0    0 -0.13841456109E+01  0.82232672453E+00  0.19400163887E+02  0.19467141629E+02  0.10566000000E+00 0. -1.
        -14    1    4    4    0    0 -0.60784335746E+01  0.43477893412E+01  0.10312744101E+03  0.10339787095E+03  0.00000000000E+00 0.  1.
<mgrwt>
<rscale>  0 0.80050564E+02</rscale>
<asrwt>0</asrwt>
<pdfrwt beam="1">  1        2 0.27477314E-01 0.80050564E+02</pdfrwt>
<pdfrwt beam="2">  1       -1 0.13799641E-02 0.80050564E+02</pdfrwt>
<totfact> 0.21182841E+05</totfact>
</mgrwt>
</event>
<event>
 8    1  0.2389776E-020  0.8534337E+02  0.7818608E-02  0.1314537E+00
          2   -1    0    0  501    0  0.00000000000E+00  0.00000000000E+00  0.46145225663E+03  0.46145225664E+03  0.25500000000E-02 0. -1.
         -1   -1    0    0    0  501 -0.00000000000E+00 -0.00000000000E+00 -0.39459597908E+01  0.39459630095E+01  0.50400000000E-02 0.  1.
         24    2    1    2    0    0  0.00000000000E+00  0.00000000000E+00  0.45750629684E+03  0.46539821965E+03  0.85343372342E+02 0.  0.
         66    2    3    3    0    0 -0.18389952609E+02 -0.19965830574E+02  0.40825973185E+03  0.40916602180E+03  0.19999995252E+01 0.  0.
        -13    1    3    3    0    0  0.18389952609E+02  0.19965830574E+02  0.49246564999E+02  0.56232197856E+02  0.10566000000E+00 0.  1.
         13    1    4    4    0    0 -0.11597849542E+02 -0.12016302535E+02  0.24756691280E+03  0.24812958130E+03  0.10566000000E+00 0. -1.
        -13    1    4    4    0    0 -0.34212678304E+00 -0.25126403122E+00  0.45560084359E+01  0.45769598264E+01  0.10566000000E+00 0.  1.
         14    1    4    4    0    0 -0.64499762841E+01 -0.76982640081E+01  0.15613681061E+03  0.15645948066E+03  0.00000000000E+00 0. -1.
<mgrwt>
<rscale>  0 0.85343372E+02</rscale>
<asrwt>0</asrwt>
<pdfrwt beam="1">  1        2 0.70992670E-01 0.85343372E+02</pdfrwt>
<pdfrwt beam="2">  1       -1 0.60707086E-03 0.85343372E+02</pdfrwt>
<totfact> 0.25049185E+05</totfact>
</mgrwt>
</event>
<event>
 8    1  0.2389776E-020  0.7982723E+02  0.7818608E-02  0.1329542E+00
         -1   -1    0    0    0  501 -0.00000000000E+00  0.00000000000E+00  0.23398943702E+03  0.23398943707E+03  0.50400000000E-02 0.  1.
          2   -1    0    0  501    0  0.00000000000E+00 -0.00000000000E+00 -0.68084123160E+01  0.68084127935E+01  0.25500000000E-02 0. -1.
         24    2    1    2    0    0 -0.71054273576E-14 -0.17763568394E-14  0.22718102470E+03  0.24079784986E+03  0.79827229160E+02 0.  0.
         66    2    3    3    0    0 -0.38152009880E+02 -0.10099131511E+02  0.13112688557E+03  0.13695192013E+03  0.19999979080E+01 0.  0.
        -13    1    3    3    0    0  0.38152009880E+02  0.10099131511E+02  0.96054139129E+02  0.10384592974E+03  0.10566000000E+00 0.  1.
         13    1    4    4    0    0 -0.99444563669E+01 -0.27458959804E+01  0.35104474256E+02  0.36589170994E+02  0.10566000000E+00 0. -1.
        -13    1    4    4    0    0 -0.63056839419E+01 -0.22940349043E+01  0.21225739844E+02  0.22261344121E+02  0.10566000000E+00 0.  1.
         14    1    4    4    0    0 -0.21901869571E+02 -0.50592006267E+01  0.74796671472E+02  0.78101405013E+02  0.00000000000E+00 0. -1.
<mgrwt>
<rscale>  0 0.79827229E+02</rscale>
<asrwt>0</asrwt>
<pdfrwt beam="1">  1        2 0.10474481E-02 0.79827229E+02</pdfrwt>
<pdfrwt beam="2">  1       -1 0.35998375E-01 0.79827229E+02</pdfrwt>
<totfact> 0.95265888E+04</totfact>
</mgrwt>
</event>
<event>
 8    1  0.2389776E-020  0.7875962E+02  0.7818608E-02  0.1332609E+00
          2   -1    0    0  501    0  0.00000000000E+00  0.00000000000E+00  0.10319146707E+02  0.10319147022E+02  0.25500000000E-02 0. -1.
         -1   -1    0    0    0  501 -0.00000000000E+00 -0.00000000000E+00 -0.15028076356E+03  0.15028076365E+03  0.50400000000E-02 0.  1.
         24    2    1    2    0    0 -0.71054273576E-14  0.17763568394E-14 -0.13996161685E+03  0.16059991067E+03  0.78759616009E+02 0.  0.
         66    2    3    3    0    0 -0.36569232770E+02  0.14134779478E+02 -0.63061832336E+02  0.74282538144E+02  0.19999998399E+01 0.  0.
        -13    1    3    3    0    0  0.36569232770E+02 -0.14134779478E+02 -0.76899784519E+02  0.86317372523E+02  0.10566000000E+00 0.  1.
         13    1    4    4    0    0 -0.21585247402E+02  0.80607375283E+01 -0.36051961811E+02  0.42786136883E+02  0.10566000000E+00 0. -1.
        -13    1    4    4    0    0 -0.10386933885E+02  0.39181625926E+01 -0.19284906461E+02  0.22252172363E+02  0.10566000000E+00 0.  1.
         14    1    4    4    0    0 -0.45970514829E+01  0.21558793569E+01 -0.77249640635E+01  0.92442288981E+01  0.00000000000E+00 0. -1.
<mgrwt>
<rscale>  0 0.78759616E+02</rscale>
<asrwt>0</asrwt>
<pdfrwt beam="1">  1        2 0.15875612E-02 0.78759616E+02</pdfrwt>
<pdfrwt beam="2">  1       -1 0.23120116E-01 0.78759616E+02</pdfrwt>
<totfact> 0.11216420E+05</totfact>
</mgrwt>
</event>
<event>
 8    1  0.2389776E-020  0.8002607E+02  0.7818608E-02  0.1328977E+00
         -1   -1    0    0    0  501 -0.00000000000E+00  0.00000000000E+00  0.62290573115E+01  0.62290593505E+01  0.50400000000E-02 0.  1.
          2   -1    0    0  501    0  0.00000000000E+00 -0.00000000000E+00 -0.25702810327E+03  0.25702810328E+03  0.25500000000E-02 0. -1.
         24    2    1    2    0    0 -0.22204460493E-15  0.00000000000E+00 -0.25079904596E+03  0.26325716263E+03  0.80026072152E+02 0.  0.
         66    2    3    3    0    0  0.10365637002E+01 -0.24277229537E+02 -0.22995056843E+03  0.23123953440E+03  0.20000026577E+01 0.  0.
        -13    1    3    3    0    0 -0.10365637002E+01  0.24277229537E+02 -0.20848477529E+02  0.32017628232E+02  0.10566000000E+00 0.  1.
         13    1    4    4    0    0  0.88919043551E-01 -0.10983508273E+02 -0.10227261575E+03  0.10286080136E+03  0.10566000000E+00 0. -1.
        -13    1    4    4    0    0  0.15562314210E+00 -0.38515261234E+01 -0.42877827341E+02  0.43050873552E+02  0.10566000000E+00 0.  1.
        -14    1    4    4    0    0  0.79202151459E+00 -0.94421951404E+01 -0.84800125343E+02  0.85327859491E+02  0.00000000000E+00 0.  1.
<mgrwt>
<rscale>  0 0.80026072E+02</rscale>
<asrwt>0</asrwt>
<pdfrwt beam="1">  1        2 0.39542777E-01 0.80026072E+02</pdfrwt>
<pdfrwt beam="2">  1       -1 0.95831687E-03 0.80026072E+02</pdfrwt>
<totfact> 0.24086343E+05</totfact>
</mgrwt>
</event>
<event>
 8    1  0.2389776E-020  0.8033107E+02  0.7818608E-02  0.1328115E+00
          2   -1    0    0  501    0  0.00000000000E+00  0.00000000000E+00  0.49495441347E+03  0.49495441348E+03  0.25500000000E-02 0. -1.
         -1   -1    0    0    0  501 -0.00000000000E+00 -0.00000000000E+00 -0.32594302663E+01  0.32594341629E+01  0.50400000000E-02 0.  1.
         24    2    1    2    0    0  0.00000000000E+00  0.00000000000E+00  0.49169498321E+03  0.49821384764E+03  0.80331074137E+02 0.  0.
         66    2    3    3    0    0  0.37419266878E+02 -0.12050226573E+02  0.29632976491E+03  0.29893266645E+03  0.20000009763E+01 0.  0.
        -13    1    3    3    0    0 -0.37419266878E+02  0.12050226573E+02  0.19536521829E+03  0.19928118119E+03  0.10566000000E+00 0.  1.
         13    1    4    4    0    0  0.19377184075E+02 -0.71507352170E+01  0.15290840296E+03  0.15429711318E+03  0.10566000000E+00 0. -1.
        -13    1    4    4    0    0  0.98448551695E+01 -0.24376776382E+01  0.78062919854E+02  0.78719083238E+02  0.10566000000E+00 0.  1.
         14    1    4    4    0    0  0.81972276337E+01 -0.24618137173E+01  0.65358442100E+02  0.65916470032E+02  0.00000000000E+00 0. -1.
<mgrwt>
<rscale>  0 0.80331074E+02</rscale>
<asrwt>0</asrwt>
<pdfrwt beam="1">  1        2 0.76146848E-01 0.80331074E+02</pdfrwt>
<pdfrwt beam="2">  1       -1 0.50145101E-03 0.80331074E+02</pdfrwt>
<totfact> 0.30027761E+05</totfact>
</mgrwt>
</event>
<event>
 8    1  0.2389776E-020  0.7954016E+02  0.7818608E-02  0.1330361E+00
         -1   -1    0    0    0  501 -0.00000000000E+00  0.00000000000E+00  0.44981549769E+01  0.44981578005E+01  0.50400000000E-02 0.  1.
          2   -1    0    0  501    0  0.00000000000E+00 -0.00000000000E+00 -0.35162392072E+03  0.35162392073E+03  0.25500000000E-02 0. -1.
         24    2    1    2    0    0  0.00000000000E+00  0.00000000000E+00 -0.34712576574E+03  0.35612207853E+03  0.79540163274E+02 0.  0.
         66    2    3    3    0    0 -0.69633868581E+01 -0.32687723302E+02 -0.26997802346E+03  0.27204615264E+03  0.20000005940E+01 0.  0.
        -13    1    3    3    0    0  0.69633868581E+01  0.32687723302E+02 -0.77147742284E+02  0.84075925893E+02  0.10566000000E+00 0.  1.
         13    1    4    4    0    0 -0.53225842050E+01 -0.24592991488E+02 -0.19814801319E+03  0.19973930867E+03  0.10566000000E+00 0. -1.
        -13    1    4    4    0    0 -0.13168986015E+01 -0.55317663273E+01 -0.47024936306E+02  0.47367609811E+02  0.10566000000E+00 0.  1.
         14    1    4    4    0    0 -0.32390405154E+00 -0.25629654863E+01 -0.24805073961E+02  0.24939234153E+02  0.00000000000E+00 0. -1.
<mgrwt>
<rscale>  0 0.79540163E+02</rscale>
<asrwt>0</asrwt>
<pdfrwt beam="1">  1        2 0.54095966E-01 0.79540163E+02</pdfrwt>
<pdfrwt beam="2">  1       -1 0.69202434E-03 0.79540163E+02</pdfrwt>
<totfact> 0.27404243E+05</totfact>
</mgrwt>
</event>
<event>
 8    1  0.2389776E-020  0.7549243E+02  0.7818608E-02  0.1342353E+00
          2   -1    0    0  501    0  0.00000000000E+00  0.00000000000E+00  0.25779728591E+03  0.25779728592E+03  0.25500000000E-02 0. -1.
         -1   -1    0    0    0  501 -0.00000000000E+00 -0.00000000000E+00 -0.55267310678E+01  0.55267333658E+01  0.50400000000E-02 0.  1.
         24    2    1    2    0    0  0.00000000000E+00  0.00000000000E+00  0.25227055484E+03  0.26332401929E+03  0.75492425407E+02 0.  0.
         66    2    3    3    0    0 -0.75527236295E+01 -0.14938559506E+02  0.24412742166E+03  0.24470881109E+03  0.20000057319E+01 0.  0.
        -13    1    3    3    0    0  0.75527236295E+01  0.14938559506E+02  0.81431331830E+01  0.18615208202E+02  0.10566000000E+00 0.  1.
         13    1    4    4    0    0 -0.26835546827E+01 -0.65806472756E+01  0.98941268706E+02  0.99196230783E+02  0.10566000000E+00 0. -1.
        -13    1    4    4    0    0 -0.39531860313E+01 -0.73378629641E+01  0.12859659440E+03  0.12886647030E+03  0.10566000000E+00 0.  1.
        -14    1    4    4    0    0 -0.91598291556E+00 -0.10200492664E+01  0.16589558553E+02  0.16646110002E+02  0.00000000000E+00 0.  1.
<mgrwt>
<rscale>  0 0.75492425E+02</rscale>
<asrwt>0</asrwt>
<pdfrwt beam="1">  1        2 0.39661127E-01 0.75492425E+02</pdfrwt>
<pdfrwt beam="2">  1       -1 0.85026637E-03 0.75492425E+02</pdfrwt>
<totfact> 0.28092901E+05</totfact>
</mgrwt>
</event>
<event>
 8    1  0.2389776E-020  0.8037312E+02  0.7818608E-02  0.1327996E+00
         -1   -1    0    0    0  501 -0.00000000000E+00  0.00000000000E+00  0.11040909523E+03  0.11040909534E+03  0.50400000000E-02 0.  1.
          2   -1    0    0  501    0  0.00000000000E+00 -0.00000000000E+00 -0.14627053445E+02  0.14627053668E+02  0.25500000000E-02 0. -1.
         24    2    1    2    0    0  0.00000000000E+00  0.71054273576E-14  0.95782041782E+02  0.12503614901E+03  0.80373123812E+02 0.  0.
         66    2    3    3    0    0  0.16866636438E+01 -0.39176906316E+02  0.61418438759E+02  0.72896498077E+02  0.19999973830E+01 0.  0.
        -13    1    3    3    0    0 -0.16866636438E+01  0.39176906316E+02  0.34363603023E+02  0.52139650933E+02  0.10566000000E+00 0.  1.
         13    1    4    4    0    0  0.10361127496E+01 -0.89409701321E+01  0.13524891461E+02  0.16246486685E+02  0.10566000000E+00 0. -1.
        -13    1    4    4    0    0  0.74359869266E+00 -0.29586882101E+02  0.46715073025E+02  0.55301408149E+02  0.10566000000E+00 0.  1.
         14    1    4    4    0    0 -0.93047798465E-01 -0.64905408237E+00  0.11784742730E+01  0.13486032429E+01  0.00000000000E+00 0. -1.
<mgrwt>
<rscale>  0 0.80373124E+02</rscale>
<asrwt>0</asrwt>
<pdfrwt beam="1">  1        2 0.22503160E-02 0.80373124E+02</pdfrwt>
<pdfrwt beam="2">  1       -1 0.16986014E-01 0.80373124E+02</pdfrwt>
<totfact> 0.11465772E+05</totfact>
</mgrwt>
</event>
<event>
 8    1  0.2389776E-020  0.8088440E+02  0.7818608E-02  0.1326560E+00
         -1   -1    0    0    0  501 -0.00000000000E+00  0.00000000000E+00  0.21154354318E+01  0.21154414357E+01  0.50400000000E-02 0.  1.
          2   -1    0    0  501    0  0.00000000000E+00 -0.00000000000E+00 -0.77315956505E+03  0.77315956505E+03  0.25500000000E-02 0. -1.
         24    2    1    2    0    0  0.00000000000E+00  0.00000000000E+00 -0.77104412962E+03  0.77527500649E+03  0.80884398182E+02 0.  0.
         66    2    3    3    0    0 -0.76771786018E+01  0.32461242987E+02 -0.60451624112E+03  0.60543914402E+03  0.19999930320E+01 0.  0.
        -13    1    3    3    0    0  0.76771786018E+01 -0.32461242987E+02 -0.16652788850E+03  0.16983586246E+03  0.10566000000E+00 0.  1.
         13    1    4    4    0    0 -0.46751642846E+01  0.18117033789E+02 -0.32858872876E+03  0.32912102320E+03  0.10566000000E+00 0. -1.
        -13    1    4    4    0    0 -0.49595891883E+00  0.44865896333E+01 -0.83512166742E+02  0.83634135494E+02  0.10566000000E+00 0.  1.
        -14    1    4    4    0    0 -0.25060553984E+01  0.98576195646E+01 -0.19241534561E+03  0.19268398533E+03  0.00000000000E+00 0.  1.
<mgrwt>
<rscale>  0 0.80884398E+02</rscale>
<asrwt>0</asrwt>
<pdfrwt beam="1">  1        2 0.11894740E+00 0.80884398E+02</pdfrwt>
<pdfrwt beam="2">  1       -1 0.32545269E-03 0.80884398E+02</pdfrwt>
<totfact> 0.33192354E+05</totfact>
</mgrwt>
</event>
<event>
 8    1  0.2389776E-020  0.7725896E+02  0.7818608E-02  0.1337015E+00
          2   -1    0    0  501    0  0.00000000000E+00  0.00000000000E+00  0.15809745528E+02  0.15809745734E+02  0.25500000000E-02 0. -1.
         -1   -1    0    0    0  501 -0.00000000000E+00 -0.00000000000E+00 -0.94387131123E+02  0.94387131257E+02  0.50400000000E-02 0.  1.
         24    2    1    2    0    0 -0.35527136788E-14  0.00000000000E+00 -0.78577385594E+02  0.11019687699E+03  0.77258955285E+02 0.  0.
         66    2    3    3    0    0  0.30714907514E+02 -0.23378788755E+02 -0.40039881755E+02  0.55652182717E+02  0.20000007314E+01 0.  0.
        -13    1    3    3    0    0 -0.30714907514E+02  0.23378788755E+02 -0.38537503840E+02  0.54544694274E+02  0.10566000000E+00 0.  1.
         13    1    4    4    0    0  0.12142916390E+02 -0.89567206920E+01 -0.15463425338E+02  0.21605599997E+02  0.10566000000E+00 0. -1.
        -13    1    4    4    0    0  0.89524796736E+01 -0.72459340494E+01 -0.13061733017E+02  0.17414662960E+02  0.10566000000E+00 0.  1.
        -14    1    4    4    0    0  0.96195114504E+01 -0.71761340141E+01 -0.11514723400E+02  0.16631919760E+02  0.00000000000E+00 0.  1.
<mgrwt>
<rscale>  0 0.77258955E+02</rscale>
<asrwt>0</asrwt>
<pdfrwt beam="1">  1        2 0.24322686E-02 0.77258955E+02</pdfrwt>
<pdfrwt beam="2">  1       -1 0.14521097E-01 0.77258955E+02</pdfrwt>
<totfact> 0.13086102E+05</totfact>
</mgrwt>
</event>
<event>
 8    1  0.2389776E-020  0.7937399E+02  0.7818608E-02  0.1330837E+00
         -1   -1    0    0    0  501 -0.00000000000E+00  0.00000000000E+00  0.23710159968E+01  0.23710213535E+01  0.50400000000E-02 0.  1.
          2   -1    0    0  501    0  0.00000000000E+00 -0.00000000000E+00 -0.66429571004E+03  0.66429571004E+03  0.25500000000E-02 0. -1.
         24    2    1    2    0    0  0.00000000000E+00  0.00000000000E+00 -0.66192469404E+03  0.66666673140E+03  0.79373989248E+02 0.  0.
         66    2    3    3    0    0  0.55932692331E+01  0.12725727685E+02 -0.64316311943E+03  0.64331642837E+03  0.19999999515E+01 0.  0.
        -13    1    3    3    0    0 -0.55932692331E+01 -0.12725727685E+02 -0.18761574607E+02  0.23350303030E+02  0.10566000000E+00 0.  1.
         13    1    4    4    0    0  0.26912985351E+01  0.50379937729E+01 -0.28985525525E+03  0.28991154622E+03  0.10566000000E+00 0. -1.
        -13    1    4    4    0    0 -0.41364834730E-01  0.45984705472E+00 -0.22322939995E+02  0.22327964180E+02  0.10566000000E+00 0.  1.
        -14    1    4    4    0    0  0.29433355327E+01  0.72278868573E+01 -0.33098492419E+03  0.33107691797E+03  0.00000000000E+00 0.  1.
<mgrwt>
<rscale>  0 0.79373989E+02</rscale>
<asrwt>0</asrwt>
<pdfrwt beam="1">  1        2 0.10219919E+00 0.79373989E+02</pdfrwt>
<pdfrwt beam="2">  1       -1 0.36477263E-03 0.79373989E+02</pdfrwt>
<totfact> 0.33718678E+05</totfact>
</mgrwt>
</event>
<event>
 8    1  0.2389776E-020  0.7964001E+02  0.7818608E-02  0.1330076E+00
          2   -1    0    0  501    0  0.00000000000E+00  0.00000000000E+00  0.25203869282E+03  0.25203869283E+03  0.25500000000E-02 0. -1.
         -1   -1    0    0    0  501 -0.00000000000E+00 -0.00000000000E+00 -0.62912266854E+01  0.62912287042E+01  0.50400000000E-02 0.  1.
         24    2    1    2    0    0 -0.17763568394E-14  0.00000000000E+00  0.24574746613E+03  0.25832992153E+03  0.79640010357E+02 0.  0.
         66    2    3    3    0    0 -0.10187420862E+02  0.11682369503E+02  0.24183973391E+03  0.24234421429E+03  0.19999996399E+01 0.  0.
        -13    1    3    3    0    0  0.10187420862E+02 -0.11682369503E+02  0.39077322181E+01  0.15985707246E+02  0.10566000000E+00 0.  1.
         13    1    4    4    0    0 -0.17836403071E+01  0.17135423826E+01  0.35130746468E+02  0.35217866370E+02  0.10566000000E+00 0. -1.
        -13    1    4    4    0    0 -0.48428531233E+01  0.47810204697E+01  0.98936120754E+02  0.99169947751E+02  0.10566000000E+00 0.  1.
         14    1    4    4    0    0 -0.35609274315E+01  0.51878066511E+01  0.10777286669E+03  0.10795640017E+03  0.00000000000E+00 0. -1.
<mgrwt>
<rscale>  0 0.79640010E+02</rscale>
<asrwt>0</asrwt>
<pdfrwt beam="1">  1        2 0.38775181E-01 0.79640010E+02</pdfrwt>
<pdfrwt beam="2">  1       -1 0.96788124E-03 0.79640010E+02</pdfrwt>
<totfact> 0.24223344E+05</totfact>
</mgrwt>
</event>
<event>
 8    1  0.2389776E-020  0.7909542E+02  0.7818608E-02  0.1331638E+00
          2   -1    0    0  501    0  0.00000000000E+00  0.00000000000E+00  0.32181311208E+02  0.32181311309E+02  0.25500000000E-02 0. -1.
         -1   -1    0    0    0  501 -0.00000000000E+00 -0.00000000000E+00 -0.48600297452E+02  0.48600297714E+02  0.50400000000E-02 0.  1.
         24    2    1    2    0    0  0.00000000000E+00  0.00000000000E+00 -0.16418986244E+02  0.80781609023E+02  0.79095418622E+02 0.  0.
         66    2    3    3    0    0 -0.17312946220E+02 -0.35209776064E+02 -0.33648168603E+01  0.39430805650E+02  0.20000011094E+01 0.  0.
        -13    1    3    3    0    0  0.17312946220E+02  0.35209776064E+02 -0.13054169384E+02  0.41350803373E+02  0.10566000000E+00 0.  1.
         13    1    4    4    0    0 -0.45463232393E+01 -0.95497969912E+01 -0.30582418423E+00  0.10581699771E+02  0.10566000000E+00 0. -1.
        -13    1    4    4    0    0 -0.29956842472E+00 -0.10172094020E+01 -0.20416011317E+00  0.10850352971E+01  0.10566000000E+00 0.  1.
         14    1    4    4    0    0 -0.12467054556E+02 -0.24642769670E+02 -0.28548325629E+01  0.27764070582E+02  0.00000000000E+00 0. -1.
<mgrwt>
<rscale>  0 0.79095419E+02</rscale>
<asrwt>0</asrwt>
<pdfrwt beam="1">  1        2 0.49509710E-02 0.79095419E+02</pdfrwt>
<pdfrwt beam="2">  1       -1 0.74769689E-02 0.79095419E+02</pdfrwt>
<totfact> 0.14083301E+05</totfact>
</mgrwt>
</event>
<event>
 8    1  0.2389776E-020  0.7833588E+02  0.7818608E-02  0.1333841E+00
          2   -1    0    0  501    0  0.00000000000E+00  0.00000000000E+00  0.45104250101E+03  0.45104250102E+03  0.25500000000E-02 0. -1.
         -1   -1    0    0    0  501 -0.00000000000E+00 -0.00000000000E+00 -0.34012903752E+01  0.34012941093E+01  0.50400000000E-02 0.  1.
         24    2    1    2    0    0  0.00000000000E+00  0.00000000000E+00  0.44764121064E+03  0.45444379513E+03  0.78335876011E+02 0.  0.
         66    2    3    3    0    0 -0.26091446968E+02 -0.23986255371E+02  0.32034643741E+03  0.32230721993E+03  0.20000007569E+01 0.  0.
        -13    1    3    3    0    0  0.26091446968E+02  0.23986255371E+02  0.12729477323E+03  0.13213657520E+03  0.10566000000E+00 0.  1.
         13    1    4    4    0    0 -0.17029477085E+02 -0.14771720924E+02  0.20533514663E+03  0.20656897258E+03  0.10566000000E+00 0. -1.
        -13    1    4    4    0    0 -0.77107232879E+01 -0.77041130375E+01  0.94236535034E+02  0.94864873955E+02  0.10566000000E+00 0.  1.
         14    1    4    4    0    0 -0.13512465952E+01 -0.15104214087E+01  0.20774755749E+02  0.20873373389E+02  0.00000000000E+00 0. -1.
<mgrwt>
<rscale>  0 0.78335876E+02</rscale>
<asrwt>0</asrwt>
<pdfrwt beam="1">  1        2 0.69391168E-01 0.78335876E+02</pdfrwt>
<pdfrwt beam="2">  1       -1 0.52327563E-03 0.78335876E+02</pdfrwt>
<totfact> 0.31099249E+05</totfact>
</mgrwt>
</event>
<event>
 8    1  0.2389776E-020  0.8047810E+02  0.7818608E-02  0.1327700E+00
          2   -1    0    0  501    0  0.00000000000E+00  0.00000000000E+00  0.17621014152E+02  0.17621014336E+02  0.25500000000E-02 0. -1.
         -1   -1    0    0    0  501 -0.00000000000E+00 -0.00000000000E+00 -0.91889206053E+02  0.91889206192E+02  0.50400000000E-02 0.  1.
         24    2    1    2    0    0  0.00000000000E+00  0.00000000000E+00 -0.74268191902E+02  0.10951022053E+03  0.80478096844E+02 0.  0.
         66    2    3    3    0    0 -0.18865157822E+02  0.25781493868E+02 -0.39203126246E+01  0.32248231888E+02  0.20000007812E+01 0.  0.
        -13    1    3    3    0    0  0.18865157822E+02 -0.25781493868E+02 -0.70347879277E+02  0.77261988640E+02  0.10566000000E+00 0.  1.
         13    1    4    4    0    0 -0.11809984324E+01  0.11224093187E+01 -0.41755814612E-01  0.16332383658E+01  0.10566000000E+00 0. -1.
        -13    1    4    4    0    0 -0.87913435103E+01  0.11324001941E+02 -0.15950750497E+01  0.14424845549E+02  0.10566000000E+00 0.  1.
        -14    1    4    4    0    0 -0.88928158789E+01  0.13335082609E+02 -0.22834817604E+01  0.16190147973E+02  0.00000000000E+00 0.  1.
<mgrwt>
<rscale>  0 0.80478097E+02</rscale>
<asrwt>0</asrwt>
<pdfrwt beam="1">  1        2 0.27109253E-02 0.80478097E+02</pdfrwt>
<pdfrwt beam="2">  1       -1 0.14136801E-01 0.80478097E+02</pdfrwt>
<totfact> 0.11889839E+05</totfact>
</mgrwt>
</event>
<event>
 8    1  0.2389776E-020  0.8451026E+02  0.7818608E-02  0.1316718E+00
         -1   -1    0    0    0  501 -0.00000000000E+00  0.00000000000E+00  0.27658162803E+02  0.27658163262E+02  0.50400000000E-02 0.  1.
          2   -1    0    0  501    0  0.00000000000E+00 -0.00000000000E+00 -0.64555848879E+02  0.64555848930E+02  0.25500000000E-02 0. -1.
         24    2    1    2    0    0  0.71054273576E-14  0.88817841970E-15 -0.36897686077E+02  0.92214012192E+02  0.84510264505E+02 0.  0.
         66    2    3    3    0    0 -0.32696917355E+02 -0.62047894859E+01 -0.46827214967E+02  0.57483700861E+02  0.19999965011E+01 0.  0.
        -13    1    3    3    0    0  0.32696917355E+02  0.62047894859E+01  0.99295288905E+01  0.34730311331E+02  0.10566000000E+00 0.  1.
         13    1    4    4    0    0 -0.21347319658E+01 -0.10523078691E+00 -0.24840151895E+01  0.32786658234E+01  0.10566000000E+00 0.  1.
        -13    1    4    4    0    0 -0.17124497995E+02 -0.30275537927E+01 -0.24706009762E+02  0.30212788616E+02  0.10566000000E+00 0. -1.
         14    1    4    4    0    0 -0.13437687394E+02 -0.30720049063E+01 -0.19637190016E+02  0.23992246422E+02  0.00000000000E+00 0. -1.
<mgrwt>
<rscale>  0 0.84510265E+02</rscale>
<asrwt>0</asrwt>
<pdfrwt beam="1">  1        2 0.99316690E-02 0.84510265E+02</pdfrwt>
<pdfrwt beam="2">  1       -1 0.42551020E-02 0.84510265E+02</pdfrwt>
<totfact> 0.13637532E+05</totfact>
</mgrwt>
</event>
<event>
 8    1  0.2389776E-020  0.7527658E+02  0.7818608E-02  0.1343017E+00
          2   -1    0    0  501    0  0.00000000000E+00  0.00000000000E+00  0.16548861068E+04  0.16548861068E+04  0.25500000000E-02 0. -1.
         -1   -1    0    0    0  501 -0.00000000000E+00 -0.00000000000E+00 -0.85602785014E+00  0.85604268691E+00  0.50400000000E-02 0.  1.
         24    2    1    2    0    0  0.00000000000E+00  0.35527136788E-14  0.16540300790E+04  0.16557421495E+04  0.75276580178E+02 0.  0.
         66    2    3    3    0    0  0.82007888372E+01  0.16858179577E+02  0.15447921288E+04  0.15449071727E+04  0.19999989044E+01 0.  0.
        -13    1    3    3    0    0 -0.82007888372E+01 -0.16858179577E+02  0.10923795020E+03  0.11083497681E+03  0.10566000000E+00 0.  1.
         13    1    4    4    0    0  0.57877092639E+01  0.12292160590E+02  0.11388021759E+04  0.11388832257E+04  0.10566000000E+00 0. -1.
        -13    1    4    4    0    0  0.21695240595E+01  0.43824369438E+01  0.39288722976E+03  0.39291767467E+03  0.10566000000E+00 0.  1.
        -14    1    4    4    0    0  0.24355551374E+00  0.18358204334E+00  0.13102723126E+02  0.13106272353E+02  0.00000000000E+00 0.  1.
<mgrwt>
<rscale>  0 0.75276580E+02</rscale>
<asrwt>0</asrwt>
<pdfrwt beam="1">  1        2 0.25459799E+00 0.75276580E+02</pdfrwt>
<pdfrwt beam="2">  1       -1 0.13169767E-03 0.75276580E+02</pdfrwt>
<totfact> 0.37243820E+05</totfact>
</mgrwt>
</event>
<event>
 8    1  0.2389776E-020  0.7974757E+02  0.7818608E-02  0.1329769E+00
         -1   -1    0    0    0  501 -0.00000000000E+00  0.00000000000E+00  0.14650749494E+02  0.14650750361E+02  0.50400000000E-02 0.  1.
          2   -1    0    0  501    0  0.00000000000E+00 -0.00000000000E+00 -0.10852130890E+03  0.10852130893E+03  0.25500000000E-02 0. -1.
         24    2    1    2    0    0  0.17763568394E-14  0.71054273576E-14 -0.93870559411E+02  0.12317205930E+03  0.79747565901E+02 0.  0.
         66    2    3    3    0    0 -0.98563866476E+01 -0.37734116856E+02 -0.59597914938E+02  0.71252532566E+02  0.19999998459E+01 0.  0.
        -13    1    3    3    0    0  0.98563866476E+01  0.37734116856E+02 -0.34272644472E+02  0.51919526730E+02  0.10566000000E+00 0.  1.
         13    1    4    4    0    0 -0.56846628802E+01 -0.23516593727E+02 -0.36435945790E+02  0.43737111041E+02  0.10566000000E+00 0. -1.
        -13    1    4    4    0    0 -0.20698326394E+01 -0.74849997118E+01 -0.11210939004E+02  0.13638392326E+02  0.10566000000E+00 0.  1.
        -14    1    4    4    0    0 -0.21018911280E+01 -0.67325234176E+01 -0.11951030144E+02  0.13877029199E+02  0.00000000000E+00 0.  1.
<mgrwt>
<rscale>  0 0.79747566E+02</rscale>
<asrwt>0</asrwt>
<pdfrwt beam="1">  1        2 0.16695586E-01 0.79747566E+02</pdfrwt>
<pdfrwt beam="2">  1       -1 0.22539616E-02 0.79747566E+02</pdfrwt>
<totfact> 0.18296532E+05</totfact>
</mgrwt>
</event>
<event>
 8    1  0.2389776E-020  0.7593121E+02  0.7818608E-02  0.1341011E+00
          2   -1    0    0  501    0  0.00000000000E+00  0.00000000000E+00  0.16573676981E+03  0.16573676983E+03  0.25500000000E-02 0. -1.
         -1   -1    0    0    0  501 -0.00000000000E+00 -0.00000000000E+00 -0.86968454801E+01  0.86968469405E+01  0.50400000000E-02 0.  1.
         24    2    1    2    0    0  0.00000000000E+00  0.00000000000E+00  0.15703992433E+03  0.17443361677E+03  0.75931211144E+02 0.  0.
         66    2    3    3    0    0  0.42352504861E+01  0.28886458375E+02  0.13423328259E+03  0.13738609464E+03  0.20000057190E+01 0.  0.
        -13    1    3    3    0    0 -0.42352504861E+01 -0.28886458375E+02  0.22806641741E+02  0.37047522126E+02  0.10566000000E+00 0.  1.
         13    1    4    4    0    0  0.76257692700E+00  0.56904558496E+01  0.25908466002E+02  0.26537192503E+02  0.10566000000E+00 0. -1.
        -13    1    4    4    0    0  0.28032992913E+01  0.21202670495E+02  0.96903049316E+02  0.99235194633E+02  0.10566000000E+00 0.  1.
        -14    1    4    4    0    0  0.66937426784E+00  0.19933320301E+01  0.11421767268E+02  0.11613707505E+02  0.00000000000E+00 0.  1.
<mgrwt>
<rscale>  0 0.75931211E+02</rscale>
<asrwt>0</asrwt>
<pdfrwt beam="1">  1        2 0.25497966E-01 0.75931211E+02</pdfrwt>
<pdfrwt beam="2">  1       -1 0.13379763E-02 0.75931211E+02</pdfrwt>
<totfact> 0.23752302E+05</totfact>
</mgrwt>
</event>
<event>
 8    1  0.2389776E-020  0.8817959E+02  0.7818608E-02  0.1307321E+00
         -1   -1    0    0    0  501 -0.00000000000E+00  0.00000000000E+00  0.23873350120E+02  0.23873350652E+02  0.50400000000E-02 0.  1.
          2   -1    0    0  501    0  0.00000000000E+00 -0.00000000000E+00 -0.81425941187E+02  0.81425941227E+02  0.25500000000E-02 0. -1.
         24    2    1    2    0    0 -0.71054273576E-14 -0.35527136788E-14 -0.57552591067E+02  0.10529929188E+03  0.88179590222E+02 0.  0.
         66    2    3    3    0    0 -0.36755183303E+02 -0.18404481055E+02 -0.47756429959E+02  0.63042406535E+02  0.19999991789E+01 0.  0.
        -13    1    3    3    0    0  0.36755183303E+02  0.18404481055E+02 -0.97961611076E+01  0.42256885344E+02  0.10566000000E+00 0.  1.
         13    1    4    4    0    0 -0.21359176119E+02 -0.10413935801E+02 -0.26282839628E+02  0.35432517358E+02  0.10566000000E+00 0. -1.
        -13    1    4    4    0    0 -0.19820192242E+01 -0.85800742408E+00 -0.26398273489E+01  0.34123935020E+01  0.10566000000E+00 0.  1.
        -14    1    4    4    0    0 -0.13413987960E+02 -0.71325378303E+01 -0.18833762982E+02  0.24197495675E+02  0.00000000000E+00 0.  1.
<mgrwt>
<rscale>  0 0.88179590E+02</rscale>
<asrwt>0</asrwt>
<pdfrwt beam="1">  1        2 0.12527068E-01 0.88179590E+02</pdfrwt>
<pdfrwt beam="2">  1       -1 0.36728232E-02 0.88179590E+02</pdfrwt>
<totfact> 0.12881366E+05</totfact>
</mgrwt>
</event>
<event>
 8    1  0.2389776E-020  0.7833398E+02  0.7818608E-02  0.1333847E+00
          2   -1    0    0  501    0  0.00000000000E+00  0.00000000000E+00  0.99706373066E+02  0.99706373098E+02  0.25500000000E-02 0. -1.
         -1   -1    0    0    0  501 -0.00000000000E+00 -0.00000000000E+00 -0.15385706947E+02  0.15385707773E+02  0.50400000000E-02 0.  1.
         24    2    1    2    0    0  0.35527136788E-14  0.35527136788E-14  0.84320666118E+02  0.11509208087E+03  0.78333979502E+02 0.  0.
         66    2    3    3    0    0  0.24815361146E+02 -0.20988696733E+02  0.74233548115E+02  0.81061379248E+02  0.20000001228E+01 0.  0.
        -13    1    3    3    0    0 -0.24815361146E+02  0.20988696733E+02  0.10087118004E+02  0.34030701624E+02  0.10566000000E+00 0.  1.
         13    1    4    4    0    0  0.67368628517E+00 -0.30774789697E+00  0.15752929590E+01  0.17439248611E+01  0.10566000000E+00 0. -1.
        -13    1    4    4    0    0  0.19959517393E+02 -0.17654776953E+02  0.61258931107E+02  0.66803752052E+02  0.10566000000E+00 0. -1.
         14    1    4    4    0    0  0.41821574682E+01 -0.30261718832E+01  0.11399324049E+02  0.12513702335E+02  0.00000000000E+00 0. -1.
<mgrwt>
<rscale>  0 0.78333980E+02</rscale>
<asrwt>0</asrwt>
<pdfrwt beam="1">  1        2 0.15339442E-01 0.78333980E+02</pdfrwt>
<pdfrwt beam="2">  1       -1 0.23670320E-02 0.78333980E+02</pdfrwt>
<totfact> 0.18737238E+05</totfact>
</mgrwt>
</event>
<event>
 8    1  0.2389776E-020  0.8022446E+02  0.7818608E-02  0.1328416E+00
         -1   -1    0    0    0  501 -0.00000000000E+00  0.00000000000E+00  0.72614131686E+02  0.72614131860E+02  0.50400000000E-02 0.  1.
          2   -1    0    0  501    0  0.00000000000E+00 -0.00000000000E+00 -0.22158096312E+02  0.22158096459E+02  0.25500000000E-02 0. -1.
         24    2    1    2    0    0  0.00000000000E+00 -0.35527136788E-14  0.50456035373E+02  0.94772228320E+02  0.80224458584E+02 0.  0.
         66    2    3    3    0    0 -0.31592418754E+02 -0.22957980177E+02  0.35930437230E+02  0.53105047686E+02  0.19999984099E+01 0.  0.
        -13    1    3    3    0    0  0.31592418754E+02  0.22957980177E+02  0.14525598143E+02  0.41667180634E+02  0.10566000000E+00 0.  1.
         13    1    4    4    0    0 -0.14077104155E+02 -0.10546695414E+02  0.16930028326E+02  0.24413821264E+02  0.10566000000E+00 0. -1.
        -13    1    4    4    0    0 -0.69110925435E+01 -0.48213906090E+01  0.82076367108E+01  0.11763735460E+02  0.10566000000E+00 0.  1.
        -14    1    4    4    0    0 -0.10604222055E+02 -0.75898941545E+01  0.10792772193E+02  0.16927490962E+02  0.00000000000E+00 0.  1.
<mgrwt>
<rscale>  0 0.80224459E+02</rscale>
<asrwt>0</asrwt>
<pdfrwt beam="1">  1        2 0.34089379E-02 0.80224459E+02</pdfrwt>
<pdfrwt beam="2">  1       -1 0.11171405E-01 0.80224459E+02</pdfrwt>
<totfact> 0.12572756E+05</totfact>
</mgrwt>
</event>
<event>
 8    1  0.2389776E-020  0.8186435E+02  0.7818608E-02  0.1323842E+00
         -1   -1    0    0    0  501 -0.00000000000E+00  0.00000000000E+00  0.16588665479E+01  0.16588742042E+01  0.50400000000E-02 0.  1.
          2   -1    0    0  501    0  0.00000000000E+00 -0.00000000000E+00 -0.10099902262E+04  0.10099902262E+04  0.25500000000E-02 0. -1.
         24    2    1    2    0    0  0.17763568394E-14  0.00000000000E+00 -0.10083313597E+04  0.10116491005E+04  0.81864348148E+02 0.  0.
         66    2    3    3    0    0  0.79630409293E+01 -0.26689077424E+02 -0.87472489359E+03  0.87517047273E+03  0.20000006549E+01 0.  0.
        -13    1    3    3    0    0 -0.79630409293E+01  0.26689077424E+02 -0.13360646611E+03  0.13647862772E+03  0.10566000000E+00 0.  1.
         13    1    4    4    0    0  0.66750490085E+01 -0.22136904885E+02 -0.71999307287E+03  0.72036423772E+03  0.10566000000E+00 0. -1.
        -13    1    4    4    0    0  0.34530790684E+00 -0.13995921971E+01 -0.59597031929E+02  0.59614557573E+02  0.10566000000E+00 0.  1.
         14    1    4    4    0    0  0.94268401397E+00 -0.31525803418E+01 -0.95134788795E+02  0.95191677446E+02  0.00000000000E+00 0. -1.
<mgrwt>
<rscale>  0 0.81864348E+02</rscale>
<asrwt>0</asrwt>
<pdfrwt beam="1">  1        2 0.15538262E+00 0.81864348E+02</pdfrwt>
<pdfrwt beam="2">  1       -1 0.25521164E-03 0.81864348E+02</pdfrwt>
<totfact> 0.33196156E+05</totfact>
</mgrwt>
</event>
<event>
 8    1  0.2389776E-020  0.7864902E+02  0.7818608E-02  0.1332930E+00
         -1   -1    0    0    0  501 -0.00000000000E+00  0.00000000000E+00  0.37405685747E+02  0.37405686087E+02  0.50400000000E-02 0.  1.
          2   -1    0    0  501    0  0.00000000000E+00 -0.00000000000E+00 -0.41341767127E+02  0.41341767206E+02  0.25500000000E-02 0. -1.
         24    2    1    2    0    0  0.88817841970E-15  0.00000000000E+00 -0.39360813800E+01  0.78747453293E+02  0.78649022012E+02 0.  0.
         66    2    3    3    0    0  0.73086265694E+01 -0.17077517058E+02 -0.36644351852E+02  0.41132300329E+02  0.19999991355E+01 0.  0.
        -13    1    3    3    0    0 -0.73086265694E+01  0.17077517058E+02  0.32708270472E+02  0.37615152964E+02  0.10566000000E+00 0.  1.
         13    1    4    4    0    0  0.31589006123E+01 -0.65492625006E+01 -0.13886373888E+02  0.15675268297E+02  0.10566000000E+00 0. -1.
        -13    1    4    4    0    0  0.39684963929E+01 -0.90252419949E+01 -0.19009639169E+02  0.21414516152E+02  0.10566000000E+00 0.  1.
        -14    1    4    4    0    0  0.18122956419E+00 -0.15030125628E+01 -0.37483387946E+01  0.40425158798E+01  0.00000000000E+00 0.  1.
<mgrwt>
<rscale>  0 0.78649022E+02</rscale>
<asrwt>0</asrwt>
<pdfrwt beam="1">  1        2 0.63602719E-02 0.78649022E+02</pdfrwt>
<pdfrwt beam="2">  1       -1 0.57547209E-02 0.78649022E+02</pdfrwt>
<totfact> 0.15042521E+05</totfact>
</mgrwt>
</event>
<event>
 8    1  0.2389776E-020  0.8578345E+02  0.7818608E-02  0.1313396E+00
          2   -1    0    0  501    0  0.00000000000E+00  0.00000000000E+00  0.15041272666E+03  0.15041272668E+03  0.25500000000E-02 0. -1.
         -1   -1    0    0    0  501 -0.00000000000E+00 -0.00000000000E+00 -0.12231011617E+02  0.12231012655E+02  0.50400000000E-02 0.  1.
         24    2    1    2    0    0  0.35527136788E-14 -0.71054273576E-14  0.13818171504E+03  0.16264373933E+03  0.85783445799E+02 0.  0.
         66    2    3    3    0    0 -0.18770080987E+02  0.30092664005E+02  0.11478210421E+03  0.12015330137E+03  0.20000040964E+01 0.  0.
        -13    1    3    3    0    0  0.18770080987E+02 -0.30092664005E+02  0.23399610829E+02  0.42490437961E+02  0.10566000000E+00 0.  1.
         13    1    4    4    0    0 -0.49936148924E+01  0.86886133946E+01  0.30317555332E+02  0.31931074485E+02  0.10566000000E+00 0. -1.
        -13    1    4    4    0    0 -0.43427602940E+01  0.69434668515E+01  0.25669941005E+02  0.26944912955E+02  0.10566000000E+00 0.  1.
        -14    1    4    4    0    0 -0.94337058008E+01  0.14460583759E+02  0.58794607873E+02  0.61277313932E+02  0.00000000000E+00 0.  1.
<mgrwt>
<rscale>  0 0.85783446E+02</rscale>
<asrwt>0</asrwt>
<pdfrwt beam="1">  1        2 0.23140419E-01 0.85783446E+02</pdfrwt>
<pdfrwt beam="2">  1       -1 0.18816942E-02 0.85783446E+02</pdfrwt>
<totfact> 0.16646710E+05</totfact>
</mgrwt>
</event>
<event>
 8    1  0.2389776E-020  0.7850035E+02  0.7818608E-02  0.1333362E+00
          2   -1    0    0  501    0  0.00000000000E+00  0.00000000000E+00  0.81674001645E+03  0.81674001645E+03  0.25500000000E-02 0. -1.
         -1   -1    0    0    0  501 -0.00000000000E+00 -0.00000000000E+00 -0.18862470301E+01  0.18862537634E+01  0.50400000000E-02 0.  1.
         24    2    1    2    0    0  0.00000000000E+00  0.00000000000E+00  0.81485376942E+03  0.81862627022E+03  0.78500348739E+02 0.  0.
         66    2    3    3    0    0 -0.21624708191E+02  0.11814513870E+02  0.72594397297E+03  0.72636482751E+03  0.20000010830E+01 0.  0.
        -13    1    3    3    0    0  0.21624708191E+02 -0.11814513870E+02  0.88909796447E+02  0.92261442708E+02  0.10566000000E+00 0.  1.
         13    1    4    4    0    0 -0.12070196187E+02  0.66099490247E+01  0.42972166749E+03  0.42994197718E+03  0.10566000000E+00 0. -1.
        -13    1    4    4    0    0 -0.88792723908E+01  0.48266773953E+01  0.26988338709E+03  0.27007256819E+03  0.10566000000E+00 0.  1.
        -14    1    4    4    0    0 -0.67523961299E+00  0.37788744958E+00  0.26338918387E+02  0.26350282147E+02  0.00000000000E+00 0.  1.
<mgrwt>
<rscale>  0 0.78500349E+02</rscale>
<asrwt>0</asrwt>
<pdfrwt beam="1">  1        2 0.12565246E+00 0.78500349E+02</pdfrwt>
<pdfrwt beam="2">  1       -1 0.29019203E-03 0.78500349E+02</pdfrwt>
<totfact> 0.36220706E+05</totfact>
</mgrwt>
</event>
<event>
 8    1  0.2389776E-020  0.7938069E+02  0.7818608E-02  0.1330818E+00
         -1   -1    0    0    0  501 -0.00000000000E+00  0.00000000000E+00  0.72407845304E+01  0.72407862844E+01  0.50400000000E-02 0.  1.
          2   -1    0    0  501    0  0.00000000000E+00 -0.00000000000E+00 -0.21756249087E+03  0.21756249089E+03  0.25500000000E-02 0. -1.
         24    2    1    2    0    0  0.00000000000E+00  0.00000000000E+00 -0.21032170634E+03  0.22480327717E+03  0.79380685740E+02 0.  0.
         66    2    3    3    0    0 -0.47937453168E+01  0.12725686370E+02 -0.21074974797E+03  0.21119748901E+03  0.20000014566E+01 0.  0.
        -13    1    3    3    0    0  0.47937453168E+01 -0.12725686370E+02  0.42804163364E+00  0.13605788159E+02  0.10566000000E+00 0.  1.
         13    1    4    4    0    0 -0.58539451668E+00  0.35290230502E+01 -0.62750990167E+02  0.62852960323E+02  0.10566000000E+00 0. -1.
        -13    1    4    4    0    0 -0.19215888709E+01  0.40967219010E+01 -0.63452921145E+02  0.63614149370E+02  0.10566000000E+00 0.  1.
         14    1    4    4    0    0 -0.22867619292E+01  0.50999414186E+01 -0.84545836662E+02  0.84730379318E+02  0.00000000000E+00 0. -1.
<mgrwt>
<rscale>  0 0.79380686E+02</rscale>
<asrwt>0</asrwt>
<pdfrwt beam="1">  1        2 0.33471147E-01 0.79380686E+02</pdfrwt>
<pdfrwt beam="2">  1       -1 0.11139672E-02 0.79380686E+02</pdfrwt>
<totfact> 0.23187601E+05</totfact>
</mgrwt>
</event>
<event>
 8    1  0.2389776E-020  0.8147052E+02  0.7818608E-02  0.1324929E+00
         -1   -1    0    0    0  501 -0.00000000000E+00  0.00000000000E+00  0.13520908510E+02  0.13520909450E+02  0.50400000000E-02 0.  1.
          2   -1    0    0  501    0  0.00000000000E+00 -0.00000000000E+00 -0.12272557152E+03  0.12272557154E+03  0.25500000000E-02 0. -1.
         24    2    1    2    0    0  0.00000000000E+00  0.00000000000E+00 -0.10920466301E+03  0.13624648099E+03  0.81470517125E+02 0.  0.
         66    2    3    3    0    0  0.26895202939E+02 -0.28137003208E+02 -0.34684922905E+02  0.52173621404E+02  0.20000007163E+01 0.  0.
        -13    1    3    3    0    0 -0.26895202939E+02  0.28137003208E+02 -0.74519740102E+02  0.84072859589E+02  0.10566000000E+00 0.  1.
         13    1    4    4    0    0  0.12950638898E+02 -0.13960565284E+02 -0.17782357432E+02  0.26054554895E+02  0.10566000000E+00 0. -1.
        -13    1    4    4    0    0  0.41080112354E+00 -0.63865018698E+00 -0.56090877800E+00  0.94995490276E+00  0.10566000000E+00 0.  1.
         14    1    4    4    0    0  0.13533762917E+02 -0.13537787737E+02 -0.16341656696E+02  0.25169111606E+02  0.00000000000E+00 0. -1.
<mgrwt>
<rscale>  0 0.81470517E+02</rscale>
<asrwt>0</asrwt>
<pdfrwt beam="1">  1        2 0.18880856E-01 0.81470517E+02</pdfrwt>
<pdfrwt beam="2">  1       -1 0.20801399E-02 0.81470517E+02</pdfrwt>
<totfact> 0.17920648E+05</totfact>
</mgrwt>
</event>
<event>
 8    1  0.2389776E-020  0.7835383E+02  0.7818608E-02  0.1333789E+00
          2   -1    0    0  501    0  0.00000000000E+00  0.00000000000E+00  0.19693515525E+03  0.19693515527E+03  0.25500000000E-02 0. -1.
         -1   -1    0    0    0  501 -0.00000000000E+00 -0.00000000000E+00 -0.77935821451E+01  0.77935837747E+01  0.50400000000E-02 0.  1.
         24    2    1    2    0    0 -0.71054273576E-14  0.00000000000E+00  0.18914157311E+03  0.20472873904E+03  0.78353825133E+02 0.  0.
         66    2    3    3    0    0 -0.35774754509E+02 -0.92413005301E+01  0.12845769449E+03  0.13368101576E+03  0.20000013192E+01 0.  0.
        -13    1    3    3    0    0  0.35774754509E+02  0.92413005301E+01  0.60683878615E+02  0.71047723281E+02  0.10566000000E+00 0.  1.
         13    1    4    4    0    0 -0.13204363590E+01 -0.23629287809E+00  0.45925962831E+01  0.47856547261E+01  0.10566000000E+00 0.  1.
        -13    1    4    4    0    0 -0.93184239312E+00  0.14942248291E-01  0.29384730575E+01  0.30845326164E+01  0.10566000000E+00 0.  1.
         14    1    4    4    0    0 -0.33522475757E+02 -0.90199499003E+01  0.12092662515E+03  0.12581082842E+03  0.00000000000E+00 0. -1.
<mgrwt>
<rscale>  0 0.78353825E+02</rscale>
<asrwt>0</asrwt>
<pdfrwt beam="1">  1        2 0.30297715E-01 0.78353825E+02</pdfrwt>
<pdfrwt beam="2">  1       -1 0.11990128E-02 0.78353825E+02</pdfrwt>
<totfact> 0.23177092E+05</totfact>
</mgrwt>
</event>
<event>
 8    1  0.2389776E-020  0.7996987E+02  0.7818608E-02  0.1329137E+00
         -1   -1    0    0    0  501 -0.00000000000E+00  0.00000000000E+00  0.51037409007E+01  0.51037433892E+01  0.50400000000E-02 0.  1.
          2   -1    0    0  501    0  0.00000000000E+00 -0.00000000000E+00 -0.31325934251E+03  0.31325934252E+03  0.25500000000E-02 0. -1.
         24    2    1    2    0    0  0.00000000000E+00  0.00000000000E+00 -0.30815560161E+03  0.31836308591E+03  0.79969867241E+02 0.  0.
         66    2    3    3    0    0  0.22426560827E+02 -0.33010717588E+02 -0.16226614105E+03  0.16711360997E+03  0.19999997765E+01 0.  0.
        -13    1    3    3    0    0 -0.22426560827E+02  0.33010717588E+02 -0.14588946056E+03  0.15124947594E+03  0.10566000000E+00 0.  1.
         13    1    4    4    0    0  0.11472889846E+02 -0.17154691470E+02 -0.86359203875E+02  0.88790956177E+02  0.10566000000E+00 0. -1.
        -13    1    4    4    0    0  0.50893296502E+01 -0.69826935486E+01 -0.36013868346E+02  0.37036052202E+02  0.10566000000E+00 0.  1.
        -14    1    4    4    0    0  0.58643413309E+01 -0.88733325695E+01 -0.39893068829E+02  0.41286601589E+02  0.00000000000E+00 0.  1.
<mgrwt>
<rscale>  0 0.79969867E+02</rscale>
<asrwt>0</asrwt>
<pdfrwt beam="1">  1        2 0.48193730E-01 0.79969867E+02</pdfrwt>
<pdfrwt beam="2">  1       -1 0.78519135E-03 0.79969867E+02</pdfrwt>
<totfact> 0.25922015E+05</totfact>
</mgrwt>
</event>
<event>
 8    1  0.2389776E-020  0.8037605E+02  0.7818608E-02  0.1327988E+00
         -1   -1    0    0    0  501 -0.00000000000E+00  0.00000000000E+00  0.84007109456E+00  0.84008621315E+00  0.50400000000E-02 0.  1.
          2   -1    0    0  501    0  0.00000000000E+00 -0.00000000000E+00 -0.19225311124E+04  0.19225311124E+04  0.25500000000E-02 0. -1.
         24    2    1    2    0    0  0.00000000000E+00  0.00000000000E+00 -0.19216910413E+04  0.19233711986E+04  0.80376050086E+02 0.  0.
         66    2    3    3    0    0 -0.41546995184E+01  0.16879762261E+02 -0.18278392165E+04  0.18279229714E+04  0.19999890492E+01 0.  0.
        -13    1    3    3    0    0  0.41546995184E+01 -0.16879762261E+02 -0.93851824731E+02  0.95448227178E+02  0.10566000000E+00 0.  1.
         13    1    4    4    0    0 -0.12488830984E+00  0.28654933610E+01 -0.30766341797E+03  0.30767680538E+03  0.10566000000E+00 0. -1.
        -13    1    4    4    0    0 -0.19461155878E+01  0.56419589018E+01 -0.57428774154E+03  0.57431876193E+03  0.10566000000E+00 0.  1.
         14    1    4    4    0    0 -0.20836956208E+01  0.83723099985E+01 -0.94588805705E+03  0.94592740410E+03  0.00000000000E+00 0. -1.
<mgrwt>
<rscale>  0 0.80376050E+02</rscale>
<asrwt>0</asrwt>
<pdfrwt beam="1">  1        2 0.29577050E+00 0.80376050E+02</pdfrwt>
<pdfrwt beam="2">  1       -1 0.12924441E-03 0.80376050E+02</pdfrwt>
<totfact> 0.28394090E+05</totfact>
</mgrwt>
</event>
<event>
 8    1  0.2389776E-020  0.7930876E+02  0.7818608E-02  0.1331025E+00
         -1   -1    0    0    0  501 -0.00000000000E+00  0.00000000000E+00  0.75714405193E+01  0.75714421968E+01  0.50400000000E-02 0.  1.
          2   -1    0    0  501    0  0.00000000000E+00 -0.00000000000E+00 -0.20768437119E+03  0.20768437120E+03  0.25500000000E-02 0. -1.
         24    2    1    2    0    0  0.00000000000E+00  0.00000000000E+00 -0.20011293067E+03  0.21525581340E+03  0.79308764849E+02 0.  0.
         66    2    3    3    0    0 -0.22847109159E+02 -0.30240818755E+02 -0.13153466431E+03  0.13690093291E+03  0.20000001161E+01 0.  0.
        -13    1    3    3    0    0  0.22847109159E+02  0.30240818755E+02 -0.68578266355E+02  0.78354880487E+02  0.10566000000E+00 0.  1.
         13    1    4    4    0    0 -0.89423423077E+01 -0.13270058358E+02 -0.55581380981E+02  0.57839095865E+02  0.10566000000E+00 0. -1.
        -13    1    4    4    0    0 -0.12618250928E+02 -0.15539885771E+02 -0.69921704726E+02  0.72730765581E+02  0.10566000000E+00 0.  1.
        -14    1    4    4    0    0 -0.12865159241E+01 -0.14308746258E+01 -0.60315786082E+01  0.63310714673E+01  0.00000000000E+00 0.  1.
<mgrwt>
<rscale>  0 0.79308765E+02</rscale>
<asrwt>0</asrwt>
<pdfrwt beam="1">  1        2 0.31951437E-01 0.79308765E+02</pdfrwt>
<pdfrwt beam="2">  1       -1 0.11648373E-02 0.79308765E+02</pdfrwt>
<totfact> 0.22867397E+05</totfact>
</mgrwt>
</event>
<event>
 8    1  0.2389776E-020  0.8001721E+02  0.7818608E-02  0.1329003E+00
         -1   -1    0    0    0  501 -0.00000000000E+00  0.00000000000E+00  0.81964175238E+01  0.81964190733E+01  0.50400000000E-02 0.  1.
          2   -1    0    0  501    0  0.00000000000E+00 -0.00000000000E+00 -0.19529119425E+03  0.19529119427E+03  0.25500000000E-02 0. -1.
         24    2    1    2    0    0  0.00000000000E+00  0.00000000000E+00 -0.18709477673E+03  0.20348761334E+03  0.80017206303E+02 0.  0.
         66    2    3    3    0    0  0.16987137064E+02  0.36192163823E+02 -0.92339707580E+02  0.10064321709E+03  0.20000004312E+01 0.  0.
        -13    1    3    3    0    0 -0.16987137064E+02 -0.36192163823E+02 -0.94755069148E+02  0.10284439625E+03  0.10566000000E+00 0.  1.
         13    1    4    4    0    0  0.58967323267E+01  0.13974279264E+02 -0.36685321120E+02  0.39697303218E+02  0.10566000000E+00 0. -1.
        -13    1    4    4    0    0  0.31526107382E+01  0.68722203762E+01 -0.16735693791E+02  0.18364666566E+02  0.10566000000E+00 0. -1.
         14    1    4    4    0    0  0.79377939996E+01  0.15345664183E+02 -0.38918692669E+02  0.42581247302E+02  0.00000000000E+00 0. -1.
<mgrwt>
<rscale>  0 0.80017206E+02</rscale>
<asrwt>0</asrwt>
<pdfrwt beam="1">  1        2 0.30044796E-01 0.80017206E+02</pdfrwt>
<pdfrwt beam="2">  1       -1 0.12609876E-02 0.80017206E+02</pdfrwt>
<totfact> 0.21864801E+05</totfact>
</mgrwt>
</event>
<event>
 8    1  0.2389776E-020  0.7980668E+02  0.7818608E-02  0.1329601E+00
         -1   -1    0    0    0  501 -0.00000000000E+00  0.00000000000E+00  0.30692377391E+02  0.30692377804E+02  0.50400000000E-02 0.  1.
          2   -1    0    0  501    0  0.00000000000E+00 -0.00000000000E+00 -0.51878560425E+02  0.51878560487E+02  0.25500000000E-02 0. -1.
         24    2    1    2    0    0 -0.35527136788E-14  0.00000000000E+00 -0.21186183034E+02  0.82570938292E+02  0.79806675778E+02 0.  0.
         66    2    3    3    0    0 -0.17737486180E+02  0.61634229206E+01 -0.46998736946E+02  0.50650642216E+02  0.20000210827E+01 0.  0.
        -13    1    3    3    0    0  0.17737486180E+02 -0.61634229206E+01  0.25812553912E+02  0.31920296076E+02  0.10566000000E+00 0.  1.
         13    1    4    4    0    0 -0.14978600222E+01  0.17979678013E+00 -0.44883623722E+01  0.47362931020E+01  0.10566000000E+00 0. -1.
        -13    1    4    4    0    0 -0.32586594006E+01  0.84638873112E+00 -0.74155530377E+01  0.81447422221E+01  0.10566000000E+00 0.  1.
        -14    1    4    4    0    0 -0.12980966757E+02  0.51372374093E+01 -0.35094821536E+02  0.37769606892E+02  0.00000000000E+00 0.  1.
<mgrwt>
<rscale>  0 0.79806676E+02</rscale>
<asrwt>0</asrwt>
<pdfrwt beam="1">  1        2 0.79813170E-02 0.79806676E+02</pdfrwt>
<pdfrwt beam="2">  1       -1 0.47219042E-02 0.79806676E+02</pdfrwt>
<totfact> 0.15164142E+05</totfact>
</mgrwt>
</event>
<event>
 8    1  0.2389776E-020  0.8150172E+02  0.7818608E-02  0.1324843E+00
         -1   -1    0    0    0  501 -0.00000000000E+00  0.00000000000E+00  0.41698223582E+02  0.41698223887E+02  0.50400000000E-02 0.  1.
          2   -1    0    0  501    0  0.00000000000E+00 -0.00000000000E+00 -0.39825016954E+02  0.39825017036E+02  0.25500000000E-02 0. -1.
         24    2    1    2    0    0 -0.35527136788E-14  0.00000000000E+00  0.18732066279E+01  0.81523240923E+02  0.81501717206E+02 0.  0.
         66    2    3    3    0    0  0.22495854503E+02  0.33275864398E+02 -0.57937176684E+01  0.40631438401E+02  0.20000002103E+01 0.  0.
        -13    1    3    3    0    0 -0.22495854503E+02 -0.33275864398E+02  0.76669242963E+01  0.40891802522E+02  0.10566000000E+00 0.  1.
         13    1    4    4    0    0  0.29215580568E+01  0.48418626700E+01 -0.57837692369E+00  0.56854920188E+01  0.10566000000E+00 0. -1.
        -13    1    4    4    0    0  0.17463784667E+02  0.25780197851E+02 -0.43020964867E+01  0.31434401129E+02  0.10566000000E+00 0.  1.
        -14    1    4    4    0    0  0.21105117794E+01  0.26538038768E+01 -0.91324425800E+00  0.35115452528E+01  0.00000000000E+00 0.  1.
<mgrwt>
<rscale>  0 0.81501717E+02</rscale>
<asrwt>0</asrwt>
<pdfrwt beam="1">  1        2 0.61269257E-02 0.81501717E+02</pdfrwt>
<pdfrwt beam="2">  1       -1 0.64151113E-02 0.81501717E+02</pdfrwt>
<totfact> 0.13527498E+05</totfact>
</mgrwt>
</event>
<event>
 8    1  0.2389776E-020  0.7837569E+02  0.7818608E-02  0.1333725E+00
         -1   -1    0    0    0  501 -0.00000000000E+00  0.00000000000E+00  0.70759331364E+00  0.70761126270E+00  0.50400000000E-02 0.  1.
          2   -1    0    0  501    0  0.00000000000E+00 -0.00000000000E+00 -0.21702686669E+04  0.21702686669E+04  0.25500000000E-02 0. -1.
         24    2    1    2    0    0  0.88817841970E-15  0.17763568394E-14 -0.21695610736E+04  0.21709762782E+04  0.78375687114E+02 0.  0.
         66    2    3    3    0    0 -0.74642895928E+01 -0.78450084002E+01 -0.21279706447E+04  0.21279991364E+04  0.20000020920E+01 0.  0.
        -13    1    3    3    0    0  0.74642895928E+01  0.78450084002E+01 -0.41590428918E+02  0.42977141803E+02  0.10566000000E+00 0.  1.
         13    1    4    4    0    0 -0.28274486397E+01 -0.37917683690E+01 -0.82259465458E+03  0.82260825967E+03  0.10566000000E+00 0. -1.
        -13    1    4    4    0    0 -0.46481745909E+01 -0.38662646459E+01 -0.12667459087E+04  0.12667603411E+04  0.10566000000E+00 0.  1.
        -14    1    4    4    0    0  0.11333637791E-01 -0.18697538533E+00 -0.38630081470E+02  0.38630535625E+02  0.00000000000E+00 0.  1.
<mgrwt>
<rscale>  0 0.78375687E+02</rscale>
<asrwt>0</asrwt>
<pdfrwt beam="1">  1        2 0.33388216E+00 0.78375687E+02</pdfrwt>
<pdfrwt beam="2">  1       -1 0.10886363E-03 0.78375687E+02</pdfrwt>
<totfact> 0.26912610E+05</totfact>
</mgrwt>
</event>
<event>
 8    1  0.2389776E-020  0.8362476E+02  0.7818608E-02  0.1319069E+00
          2   -1    0    0  501    0  0.00000000000E+00  0.00000000000E+00  0.14994948246E+02  0.14994948462E+02  0.25500000000E-02 0. -1.
         -1   -1    0    0    0  501 -0.00000000000E+00 -0.00000000000E+00 -0.11659093070E+03  0.11659093081E+03  0.50400000000E-02 0.  1.
         24    2    1    2    0    0  0.00000000000E+00  0.00000000000E+00 -0.10159598245E+03  0.13158587927E+03  0.83624756936E+02 0.  0.
         66    2    3    3    0    0  0.15672565537E+02  0.29065273258E+02 -0.10529580975E+02  0.34717308194E+02  0.19999981666E+01 0.  0.
        -13    1    3    3    0    0 -0.15672565537E+02 -0.29065273258E+02 -0.91066401477E+02  0.96868571075E+02  0.10566000000E+00 0.  1.
         13    1    4    4    0    0  0.57275144253E+01  0.10237885823E+02 -0.30016139944E+01  0.12109482988E+02  0.10566000000E+00 0. -1.
        -13    1    4    4    0    0  0.54065470960E+01  0.92425816940E+01 -0.35531366334E+01  0.11282376161E+02  0.10566000000E+00 0.  1.
        -14    1    4    4    0    0  0.45385040153E+01  0.95848057407E+01 -0.39748303469E+01  0.11325449045E+02  0.00000000000E+00 0.  1.
<mgrwt>
<rscale>  0 0.83624757E+02</rscale>
<asrwt>0</asrwt>
<pdfrwt beam="1">  1        2 0.23069152E-02 0.83624757E+02</pdfrwt>
<pdfrwt beam="2">  1       -1 0.17937066E-01 0.83624757E+02</pdfrwt>
<totfact> 0.10254233E+05</totfact>
</mgrwt>
</event>
<event>
 8    1  0.2389776E-020  0.8029474E+02  0.7818608E-02  0.1328217E+00
          2   -1    0    0  501    0  0.00000000000E+00  0.00000000000E+00  0.34942409741E+02  0.34942409835E+02  0.25500000000E-02 0. -1.
         -1   -1    0    0    0  501 -0.00000000000E+00 -0.00000000000E+00 -0.46127650181E+02  0.46127650456E+02  0.50400000000E-02 0.  1.
         24    2    1    2    0    0 -0.55511151231E-16  0.00000000000E+00 -0.11185240440E+02  0.81070060291E+02  0.80294738756E+02 0.  0.
         66    2    3    3    0    0  0.24798093409E+00  0.22698336351E+02  0.27807060743E+02  0.35951475614E+02  0.20000010024E+01 0.  0.
        -13    1    3    3    0    0 -0.24798093409E+00 -0.22698336351E+02 -0.38992301183E+02  0.45118584677E+02  0.10566000000E+00 0.  1.
         13    1    4    4    0    0  0.27564383544E-01  0.10088477990E+02  0.12166629374E+02  0.15805574406E+02  0.10566000000E+00 0. -1.
        -13    1    4    4    0    0  0.50414307272E-01  0.10341723380E+02  0.11880579446E+02  0.15751606777E+02  0.10566000000E+00 0.  1.
        -14    1    4    4    0    0  0.17000224327E+00  0.22681349813E+01  0.37598519241E+01  0.43942944311E+01  0.00000000000E+00 0.  1.
<mgrwt>
<rscale>  0 0.80294739E+02</rscale>
<asrwt>0</asrwt>
<pdfrwt beam="1">  1        2 0.53757553E-02 0.80294739E+02</pdfrwt>
<pdfrwt beam="2">  1       -1 0.70965617E-02 0.80294739E+02</pdfrwt>
<totfact> 0.13728223E+05</totfact>
</mgrwt>
</event>
<event>
 8    1  0.2389776E-020  0.8500014E+02  0.7818608E-02  0.1315432E+00
         -1   -1    0    0    0  501 -0.00000000000E+00  0.00000000000E+00  0.10472095873E+03  0.10472095885E+03  0.50400000000E-02 0.  1.
          2   -1    0    0  501    0  0.00000000000E+00 -0.00000000000E+00 -0.17248277111E+02  0.17248277299E+02  0.25500000000E-02 0. -1.
         24    2    1    2    0    0  0.00000000000E+00  0.00000000000E+00  0.87472681617E+02  0.12196923615E+03  0.85000144337E+02 0.  0.
         66    2    3    3    0    0  0.36090302159E+02  0.18237861700E+02  0.25099690813E+02  0.47635322925E+02  0.20000004778E+01 0.  0.
        -13    1    3    3    0    0 -0.36090302159E+02 -0.18237861700E+02  0.62372990804E+02  0.74333913224E+02  0.10566000000E+00 0.  1.
         13    1    4    4    0    0  0.15248703180E+01  0.86834952472E+00  0.10581184833E+01  0.20518379917E+01  0.10566000000E+00 0. -1.
        -13    1    4    4    0    0  0.33878009567E+02  0.16945822693E+02  0.23214181749E+02  0.44427354606E+02  0.10566000000E+00 0.  1.
        -14    1    4    4    0    0  0.68742227429E+00  0.42368948151E+00  0.82739058096E+00  0.11561303272E+01  0.00000000000E+00 0.  1.
<mgrwt>
<rscale>  0 0.85000144E+02</rscale>
<asrwt>0</asrwt>
<pdfrwt beam="1">  1        2 0.26535811E-02 0.85000144E+02</pdfrwt>
<pdfrwt beam="2">  1       -1 0.16110917E-01 0.85000144E+02</pdfrwt>
<totfact> 0.10087016E+05</totfact>
</mgrwt>
</event>
<event>
 8    1  0.2389776E-020  0.8005252E+02  0.7818608E-02  0.1328902E+00
         -1   -1    0    0    0  501 -0.00000000000E+00  0.00000000000E+00  0.17807582414E+01  0.17807653736E+01  0.50400000000E-02 0.  1.
          2   -1    0    0  501    0  0.00000000000E+00 -0.00000000000E+00 -0.89967186747E+03  0.89967186748E+03  0.25500000000E-02 0. -1.
         24    2    1    2    0    0  0.35527136788E-14  0.00000000000E+00 -0.89789110923E+03  0.90145263285E+03  0.80052515485E+02 0.  0.
         66    2    3    3    0    0 -0.29428691670E+02  0.90832528395E+01 -0.73665987053E+03  0.73730612246E+03  0.19999985025E+01 0.  0.
        -13    1    3    3    0    0  0.29428691670E+02 -0.90832528395E+01 -0.16123123870E+03  0.16414651039E+03  0.10566000000E+00 0.  1.
         13    1    4    4    0    0 -0.13982003988E+02  0.52656971441E+01 -0.35948059305E+03  0.35979095589E+03  0.10566000000E+00 0. -1.
        -13    1    4    4    0    0 -0.11111412932E+02  0.29998274527E+01 -0.27227296091E+03  0.27251612589E+03  0.10566000000E+00 0.  1.
         14    1    4    4    0    0 -0.43352747501E+01  0.81772824273E+00 -0.10490631657E+03  0.10499904068E+03  0.00000000000E+00 0. -1.
<mgrwt>
<rscale>  0 0.80052515E+02</rscale>
<asrwt>0</asrwt>
<pdfrwt beam="1">  1        2 0.13841069E+00 0.80052515E+02</pdfrwt>
<pdfrwt beam="2">  1       -1 0.27396407E-03 0.80052515E+02</pdfrwt>
<totfact> 0.34885655E+05</totfact>
</mgrwt>
</event>
<event>
 8    1  0.2389776E-020  0.7989898E+02  0.7818608E-02  0.1329338E+00
         -1   -1    0    0    0  501 -0.00000000000E+00  0.00000000000E+00  0.46462472446E+01  0.46462499782E+01  0.50400000000E-02 0.  1.
          2   -1    0    0  501    0  0.00000000000E+00 -0.00000000000E+00 -0.34349468830E+03  0.34349468831E+03  0.25500000000E-02 0. -1.
         24    2    1    2    0    0  0.00000000000E+00 -0.88817841970E-15 -0.33884844106E+03  0.34814093829E+03  0.79898979381E+02 0.  0.
         66    2    3    3    0    0 -0.37664471276E+02 -0.72140742097E+01 -0.21791366789E+03  0.22127137619E+03  0.20000007027E+01 0.  0.
        -13    1    3    3    0    0  0.37664471276E+02  0.72140742097E+01 -0.12093477316E+03  0.12686956210E+03  0.10566000000E+00 0.  1.
         13    1    4    4    0    0 -0.20497134801E+02 -0.32459174270E+01 -0.11620816315E+03  0.11804667238E+03  0.10566000000E+00 0. -1.
        -13    1    4    4    0    0 -0.61023555970E+01 -0.15146722502E+01 -0.38821502851E+02  0.39327512298E+02  0.10566000000E+00 0.  1.
        -14    1    4    4    0    0 -0.11064980878E+02 -0.24534845325E+01 -0.62884001896E+02  0.63897191508E+02  0.00000000000E+00 0.  1.
<mgrwt>
<rscale>  0 0.79898979E+02</rscale>
<asrwt>0</asrwt>
<pdfrwt beam="1">  1        2 0.52845317E-01 0.79898979E+02</pdfrwt>
<pdfrwt beam="2">  1       -1 0.71480775E-03 0.79898979E+02</pdfrwt>
<totfact> 0.26858077E+05</totfact>
</mgrwt>
</event>
<event>
 8    1  0.2389776E-020  0.8005197E+02  0.7818608E-02  0.1328904E+00
         -1   -1    0    0    0  501 -0.00000000000E+00  0.00000000000E+00  0.15353917696E+02  0.15353918523E+02  0.50400000000E-02 0.  1.
          2   -1    0    0  501    0  0.00000000000E+00 -0.00000000000E+00 -0.10434335232E+03  0.10434335235E+03  0.25500000000E-02 0. -1.
         24    2    1    2    0    0 -0.35527136788E-14 -0.35527136788E-14 -0.88989434621E+02  0.11969727087E+03  0.80051965496E+02 0.  0.
         66    2    3    3    0    0 -0.29088710257E+02  0.24735146065E+02 -0.62346194145E+02  0.73137052418E+02  0.19999992079E+01 0.  0.
        -13    1    3    3    0    0  0.29088710257E+02 -0.24735146065E+02 -0.26643240476E+02  0.46560218452E+02  0.10566000000E+00 0.  1.
         13    1    4    4    0    0 -0.10935335439E+02  0.95671683710E+01 -0.24362006656E+02  0.28366014950E+02  0.10566000000E+00 0. -1.
        -13    1    4    4    0    0 -0.16966662281E+01  0.13946742089E+01 -0.43436293221E+01  0.48684773967E+01  0.10566000000E+00 0.  1.
        -14    1    4    4    0    0 -0.16456708590E+02  0.13773303485E+02 -0.33640558167E+02  0.39902560072E+02  0.00000000000E+00 0.  1.
<mgrwt>
<rscale>  0 0.80051965E+02</rscale>
<asrwt>0</asrwt>
<pdfrwt beam="1">  1        2 0.16052823E-01 0.80051965E+02</pdfrwt>
<pdfrwt beam="2">  1       -1 0.23621413E-02 0.80051965E+02</pdfrwt>
<totfact> 0.17908607E+05</totfact>
</mgrwt>
</event>
<event>
 8    1  0.2389776E-020  0.8095646E+02  0.7818608E-02  0.1326359E+00
          2   -1    0    0  501    0  0.00000000000E+00  0.00000000000E+00  0.58658480668E+03  0.58658480669E+03  0.25500000000E-02 0. -1.
         -1   -1    0    0    0  501 -0.00000000000E+00 -0.00000000000E+00 -0.27932628712E+01  0.27932674182E+01  0.50400000000E-02 0.  1.
         24    2    1    2    0    0 -0.35527136788E-14  0.00000000000E+00  0.58379154381E+03  0.58937807411E+03  0.80956455034E+02 0.  0.
         66    2    3    3    0    0  0.17566562682E+02 -0.18838463092E+02  0.51916507612E+03  0.51980751060E+03  0.19999997381E+01 0.  0.
        -13    1    3    3    0    0 -0.17566562682E+02  0.18838463092E+02  0.64626467694E+02  0.69570563508E+02  0.10566000000E+00 0.  1.
         13    1    4    4    0    0  0.47065755089E+01 -0.46663814554E+01  0.13926204017E+03  0.13941970437E+03  0.10566000000E+00 0.  1.
        -13    1    4    4    0    0  0.41782358050E+01 -0.55061603014E+01  0.12898452607E+03  0.12916963492E+03  0.10566000000E+00 0. -1.
         14    1    4    4    0    0  0.86817513678E+01 -0.86659213349E+01  0.25091850987E+03  0.25121817131E+03  0.00000000000E+00 0. -1.
<mgrwt>
<rscale>  0 0.80956455E+02</rscale>
<asrwt>0</asrwt>
<pdfrwt beam="1">  1        2 0.90243860E-01 0.80956455E+02</pdfrwt>
<pdfrwt beam="2">  1       -1 0.42973289E-03 0.80956455E+02</pdfrwt>
<totfact> 0.30985553E+05</totfact>
</mgrwt>
</event>
<event>
 8    1  0.2389776E-020  0.7682221E+02  0.7818608E-02  0.1338319E+00
          2   -1    0    0  501    0  0.00000000000E+00  0.00000000000E+00  0.59211332133E+03  0.59211332134E+03  0.25500000000E-02 0. -1.
         -1   -1    0    0    0  501 -0.00000000000E+00 -0.00000000000E+00 -0.24917723611E+01  0.24917774582E+01  0.50400000000E-02 0.  1.
         24    2    1    2    0    0 -0.71054273576E-14  0.00000000000E+00  0.58962154897E+03  0.59460509879E+03  0.76822213604E+02 0.  0.
         66    2    3    3    0    0 -0.29716423928E+02  0.16512206271E+02  0.43296685435E+03  0.43430405913E+03  0.20000011026E+01 0.  0.
        -13    1    3    3    0    0  0.29716423928E+02 -0.16512206271E+02  0.15665469462E+03  0.16030103967E+03  0.10566000000E+00 0.  1.
         13    1    4    4    0    0 -0.49068383145E+01  0.26781138396E+01  0.71850521055E+02  0.72067731308E+02  0.10566000000E+00 0. -1.
        -13    1    4    4    0    0 -0.43964200296E+01  0.22004060075E+01  0.54772069761E+02  0.54992372977E+02  0.10566000000E+00 0.  1.
        -14    1    4    4    0    0 -0.20413165584E+02  0.11633686424E+02  0.30634426353E+03  0.30724395484E+03  0.00000000000E+00 0.  1.
<mgrwt>
<rscale>  0 0.76822214E+02</rscale>
<asrwt>0</asrwt>
<pdfrwt beam="1">  1        2 0.91094404E-01 0.76822214E+02</pdfrwt>
<pdfrwt beam="2">  1       -1 0.38334979E-03 0.76822214E+02</pdfrwt>
<totfact> 0.35601849E+05</totfact>
</mgrwt>
</event>
<event>
 8    1  0.2389776E-020  0.7897893E+02  0.7818608E-02  0.1331974E+00
         -1   -1    0    0    0  501 -0.00000000000E+00  0.00000000000E+00  0.90250259769E+01  0.90250273842E+01  0.50400000000E-02 0.  1.
          2   -1    0    0  501    0  0.00000000000E+00 -0.00000000000E+00 -0.17278818269E+03  0.17278818271E+03  0.25500000000E-02 0. -1.
         24    2    1    2    0    0  0.00000000000E+00  0.71054273576E-14 -0.16376315672E+03  0.18181321010E+03  0.78978933064E+02 0.  0.
         66    2    3    3    0    0  0.20408079765E+02  0.29225208309E+02 -0.42947668164E+02  0.55848945487E+02  0.19999977261E+01 0.  0.
        -13    1    3    3    0    0 -0.20408079765E+02 -0.29225208309E+02 -0.12081548855E+03  0.12596426461E+03  0.10566000000E+00 0.  1.
         13    1    4    4    0    0  0.97362556466E+01  0.13763969225E+02 -0.20506181743E+02  0.26547244236E+02  0.10566000000E+00 0. -1.
        -13    1    4    4    0    0  0.69232832456E+01  0.89884011695E+01 -0.14085813107E+02  0.18087136351E+02  0.10566000000E+00 0.  1.
        -14    1    4    4    0    0  0.37485408725E+01  0.64728379147E+01 -0.83556733146E+01  0.11214564899E+02  0.00000000000E+00 0.  1.
<mgrwt>
<rscale>  0 0.78978933E+02</rscale>
<asrwt>0</asrwt>
<pdfrwt beam="1">  1        2 0.26582795E-01 0.78978933E+02</pdfrwt>
<pdfrwt beam="2">  1       -1 0.13884658E-02 0.78978933E+02</pdfrwt>
<totfact> 0.21708070E+05</totfact>
</mgrwt>
</event>
<event>
 8    1  0.2389776E-020  0.8055783E+02  0.7818608E-02  0.1327476E+00
         -1   -1    0    0    0  501 -0.00000000000E+00  0.00000000000E+00  0.88970675457E+01  0.88970689732E+01  0.50400000000E-02 0.  1.
          2   -1    0    0  501    0  0.00000000000E+00 -0.00000000000E+00 -0.18235118511E+03  0.18235118513E+03  0.25500000000E-02 0. -1.
         24    2    1    2    0    0  0.00000000000E+00  0.00000000000E+00 -0.17345411757E+03  0.19124825411E+03  0.80557828898E+02 0.  0.
         66    2    3    3    0    0  0.16012819928E+02  0.62843609568E+01 -0.17318018231E+03  0.17404390003E+03  0.19999994282E+01 0.  0.
        -13    1    3    3    0    0 -0.16012819928E+02 -0.62843609568E+01 -0.27393526052E+00  0.17204354078E+02  0.10566000000E+00 0.  1.
         13    1    4    4    0    0  0.68814530354E+01  0.28573751938E+01 -0.73595128895E+02  0.73971434689E+02  0.10566000000E+00 0. -1.
        -13    1    4    4    0    0  0.81009994609E+01  0.28926772933E+01 -0.82267266576E+02  0.82715827313E+02  0.10566000000E+00 0.  1.
        -14    1    4    4    0    0  0.10303674318E+01  0.53430846969E+00 -0.17317786837E+02  0.17356638025E+02  0.00000000000E+00 0.  1.
<mgrwt>
<rscale>  0 0.80557829E+02</rscale>
<asrwt>0</asrwt>
<pdfrwt beam="1">  1        2 0.28054026E-01 0.80557829E+02</pdfrwt>
<pdfrwt beam="2">  1       -1 0.13687799E-02 0.80557829E+02</pdfrwt>
<totfact> 0.20979518E+05</totfact>
</mgrwt>
</event>
<event>
 8    1  0.2389776E-020  0.7740123E+02  0.7818608E-02  0.1336592E+00
          2   -1    0    0  501    0  0.00000000000E+00  0.00000000000E+00  0.97632276942E+03  0.97632276943E+03  0.25500000000E-02 0. -1.
         -1   -1    0    0    0  501 -0.00000000000E+00 -0.00000000000E+00 -0.15340556087E+01  0.15340638879E+01  0.50400000000E-02 0.  1.
         24    2    1    2    0    0  0.00000000000E+00 -0.35527136788E-14  0.97478871381E+03  0.97785683331E+03  0.77401226603E+02 0.  0.
         66    2    3    3    0    0 -0.90752257746E+01  0.27462370710E+02  0.81208318833E+03  0.81260054534E+03  0.19999977029E+01 0.  0.
        -13    1    3    3    0    0  0.90752257746E+01 -0.27462370710E+02  0.16270552549E+03  0.16525628798E+03  0.10566000000E+00 0.  1.
         13    1    4    4    0    0 -0.40232844734E+01  0.11789695776E+02  0.33473868863E+03  0.33497042344E+03  0.10566000000E+00 0. -1.
        -13    1    4    4    0    0 -0.18568440485E+01  0.41346967358E+01  0.12398019530E+03  0.12406306290E+03  0.10566000000E+00 0.  1.
        -14    1    4    4    0    0 -0.31950972527E+01  0.11537978198E+02  0.35336430440E+03  0.35356705900E+03  0.00000000000E+00 0.  1.
<mgrwt>
<rscale>  0 0.77401227E+02</rscale>
<asrwt>0</asrwt>
<pdfrwt beam="1">  1        2 0.15020329E+00 0.77401227E+02</pdfrwt>
<pdfrwt beam="2">  1       -1 0.23600952E-03 0.77401227E+02</pdfrwt>
<totfact> 0.38333369E+05</totfact>
</mgrwt>
</event>
<event>
 8    1  0.2389776E-020  0.7998458E+02  0.7818608E-02  0.1329095E+00
         -1   -1    0    0    0  501 -0.00000000000E+00  0.00000000000E+00  0.27591756108E+02  0.27591756568E+02  0.50400000000E-02 0.  1.
          2   -1    0    0  501    0  0.00000000000E+00 -0.00000000000E+00 -0.57965977350E+02  0.57965977406E+02  0.25500000000E-02 0. -1.
         24    2    1    2    0    0  0.17763568394E-14  0.17763568394E-14 -0.30374221242E+02  0.85557733974E+02  0.79984576805E+02 0.  0.
         66    2    3    3    0    0 -0.10919460867E+02 -0.96858577778E+01 -0.54995608852E+02  0.56934764903E+02  0.19999987492E+01 0.  0.
        -13    1    3    3    0    0  0.10919460867E+02  0.96858577778E+01  0.24621387611E+02  0.28622969071E+02  0.10566000000E+00 0.  1.
         13    1    4    4    0    0 -0.23158044338E+01 -0.29573614102E+01 -0.14948522365E+02  0.15413579131E+02  0.10566000000E+00 0.  1.
        -13    1    4    4    0    0 -0.37882926660E+01 -0.32184324951E+01 -0.19866440395E+02  0.20479162265E+02  0.10566000000E+00 0. -1.
        -14    1    4    4    0    0 -0.48153637670E+01 -0.35100638725E+01 -0.20180646092E+02  0.21042023507E+02  0.00000000000E+00 0.  1.
<mgrwt>
<rscale>  0 0.79984577E+02</rscale>
<asrwt>0</asrwt>
<pdfrwt beam="1">  1        2 0.89178427E-02 0.79984577E+02</pdfrwt>
<pdfrwt beam="2">  1       -1 0.42448856E-02 0.79984577E+02</pdfrwt>
<totfact> 0.15451535E+05</totfact>
</mgrwt>
</event>
<event>
 8    1  0.2389776E-020  0.7979684E+02  0.7818608E-02  0.1329629E+00
         -1   -1    0    0    0  501 -0.00000000000E+00  0.00000000000E+00  0.64569324032E+02  0.64569324228E+02  0.50400000000E-02 0.  1.
          2   -1    0    0  501    0  0.00000000000E+00 -0.00000000000E+00 -0.24653870656E+02  0.24653870788E+02  0.25500000000E-02 0. -1.
         24    2    1    2    0    0  0.00000000000E+00  0.00000000000E+00  0.39915453376E+02  0.89223195016E+02  0.79796836471E+02 0.  0.
         66    2    3    3    0    0 -0.21982585527E+02  0.10676790170E+02 -0.15257964096E+02  0.28879636335E+02  0.20000029231E+01 0.  0.
        -13    1    3    3    0    0  0.21982585527E+02 -0.10676790170E+02  0.55173417472E+02  0.60343558681E+02  0.10566000000E+00 0.  1.
         13    1    4    4    0    0 -0.75408095240E+01  0.33898617863E+01 -0.47795321586E+01  0.95503959550E+01  0.10566000000E+00 0. -1.
        -13    1    4    4    0    0 -0.95291112911E+01  0.52880290683E+01 -0.64007372691E+01  0.12639138224E+02  0.10566000000E+00 0.  1.
        -14    1    4    4    0    0 -0.49126647121E+01  0.19988993150E+01 -0.40776946686E+01  0.66901021558E+01  0.00000000000E+00 0.  1.
<mgrwt>
<rscale>  0 0.79796836E+02</rscale>
<asrwt>0</asrwt>
<pdfrwt beam="1">  1        2 0.37929032E-02 0.79796836E+02</pdfrwt>
<pdfrwt beam="2">  1       -1 0.99337422E-02 0.79796836E+02</pdfrwt>
<totfact> 0.13038303E+05</totfact>
</mgrwt>
</event>
<event>
 8    1  0.2389776E-020  0.8102175E+02  0.7818608E-02  0.1326177E+00
          2   -1    0    0  501    0  0.00000000000E+00  0.00000000000E+00  0.32406197395E+03  0.32406197396E+03  0.25500000000E-02 0. -1.
         -1   -1    0    0    0  501 -0.00000000000E+00 -0.00000000000E+00 -0.50642490409E+01  0.50642515488E+01  0.50400000000E-02 0.  1.
         24    2    1    2    0    0 -0.71054273576E-14 -0.35527136788E-14  0.31899772491E+03  0.32912622551E+03  0.81021749059E+02 0.  0.
         66    2    3    3    0    0 -0.28584720216E+02 -0.24841595407E+02  0.21774833713E+03  0.22102608313E+03  0.20000024466E+01 0.  0.
        -13    1    3    3    0    0  0.28584720216E+02  0.24841595407E+02  0.10124938778E+03  0.10810014238E+03  0.10566000000E+00 0.  1.
         13    1    4    4    0    0 -0.99529006827E+01 -0.92641779848E+01  0.76741328363E+02  0.77936691415E+02  0.10566000000E+00 0. -1.
        -13    1    4    4    0    0 -0.16020461270E+02 -0.13965835658E+02  0.12286057525E+03  0.12468533137E+03  0.10566000000E+00 0.  1.
        -14    1    4    4    0    0 -0.26113582626E+01 -0.16115817642E+01  0.18146433519E+02  0.18404060346E+02  0.00000000000E+00 0.  1.
<mgrwt>
<rscale>  0 0.81021749E+02</rscale>
<asrwt>0</asrwt>
<pdfrwt beam="1">  1        2 0.49855686E-01 0.81021749E+02</pdfrwt>
<pdfrwt beam="2">  1       -1 0.77911547E-03 0.81021749E+02</pdfrwt>
<totfact> 0.25357622E+05</totfact>
</mgrwt>
</event>
<event>
 8    1  0.2389776E-020  0.7618789E+02  0.7818608E-02  0.1340231E+00
          2   -1    0    0  501    0  0.00000000000E+00  0.00000000000E+00  0.12327580118E+03  0.12327580121E+03  0.25500000000E-02 0. -1.
         -1   -1    0    0    0  501 -0.00000000000E+00 -0.00000000000E+00 -0.11771560930E+02  0.11771562009E+02  0.50400000000E-02 0.  1.
         24    2    1    2    0    0  0.17763568394E-14  0.00000000000E+00  0.11150424025E+03  0.13504736322E+03  0.76187890888E+02 0.  0.
         66    2    3    3    0    0  0.12619692375E+02  0.19476454498E+02  0.10927804533E+03  0.11173307525E+03  0.19999997538E+01 0.  0.
        -13    1    3    3    0    0 -0.12619692375E+02 -0.19476454498E+02  0.22261949228E+01  0.23314287965E+02  0.10566000000E+00 0.  1.
         13    1    4    4    0    0  0.76179723862E+01  0.11687646416E+02  0.67352315882E+02  0.68782121229E+02  0.10566000000E+00 0. -1.
        -13    1    4    4    0    0  0.30899486511E-01  0.25010518124E+00  0.18794343092E+01  0.18991958136E+01  0.10566000000E+00 0.  1.
         14    1    4    4    0    0  0.49708205021E+01  0.75387029003E+01  0.40046295139E+02  0.41051758212E+02  0.00000000000E+00 0. -1.
<mgrwt>
<rscale>  0 0.76187891E+02</rscale>
<asrwt>0</asrwt>
<pdfrwt beam="1">  1        2 0.18965507E-01 0.76187891E+02</pdfrwt>
<pdfrwt beam="2">  1       -1 0.18110095E-02 0.76187891E+02</pdfrwt>
<totfact> 0.21448551E+05</totfact>
</mgrwt>
</event>
<event>
 8    1  0.2568918E-020  0.7697400E+02  0.7818608E-02  0.1337865E+00
          2   -1    0    0  501    0  0.00000000000E+00  0.00000000000E+00  0.43383755239E+03  0.43383755239E+03  0.25500000000E-02 0. -1.
         -1   -1    0    0    0  501 -0.00000000000E+00 -0.00000000000E+00 -0.34142927736E+01  0.34142964935E+01  0.50400000000E-02 0.  1.
         24    2    1    2    0    0 -0.17763568394E-14  0.00000000000E+00  0.43042325961E+03  0.43725184889E+03  0.76974001714E+02 0.  0.
         66    2    3    3    0    0 -0.14814643922E+02 -0.16636784261E+02  0.39345560905E+03  0.39409081765E+03  0.19999999759E+01 0.  0.
        -13    1    3    3    0    0  0.14814643922E+02  0.16636784261E+02  0.36967650561E+02  0.43161031233E+02  0.10566000000E+00 0.  1.
         13    1    4    4    0    0 -0.28875294010E+01 -0.33801754855E+01  0.88708880161E+02  0.88820267934E+02  0.10566000000E+00 0. -1.
        -13    1    4    4    0    0 -0.59062523904E+00 -0.95080116717E+00  0.15987983517E+02  0.16027465239E+02  0.10566000000E+00 0.  1.
         14    1    4    4    0    0 -0.11336489282E+02 -0.12305807608E+02  0.28875874537E+03  0.28924308448E+03  0.00000000000E+00 0. -1.
<mgrwt>
<rscale>  0 0.76974002E+02</rscale>
<asrwt>0</asrwt>
<pdfrwt beam="1">  1        2 0.66744285E-01 0.76974002E+02</pdfrwt>
<pdfrwt beam="2">  1       -1 0.52527574E-03 0.76974002E+02</pdfrwt>
<totfact> 0.32127102E+05</totfact>
</mgrwt>
</event>
<event>
 8    1  0.2389776E-020  0.7750747E+02  0.7818608E-02  0.1336277E+00
         -1   -1    0    0    0  501 -0.00000000000E+00  0.00000000000E+00  0.21147492731E+01  0.21147552789E+01  0.50400000000E-02 0.  1.
          2   -1    0    0  501    0  0.00000000000E+00 -0.00000000000E+00 -0.71017867551E+03  0.71017867552E+03  0.25500000000E-02 0. -1.
         24    2    1    2    0    0  0.00000000000E+00  0.00000000000E+00 -0.70806392624E+03  0.71229343080E+03  0.77507470049E+02 0.  0.
         66    2    3    3    0    0 -0.13928567352E+02  0.32292270572E+02 -0.50331828797E+03  0.50454939772E+03  0.20000000701E+01 0.  0.
        -13    1    3    3    0    0  0.13928567352E+02 -0.32292270572E+02 -0.20474563827E+03  0.20774403308E+03  0.10566000000E+00 0.  1.
         13    1    4    4    0    0 -0.10873835005E+01  0.16881515338E+01 -0.26918990904E+02  0.26993989957E+02  0.10566000000E+00 0. -1.
        -13    1    4    4    0    0 -0.50248546113E+01  0.13452802796E+02 -0.20680551584E+03  0.20730354462E+03  0.10566000000E+00 0.  1.
        -14    1    4    4    0    0 -0.78163292401E+01  0.17151316243E+02 -0.26959378123E+03  0.27025186314E+03  0.00000000000E+00 0.  1.
<mgrwt>
<rscale>  0 0.77507470E+02</rscale>
<asrwt>0</asrwt>
<pdfrwt beam="1">  1        2 0.10925807E+00 0.77507470E+02</pdfrwt>
<pdfrwt beam="2">  1       -1 0.32534707E-03 0.77507470E+02</pdfrwt>
<totfact> 0.36434274E+05</totfact>
</mgrwt>
</event>
<event>
 8    1  0.2389776E-020  0.7790830E+02  0.7818608E-02  0.1335094E+00
         -1   -1    0    0    0  501 -0.00000000000E+00  0.00000000000E+00  0.78388563294E+01  0.78388579496E+01  0.50400000000E-02 0.  1.
          2   -1    0    0  501    0  0.00000000000E+00 -0.00000000000E+00 -0.19357743594E+03  0.19357743596E+03  0.25500000000E-02 0. -1.
         24    2    1    2    0    0  0.00000000000E+00  0.00000000000E+00 -0.18573857961E+03  0.20141629391E+03  0.77908301838E+02 0.  0.
         66    2    3    3    0    0  0.82744412137E+01  0.37892783232E+02 -0.84320246597E+02  0.92834440756E+02  0.20000014384E+01 0.  0.
        -13    1    3    3    0    0 -0.82744412137E+01 -0.37892783232E+02 -0.10141833302E+03  0.10858185315E+03  0.10566000000E+00 0.  1.
         13    1    4    4    0    0  0.32100701993E+01  0.11091514442E+02 -0.25642090323E+02  0.28122130137E+02  0.10566000000E+00 0.  1.
        -13    1    4    4    0    0  0.93388340841E+00  0.64991477287E+01 -0.14440834727E+02  0.15863793085E+02  0.10566000000E+00 0. -1.
         14    1    4    4    0    0  0.41304876060E+01  0.20302121061E+02 -0.44237321548E+02  0.48848517533E+02  0.00000000000E+00 0. -1.
<mgrwt>
<rscale>  0 0.77908302E+02</rscale>
<asrwt>0</asrwt>
<pdfrwt beam="1">  1        2 0.29781140E-01 0.77908302E+02</pdfrwt>
<pdfrwt beam="2">  1       -1 0.12059782E-02 0.77908302E+02</pdfrwt>
<totfact> 0.23388748E+05</totfact>
</mgrwt>
</event>
<event>
 8    1  0.2389776E-020  0.8057366E+02  0.7818608E-02  0.1327431E+00
         -1   -1    0    0    0  501 -0.00000000000E+00  0.00000000000E+00  0.27641936493E+01  0.27641982440E+01  0.50400000000E-02 0.  1.
          2   -1    0    0  501    0  0.00000000000E+00 -0.00000000000E+00 -0.58716123417E+03  0.58716123417E+03  0.25500000000E-02 0. -1.
         24    2    1    2    0    0 -0.35527136788E-14 -0.35527136788E-14 -0.58439704052E+03  0.58992543242E+03  0.80573660994E+02 0.  0.
         66    2    3    3    0    0  0.25345522764E+02  0.29554270019E+02 -0.36746368561E+03  0.36952592689E+03  0.20000004370E+01 0.  0.
        -13    1    3    3    0    0 -0.25345522764E+02 -0.29554270019E+02 -0.21693335491E+03  0.22039950553E+03  0.10566000000E+00 0.  1.
         13    1    4    4    0    0  0.30559206502E+01  0.38261154663E+01 -0.50513795598E+02  0.50750689851E+02  0.10566000000E+00 0.  1.
        -13    1    4    4    0    0  0.10360392962E+02  0.11068787686E+02 -0.14343317290E+03  0.14423225040E+03  0.10566000000E+00 0. -1.
         14    1    4    4    0    0  0.11929209151E+02  0.14659366866E+02 -0.17351671711E+03  0.17454298664E+03  0.00000000000E+00 0. -1.
<mgrwt>
<rscale>  0 0.80573661E+02</rscale>
<asrwt>0</asrwt>
<pdfrwt beam="1">  1        2 0.90332399E-01 0.80573661E+02</pdfrwt>
<pdfrwt beam="2">  1       -1 0.42526138E-03 0.80573661E+02</pdfrwt>
<totfact> 0.31379251E+05</totfact>
</mgrwt>
</event>
<event>
 8    1  0.2389776E-020  0.8424702E+02  0.7818608E-02  0.1317413E+00
          2   -1    0    0  501    0  0.00000000000E+00  0.00000000000E+00  0.29780536779E+02  0.29780536889E+02  0.25500000000E-02 0. -1.
         -1   -1    0    0    0  501 -0.00000000000E+00 -0.00000000000E+00 -0.59582206876E+02  0.59582207089E+02  0.50400000000E-02 0.  1.
         24    2    1    2    0    0  0.00000000000E+00  0.00000000000E+00 -0.29801670097E+02  0.89362743978E+02  0.84247020545E+02 0.  0.
         66    2    3    3    0    0 -0.79435972956E+01 -0.35177661636E+02  0.81311098774E+01  0.37022744200E+02  0.20000060327E+01 0.  0.
        -13    1    3    3    0    0  0.79435972956E+01  0.35177661636E+02 -0.37932779974E+02  0.52339999778E+02  0.10566000000E+00 0.  1.
         13    1    4    4    0    0 -0.27779791193E+01 -0.11490102218E+02  0.31527649919E+01  0.12234815409E+02  0.10566000000E+00 0. -1.
        -13    1    4    4    0    0 -0.42527727318E+01 -0.20777033677E+02  0.47179583199E+01  0.21726516036E+02  0.10566000000E+00 0.  1.
        -14    1    4    4    0    0 -0.91284544449E+00 -0.29105257403E+01  0.26038656564E+00  0.30614127546E+01  0.00000000000E+00 0.  1.
<mgrwt>
<rscale>  0 0.84247021E+02</rscale>
<asrwt>0</asrwt>
<pdfrwt beam="1">  1        2 0.45816211E-02 0.84247021E+02</pdfrwt>
<pdfrwt beam="2">  1       -1 0.91664934E-02 0.84247021E+02</pdfrwt>
<totfact> 0.11614147E+05</totfact>
</mgrwt>
</event>
<event>
 8    1  0.2389776E-020  0.8095359E+02  0.7818608E-02  0.1326367E+00
         -1   -1    0    0    0  501 -0.00000000000E+00  0.00000000000E+00  0.88314734383E+02  0.88314734527E+02  0.50400000000E-02 0.  1.
          2   -1    0    0  501    0  0.00000000000E+00 -0.00000000000E+00 -0.18551500796E+02  0.18551500971E+02  0.25500000000E-02 0. -1.
         24    2    1    2    0    0 -0.35527136788E-14 -0.88817841970E-15  0.69763233587E+02  0.10686623550E+03  0.80953588734E+02 0.  0.
         66    2    3    3    0    0 -0.27572478418E+02 -0.76559188724E+01 -0.28414433125E+01  0.28825829735E+02  0.19999999828E+01 0.  0.
        -13    1    3    3    0    0  0.27572478418E+02  0.76559188724E+01  0.72604676900E+02  0.78040405763E+02  0.10566000000E+00 0.  1.
         13    1    4    4    0    0 -0.19465631447E+02 -0.61075014613E+01 -0.22982949714E+01  0.20530604120E+02  0.10566000000E+00 0. -1.
        -13    1    4    4    0    0 -0.44245448172E+00 -0.14386892435E+00  0.55059854644E-01  0.48027061016E+00  0.10566000000E+00 0. -1.
         14    1    4    4    0    0 -0.76643924893E+01 -0.14045484867E+01 -0.59820819574E+00  0.78149550048E+01  0.00000000000E+00 0. -1.
<mgrwt>
<rscale>  0 0.80953589E+02</rscale>
<asrwt>0</asrwt>
<pdfrwt beam="1">  1        2 0.28540770E-02 0.80953589E+02</pdfrwt>
<pdfrwt beam="2">  1       -1 0.13586882E-01 0.80953589E+02</pdfrwt>
<totfact> 0.11814939E+05</totfact>
</mgrwt>
</event>
<event>
 8    1  0.2389776E-020  0.7990708E+02  0.7818608E-02  0.1329315E+00
         -1   -1    0    0    0  501 -0.00000000000E+00  0.00000000000E+00  0.31734399605E+03  0.31734399609E+03  0.50400000000E-02 0.  1.
          2   -1    0    0  501    0  0.00000000000E+00 -0.00000000000E+00 -0.50301410323E+01  0.50301416787E+01  0.25500000000E-02 0. -1.
         24    2    1    2    0    0  0.71054273576E-14  0.00000000000E+00  0.31231385501E+03  0.32237413776E+03  0.79907075194E+02 0.  0.
         66    2    3    3    0    0  0.36649274145E+02  0.13811924897E+02  0.12491559674E+03  0.13092686844E+03  0.20000013290E+01 0.  0.
        -13    1    3    3    0    0 -0.36649274145E+02 -0.13811924897E+02  0.18739825827E+03  0.19144726932E+03  0.10566000000E+00 0.  1.
         13    1    4    4    0    0  0.75492513623E+01  0.28289423649E+01  0.24033645020E+02  0.25349977673E+02  0.10566000000E+00 0. -1.
        -13    1    4    4    0    0  0.97788333609E+01  0.32321597486E+01  0.35012225357E+02  0.36495746698E+02  0.10566000000E+00 0.  1.
        -14    1    4    4    0    0  0.19321189422E+02  0.77508227832E+01  0.65869726367E+02  0.69081144071E+02  0.00000000000E+00 0.  1.
<mgrwt>
<rscale>  0 0.79907075E+02</rscale>
<asrwt>0</asrwt>
<pdfrwt beam="1">  1        2 0.77386769E-03 0.79907075E+02</pdfrwt>
<pdfrwt beam="2">  1       -1 0.48822167E-01 0.79907075E+02</pdfrwt>
<totfact> 0.84694726E+04</totfact>
</mgrwt>
</event>
<event>
 8    1  0.2389776E-020  0.7929085E+02  0.7818608E-02  0.1331076E+00
          2   -1    0    0  501    0  0.00000000000E+00  0.00000000000E+00  0.69719763519E+03  0.69719763520E+03  0.25500000000E-02 0. -1.
         -1   -1    0    0    0  501 -0.00000000000E+00 -0.00000000000E+00 -0.22543935514E+01  0.22543991852E+01  0.50400000000E-02 0.  1.
         24    2    1    2    0    0  0.00000000000E+00  0.00000000000E+00  0.69494324164E+03  0.69945203438E+03  0.79290852555E+02 0.  0.
         66    2    3    3    0    0  0.33906616542E+02  0.25805713638E+01  0.52705780089E+03  0.52815740407E+03  0.20000000473E+01 0.  0.
        -13    1    3    3    0    0 -0.33906616542E+02 -0.25805713638E+01  0.16788544075E+03  0.17129463031E+03  0.10566000000E+00 0.  1.
         13    1    4    4    0    0  0.84407359986E+01  0.89048649120E+00  0.12688871681E+03  0.12717231070E+03  0.10566000000E+00 0.  1.
        -13    1    4    4    0    0  0.23301000126E+02  0.19589303502E+01  0.36784872729E+03  0.36859119815E+03  0.10566000000E+00 0. -1.
         14    1    4    4    0    0  0.21648804174E+01 -0.26884547760E+00  0.32320356783E+02  0.32393895222E+02  0.00000000000E+00 0. -1.
<mgrwt>
<rscale>  0 0.79290853E+02</rscale>
<asrwt>0</asrwt>
<pdfrwt beam="1">  1        2 0.10726117E+00 0.79290853E+02</pdfrwt>
<pdfrwt beam="2">  1       -1 0.34683021E-03 0.79290853E+02</pdfrwt>
<totfact> 0.34203151E+05</totfact>
</mgrwt>
</event>
<event>
 8    1  0.2389776E-020  0.8635741E+02  0.7818608E-02  0.1311920E+00
          2   -1    0    0  501    0  0.00000000000E+00  0.00000000000E+00  0.20260793712E+02  0.20260793872E+02  0.25500000000E-02 0. -1.
         -1   -1    0    0    0  501 -0.00000000000E+00 -0.00000000000E+00 -0.92020119305E+02  0.92020119443E+02  0.50400000000E-02 0.  1.
         24    2    1    2    0    0  0.00000000000E+00  0.88817841970E-15 -0.71759325593E+02  0.11228091332E+03  0.86357412452E+02 0.  0.
         66    2    3    3    0    0  0.19647949768E+02 -0.40246338314E+01  0.13783932709E+02  0.24417952902E+02  0.20000038688E+01 0.  0.
        -13    1    3    3    0    0 -0.19647949768E+02  0.40246338314E+01 -0.85543258302E+02  0.87862960413E+02  0.10566000000E+00 0.  1.
         13    1    4    4    0    0  0.85775447284E+01 -0.14189701740E+01  0.54632876790E+01  0.10268711030E+02  0.10566000000E+00 0. -1.
        -13    1    4    4    0    0  0.93440356954E+01 -0.18091939534E+01  0.72702151164E+01  0.11977118924E+02  0.10566000000E+00 0.  1.
         14    1    4    4    0    0  0.17263693436E+01 -0.79646970396E+00  0.10504299138E+01  0.21721229485E+01  0.00000000000E+00 0. -1.
<mgrwt>
<rscale>  0 0.86357412E+02</rscale>
<asrwt>0</asrwt>
<pdfrwt beam="1">  1        2 0.31170453E-02 0.86357412E+02</pdfrwt>
<pdfrwt beam="2">  1       -1 0.14156941E-01 0.86357412E+02</pdfrwt>
<totfact> 0.99778942E+04</totfact>
</mgrwt>
</event>
<event>
 8    1  0.2389776E-020  0.7932469E+02  0.7818608E-02  0.1330979E+00
          2   -1    0    0  501    0  0.00000000000E+00  0.00000000000E+00  0.11476375833E+03  0.11476375836E+03  0.25500000000E-02 0. -1.
         -1   -1    0    0    0  501 -0.00000000000E+00 -0.00000000000E+00 -0.13707301014E+02  0.13707301940E+02  0.50400000000E-02 0.  1.
         24    2    1    2    0    0  0.00000000000E+00  0.88817841970E-15  0.10105645732E+03  0.12847106030E+03  0.79324685747E+02 0.  0.
         66    2    3    3    0    0  0.21836458130E+02  0.44780123747E+01  0.10364163225E+03  0.10603052127E+03  0.20000014385E+01 0.  0.
        -13    1    3    3    0    0 -0.21836458130E+02 -0.44780123747E+01 -0.25851749374E+01  0.22440539030E+02  0.10566000000E+00 0.  1.
         13    1    4    4    0    0  0.19328803405E+02  0.35275995963E+01  0.90652830777E+02  0.92757713921E+02  0.10566000000E+00 0. -1.
        -13    1    4    4    0    0  0.98014787707E+00  0.63019266751E+00  0.54740779907E+01  0.55977251222E+01  0.10566000000E+00 0.  1.
        -14    1    4    4    0    0  0.15275068473E+01  0.32022011094E+00  0.75147234865E+01  0.76750822254E+01  0.00000000000E+00 0.  1.
<mgrwt>
<rscale>  0 0.79324686E+02</rscale>
<asrwt>0</asrwt>
<pdfrwt beam="1">  1        2 0.17655962E-01 0.79324686E+02</pdfrwt>
<pdfrwt beam="2">  1       -1 0.21088157E-02 0.79324686E+02</pdfrwt>
<totfact> 0.18862678E+05</totfact>
</mgrwt>
</event>
<event>
 8    1  0.2389776E-020  0.7969085E+02  0.7818608E-02  0.1329931E+00
          2   -1    0    0  501    0  0.00000000000E+00  0.00000000000E+00  0.92311669635E+02  0.92311669670E+02  0.25500000000E-02 0. -1.
         -1   -1    0    0    0  501 -0.00000000000E+00 -0.00000000000E+00 -0.17198885033E+02  0.17198885771E+02  0.50400000000E-02 0.  1.
         24    2    1    2    0    0  0.00000000000E+00  0.00000000000E+00  0.75112784602E+02  0.10951055544E+03  0.79690848549E+02 0.  0.
         66    2    3    3    0    0  0.15257539853E+02  0.14622213560E+02  0.83958744264E+02  0.86600648892E+02  0.19999995926E+01 0.  0.
        -13    1    3    3    0    0 -0.15257539853E+02 -0.14622213560E+02 -0.88459596618E+01  0.22909906550E+02  0.10566000000E+00 0.  1.
         13    1    4    4    0    0  0.88681063949E+01  0.75199221046E+01  0.48767619147E+02  0.50134662469E+02  0.10566000000E+00 0. -1.
        -13    1    4    4    0    0  0.51503888231E+01  0.56984018712E+01  0.28685691595E+02  0.29696436743E+02  0.10566000000E+00 0.  1.
         14    1    4    4    0    0  0.12390446348E+01  0.14038895841E+01  0.65054335213E+01  0.67695496801E+01  0.00000000000E+00 0. -1.
<mgrwt>
<rscale>  0 0.79690849E+02</rscale>
<asrwt>0</asrwt>
<pdfrwt beam="1">  1        2 0.14201795E-01 0.79690849E+02</pdfrwt>
<pdfrwt beam="2">  1       -1 0.26459824E-02 0.79690849E+02</pdfrwt>
<totfact> 0.17520268E+05</totfact>
</mgrwt>
</event>
<event>
 8    1  0.2389776E-020  0.7936906E+02  0.7818608E-02  0.1330852E+00
          2   -1    0    0  501    0  0.00000000000E+00  0.00000000000E+00  0.30482028655E+03  0.30482028656E+03  0.25500000000E-02 0. -1.
         -1   -1    0    0    0  501 -0.00000000000E+00 -0.00000000000E+00 -0.51665240622E+01  0.51665265205E+01  0.50400000000E-02 0.  1.
         24    2    1    2    0    0  0.00000000000E+00  0.00000000000E+00  0.29965376249E+03  0.30998681308E+03  0.79369055123E+02 0.  0.
         66    2    3    3    0    0 -0.94298648410E+00 -0.27790136500E+02  0.26036750109E+03  0.26185571701E+03  0.19999993604E+01 0.  0.
        -13    1    3    3    0    0  0.94298648410E+00  0.27790136500E+02  0.39286261397E+02  0.48131096069E+02  0.10566000000E+00 0.  1.
         13    1    4    4    0    0 -0.11252193790E+01 -0.25098383240E+02  0.23845347770E+03  0.23977336623E+03  0.10566000000E+00 0. -1.
        -13    1    4    4    0    0  0.12576731333E+00 -0.22472634780E+01  0.19172570548E+02  0.19304523719E+02  0.10566000000E+00 0.  1.
         14    1    4    4    0    0  0.56465581610E-01 -0.44448978264E+00  0.27414528447E+01  0.27778270695E+01  0.00000000000E+00 0. -1.
<mgrwt>
<rscale>  0 0.79369055E+02</rscale>
<asrwt>0</asrwt>
<pdfrwt beam="1">  1        2 0.46895436E-01 0.79369055E+02</pdfrwt>
<pdfrwt beam="2">  1       -1 0.79484992E-03 0.79369055E+02</pdfrwt>
<totfact> 0.26179549E+05</totfact>
</mgrwt>
</event>
<event>
 8    1  0.2389776E-020  0.7862984E+02  0.7818608E-02  0.1332985E+00
          2   -1    0    0  501    0  0.00000000000E+00  0.00000000000E+00  0.11097057561E+03  0.11097057564E+03  0.25500000000E-02 0. -1.
         -1   -1    0    0    0  501 -0.00000000000E+00 -0.00000000000E+00 -0.13928582786E+02  0.13928583698E+02  0.50400000000E-02 0.  1.
         24    2    1    2    0    0  0.00000000000E+00 -0.35527136788E-14  0.97041992825E+02  0.12489915934E+03  0.78629839324E+02 0.  0.
         66    2    3    3    0    0 -0.27913690724E+02  0.27372855488E+02  0.54747362317E+02  0.67303202178E+02  0.19999988487E+01 0.  0.
        -13    1    3    3    0    0  0.27913690724E+02 -0.27372855488E+02  0.42294630507E+02  0.57595957160E+02  0.10566000000E+00 0.  1.
         13    1    4    4    0    0 -0.12451083504E+02  0.11746210911E+02  0.22930371579E+02  0.28614962100E+02  0.10566000000E+00 0. -1.
        -13    1    4    4    0    0 -0.94661113023E+01  0.90270878455E+01  0.19561312405E+02  0.23531929059E+02  0.10566000000E+00 0.  1.
        -14    1    4    4    0    0 -0.59964959173E+01  0.65995567313E+01  0.12255678333E+02  0.15156311020E+02  0.00000000000E+00 0.  1.
<mgrwt>
<rscale>  0 0.78629839E+02</rscale>
<asrwt>0</asrwt>
<pdfrwt beam="1">  1        2 0.17072397E-01 0.78629839E+02</pdfrwt>
<pdfrwt beam="2">  1       -1 0.21428589E-02 0.78629839E+02</pdfrwt>
<totfact> 0.19122028E+05</totfact>
</mgrwt>
</event>
<event>
 8    1  0.2389776E-020  0.8065655E+02  0.7818608E-02  0.1327199E+00
          2   -1    0    0  501    0  0.00000000000E+00  0.00000000000E+00  0.58617125053E+01  0.58617130600E+01  0.25500000000E-02 0. -1.
         -1   -1    0    0    0  501 -0.00000000000E+00 -0.00000000000E+00 -0.27745638469E+03  0.27745638474E+03  0.50400000000E-02 0.  1.
         24    2    1    2    0    0  0.71054273576E-14  0.00000000000E+00 -0.27159467219E+03  0.28331809780E+03  0.80656547035E+02 0.  0.
         66    2    3    3    0    0  0.30512199541E+02 -0.26306684722E+02 -0.13183158057E+03  0.13786443190E+03  0.19999911555E+01 0.  0.
        -13    1    3    3    0    0 -0.30512199541E+02  0.26306684722E+02 -0.13976309162E+03  0.14545366590E+03  0.10566000000E+00 0.  1.
         13    1    4    4    0    0  0.57210016423E+01 -0.47062173200E+01 -0.22799266449E+02  0.23972819107E+02  0.10566000000E+00 0.  1.
        -13    1    4    4    0    0  0.14541385560E+02 -0.11952234888E+02 -0.60792701120E+02  0.63640171954E+02  0.10566000000E+00 0. -1.
         14    1    4    4    0    0  0.10249812339E+02 -0.96482325139E+01 -0.48239613002E+02  0.50251440837E+02  0.00000000000E+00 0. -1.
<mgrwt>
<rscale>  0 0.80656547E+02</rscale>
<asrwt>0</asrwt>
<pdfrwt beam="1">  1        2 0.90180218E-03 0.80656547E+02</pdfrwt>
<pdfrwt beam="2">  1       -1 0.42685588E-01 0.80656547E+02</pdfrwt>
<totfact> 0.87284383E+04</totfact>
</mgrwt>
</event>
<event>
 8    1  0.2389776E-020  0.7824953E+02  0.7818608E-02  0.1334094E+00
         -1   -1    0    0    0  501 -0.00000000000E+00  0.00000000000E+00  0.97421430522E+02  0.97421430653E+02  0.50400000000E-02 0.  1.
          2   -1    0    0  501    0  0.00000000000E+00 -0.00000000000E+00 -0.15712631332E+02  0.15712631539E+02  0.25500000000E-02 0. -1.
         24    2    1    2    0    0  0.00000000000E+00  0.00000000000E+00  0.81708799190E+02  0.11313406219E+03  0.78249525001E+02 0.  0.
         66    2    3    3    0    0  0.55598461528E+01  0.33293119908E+02  0.12350555977E+02  0.35998332545E+02  0.19999976513E+01 0.  0.
        -13    1    3    3    0    0 -0.55598461528E+01 -0.33293119908E+02  0.69358243214E+02  0.77135729647E+02  0.10566000000E+00 0.  1.
         13    1    4    4    0    0  0.26470548039E+01  0.19352556926E+02  0.76956485543E+01  0.20994345177E+02  0.10566000000E+00 0.  1.
        -13    1    4    4    0    0  0.14515953790E+01  0.70397772782E+01  0.27582586073E+01  0.76996589438E+01  0.10566000000E+00 0. -1.
        -14    1    4    4    0    0  0.14611959699E+01  0.69007857044E+01  0.18966488150E+01  0.73043284242E+01  0.00000000000E+00 0.  1.
<mgrwt>
<rscale>  0 0.78249525E+02</rscale>
<asrwt>0</asrwt>
<pdfrwt beam="1">  1        2 0.24173279E-02 0.78249525E+02</pdfrwt>
<pdfrwt beam="2">  1       -1 0.14987913E-01 0.78249525E+02</pdfrwt>
<totfact> 0.12594309E+05</totfact>
</mgrwt>
</event>
<event>
 8    1  0.2389776E-020  0.7400422E+02  0.7818608E-02  0.1346983E+00
         -1   -1    0    0    0  501 -0.00000000000E+00  0.00000000000E+00  0.29728808284E+03  0.29728808288E+03  0.50400000000E-02 0.  1.
          2   -1    0    0  501    0  0.00000000000E+00 -0.00000000000E+00 -0.46054855609E+01  0.46054862669E+01  0.25500000000E-02 0. -1.
         24    2    1    2    0    0  0.00000000000E+00 -0.35527136788E-14  0.29268259727E+03  0.30189356915E+03  0.74004218419E+02 0.  0.
         66    2    3    3    0    0  0.19869615228E+02  0.31042735113E+02  0.15847918554E+03  0.16272094289E+03  0.19999985147E+01 0.  0.
        -13    1    3    3    0    0 -0.19869615228E+02 -0.31042735113E+02  0.13420341174E+03  0.13917262625E+03  0.10566000000E+00 0.  1.
         13    1    4    4    0    0  0.81498415786E+01  0.11936463521E+02  0.60951715239E+02  0.62642013328E+02  0.10566000000E+00 0. -1.
        -13    1    4    4    0    0  0.64813907520E+01  0.10050185571E+02  0.54705244152E+02  0.55997228127E+02  0.10566000000E+00 0.  1.
         14    1    4    4    0    0  0.52383828974E+01  0.90560860210E+01  0.42822226149E+02  0.44081701439E+02  0.00000000000E+00 0. -1.
<mgrwt>
<rscale>  0 0.74004218E+02</rscale>
<asrwt>0</asrwt>
<pdfrwt beam="1">  1        2 0.70853655E-03 0.74004218E+02</pdfrwt>
<pdfrwt beam="2">  1       -1 0.45736612E-01 0.74004218E+02</pdfrwt>
<totfact> 0.10587298E+05</totfact>
</mgrwt>
</event>
<event>
 8    1  0.2389776E-020  0.7974837E+02  0.7818608E-02  0.1329767E+00
          2   -1    0    0  501    0  0.00000000000E+00  0.00000000000E+00  0.52235476290E+02  0.52235476352E+02  0.25500000000E-02 0. -1.
         -1   -1    0    0    0  501 -0.00000000000E+00 -0.00000000000E+00 -0.30438139249E+02  0.30438139666E+02  0.50400000000E-02 0.  1.
         24    2    1    2    0    0  0.00000000000E+00  0.00000000000E+00  0.21797337041E+02  0.82673616019E+02  0.79748372294E+02 0.  0.
         66    2    3    3    0    0 -0.94479480261E+01 -0.33421011303E+02  0.31159767515E+02  0.46702878094E+02  0.19999980669E+01 0.  0.
        -13    1    3    3    0    0  0.94479480261E+01  0.33421011303E+02 -0.93624304734E+01  0.35970737925E+02  0.10566000000E+00 0.  1.
         13    1    4    4    0    0 -0.16958301839E+01 -0.49719253121E+01  0.54336733644E+01  0.75585614761E+01  0.10566000000E+00 0. -1.
        -13    1    4    4    0    0 -0.29037322111E+01 -0.12106473466E+02  0.11262082844E+02  0.16788211178E+02  0.10566000000E+00 0.  1.
         14    1    4    4    0    0 -0.48483856311E+01 -0.16342612525E+02  0.14464011307E+02  0.22356105440E+02  0.00000000000E+00 0. -1.
<mgrwt>
<rscale>  0 0.79748372E+02</rscale>
<asrwt>0</asrwt>
<pdfrwt beam="1">  1        2 0.80362271E-02 0.79748372E+02</pdfrwt>
<pdfrwt beam="2">  1       -1 0.46827907E-02 0.79748372E+02</pdfrwt>
<totfact> 0.15217418E+05</totfact>
</mgrwt>
</event>
<event>
 8    1  0.2389776E-020  0.7782046E+02  0.7818608E-02  0.1335353E+00
         -1   -1    0    0    0  501 -0.00000000000E+00  0.00000000000E+00  0.73420084484E+02  0.73420084657E+02  0.50400000000E-02 0.  1.
          2   -1    0    0  501    0  0.00000000000E+00 -0.00000000000E+00 -0.20621142178E+02  0.20621142336E+02  0.25500000000E-02 0. -1.
         24    2    1    2    0    0  0.00000000000E+00  0.00000000000E+00  0.52798942306E+02  0.94041226993E+02  0.77820460457E+02 0.  0.
         66    2    3    3    0    0 -0.95393325493E+01 -0.79398473719E+01 -0.18114725169E+02  0.22049564694E+02  0.19999983661E+01 0.  0.
        -13    1    3    3    0    0  0.95393325493E+01  0.79398473719E+01  0.70913667475E+02  0.71991662299E+02  0.10566000000E+00 0.  1.
         13    1    4    4    0    0 -0.79333196538E+01 -0.73930961489E+01 -0.16080501346E+02  0.19395595350E+02  0.10566000000E+00 0. -1.
        -13    1    4    4    0    0 -0.65768931643E+00 -0.22500539433E+00 -0.83098764020E+00  0.10885252217E+01  0.10566000000E+00 0.  1.
         14    1    4    4    0    0 -0.94832357903E+00 -0.32174582867E+00 -0.12032361826E+01  0.15654441222E+01  0.00000000000E+00 0. -1.
<mgrwt>
<rscale>  0 0.77820460E+02</rscale>
<asrwt>0</asrwt>
<pdfrwt beam="1">  1        2 0.31724834E-02 0.77820460E+02</pdfrwt>
<pdfrwt beam="2">  1       -1 0.11295398E-01 0.77820460E+02</pdfrwt>
<totfact> 0.13518908E+05</totfact>
</mgrwt>
</event>
<event>
 8    1  0.2389776E-020  0.7189790E+02  0.7818608E-02  0.1353756E+00
         -1   -1    0    0    0  501 -0.00000000000E+00  0.00000000000E+00  0.86090254166E+01  0.86090268919E+01  0.50400000000E-02 0.  1.
          2   -1    0    0  501    0  0.00000000000E+00 -0.00000000000E+00 -0.15011302520E+03  0.15011302522E+03  0.25500000000E-02 0. -1.
         24    2    1    2    0    0 -0.17763568394E-14  0.00000000000E+00 -0.14150399978E+03  0.15872205211E+03  0.71897898943E+02 0.  0.
         66    2    3    3    0    0  0.15702752351E+02 -0.52423088176E+00 -0.14211836926E+03  0.14299818925E+03  0.19999997920E+01 0.  0.
        -13    1    3    3    0    0 -0.15702752351E+02  0.52423088176E+00  0.61436947468E+00  0.15723862862E+02  0.10566000000E+00 0.  1.
         13    1    4    4    0    0  0.55185574624E+01 -0.75396416931E+00 -0.51308448324E+02  0.51609989070E+02  0.10566000000E+00 0. -1.
        -13    1    4    4    0    0  0.23076065920E+01  0.20316296191E+00 -0.16539186789E+02  0.16700963656E+02  0.10566000000E+00 0.  1.
        -14    1    4    4    0    0  0.78765882968E+01  0.26570325635E-01 -0.74270734147E+02  0.74687236526E+02  0.00000000000E+00 0.  1.
<mgrwt>
<rscale>  0 0.71897899E+02</rscale>
<asrwt>0</asrwt>
<pdfrwt beam="1">  1        2 0.23094310E-01 0.71897899E+02</pdfrwt>
<pdfrwt beam="2">  1       -1 0.13244657E-02 0.71897899E+02</pdfrwt>
<totfact> 0.26547562E+05</totfact>
</mgrwt>
</event>
<event>
 8    1  0.2389776E-020  0.7921891E+02  0.7818608E-02  0.1331283E+00
         -1   -1    0    0    0  501 -0.00000000000E+00  0.00000000000E+00  0.41660229774E+02  0.41660230079E+02  0.50400000000E-02 0.  1.
          2   -1    0    0  501    0  0.00000000000E+00 -0.00000000000E+00 -0.37659634749E+02  0.37659634835E+02  0.25500000000E-02 0. -1.
         24    2    1    2    0    0  0.35527136788E-14  0.00000000000E+00  0.40005950260E+01  0.79319864914E+02  0.79218913205E+02 0.  0.
         66    2    3    3    0    0  0.24254766282E+02 -0.25291603958E+02 -0.16432356305E+02  0.38755402853E+02  0.19999995927E+01 0.  0.
        -13    1    3    3    0    0 -0.24254766282E+02  0.25291603958E+02  0.20432951331E+02  0.40564462061E+02  0.10566000000E+00 0.  1.
         13    1    4    4    0    0  0.16097833963E+02 -0.16680771902E+02 -0.11498790579E+02  0.25877050805E+02  0.10566000000E+00 0. -1.
        -13    1    4    4    0    0  0.43753445569E+01 -0.52351892400E+01 -0.26832641188E+01  0.73322518190E+01  0.10566000000E+00 0.  1.
         14    1    4    4    0    0  0.37815877618E+01 -0.33756428164E+01 -0.22503016080E+01  0.55461002291E+01  0.00000000000E+00 0. -1.
<mgrwt>
<rscale>  0 0.79218913E+02</rscale>
<asrwt>0</asrwt>
<pdfrwt beam="1">  1        2 0.57937900E-02 0.79218913E+02</pdfrwt>
<pdfrwt beam="2">  1       -1 0.64092662E-02 0.79218913E+02</pdfrwt>
<totfact> 0.14468612E+05</totfact>
</mgrwt>
</event>
<event>
 8    1  0.2389776E-020  0.7949074E+02  0.7818608E-02  0.1330503E+00
          2   -1    0    0  501    0  0.00000000000E+00  0.00000000000E+00  0.34779250760E+03  0.34779250761E+03  0.25500000000E-02 0. -1.
         -1   -1    0    0    0  501 -0.00000000000E+00 -0.00000000000E+00 -0.45420583555E+01  0.45420611517E+01  0.50400000000E-02 0.  1.
         24    2    1    2    0    0 -0.35527136788E-14 -0.88817841970E-15  0.34325044925E+03  0.35233456876E+03  0.79490738062E+02 0.  0.
         66    2    3    3    0    0  0.30510053318E+02  0.58263936463E+01  0.28146376414E+03  0.28317955566E+03  0.20000013667E+01 0.  0.
        -13    1    3    3    0    0 -0.30510053318E+02 -0.58263936463E+01  0.61786685110E+02  0.69155013103E+02  0.10566000000E+00 0.  1.
         13    1    4    4    0    0  0.17913533218E+02  0.37610508703E+01  0.17358961350E+03  0.17455201304E+03  0.10566000000E+00 0. -1.
        -13    1    4    4    0    0  0.15311395961E+01  0.34133189515E+00  0.13029378519E+02  0.13123900509E+02  0.10566000000E+00 0.  1.
         14    1    4    4    0    0  0.11065380504E+02  0.17240108809E+01  0.94844772117E+02  0.95503642114E+02  0.00000000000E+00 0. -1.
<mgrwt>
<rscale>  0 0.79490738E+02</rscale>
<asrwt>0</asrwt>
<pdfrwt beam="1">  1        2 0.53506543E-01 0.79490738E+02</pdfrwt>
<pdfrwt beam="2">  1       -1 0.69877838E-03 0.79490738E+02</pdfrwt>
<totfact> 0.27341704E+05</totfact>
</mgrwt>
</event>
<event>
 8    1  0.2389776E-020  0.8682613E+02  0.7818608E-02  0.1310725E+00
         -1   -1    0    0    0  501 -0.00000000000E+00  0.00000000000E+00  0.49331901639E+01  0.49331927385E+01  0.50400000000E-02 0.  1.
          2   -1    0    0  501    0  0.00000000000E+00 -0.00000000000E+00 -0.38204359965E+03  0.38204359966E+03  0.25500000000E-02 0. -1.
         24    2    1    2    0    0  0.00000000000E+00  0.00000000000E+00 -0.37711040949E+03  0.38697679240E+03  0.86826130348E+02 0.  0.
         66    2    3    3    0    0 -0.32883045385E+02  0.28264593272E+02 -0.19571220326E+03  0.20046807332E+03  0.20000020459E+01 0.  0.
        -13    1    3    3    0    0  0.32883045385E+02 -0.28264593272E+02 -0.18139820623E+03  0.18650871908E+03  0.10566000000E+00 0.  1.
         13    1    4    4    0    0 -0.37482723230E+01  0.35506682058E+01 -0.22631162998E+02  0.23212873429E+02  0.10566000000E+00 0. -1.
        -13    1    4    4    0    0 -0.17540012782E+02  0.14983336902E+02 -0.10820025414E+03  0.11063208664E+03  0.10566000000E+00 0.  1.
        -14    1    4    4    0    0 -0.11594760280E+02  0.97305881642E+01 -0.64880786120E+02  0.66623113253E+02  0.00000000000E+00 0.  1.
<mgrwt>
<rscale>  0 0.86826130E+02</rscale>
<asrwt>0</asrwt>
<pdfrwt beam="1">  1        2 0.58775915E-01 0.86826130E+02</pdfrwt>
<pdfrwt beam="2">  1       -1 0.75895283E-03 0.86826130E+02</pdfrwt>
<totfact> 0.22425535E+05</totfact>
</mgrwt>
</event>
<event>
 8    1  0.2389776E-020  0.7780524E+02  0.7818608E-02  0.1335398E+00
         -1   -1    0    0    0  501 -0.00000000000E+00  0.00000000000E+00  0.48315688469E+02  0.48315688732E+02  0.50400000000E-02 0.  1.
          2   -1    0    0  501    0  0.00000000000E+00 -0.00000000000E+00 -0.31323448104E+02  0.31323448207E+02  0.25500000000E-02 0. -1.
         24    2    1    2    0    0  0.00000000000E+00  0.00000000000E+00  0.16992240366E+02  0.79639136940E+02  0.77805243396E+02 0.  0.
         66    2    3    3    0    0  0.10635916578E+02  0.18953193889E+02 -0.24492555228E+02  0.32805968036E+02  0.19999992836E+01 0.  0.
        -13    1    3    3    0    0 -0.10635916578E+02 -0.18953193889E+02  0.41484795594E+02  0.46833168903E+02  0.10566000000E+00 0.  1.
         13    1    4    4    0    0  0.55913750583E+01  0.10149389547E+02 -0.14290803391E+02  0.18398690410E+02  0.10566000000E+00 0. -1.
        -13    1    4    4    0    0  0.49684625837E+01  0.84048214389E+01 -0.98592792871E+01  0.13875993513E+02  0.10566000000E+00 0.  1.
        -14    1    4    4    0    0  0.76078936263E-01  0.39898290295E+00 -0.34247255005E+00  0.53128411319E+00  0.00000000000E+00 0.  1.
<mgrwt>
<rscale>  0 0.77805243E+02</rscale>
<asrwt>0</asrwt>
<pdfrwt beam="1">  1        2 0.48189920E-02 0.77805243E+02</pdfrwt>
<pdfrwt beam="2">  1       -1 0.74331829E-02 0.77805243E+02</pdfrwt>
<totfact> 0.14665803E+05</totfact>
</mgrwt>
</event>
<event>
 8    1  0.2389776E-020  0.8018187E+02  0.7818608E-02  0.1328536E+00
          2   -1    0    0  501    0  0.00000000000E+00  0.00000000000E+00  0.29723637337E+03  0.29723637338E+03  0.25500000000E-02 0. -1.
         -1   -1    0    0    0  501 -0.00000000000E+00 -0.00000000000E+00 -0.54074232321E+01  0.54074255808E+01  0.50400000000E-02 0.  1.
         24    2    1    2    0    0  0.35527136788E-14  0.22204460493E-15  0.29182895014E+03  0.30264379896E+03  0.80181873958E+02 0.  0.
         66    2    3    3    0    0 -0.27371992250E+02 -0.12285515729E+01  0.25634234999E+03  0.25781027074E+03  0.20000003944E+01 0.  0.
        -13    1    3    3    0    0  0.27371992250E+02  0.12285515729E+01  0.35486600144E+02  0.44833528219E+02  0.10566000000E+00 0.  1.
         13    1    4    4    0    0 -0.56083600374E+01  0.92798116797E-01  0.56970897918E+02  0.57246455675E+02  0.10566000000E+00 0. -1.
        -13    1    4    4    0    0 -0.52787839161E+00 -0.14194182104E+00  0.41335096538E+01  0.41708355482E+01  0.10566000000E+00 0.  1.
         14    1    4    4    0    0 -0.21235753821E+02 -0.11794078687E+01  0.19523794242E+03  0.19639297952E+03  0.00000000000E+00 0. -1.
<mgrwt>
<rscale>  0 0.80181874E+02</rscale>
<asrwt>0</asrwt>
<pdfrwt beam="1">  1        2 0.45728663E-01 0.80181874E+02</pdfrwt>
<pdfrwt beam="2">  1       -1 0.83191163E-03 0.80181874E+02</pdfrwt>
<totfact> 0.25258329E+05</totfact>
</mgrwt>
</event>
<event>
 8    1  0.2389776E-020  0.8007558E+02  0.7818608E-02  0.1328837E+00
          2   -1    0    0  501    0  0.00000000000E+00  0.00000000000E+00  0.25568391794E+03  0.25568391795E+03  0.25500000000E-02 0. -1.
         -1   -1    0    0    0  501 -0.00000000000E+00 -0.00000000000E+00 -0.62695543361E+01  0.62695563619E+01  0.50400000000E-02 0.  1.
         24    2    1    2    0    0  0.17763568394E-14  0.00000000000E+00  0.24941436360E+03  0.26195347431E+03  0.80075576386E+02 0.  0.
         66    2    3    3    0    0  0.85067379057E+01  0.21744163384E+02  0.23108259940E+03  0.23226782165E+03  0.19999997469E+01 0.  0.
        -13    1    3    3    0    0 -0.85067379057E+01 -0.21744163384E+02  0.18331764203E+02  0.29685652661E+02  0.10566000000E+00 0.  1.
         13    1    4    4    0    0  0.52736032941E+01  0.12420712585E+02  0.14177578680E+03  0.14241653654E+03  0.10566000000E+00 0.  1.
        -13    1    4    4    0    0  0.12418840070E+01  0.30691772254E+01  0.30319181268E+02  0.30499607235E+02  0.10566000000E+00 0. -1.
        -14    1    4    4    0    0  0.19912506047E+01  0.62542735740E+01  0.58987631326E+02  0.59351677873E+02  0.00000000000E+00 0.  1.
<mgrwt>
<rscale>  0 0.80075576E+02</rscale>
<asrwt>0</asrwt>
<pdfrwt beam="1">  1        2 0.39335984E-01 0.80075576E+02</pdfrwt>
<pdfrwt beam="2">  1       -1 0.96454706E-03 0.80075576E+02</pdfrwt>
<totfact> 0.24001889E+05</totfact>
</mgrwt>
</event>
<event>
 8    1  0.2389776E-020  0.8004705E+02  0.7818608E-02  0.1328918E+00
         -1   -1    0    0    0  501 -0.00000000000E+00  0.00000000000E+00  0.11652724323E+01  0.11652833317E+01  0.50400000000E-02 0.  1.
          2   -1    0    0  501    0  0.00000000000E+00 -0.00000000000E+00 -0.13746784606E+04  0.13746784606E+04  0.25500000000E-02 0. -1.
         24    2    1    2    0    0  0.00000000000E+00  0.00000000000E+00 -0.13735131882E+04  0.13758437439E+04  0.80047046491E+02 0.  0.
         66    2    3    3    0    0 -0.12124176944E+01  0.15675168720E+02 -0.13193397272E+04  0.13194349157E+04  0.19999993860E+01 0.  0.
        -13    1    3    3    0    0  0.12124176944E+01 -0.15675168720E+02 -0.54173460959E+02  0.56408828275E+02  0.10566000000E+00 0.  1.
         13    1    4    4    0    0 -0.30783256651E+00  0.46195648429E+01 -0.46775460377E+03  0.46777752795E+03  0.10566000000E+00 0. -1.
        -13    1    4    4    0    0 -0.29620994060E+00  0.33748712374E+01 -0.25938679806E+03  0.25940894292E+03  0.10566000000E+00 0.  1.
         14    1    4    4    0    0 -0.60837518726E+00  0.76807326396E+01 -0.59219832539E+03  0.59224844480E+03  0.00000000000E+00 0. -1.
<mgrwt>
<rscale>  0 0.80047046E+02</rscale>
<asrwt>0</asrwt>
<pdfrwt beam="1">  1        2 0.21148770E+00 0.80047046E+02</pdfrwt>
<pdfrwt beam="2">  1       -1 0.17927462E-03 0.80047046E+02</pdfrwt>
<totfact> 0.34130290E+05</totfact>
</mgrwt>
</event>
<event>
 8    1  0.2389776E-020  0.7880190E+02  0.7818608E-02  0.1332486E+00
          2   -1    0    0  501    0  0.00000000000E+00  0.00000000000E+00  0.41575232757E+03  0.41575232758E+03  0.25500000000E-02 0. -1.
         -1   -1    0    0    0  501 -0.00000000000E+00 -0.00000000000E+00 -0.37340356282E+01  0.37340390295E+01  0.50400000000E-02 0.  1.
         24    2    1    2    0    0  0.00000000000E+00 -0.17763568394E-14  0.41201829194E+03  0.41948636661E+03  0.78801896391E+02 0.  0.
         66    2    3    3    0    0  0.35838966015E+02 -0.13665928257E+02  0.25352805217E+03  0.25642086950E+03  0.19999993679E+01 0.  0.
        -13    1    3    3    0    0 -0.35838966015E+02  0.13665928257E+02  0.15849023978E+03  0.16306549711E+03  0.10566000000E+00 0.  1.
         13    1    4    4    0    0  0.10799452314E+02 -0.34827423488E+01  0.73538865697E+02  0.74409230587E+02  0.10566000000E+00 0. -1.
        -13    1    4    4    0    0  0.16098498057E+02 -0.70786957894E+01  0.11504592247E+03  0.11638232260E+03  0.10566000000E+00 0.  1.
         14    1    4    4    0    0  0.89410156438E+01 -0.31044901193E+01  0.64943264000E+02  0.65629316305E+02  0.00000000000E+00 0. -1.
<mgrwt>
<rscale>  0 0.78801896E+02</rscale>
<asrwt>0</asrwt>
<pdfrwt beam="1">  1        2 0.63961893E-01 0.78801896E+02</pdfrwt>
<pdfrwt beam="2">  1       -1 0.57446731E-03 0.78801896E+02</pdfrwt>
<totfact> 0.29785392E+05</totfact>
</mgrwt>
</event>
<event>
 8    1  0.2389776E-020  0.8096694E+02  0.7818608E-02  0.1326330E+00
          2   -1    0    0  501    0  0.00000000000E+00  0.00000000000E+00  0.27656186006E+02  0.27656186124E+02  0.25500000000E-02 0. -1.
         -1   -1    0    0    0  501 -0.00000000000E+00 -0.00000000000E+00 -0.59260208276E+02  0.59260208490E+02  0.50400000000E-02 0.  1.
         24    2    1    2    0    0  0.00000000000E+00 -0.44408920985E-15 -0.31604022269E+02  0.86916394614E+02  0.80966940346E+02 0.  0.
         66    2    3    3    0    0 -0.12876221910E+02 -0.35008003103E+01  0.25189883289E+02  0.28575914961E+02  0.20000005596E+01 0.  0.
        -13    1    3    3    0    0  0.12876221910E+02  0.35008003103E+01 -0.56793905559E+02  0.58340479653E+02  0.10566000000E+00 0.  1.
         13    1    4    4    0    0 -0.19249020872E+01 -0.58388897152E+00  0.51215090920E+01  0.55033802151E+01  0.10566000000E+00 0. -1.
        -13    1    4    4    0    0 -0.31628364198E+01 -0.13226975464E+01  0.57564739505E+01  0.67008372161E+01  0.10566000000E+00 0.  1.
         14    1    4    4    0    0 -0.77884834028E+01 -0.15942137925E+01  0.14311900247E+02  0.16371697530E+02  0.00000000000E+00 0. -1.
<mgrwt>
<rscale>  0 0.80966940E+02</rscale>
<asrwt>0</asrwt>
<pdfrwt beam="1">  1        2 0.42547979E-02 0.80966940E+02</pdfrwt>
<pdfrwt beam="2">  1       -1 0.91169551E-02 0.80966940E+02</pdfrwt>
<totfact> 0.12800442E+05</totfact>
</mgrwt>
</event>
<event>
 8    1  0.2389776E-020  0.7870695E+02  0.7818608E-02  0.1332761E+00
          2   -1    0    0  501    0  0.00000000000E+00  0.00000000000E+00  0.20959897197E+04  0.20959897197E+04  0.25500000000E-02 0. -1.
         -1   -1    0    0    0  501 -0.00000000000E+00 -0.00000000000E+00 -0.73887679486E+00  0.73889398400E+00  0.50400000000E-02 0.  1.
         24    2    1    2    0    0  0.00000000000E+00  0.00000000000E+00  0.20952508429E+04  0.20967286137E+04  0.78706954921E+02 0.  0.
         66    2    3    3    0    0 -0.76552067922E+01  0.10727487262E+02  0.20354109493E+04  0.20354545963E+04  0.19999891665E+01 0.  0.
        -13    1    3    3    0    0  0.76552067922E+01 -0.10727487262E+02  0.59839893611E+02  0.61274017376E+02  0.10566000000E+00 0.  1.
         13    1    4    4    0    0 -0.43931076526E+01  0.60575156826E+01  0.12368938135E+04  0.12369164523E+04  0.10566000000E+00 0. -1.
        -13    1    4    4    0    0 -0.10818730313E+01  0.24194749208E+01  0.38501072004E+03  0.38501985666E+03  0.10566000000E+00 0.  1.
        -14    1    4    4    0    0 -0.21802261083E+01  0.22504966590E+01  0.41350641575E+03  0.41351828736E+03  0.00000000000E+00 0.  1.
<mgrwt>
<rscale>  0 0.78706955E+02</rscale>
<asrwt>0</asrwt>
<pdfrwt beam="1">  1        2 0.32245883E+00 0.78706955E+02</pdfrwt>
<pdfrwt beam="2">  1       -1 0.11367507E-03 0.78706955E+02</pdfrwt>
<totfact> 0.27655624E+05</totfact>
</mgrwt>
</event>
<event>
 8    1  0.2389776E-020  0.7986534E+02  0.7818608E-02  0.1329434E+00
         -1   -1    0    0    0  501 -0.00000000000E+00  0.00000000000E+00  0.26379762542E+02  0.26379763024E+02  0.50400000000E-02 0.  1.
          2   -1    0    0  501    0  0.00000000000E+00 -0.00000000000E+00 -0.60448543250E+02  0.60448543303E+02  0.25500000000E-02 0. -1.
         24    2    1    2    0    0  0.00000000000E+00 -0.35527136788E-14 -0.34068780708E+02  0.86828306327E+02  0.79865342676E+02 0.  0.
         66    2    3    3    0    0 -0.18181593456E+02  0.24365132172E+02 -0.45152124753E+02  0.54469664736E+02  0.20000000801E+01 0.  0.
        -13    1    3    3    0    0  0.18181593456E+02 -0.24365132172E+02  0.11083344046E+02  0.32358641591E+02  0.10566000000E+00 0.  1.
         13    1    4    4    0    0 -0.55519061314E+01  0.70349704648E+01 -0.14755229589E+02  0.17263905566E+02  0.10566000000E+00 0. -1.
        -13    1    4    4    0    0 -0.51522947913E+01  0.67060575052E+01 -0.11577940280E+02  0.14337964083E+02  0.10566000000E+00 0.  1.
         14    1    4    4    0    0 -0.74773925330E+01  0.10624104202E+02 -0.18818954884E+02  0.22867795087E+02  0.00000000000E+00 0. -1.
<mgrwt>
<rscale>  0 0.79865343E+02</rscale>
<asrwt>0</asrwt>
<pdfrwt beam="1">  1        2 0.92997759E-02 0.79865343E+02</pdfrwt>
<pdfrwt beam="2">  1       -1 0.40584251E-02 0.79865343E+02</pdfrwt>
<totfact> 0.15664633E+05</totfact>
</mgrwt>
</event>
<event>
 8    1  0.2389776E-020  0.7991579E+02  0.7818608E-02  0.1329291E+00
          2   -1    0    0  501    0  0.00000000000E+00  0.00000000000E+00  0.20384941179E+04  0.20384941179E+04  0.25500000000E-02 0. -1.
         -1   -1    0    0    0  501 -0.00000000000E+00 -0.00000000000E+00 -0.78323339799E+00  0.78324961368E+00  0.50400000000E-02 0.  1.
         24    2    1    2    0    0  0.17763568394E-14  0.00000000000E+00  0.20377108845E+04  0.20392773675E+04  0.79915785938E+02 0.  0.
         66    2    3    3    0    0 -0.15814531321E+02 -0.15069203324E+01  0.19543844090E+04  0.19544499964E+04  0.20000010981E+01 0.  0.
        -13    1    3    3    0    0  0.15814531321E+02  0.15069203324E+01  0.83326475500E+02  0.84827371131E+02  0.10566000000E+00 0.  1.
         13    1    4    4    0    0 -0.22924266505E+01 -0.66211793024E-01  0.29648545090E+03  0.29649433952E+03  0.10566000000E+00 0. -1.
        -13    1    4    4    0    0 -0.11721926097E+02 -0.16678964348E+01  0.14838990781E+04  0.14839463166E+04  0.10566000000E+00 0.  1.
         14    1    4    4    0    0 -0.18001785736E+01  0.22718789540E+00  0.17399988003E+03  0.17400934029E+03  0.00000000000E+00 0. -1.
<mgrwt>
<rscale>  0 0.79915786E+02</rscale>
<asrwt>0</asrwt>
<pdfrwt beam="1">  1        2 0.31361144E+00 0.79915786E+02</pdfrwt>
<pdfrwt beam="2">  1       -1 0.12049986E-03 0.79915786E+02</pdfrwt>
<totfact> 0.27337359E+05</totfact>
</mgrwt>
</event>
<event>
 8    1  0.2389776E-020  0.7893886E+02  0.7818608E-02  0.1332090E+00
         -1   -1    0    0    0  501 -0.00000000000E+00  0.00000000000E+00  0.19642909066E+01  0.19642973725E+01  0.50400000000E-02 0.  1.
          2   -1    0    0  501    0  0.00000000000E+00 -0.00000000000E+00 -0.79307677293E+03  0.79307677293E+03  0.25500000000E-02 0. -1.
         24    2    1    2    0    0 -0.17763568394E-14 -0.17763568394E-14 -0.79111248202E+03  0.79504107030E+03  0.78938864072E+02 0.  0.
         66    2    3    3    0    0 -0.14734504151E+02  0.13371332167E+02 -0.73882604838E+03  0.73909662962E+03  0.20000037001E+01 0.  0.
        -13    1    3    3    0    0  0.14734504151E+02 -0.13371332167E+02 -0.52286433639E+02  0.55944440682E+02  0.10566000000E+00 0.  1.
         13    1    4    4    0    0 -0.41002503269E+01  0.38387349758E+01 -0.18373774607E+03  0.18382360684E+03  0.10566000000E+00 0. -1.
        -13    1    4    4    0    0 -0.49607573397E+01  0.39139537361E+01 -0.23190569726E+03  0.23199179238E+03  0.10566000000E+00 0. -1.
        -14    1    4    4    0    0 -0.56734964843E+01  0.56186434549E+01 -0.32318260506E+03  0.32328123040E+03  0.00000000000E+00 0.  1.
<mgrwt>
<rscale>  0 0.78938864E+02</rscale>
<asrwt>0</asrwt>
<pdfrwt beam="1">  1        2 0.12201156E+00 0.78938864E+02</pdfrwt>
<pdfrwt beam="2">  1       -1 0.30219973E-03 0.78938864E+02</pdfrwt>
<totfact> 0.35523865E+05</totfact>
</mgrwt>
</event>
<event>
 8    1  0.2389776E-020  0.8110301E+02  0.7818608E-02  0.1325950E+00
         -1   -1    0    0    0  501 -0.00000000000E+00  0.00000000000E+00  0.80188484357E+02  0.80188484515E+02  0.50400000000E-02 0.  1.
          2   -1    0    0  501    0  0.00000000000E+00 -0.00000000000E+00 -0.20506992011E+02  0.20506992169E+02  0.25500000000E-02 0. -1.
         24    2    1    2    0    0  0.00000000000E+00  0.00000000000E+00  0.59681492346E+02  0.10069547668E+03  0.81103011634E+02 0.  0.
         66    2    3    3    0    0  0.93605631454E+01 -0.32537647452E+02  0.57512846887E+02  0.66768601920E+02  0.20000003030E+01 0.  0.
        -13    1    3    3    0    0 -0.93605631454E+01  0.32537647452E+02  0.21686454599E+01  0.33926874765E+02  0.10566000000E+00 0.  1.
         13    1    4    4    0    0  0.34820013103E+01 -0.12587349110E+02  0.23333329959E+02  0.26739879240E+02  0.10566000000E+00 0. -1.
        -13    1    4    4    0    0  0.25715504707E+01 -0.81142850386E+01  0.15088589356E+02  0.17324294684E+02  0.10566000000E+00 0.  1.
        -14    1    4    4    0    0  0.33070113644E+01 -0.11836013303E+02  0.19090927571E+02  0.22704427996E+02  0.00000000000E+00 0.  1.
<mgrwt>
<rscale>  0 0.81103012E+02</rscale>
<asrwt>0</asrwt>
<pdfrwt beam="1">  1        2 0.31549219E-02 0.81103012E+02</pdfrwt>
<pdfrwt beam="2">  1       -1 0.12336690E-01 0.81103012E+02</pdfrwt>
<totfact> 0.11997518E+05</totfact>
</mgrwt>
</event>
<event>
 8    1  0.2389776E-020  0.7906868E+02  0.7818608E-02  0.1331715E+00
          2   -1    0    0  501    0  0.00000000000E+00  0.00000000000E+00  0.15359161410E+02  0.15359161622E+02  0.25500000000E-02 0. -1.
         -1   -1    0    0    0  501 -0.00000000000E+00 -0.00000000000E+00 -0.10176103674E+03  0.10176103687E+03  0.50400000000E-02 0.  1.
         24    2    1    2    0    0  0.00000000000E+00  0.00000000000E+00 -0.86401875332E+02  0.11712019849E+03  0.79068684276E+02 0.  0.
         66    2    3    3    0    0 -0.21597943893E+02 -0.37101647203E+01  0.54665064468E+01  0.22674196787E+02  0.20000011376E+01 0.  0.
        -13    1    3    3    0    0  0.21597943893E+02  0.37101647203E+01 -0.91868381779E+02  0.94446001701E+02  0.10566000000E+00 0.  1.
         13    1    4    4    0    0 -0.16398026184E+02 -0.29694648666E+01  0.46684661741E+01  0.17306609281E+02  0.10566000000E+00 0. -1.
        -13    1    4    4    0    0 -0.13938605917E+01 -0.20662194232E+00  0.54977543739E+00  0.15162311972E+01  0.10566000000E+00 0.  1.
        -14    1    4    4    0    0 -0.38060571172E+01 -0.53407791137E+00  0.24826483527E+00  0.38513563095E+01  0.00000000000E+00 0.  1.
<mgrwt>
<rscale>  0 0.79068684E+02</rscale>
<asrwt>0</asrwt>
<pdfrwt beam="1">  1        2 0.23629480E-02 0.79068684E+02</pdfrwt>
<pdfrwt beam="2">  1       -1 0.15655544E-01 0.79068684E+02</pdfrwt>
<totfact> 0.12158625E+05</totfact>
</mgrwt>
</event>
<event>
 8    1  0.2389776E-020  0.7907698E+02  0.7818608E-02  0.1331691E+00
         -1   -1    0    0    0  501 -0.00000000000E+00  0.00000000000E+00  0.10381670463E+02  0.10381671686E+02  0.50400000000E-02 0.  1.
          2   -1    0    0  501    0  0.00000000000E+00 -0.00000000000E+00 -0.15058195452E+03  0.15058195454E+03  0.25500000000E-02 0. -1.
         24    2    1    2    0    0  0.00000000000E+00  0.00000000000E+00 -0.14020028405E+03  0.16096362622E+03  0.79076983493E+02 0.  0.
         66    2    3    3    0    0  0.36550796190E+02 -0.11778986817E+02 -0.89085375341E+02  0.97030455731E+02  0.20000017901E+01 0.  0.
        -13    1    3    3    0    0 -0.36550796190E+02  0.11778986817E+02 -0.51114908713E+02  0.63933170493E+02  0.10566000000E+00 0.  1.
         13    1    4    4    0    0  0.17181524213E+02 -0.54016809650E+01 -0.41323620449E+02  0.45078106688E+02  0.10566000000E+00 0. -1.
        -13    1    4    4    0    0  0.11877553533E+02 -0.43250425122E+01 -0.30997331603E+02  0.33475782309E+02  0.10566000000E+00 0.  1.
         14    1    4    4    0    0  0.74917184438E+01 -0.20522633400E+01 -0.16764423290E+02  0.18476566735E+02  0.00000000000E+00 0. -1.
<mgrwt>
<rscale>  0 0.79076983E+02</rscale>
<asrwt>0</asrwt>
<pdfrwt beam="1">  1        2 0.23166453E-01 0.79076983E+02</pdfrwt>
<pdfrwt beam="2">  1       -1 0.15971803E-02 0.79076983E+02</pdfrwt>
<totfact> 0.20681742E+05</totfact>
</mgrwt>
</event>
<event>
 8    1  0.2389776E-020  0.7922383E+02  0.7818608E-02  0.1331269E+00
          2   -1    0    0  501    0  0.00000000000E+00  0.00000000000E+00  0.42472511499E+02  0.42472511576E+02  0.25500000000E-02 0. -1.
         -1   -1    0    0    0  501 -0.00000000000E+00 -0.00000000000E+00 -0.36943983824E+02  0.36943984167E+02  0.50400000000E-02 0.  1.
         24    2    1    2    0    0  0.76327832943E-16  0.17763568394E-14  0.55285276753E+01  0.79416495743E+02  0.79223829609E+02 0.  0.
         66    2    3    3    0    0  0.35859485037E-01  0.11157991664E+02  0.40839920886E+02  0.42383973301E+02  0.19999977347E+01 0.  0.
        -13    1    3    3    0    0 -0.35859485037E-01 -0.11157991664E+02 -0.35311393211E+02  0.37032522442E+02  0.10566000000E+00 0.  1.
         13    1    4    4    0    0  0.60175849957E+00  0.67301206678E+01  0.23074498123E+02  0.24043715711E+02  0.10566000000E+00 0. -1.
        -13    1    4    4    0    0  0.15944537790E-01  0.11004058370E+01  0.31128288336E+01  0.33033338641E+01  0.10566000000E+00 0. -1.
        -14    1    4    4    0    0 -0.58184355232E+00  0.33274651594E+01  0.14652593929E+02  0.15036923727E+02  0.00000000000E+00 0.  1.
<mgrwt>
<rscale>  0 0.79223830E+02</rscale>
<asrwt>0</asrwt>
<pdfrwt beam="1">  1        2 0.65342326E-02 0.79223830E+02</pdfrwt>
<pdfrwt beam="2">  1       -1 0.56836899E-02 0.79223830E+02</pdfrwt>
<totfact> 0.14826136E+05</totfact>
</mgrwt>
</event>
<event>
 8    1  0.2389776E-020  0.7868689E+02  0.7818608E-02  0.1332820E+00
         -1   -1    0    0    0  501 -0.00000000000E+00  0.00000000000E+00  0.92750076593E+01  0.92750090287E+01  0.50400000000E-02 0.  1.
          2   -1    0    0  501    0  0.00000000000E+00 -0.00000000000E+00 -0.16689006497E+03  0.16689006499E+03  0.25500000000E-02 0. -1.
         24    2    1    2    0    0  0.17763568394E-14  0.00000000000E+00 -0.15761505731E+03  0.17616507401E+03  0.78686892254E+02 0.  0.
         66    2    3    3    0    0 -0.12832288018E+02  0.34231855519E+02 -0.11125647399E+03  0.11712596021E+03  0.20000003750E+01 0.  0.
        -13    1    3    3    0    0  0.12832288018E+02 -0.34231855519E+02 -0.46358583316E+02  0.59039113807E+02  0.10566000000E+00 0.  1.
         13    1    4    4    0    0 -0.11107505822E+01  0.31584715348E+01 -0.87539296079E+01  0.93729481439E+01  0.10566000000E+00 0. -1.
        -13    1    4    4    0    0 -0.11611056075E+02  0.30454736521E+02 -0.10032593870E+03  0.10548750040E+03  0.10566000000E+00 0.  1.
        -14    1    4    4    0    0 -0.11048136052E+00  0.61864746318E+00 -0.21766056813E+01  0.22655116655E+01  0.00000000000E+00 0.  1.
<mgrwt>
<rscale>  0 0.78686892E+02</rscale>
<asrwt>0</asrwt>
<pdfrwt beam="1">  1        2 0.25675392E-01 0.78686892E+02</pdfrwt>
<pdfrwt beam="2">  1       -1 0.14269245E-02 0.78686892E+02</pdfrwt>
<totfact> 0.21669806E+05</totfact>
</mgrwt>
</event>
<event>
 8    1  0.2389776E-020  0.8191740E+02  0.7818608E-02  0.1323697E+00
          2   -1    0    0  501    0  0.00000000000E+00  0.00000000000E+00  0.32145334713E+02  0.32145334814E+02  0.25500000000E-02 0. -1.
         -1   -1    0    0    0  501 -0.00000000000E+00 -0.00000000000E+00 -0.52188443871E+02  0.52188444115E+02  0.50400000000E-02 0.  1.
         24    2    1    2    0    0  0.00000000000E+00 -0.11102230246E-15 -0.20043109159E+02  0.84333778929E+02  0.81917397686E+02 0.  0.
         66    2    3    3    0    0  0.10428474132E+02 -0.91014442050E+00  0.30712885339E+02  0.32509425801E+02  0.20000011058E+01 0.  0.
        -13    1    3    3    0    0 -0.10428474132E+02  0.91014442050E+00 -0.50755994498E+02  0.51824353128E+02  0.10566000000E+00 0.  1.
         13    1    4    4    0    0  0.36481966128E+01 -0.15913820956E+00  0.10576201428E+02  0.11189363886E+02  0.10566000000E+00 0. -1.
        -13    1    4    4    0    0  0.27262667619E+01  0.16245266911E+00  0.61701546666E+01  0.67483993637E+01  0.10566000000E+00 0.  1.
         14    1    4    4    0    0  0.40540107572E+01 -0.91345888006E+00  0.13966529245E+02  0.14571662550E+02  0.00000000000E+00 0. -1.
<mgrwt>
<rscale>  0 0.81917398E+02</rscale>
<asrwt>0</asrwt>
<pdfrwt beam="1">  1        2 0.49454361E-02 0.81917398E+02</pdfrwt>
<pdfrwt beam="2">  1       -1 0.80289914E-02 0.81917398E+02</pdfrwt>
<totfact> 0.12765619E+05</totfact>
</mgrwt>
</event>
<event>
 8    1  0.2389776E-020  0.7905923E+02  0.7818608E-02  0.1331743E+00
          2   -1    0    0  501    0  0.00000000000E+00  0.00000000000E+00  0.26076447661E+03  0.26076447663E+03  0.25500000000E-02 0. -1.
         -1   -1    0    0    0  501 -0.00000000000E+00 -0.00000000000E+00 -0.59923429655E+01  0.59923450850E+01  0.50400000000E-02 0.  1.
         24    2    1    2    0    0  0.35527136788E-14  0.35527136788E-14  0.25477213365E+03  0.26675682171E+03  0.79059229985E+02 0.  0.
         66    2    3    3    0    0 -0.17979354901E+02 -0.20187571908E+02  0.22466307668E+03  0.22629249498E+03  0.19999998920E+01 0.  0.
        -13    1    3    3    0    0  0.17979354901E+02  0.20187571908E+02  0.30109056971E+02  0.40464326733E+02  0.10566000000E+00 0.  1.
         13    1    4    4    0    0 -0.94398846389E+01 -0.95714008198E+01  0.11250337402E+03  0.11330376634E+03  0.10566000000E+00 0. -1.
        -13    1    4    4    0    0 -0.64012334991E+00 -0.46339595322E+00  0.62314607481E+01  0.62822576200E+01  0.10566000000E+00 0.  1.
        -14    1    4    4    0    0 -0.78993469120E+01 -0.10152775135E+02  0.10592824190E+03  0.10670647102E+03  0.00000000000E+00 0.  1.
<mgrwt>
<rscale>  0 0.79059230E+02</rscale>
<asrwt>0</asrwt>
<pdfrwt beam="1">  1        2 0.40117612E-01 0.79059230E+02</pdfrwt>
<pdfrwt beam="2">  1       -1 0.92189909E-03 0.79059230E+02</pdfrwt>
<totfact> 0.24997379E+05</totfact>
</mgrwt>
</event>
<event>
 8    1  0.2389776E-020  0.8070473E+02  0.7818608E-02  0.1327063E+00
         -1   -1    0    0    0  501 -0.00000000000E+00  0.00000000000E+00  0.37864489962E+01  0.37864523505E+01  0.50400000000E-02 0.  1.
          2   -1    0    0  501    0  0.00000000000E+00 -0.00000000000E+00 -0.43003681539E+03  0.43003681540E+03  0.25500000000E-02 0. -1.
         24    2    1    2    0    0  0.00000000000E+00  0.00000000000E+00 -0.42625036639E+03  0.43382326775E+03  0.80704725938E+02 0.  0.
         66    2    3    3    0    0 -0.24619843933E+02  0.83909941329E+01 -0.37891714610E+03  0.37981409811E+03  0.20000036503E+01 0.  0.
        -13    1    3    3    0    0  0.24619843933E+02 -0.83909941329E+01 -0.47333220291E+02  0.54009169638E+02  0.10566000000E+00 0.  1.
         13    1    4    4    0    0 -0.14492849073E+02  0.43177083355E+01 -0.20952214983E+03  0.21006719809E+03  0.10566000000E+00 0. -1.
        -13    1    4    4    0    0 -0.57011626876E+01  0.24671232213E+01 -0.94298899851E+02  0.94503352481E+02  0.10566000000E+00 0.  1.
        -14    1    4    4    0    0 -0.44258321731E+01  0.16061625761E+01 -0.75096096423E+02  0.75243547542E+02  0.00000000000E+00 0.  1.
<mgrwt>
<rscale>  0 0.80704726E+02</rscale>
<asrwt>0</asrwt>
<pdfrwt beam="1">  1        2 0.66159472E-01 0.80704726E+02</pdfrwt>
<pdfrwt beam="2">  1       -1 0.58253121E-03 0.80704726E+02</pdfrwt>
<totfact> 0.28313896E+05</totfact>
</mgrwt>
</event>
<event>
 8    1  0.2389776E-020  0.8020737E+02  0.7818608E-02  0.1328464E+00
          2   -1    0    0  501    0  0.00000000000E+00  0.00000000000E+00  0.36345591439E+03  0.36345591440E+03  0.25500000000E-02 0. -1.
         -1   -1    0    0    0  501 -0.00000000000E+00 -0.00000000000E+00 -0.44250343118E+01  0.44250371820E+01  0.50400000000E-02 0.  1.
         24    2    1    2    0    0  0.00000000000E+00  0.00000000000E+00  0.35903088008E+03  0.36788095158E+03  0.80207366784E+02 0.  0.
         66    2    3    3    0    0  0.35083958263E+02  0.45643435762E+00  0.26847094698E+03  0.27076141129E+03  0.20000028021E+01 0.  0.
        -13    1    3    3    0    0 -0.35083958263E+02 -0.45643435762E+00  0.90559933101E+02  0.97119540295E+02  0.10566000000E+00 0.  1.
         13    1    4    4    0    0  0.30401254838E+02  0.46633152963E+00  0.23447392841E+03  0.23643706992E+03  0.10566000000E+00 0. -1.
        -13    1    4    4    0    0  0.33127946437E+01 -0.16059533894E+00  0.25754567549E+02  0.25967466432E+02  0.10566000000E+00 0.  1.
         14    1    4    4    0    0  0.13699087818E+01  0.15069816693E+00  0.82424510142E+01  0.83568749380E+01  0.00000000000E+00 0. -1.
<mgrwt>
<rscale>  0 0.80207367E+02</rscale>
<asrwt>0</asrwt>
<pdfrwt beam="1">  1        2 0.55916302E-01 0.80207367E+02</pdfrwt>
<pdfrwt beam="2">  1       -1 0.68077464E-03 0.80207367E+02</pdfrwt>
<totfact> 0.27129644E+05</totfact>
</mgrwt>
</event>
<event>
 8    1  0.2389776E-020  0.8041250E+02  0.7818608E-02  0.1327885E+00
         -1   -1    0    0    0  501 -0.00000000000E+00  0.00000000000E+00  0.27343457749E+02  0.27343458214E+02  0.50400000000E-02 0.  1.
          2   -1    0    0  501    0  0.00000000000E+00 -0.00000000000E+00 -0.59119901126E+02  0.59119901181E+02  0.25500000000E-02 0. -1.
         24    2    1    2    0    0  0.44408920985E-15  0.00000000000E+00 -0.31776443377E+02  0.86463359395E+02  0.80412500049E+02 0.  0.
         66    2    3    3    0    0  0.27645005036E+01 -0.39457928622E+02 -0.82973838846E+01  0.40465011677E+02  0.19999991285E+01 0.  0.
        -13    1    3    3    0    0 -0.27645005036E+01  0.39457928622E+02 -0.23479059492E+02  0.45998347718E+02  0.10566000000E+00 0.  1.
         13    1    4    4    0    0  0.24191071785E+01 -0.26248144295E+02 -0.53128947671E+01  0.26889685259E+02  0.10566000000E+00 0. -1.
        -13    1    4    4    0    0 -0.54947411720E-01 -0.77221202622E+01 -0.13942279081E+01  0.78478784431E+01  0.10566000000E+00 0.  1.
        -14    1    4    4    0    0  0.40034073680E+00 -0.54876640643E+01 -0.15902612094E+01  0.57274479746E+01  0.00000000000E+00 0.  1.
<mgrwt>
<rscale>  0 0.80412500E+02</rscale>
<asrwt>0</asrwt>
<pdfrwt beam="1">  1        2 0.90953694E-02 0.80412500E+02</pdfrwt>
<pdfrwt beam="2">  1       -1 0.42066859E-02 0.80412500E+02</pdfrwt>
<totfact> 0.15297556E+05</totfact>
</mgrwt>
</event>
<event>
 8    1  0.2389776E-020  0.8550637E+02  0.7818608E-02  0.1314114E+00
         -1   -1    0    0    0  501 -0.00000000000E+00  0.00000000000E+00  0.35920132114E+01  0.35920167472E+01  0.50400000000E-02 0.  1.
          2   -1    0    0  501    0  0.00000000000E+00 -0.00000000000E+00 -0.50886059674E+03  0.50886059674E+03  0.25500000000E-02 0. -1.
         24    2    1    2    0    0  0.00000000000E+00  0.35527136788E-14 -0.50526858353E+03  0.51245261349E+03  0.85506371549E+02 0.  0.
         66    2    3    3    0    0 -0.66351633271E+01  0.25287087017E+02 -0.45533422123E+03  0.45608849490E+03  0.19999996927E+01 0.  0.
        -13    1    3    3    0    0  0.66351633271E+01 -0.25287087017E+02 -0.49934362301E+02  0.56364118592E+02  0.10566000000E+00 0.  1.
         13    1    4    4    0    0 -0.34487723866E+01  0.12473936980E+02 -0.23794400771E+03  0.23829573035E+03  0.10566000000E+00 0. -1.
        -13    1    4    4    0    0 -0.14423971429E+01  0.73620108553E+01 -0.11918040123E+03  0.11941632599E+03  0.10566000000E+00 0.  1.
         14    1    4    4    0    0 -0.17439937976E+01  0.54511391817E+01 -0.98209812293E+02  0.98376438558E+02  0.00000000000E+00 0. -1.
<mgrwt>
<rscale>  0 0.85506372E+02</rscale>
<asrwt>0</asrwt>
<pdfrwt beam="1">  1        2 0.78286189E-01 0.85506372E+02</pdfrwt>
<pdfrwt beam="2">  1       -1 0.55261809E-03 0.85506372E+02</pdfrwt>
<totfact> 0.25730589E+05</totfact>
</mgrwt>
</event>
<event>
 8    1  0.2389776E-020  0.7855846E+02  0.7818608E-02  0.1333193E+00
         -1   -1    0    0    0  501 -0.00000000000E+00  0.00000000000E+00  0.23241928998E+01  0.23241983644E+01  0.50400000000E-02 0.  1.
          2   -1    0    0  501    0  0.00000000000E+00 -0.00000000000E+00 -0.66382437225E+03  0.66382437225E+03  0.25500000000E-02 0. -1.
         24    2    1    2    0    0 -0.17763568394E-14  0.00000000000E+00 -0.66150017935E+03  0.66614857062E+03  0.78558455037E+02 0.  0.
         66    2    3    3    0    0  0.11700677713E+02  0.30086108137E+02 -0.52034191657E+03  0.52134613253E+03  0.20000003020E+01 0.  0.
        -13    1    3    3    0    0 -0.11700677713E+02 -0.30086108137E+02 -0.14115826278E+03  0.14480243809E+03  0.10566000000E+00 0.  1.
         13    1    4    4    0    0  0.31883143089E+01  0.78549529611E+01 -0.13115140951E+03  0.13142514605E+03  0.10566000000E+00 0. -1.
        -13    1    4    4    0    0  0.26310350600E+01  0.86019778615E+01 -0.13992696257E+03  0.14021584213E+03  0.10566000000E+00 0.  1.
        -14    1    4    4    0    0  0.58813283439E+01  0.13629177315E+02 -0.24926354449E+03  0.24970514434E+03  0.00000000000E+00 0.  1.
<mgrwt>
<rscale>  0 0.78558455E+02</rscale>
<asrwt>0</asrwt>
<pdfrwt beam="1">  1        2 0.10212668E+00 0.78558455E+02</pdfrwt>
<pdfrwt beam="2">  1       -1 0.35756909E-03 0.78558455E+02</pdfrwt>
<totfact> 0.34629199E+05</totfact>
</mgrwt>
</event>
<event>
 8    1  0.2389776E-020  0.8068826E+02  0.7818608E-02  0.1327110E+00
          2   -1    0    0  501    0  0.00000000000E+00  0.00000000000E+00  0.19940524682E+02  0.19940524845E+02  0.25500000000E-02 0. -1.
         -1   -1    0    0    0  501 -0.00000000000E+00 -0.00000000000E+00 -0.81625175661E+02  0.81625175817E+02  0.50400000000E-02 0.  1.
         24    2    1    2    0    0  0.00000000000E+00  0.35527136788E-14 -0.61684650979E+02  0.10156570066E+03  0.80688260512E+02 0.  0.
         66    2    3    3    0    0  0.18362437754E+02  0.18243781463E+02  0.80505872557E+01  0.27181365630E+02  0.19999999941E+01 0.  0.
        -13    1    3    3    0    0 -0.18362437754E+02 -0.18243781463E+02 -0.69735238235E+02  0.74384335032E+02  0.10566000000E+00 0.  1.
         13    1    4    4    0    0  0.11380524147E+02  0.11241606314E+02  0.46544199083E+01  0.16660277042E+02  0.10566000000E+00 0. -1.
        -13    1    4    4    0    0  0.27000928059E+01  0.34029093286E+01  0.18075936160E+01  0.47062566627E+01  0.10566000000E+00 0.  1.
        -14    1    4    4    0    0  0.42818208009E+01  0.35992658208E+01  0.15885737314E+01  0.58148319253E+01  0.00000000000E+00 0.  1.
<mgrwt>
<rscale>  0 0.80688261E+02</rscale>
<asrwt>0</asrwt>
<pdfrwt beam="1">  1        2 0.30677731E-02 0.80688261E+02</pdfrwt>
<pdfrwt beam="2">  1       -1 0.12557719E-01 0.80688261E+02</pdfrwt>
<totfact> 0.12106347E+05</totfact>
</mgrwt>
</event>
<event>
 8    1  0.2389776E-020  0.7997986E+02  0.7818608E-02  0.1329109E+00
         -1   -1    0    0    0  501 -0.00000000000E+00  0.00000000000E+00  0.80949804815E+02  0.80949804972E+02  0.50400000000E-02 0.  1.
          2   -1    0    0  501    0  0.00000000000E+00 -0.00000000000E+00 -0.19755383138E+02  0.19755383303E+02  0.25500000000E-02 0. -1.
         24    2    1    2    0    0  0.00000000000E+00  0.00000000000E+00  0.61194421677E+02  0.10070518828E+03  0.79979858097E+02 0.  0.
         66    2    3    3    0    0 -0.28937194640E+02 -0.86309237754E+01 -0.23464109584E+01  0.30353907868E+02  0.19999999023E+01 0.  0.
        -13    1    3    3    0    0  0.28937194640E+02  0.86309237754E+01  0.63540832635E+02  0.70351280407E+02  0.10566000000E+00 0.  1.
         13    1    4    4    0    0 -0.16282674748E+02 -0.52026489920E+01 -0.67555462732E+00  0.17107325670E+02  0.10566000000E+00 0. -1.
        -13    1    4    4    0    0 -0.11565474397E+02 -0.29348373324E+01 -0.13497726534E+01  0.12008601852E+02  0.10566000000E+00 0.  1.
         14    1    4    4    0    0 -0.10890454952E+01 -0.49343745096E+00 -0.32108367766E+00  0.12379803458E+01  0.00000000000E+00 0. -1.
<mgrwt>
<rscale>  0 0.79979858E+02</rscale>
<asrwt>0</asrwt>
<pdfrwt beam="1">  1        2 0.30392897E-02 0.79979858E+02</pdfrwt>
<pdfrwt beam="2">  1       -1 0.12453816E-01 0.79979858E+02</pdfrwt>
<totfact> 0.12393785E+05</totfact>
</mgrwt>
</event>
<event>
 8    1  0.2389776E-020  0.7154618E+02  0.7818608E-02  0.1354913E+00
          2   -1    0    0  501    0  0.00000000000E+00  0.00000000000E+00  0.37998028375E+01  0.37998036932E+01  0.25500000000E-02 0. -1.
         -1   -1    0    0    0  501 -0.00000000000E+00 -0.00000000000E+00 -0.33678425690E+03  0.33678425693E+03  0.50400000000E-02 0.  1.
         24    2    1    2    0    0  0.00000000000E+00  0.00000000000E+00 -0.33298445406E+03  0.34058406063E+03  0.71546178853E+02 0.  0.
         66    2    3    3    0    0  0.84006052440E+01 -0.33742085795E+02 -0.12719135645E+03  0.13187395376E+03  0.20000004079E+01 0.  0.
        -13    1    3    3    0    0 -0.84006052440E+01  0.33742085795E+02 -0.20579309761E+03  0.20871010687E+03  0.10566000000E+00 0.  1.
         13    1    4    4    0    0  0.35329016714E+01 -0.14026503027E+02 -0.50959703162E+02  0.52972886383E+02  0.10566000000E+00 0. -1.
        -13    1    4    4    0    0  0.30940442998E+01 -0.98935534708E+01 -0.38248237339E+02  0.39628201246E+02  0.10566000000E+00 0.  1.
        -14    1    4    4    0    0  0.17736592727E+01 -0.98220292978E+01 -0.37983415947E+02  0.39272866126E+02  0.00000000000E+00 0.  1.
<mgrwt>
<rscale>  0 0.71546179E+02</rscale>
<asrwt>0</asrwt>
<pdfrwt beam="1">  1        2 0.58458538E-03 0.71546179E+02</pdfrwt>
<pdfrwt beam="2">  1       -1 0.51812939E-01 0.71546179E+02</pdfrwt>
<totfact> 0.10950085E+05</totfact>
</mgrwt>
</event>
<event>
 8    1  0.2389776E-020  0.8226614E+02  0.7818608E-02  0.1322741E+00
          2   -1    0    0  501    0  0.00000000000E+00  0.00000000000E+00  0.22898158720E+03  0.22898158722E+03  0.25500000000E-02 0. -1.
         -1   -1    0    0    0  501 -0.00000000000E+00 -0.00000000000E+00 -0.73889312995E+01  0.73889330184E+01  0.50400000000E-02 0.  1.
         24    2    1    2    0    0  0.00000000000E+00  0.71054273576E-14  0.22159265590E+03  0.23637052023E+03  0.82266139365E+02 0.  0.
         66    2    3    3    0    0  0.81233866475E+01  0.34368017644E+02  0.17132097507E+03  0.17493434925E+03  0.20000003709E+01 0.  0.
        -13    1    3    3    0    0 -0.81233866475E+01 -0.34368017644E+02  0.50271680833E+02  0.61436170985E+02  0.10566000000E+00 0.  1.
         13    1    4    4    0    0  0.53447928489E+01  0.24317696606E+02  0.11710105315E+03  0.11971877460E+03  0.10566000000E+00 0. -1.
        -13    1    4    4    0    0  0.20869073793E+01  0.79126562778E+01  0.43389000217E+02  0.44154069073E+02  0.10566000000E+00 0.  1.
         14    1    4    4    0    0  0.69168641930E+00  0.21376647601E+01  0.10830921699E+02  0.11061505575E+02  0.00000000000E+00 0. -1.
<mgrwt>
<rscale>  0 0.82266139E+02</rscale>
<asrwt>0</asrwt>
<pdfrwt beam="1">  1        2 0.35227935E-01 0.82266139E+02</pdfrwt>
<pdfrwt beam="2">  1       -1 0.11367588E-02 0.82266139E+02</pdfrwt>
<totfact> 0.21490141E+05</totfact>
</mgrwt>
</event>
<event>
 8    1  0.2389776E-020  0.7862767E+02  0.7818608E-02  0.1332992E+00
         -1   -1    0    0    0  501 -0.00000000000E+00  0.00000000000E+00  0.18934845749E+02  0.18934846419E+02  0.50400000000E-02 0.  1.
          2   -1    0    0  501    0  0.00000000000E+00 -0.00000000000E+00 -0.81626089604E+02  0.81626089644E+02  0.25500000000E-02 0. -1.
         24    2    1    2    0    0  0.17763568394E-14  0.00000000000E+00 -0.62691243856E+02  0.10056093606E+03  0.78627665651E+02 0.  0.
         66    2    3    3    0    0 -0.10716815029E+02 -0.35044572103E+02 -0.49480071796E+02  0.61605597668E+02  0.20000002250E+01 0.  0.
        -13    1    3    3    0    0  0.10716815029E+02  0.35044572103E+02 -0.13211172060E+02  0.38955338395E+02  0.10566000000E+00 0.  1.
         13    1    4    4    0    0 -0.23953185898E+01 -0.69636082421E+01 -0.99928881223E+01  0.12413636371E+02  0.10566000000E+00 0. -1.
        -13    1    4    4    0    0 -0.55821136584E+01 -0.15939005767E+02 -0.22592476554E+02  0.28207145524E+02  0.10566000000E+00 0.  1.
        -14    1    4    4    0    0 -0.27393827806E+01 -0.12141958095E+02 -0.16894707119E+02  0.20984815773E+02  0.00000000000E+00 0.  1.
<mgrwt>
<rscale>  0 0.78627666E+02</rscale>
<asrwt>0</asrwt>
<pdfrwt beam="1">  1        2 0.12557860E-01 0.78627666E+02</pdfrwt>
<pdfrwt beam="2">  1       -1 0.29130533E-02 0.78627666E+02</pdfrwt>
<totfact> 0.17582533E+05</totfact>
</mgrwt>
</event>
<event>
 8    1  0.2389776E-020  0.8033492E+02  0.7818608E-02  0.1328104E+00
         -1   -1    0    0    0  501 -0.00000000000E+00  0.00000000000E+00  0.72090967733E+01  0.72090985351E+01  0.50400000000E-02 0.  1.
          2   -1    0    0  501    0  0.00000000000E+00 -0.00000000000E+00 -0.22380400720E+03  0.22380400722E+03  0.25500000000E-02 0. -1.
         24    2    1    2    0    0  0.00000000000E+00  0.35527136788E-14 -0.21659491043E+03  0.23101310575E+03  0.80334922701E+02 0.  0.
         66    2    3    3    0    0 -0.10718531157E+02 -0.28978681973E+02 -0.18205948563E+03  0.18467351524E+03  0.20000006602E+01 0.  0.
        -13    1    3    3    0    0  0.10718531157E+02  0.28978681973E+02 -0.34535424797E+02  0.46339590514E+02  0.10566000000E+00 0.  1.
         13    1    4    4    0    0 -0.75692981016E+01 -0.19760768205E+02 -0.12462602170E+03  0.12640980453E+03  0.10566000000E+00 0. -1.
        -13    1    4    4    0    0 -0.18287692289E+01 -0.39616279953E+01 -0.23944339528E+02  0.24338887664E+02  0.10566000000E+00 0.  1.
        -14    1    4    4    0    0 -0.13204638265E+01 -0.52562857731E+01 -0.33489124405E+02  0.33924823039E+02  0.00000000000E+00 0.  1.
<mgrwt>
<rscale>  0 0.80334923E+02</rscale>
<asrwt>0</asrwt>
<pdfrwt beam="1">  1        2 0.34431380E-01 0.80334923E+02</pdfrwt>
<pdfrwt beam="2">  1       -1 0.11090921E-02 0.80334923E+02</pdfrwt>
<totfact> 0.22694641E+05</totfact>
</mgrwt>
</event>
<event>
 8    1  0.2389776E-020  0.8009156E+02  0.7818608E-02  0.1328792E+00
          2   -1    0    0  501    0  0.00000000000E+00  0.00000000000E+00  0.22022189822E+03  0.22022189824E+03  0.25500000000E-02 0. -1.
         -1   -1    0    0    0  501 -0.00000000000E+00 -0.00000000000E+00 -0.72820380235E+01  0.72820397676E+01  0.50400000000E-02 0.  1.
         24    2    1    2    0    0  0.00000000000E+00  0.00000000000E+00  0.21293986020E+03  0.22750393800E+03  0.80091558520E+02 0.  0.
         66    2    3    3    0    0 -0.13798715415E+01 -0.34511235006E+02  0.16396371129E+03  0.16757394791E+03  0.20000024774E+01 0.  0.
        -13    1    3    3    0    0  0.13798715415E+01  0.34511235006E+02  0.48976148907E+02  0.59929990096E+02  0.10566000000E+00 0.  1.
         13    1    4    4    0    0 -0.38882277727E+00 -0.15072158621E+02  0.71316148321E+02  0.72892560141E+02  0.10566000000E+00 0. -1.
        -13    1    4    4    0    0 -0.10951591726E+00 -0.22533074878E+01  0.87127434185E+01  0.90006916559E+01  0.10566000000E+00 0.  1.
        -14    1    4    4    0    0 -0.88153284699E+00 -0.17185768897E+02  0.83934819553E+02  0.85680696111E+02  0.00000000000E+00 0.  1.
<mgrwt>
<rscale>  0 0.80091559E+02</rscale>
<asrwt>0</asrwt>
<pdfrwt beam="1">  1        2 0.33880292E-01 0.80091559E+02</pdfrwt>
<pdfrwt beam="2">  1       -1 0.11203137E-02 0.80091559E+02</pdfrwt>
<totfact> 0.22746687E+05</totfact>
</mgrwt>
</event>
<event>
 8    1  0.2389776E-020  0.8041599E+02  0.7818608E-02  0.1327875E+00
          2   -1    0    0  501    0  0.00000000000E+00  0.00000000000E+00  0.14544385754E+02  0.14544385978E+02  0.25500000000E-02 0. -1.
         -1   -1    0    0    0  501 -0.00000000000E+00 -0.00000000000E+00 -0.11115511426E+03  0.11115511438E+03  0.50400000000E-02 0.  1.
         24    2    1    2    0    0  0.00000000000E+00  0.00000000000E+00 -0.96610728508E+02  0.12569950035E+03  0.80415990490E+02 0.  0.
         66    2    3    3    0    0  0.26354061109E+02 -0.26717692284E+02 -0.70786764282E+02  0.80144479662E+02  0.20000012071E+01 0.  0.
        -13    1    3    3    0    0 -0.26354061109E+02  0.26717692284E+02 -0.25823964226E+02  0.45555020692E+02  0.10566000000E+00 0.  1.
         13    1    4    4    0    0  0.41944036376E+01 -0.38463962215E+01 -0.10227430252E+02  0.11704669127E+02  0.10566000000E+00 0. -1.
        -13    1    4    4    0    0  0.17755948034E+02 -0.19138704103E+02 -0.50006345352E+02  0.56411075374E+02  0.10566000000E+00 0.  1.
        -14    1    4    4    0    0  0.44037094380E+01 -0.37325919591E+01 -0.10552988678E+02  0.12028735162E+02  0.00000000000E+00 0.  1.
<mgrwt>
<rscale>  0 0.80415990E+02</rscale>
<asrwt>0</asrwt>
<pdfrwt beam="1">  1        2 0.22375979E-02 0.80415990E+02</pdfrwt>
<pdfrwt beam="2">  1       -1 0.17100786E-01 0.80415990E+02</pdfrwt>
<totfact> 0.11433347E+05</totfact>
</mgrwt>
</event>
<event>
 8    1  0.2389776E-020  0.7946633E+02  0.7818608E-02  0.1330573E+00
         -1   -1    0    0    0  501 -0.00000000000E+00  0.00000000000E+00  0.21593793792E+02  0.21593794380E+02  0.50400000000E-02 0.  1.
          2   -1    0    0  501    0  0.00000000000E+00 -0.00000000000E+00 -0.73110089887E+02  0.73110089932E+02  0.25500000000E-02 0. -1.
         24    2    1    2    0    0  0.00000000000E+00  0.35527136788E-14 -0.51516296095E+02  0.94703884312E+02  0.79466325827E+02 0.  0.
         66    2    3    3    0    0  0.20464086296E+02 -0.30859652406E+02 -0.42863541335E+02  0.56677862912E+02  0.19999984586E+01 0.  0.
        -13    1    3    3    0    0 -0.20464086296E+02  0.30859652406E+02 -0.86527547599E+01  0.38026021400E+02  0.10566000000E+00 0.  1.
         13    1    4    4    0    0  0.10639409477E+02 -0.16417456658E+02 -0.21859675647E+02  0.29335754644E+02  0.10566000000E+00 0. -1.
        -13    1    4    4    0    0  0.70240459554E+01 -0.10164791430E+02 -0.15640318067E+02  0.19932157928E+02  0.10566000000E+00 0.  1.
        -14    1    4    4    0    0  0.28006308642E+01 -0.42774043186E+01 -0.53635476210E+01  0.74099503389E+01  0.00000000000E+00 0.  1.
<mgrwt>
<rscale>  0 0.79466326E+02</rscale>
<asrwt>0</asrwt>
<pdfrwt beam="1">  1        2 0.11247706E-01 0.79466326E+02</pdfrwt>
<pdfrwt beam="2">  1       -1 0.33221222E-02 0.79466326E+02</pdfrwt>
<totfact> 0.16618095E+05</totfact>
</mgrwt>
</event>
<event>
 8    1  0.2389776E-020  0.7759281E+02  0.7818608E-02  0.1336025E+00
         -1   -1    0    0    0  501 -0.00000000000E+00  0.00000000000E+00  0.15045203096E+02  0.15045203940E+02  0.50400000000E-02 0.  1.
          2   -1    0    0  501    0  0.00000000000E+00 -0.00000000000E+00 -0.10004258990E+03  0.10004258993E+03  0.25500000000E-02 0. -1.
         24    2    1    2    0    0 -0.35527136788E-14  0.35527136788E-14 -0.84997386799E+02  0.11508779387E+03  0.77592812392E+02 0.  0.
         66    2    3    3    0    0  0.17272592258E+02 -0.15207046048E+02 -0.88806389070E+02  0.91761492080E+02  0.19999990616E+01 0.  0.
        -13    1    3    3    0    0 -0.17272592258E+02  0.15207046048E+02  0.38090022706E+01  0.23326301789E+02  0.10566000000E+00 0.  1.
         13    1    4    4    0    0  0.14896835220E+01 -0.19846418179E+01 -0.84389758616E+01  0.87968993270E+01  0.10566000000E+00 0. -1.
        -13    1    4    4    0    0  0.35787740033E+01 -0.27750322292E+01 -0.17309988871E+02  0.17892884228E+02  0.10566000000E+00 0. -1.
         14    1    4    4    0    0  0.12204134732E+02 -0.10447372001E+02 -0.63057424337E+02  0.65071708525E+02  0.00000000000E+00 0. -1.
<mgrwt>
<rscale>  0 0.77592812E+02</rscale>
<asrwt>0</asrwt>
<pdfrwt beam="1">  1        2 0.15391167E-01 0.77592812E+02</pdfrwt>
<pdfrwt beam="2">  1       -1 0.23146468E-02 0.77592812E+02</pdfrwt>
<totfact> 0.19237074E+05</totfact>
</mgrwt>
</event>
<event>
 8    1  0.2389776E-020  0.7941511E+02  0.7818608E-02  0.1330720E+00
          2   -1    0    0  501    0  0.00000000000E+00  0.00000000000E+00  0.59160383154E+03  0.59160383155E+03  0.25500000000E-02 0. -1.
         -1   -1    0    0    0  501 -0.00000000000E+00 -0.00000000000E+00 -0.26651085660E+01  0.26651133316E+01  0.50400000000E-02 0.  1.
         24    2    1    2    0    0  0.00000000000E+00  0.00000000000E+00  0.58893872298E+03  0.59426894488E+03  0.79415108306E+02 0.  0.
         66    2    3    3    0    0  0.38487288534E+02  0.44768243977E+01  0.35875350386E+03  0.36084538223E+03  0.20000027210E+01 0.  0.
        -13    1    3    3    0    0 -0.38487288534E+02 -0.44768243977E+01  0.23018521912E+03  0.23342356265E+03  0.10566000000E+00 0.  1.
         13    1    4    4    0    0  0.74263479936E+01  0.53433411513E+00  0.67406765288E+02  0.67816807121E+02  0.10566000000E+00 0. -1.
        -13    1    4    4    0    0  0.25962648952E+01 -0.92628489022E-01  0.24707624688E+02  0.24844054685E+02  0.10566000000E+00 0.  1.
         14    1    4    4    0    0  0.28464675646E+02  0.40351187716E+01  0.26663911388E+03  0.26818452042E+03  0.00000000000E+00 0. -1.
<mgrwt>
<rscale>  0 0.79415108E+02</rscale>
<asrwt>0</asrwt>
<pdfrwt beam="1">  1        2 0.91016128E-01 0.79415108E+02</pdfrwt>
<pdfrwt beam="2">  1       -1 0.41001638E-03 0.79415108E+02</pdfrwt>
<totfact> 0.32654222E+05</totfact>
</mgrwt>
</event>
<event>
 8    1  0.2389776E-020  0.8073982E+02  0.7818608E-02  0.1326965E+00
          2   -1    0    0  501    0  0.00000000000E+00  0.00000000000E+00  0.11565023677E+03  0.11565023680E+03  0.25500000000E-02 0. -1.
         -1   -1    0    0    0  501 -0.00000000000E+00 -0.00000000000E+00 -0.14091882559E+02  0.14091883461E+02  0.50400000000E-02 0.  1.
         24    2    1    2    0    0 -0.35527136788E-14  0.35527136788E-14  0.10155835421E+03  0.12974212026E+03  0.80739819541E+02 0.  0.
         66    2    3    3    0    0  0.16952554204E+02  0.26383937590E+02  0.91596280557E+02  0.96836872468E+02  0.20000001856E+01 0.  0.
        -13    1    3    3    0    0 -0.16952554204E+02 -0.26383937590E+02  0.99620736569E+01  0.32905247794E+02  0.10566000000E+00 0.  1.
         13    1    4    4    0    0  0.15893956517E+01  0.20749448484E+01  0.79819280151E+01  0.83996377026E+01  0.10566000000E+00 0.  1.
        -13    1    4    4    0    0  0.65768732420E+01  0.10420919488E+02  0.38395482292E+02  0.40324620880E+02  0.10566000000E+00 0.  1.
         14    1    4    4    0    0  0.87862853099E+01  0.13888073254E+02  0.45218870249E+02  0.48112613886E+02  0.00000000000E+00 0. -1.
<mgrwt>
<rscale>  0 0.80739820E+02</rscale>
<asrwt>0</asrwt>
<pdfrwt beam="1">  1        2 0.17792345E-01 0.80739820E+02</pdfrwt>
<pdfrwt beam="2">  1       -1 0.21679820E-02 0.80739820E+02</pdfrwt>
<totfact> 0.18033827E+05</totfact>
</mgrwt>
</event>
<event>
 8    1  0.2389776E-020  0.8002154E+02  0.7818608E-02  0.1328990E+00
         -1   -1    0    0    0  501 -0.00000000000E+00  0.00000000000E+00  0.11192303489E+02  0.11192304624E+02  0.50400000000E-02 0.  1.
          2   -1    0    0  501    0  0.00000000000E+00 -0.00000000000E+00 -0.14303234788E+03  0.14303234790E+03  0.25500000000E-02 0. -1.
         24    2    1    2    0    0  0.00000000000E+00 -0.35527136788E-14 -0.13184004439E+03  0.15422465253E+03  0.80021535488E+02 0.  0.
         66    2    3    3    0    0 -0.95220275749E+01 -0.17100799975E+02 -0.13316105768E+03  0.13460673701E+03  0.19999992886E+01 0.  0.
        -13    1    3    3    0    0  0.95220275749E+01  0.17100799975E+02  0.13210132917E+01  0.19617915513E+02  0.10566000000E+00 0.  1.
         13    1    4    4    0    0 -0.22060332142E+01 -0.38848525623E+01 -0.27411263225E+02  0.27773137698E+02  0.10566000000E+00 0. -1.
        -13    1    4    4    0    0 -0.11806930243E+01 -0.14460503998E+01 -0.10817793250E+02  0.10978201703E+02  0.10566000000E+00 0.  1.
         14    1    4    4    0    0 -0.61353013364E+01 -0.11769897013E+02 -0.94932001208E+02  0.95855397613E+02  0.00000000000E+00 0. -1.
<mgrwt>
<rscale>  0 0.80021535E+02</rscale>
<asrwt>0</asrwt>
<pdfrwt beam="1">  1        2 0.22004975E-01 0.80021535E+02</pdfrwt>
<pdfrwt beam="2">  1       -1 0.17218930E-02 0.80021535E+02</pdfrwt>
<totfact> 0.19713413E+05</totfact>
</mgrwt>
</event>
<event>
 8    1  0.2389776E-020  0.8356982E+02  0.7818608E-02  0.1319216E+00
         -1   -1    0    0    0  501 -0.00000000000E+00  0.00000000000E+00  0.38485148319E+02  0.38485148649E+02  0.50400000000E-02 0.  1.
          2   -1    0    0  501    0  0.00000000000E+00 -0.00000000000E+00 -0.45367597851E+02  0.45367597922E+02  0.25500000000E-02 0. -1.
         24    2    1    2    0    0  0.00000000000E+00  0.17763568394E-14 -0.68824495317E+01  0.83852746571E+02  0.83569821084E+02 0.  0.
         66    2    3    3    0    0 -0.72482584196E+01 -0.15403384812E+02 -0.41705901685E+02  0.45090838753E+02  0.19999975685E+01 0.  0.
        -13    1    3    3    0    0  0.72482584196E+01  0.15403384812E+02  0.34823452154E+02  0.38761907818E+02  0.10566000000E+00 0.  1.
         13    1    4    4    0    0 -0.24348861640E+01 -0.61085563575E+01 -0.17187552886E+02  0.18402887536E+02  0.10566000000E+00 0. -1.
        -13    1    4    4    0    0 -0.47582220585E+01 -0.85168198722E+01 -0.22506106194E+02  0.24529836484E+02  0.10566000000E+00 0.  1.
        -14    1    4    4    0    0 -0.55150197147E-01 -0.77800858175E+00 -0.20122426056E+01  0.21581147331E+01  0.00000000000E+00 0.  1.
<mgrwt>
<rscale>  0 0.83569821E+02</rscale>
<asrwt>0</asrwt>
<pdfrwt beam="1">  1        2 0.69796305E-02 0.83569821E+02</pdfrwt>
<pdfrwt beam="2">  1       -1 0.59207921E-02 0.83569821E+02</pdfrwt>
<totfact> 0.12973942E+05</totfact>
</mgrwt>
</event>
<event>
 8    1  0.2389776E-020  0.8503679E+02  0.7818608E-02  0.1315336E+00
          2   -1    0    0  501    0  0.00000000000E+00  0.00000000000E+00  0.93043952691E+02  0.93043952726E+02  0.25500000000E-02 0. -1.
         -1   -1    0    0    0  501 -0.00000000000E+00 -0.00000000000E+00 -0.19429677533E+02  0.19429678187E+02  0.50400000000E-02 0.  1.
         24    2    1    2    0    0  0.35527136788E-14 -0.14210854715E-13  0.73614275158E+02  0.11247363091E+03  0.85036792882E+02 0.  0.
         66    2    3    3    0    0  0.14765021738E+02 -0.38449679357E+02  0.50663190776E+02  0.65323369536E+02  0.19999995674E+01 0.  0.
        -13    1    3    3    0    0 -0.14765021738E+02  0.38449679357E+02  0.22951084382E+02  0.47150261377E+02  0.10566000000E+00 0.  1.
         13    1    4    4    0    0  0.10668152980E+01 -0.16630805460E+01  0.23639398086E+01  0.30827434595E+01  0.10566000000E+00 0. -1.
        -13    1    4    4    0    0  0.15439620098E+01 -0.39300629125E+01  0.51273989067E+01  0.66430863887E+01  0.10566000000E+00 0. -1.
         14    1    4    4    0    0  0.12154244431E+02 -0.32856535899E+02  0.43171852061E+02  0.55597539688E+02  0.00000000000E+00 0. -1.
<mgrwt>
<rscale>  0 0.85036793E+02</rscale>
<asrwt>0</asrwt>
<pdfrwt beam="1">  1        2 0.14314454E-01 0.85036793E+02</pdfrwt>
<pdfrwt beam="2">  1       -1 0.29891813E-02 0.85036793E+02</pdfrwt>
<totfact> 0.14740910E+05</totfact>
</mgrwt>
</event>
<event>
 8    1  0.2389776E-020  0.7827602E+02  0.7818608E-02  0.1334016E+00
         -1   -1    0    0    0  501 -0.00000000000E+00  0.00000000000E+00  0.48411066890E+02  0.48411067152E+02  0.50400000000E-02 0.  1.
          2   -1    0    0  501    0  0.00000000000E+00 -0.00000000000E+00 -0.31641191533E+02  0.31641191636E+02  0.25500000000E-02 0. -1.
         24    2    1    2    0    0  0.17763568394E-14  0.00000000000E+00  0.16769875357E+02  0.80052258788E+02  0.78276020706E+02 0.  0.
         66    2    3    3    0    0 -0.13299520260E+02 -0.23161278784E+02 -0.20831706755E+02  0.33930547898E+02  0.20000000812E+01 0.  0.
        -13    1    3    3    0    0  0.13299520260E+02  0.23161278784E+02  0.37601582112E+02  0.46121710889E+02  0.10566000000E+00 0.  1.
         13    1    4    4    0    0 -0.99181747205E+00 -0.23742483444E+01 -0.16112025478E+01  0.30377450163E+01  0.10566000000E+00 0. -1.
        -13    1    4    4    0    0 -0.99340305550E+01 -0.16696605333E+02 -0.16029935873E+02  0.25187925696E+02  0.10566000000E+00 0.  1.
        -14    1    4    4    0    0 -0.23736722327E+01 -0.40904251062E+01 -0.31905683338E+01  0.57048771863E+01  0.00000000000E+00 0.  1.
<mgrwt>
<rscale>  0 0.78276021E+02</rscale>
<asrwt>0</asrwt>
<pdfrwt beam="1">  1        2 0.48678756E-02 0.78276021E+02</pdfrwt>
<pdfrwt beam="2">  1       -1 0.74478565E-02 0.78276021E+02</pdfrwt>
<totfact> 0.14449887E+05</totfact>
</mgrwt>
</event>
<event>
 8    1  0.2389776E-020  0.7593734E+02  0.7818608E-02  0.1340993E+00
         -1   -1    0    0    0  501 -0.00000000000E+00  0.00000000000E+00  0.64160587134E+01  0.64160606930E+01  0.50400000000E-02 0.  1.
          2   -1    0    0  501    0  0.00000000000E+00 -0.00000000000E+00 -0.22468927524E+03  0.22468927525E+03  0.25500000000E-02 0. -1.
         24    2    1    2    0    0 -0.69388939039E-16  0.00000000000E+00 -0.21827321652E+03  0.23110533594E+03  0.75937337657E+02 0.  0.
         66    2    3    3    0    0 -0.93883078710E-01  0.36328864708E+02 -0.75898721621E+02  0.84168944306E+02  0.20000042187E+01 0.  0.
        -13    1    3    3    0    0  0.93883078710E-01 -0.36328864708E+02 -0.14237449490E+03  0.14693639164E+03  0.10566000000E+00 0.  1.
         13    1    4    4    0    0  0.19331848382E+00  0.93724674841E+00 -0.22556407321E+01  0.24525257698E+01  0.10566000000E+00 0. -1.
        -13    1    4    4    0    0 -0.45731958489E+00  0.53895748637E+01 -0.10861646150E+02  0.12134380064E+02  0.10566000000E+00 0.  1.
         14    1    4    4    0    0  0.17011802236E+00  0.30002043096E+02 -0.62781434739E+02  0.69582038472E+02  0.00000000000E+00 0. -1.
<mgrwt>
<rscale>  0 0.75937338E+02</rscale>
<asrwt>0</asrwt>
<pdfrwt beam="1">  1        2 0.34567575E-01 0.75937338E+02</pdfrwt>
<pdfrwt beam="2">  1       -1 0.98708628E-03 0.75937338E+02</pdfrwt>
<totfact> 0.26348654E+05</totfact>
</mgrwt>
</event>
<event>
 8    1  0.2389776E-020  0.8000672E+02  0.7818608E-02  0.1329032E+00
         -1   -1    0    0    0  501 -0.00000000000E+00  0.00000000000E+00  0.12920552088E+02  0.12920553071E+02  0.50400000000E-02 0.  1.
          2   -1    0    0  501    0  0.00000000000E+00 -0.00000000000E+00 -0.12385451167E+03  0.12385451170E+03  0.25500000000E-02 0. -1.
         24    2    1    2    0    0  0.17763568394E-14 -0.35527136788E-14 -0.11093395958E+03  0.13677506477E+03  0.80006718179E+02 0.  0.
         66    2    3    3    0    0  0.10863376722E+02 -0.28872090154E+02 -0.98974202804E+02  0.10368945627E+03  0.19999942438E+01 0.  0.
        -13    1    3    3    0    0 -0.10863376722E+02  0.28872090154E+02 -0.11959756781E+02  0.33085608502E+02  0.10566000000E+00 0.  1.
         13    1    4    4    0    0  0.84685568341E+01 -0.20169682413E+02 -0.69976281064E+02  0.73315916547E+02  0.10566000000E+00 0. -1.
        -13    1    4    4    0    0  0.17121313053E+01 -0.61007934019E+01 -0.19683954449E+02  0.20678982096E+02  0.10566000000E+00 0.  1.
         14    1    4    4    0    0  0.68268858279E+00 -0.26016143385E+01 -0.93139672906E+01  0.96945576257E+01  0.00000000000E+00 0. -1.
<mgrwt>
<rscale>  0 0.80006718E+02</rscale>
<asrwt>0</asrwt>
<pdfrwt beam="1">  1        2 0.19054539E-01 0.80006718E+02</pdfrwt>
<pdfrwt beam="2">  1       -1 0.19877774E-02 0.80006718E+02</pdfrwt>
<totfact> 0.18861080E+05</totfact>
</mgrwt>
</event>
<event>
 8    1  0.2389776E-020  0.7636385E+02  0.7818608E-02  0.1339699E+00
          2   -1    0    0  501    0  0.00000000000E+00  0.00000000000E+00  0.66391139794E+02  0.66391139843E+02  0.25500000000E-02 0. -1.
         -1   -1    0    0    0  501 -0.00000000000E+00 -0.00000000000E+00 -0.21958643394E+02  0.21958643972E+02  0.50400000000E-02 0.  1.
         24    2    1    2    0    0 -0.71054273576E-14  0.00000000000E+00  0.44432496400E+02  0.88349783815E+02  0.76363849849E+02 0.  0.
         66    2    3    3    0    0  0.38084077805E+02 -0.22685900931E+01  0.22876655671E+02  0.44529595353E+02  0.20000010865E+01 0.  0.
        -13    1    3    3    0    0 -0.38084077805E+02  0.22685900931E+01  0.21555840729E+02  0.43820188462E+02  0.10566000000E+00 0.  1.
         13    1    4    4    0    0  0.16502307030E+02 -0.11982279893E+01  0.10393385785E+02  0.19539588525E+02  0.10566000000E+00 0. -1.
        -13    1    4    4    0    0  0.13558842643E+02 -0.12128660761E+01  0.82399046718E+01  0.15912902029E+02  0.10566000000E+00 0.  1.
         14    1    4    4    0    0  0.80229281318E+01  0.14250397228E+00  0.42433652146E+01  0.90771047992E+01  0.00000000000E+00 0. -1.
<mgrwt>
<rscale>  0 0.76363850E+02</rscale>
<asrwt>0</asrwt>
<pdfrwt beam="1">  1        2 0.10214021E-01 0.76363850E+02</pdfrwt>
<pdfrwt beam="2">  1       -1 0.33782529E-02 0.76363850E+02</pdfrwt>
<totfact> 0.18077179E+05</totfact>
</mgrwt>
</event>
<event>
 8    1  0.2389776E-020  0.8018084E+02  0.7818608E-02  0.1328539E+00
         -1   -1    0    0    0  501 -0.00000000000E+00  0.00000000000E+00  0.45935944793E+01  0.45935972442E+01  0.50400000000E-02 0.  1.
          2   -1    0    0  501    0  0.00000000000E+00 -0.00000000000E+00 -0.34988751665E+03  0.34988751666E+03  0.25500000000E-02 0. -1.
         24    2    1    2    0    0 -0.35527136788E-14 -0.35527136788E-14 -0.34529392217E+03  0.35448111390E+03  0.80180842015E+02 0.  0.
         66    2    3    3    0    0  0.21982350990E+02 -0.29009406372E+02 -0.24679362496E+03  0.24947116615E+03  0.20000012475E+01 0.  0.
        -13    1    3    3    0    0 -0.21982350990E+02  0.29009406372E+02 -0.98500297213E+02  0.10500994776E+03  0.10566000000E+00 0.  1.
         13    1    4    4    0    0  0.18800945789E+02 -0.24025116857E+02 -0.20325214294E+03  0.20552889475E+03  0.10566000000E+00 0. -1.
        -13    1    4    4    0    0  0.73325358018E+00 -0.12208020456E+01 -0.11183813415E+02  0.11274611523E+02  0.10566000000E+00 0.  1.
         14    1    4    4    0    0  0.24481516206E+01 -0.37634874692E+01 -0.32357668605E+02  0.32667659877E+02  0.00000000000E+00 0. -1.
<mgrwt>
<rscale>  0 0.80180842E+02</rscale>
<asrwt>0</asrwt>
<pdfrwt beam="1">  1        2 0.53828828E-01 0.80180842E+02</pdfrwt>
<pdfrwt beam="2">  1       -1 0.70670733E-03 0.80180842E+02</pdfrwt>
<totfact> 0.26787743E+05</totfact>
</mgrwt>
</event>
<event>
 8    1  0.2389776E-020  0.8038110E+02  0.7818608E-02  0.1327973E+00
         -1   -1    0    0    0  501 -0.00000000000E+00  0.00000000000E+00  0.27935005181E+02  0.27935005635E+02  0.50400000000E-02 0.  1.
          2   -1    0    0  501    0  0.00000000000E+00 -0.00000000000E+00 -0.57822799870E+02  0.57822799926E+02  0.25500000000E-02 0. -1.
         24    2    1    2    0    0  0.00000000000E+00  0.00000000000E+00 -0.29887794689E+02  0.85757805561E+02  0.80381098172E+02 0.  0.
         66    2    3    3    0    0  0.16711999081E+02  0.27734447222E+02 -0.40307983336E+02  0.51741897938E+02  0.20000013990E+01 0.  0.
        -13    1    3    3    0    0 -0.16711999081E+02 -0.27734447222E+02  0.10420188647E+02  0.34015907624E+02  0.10566000000E+00 0.  1.
         13    1    4    4    0    0  0.10262534849E+02  0.15580649807E+02 -0.23228302294E+02  0.29793312361E+02  0.10566000000E+00 0.  1.
        -13    1    4    4    0    0  0.50509961948E+01  0.10067164429E+02 -0.14269436190E+02  0.18179338145E+02  0.10566000000E+00 0. -1.
         14    1    4    4    0    0  0.13984680379E+01  0.20866329856E+01 -0.28102448524E+01  0.37692474315E+01  0.00000000000E+00 0. -1.
<mgrwt>
<rscale>  0 0.80381098E+02</rscale>
<asrwt>0</asrwt>
<pdfrwt beam="1">  1        2 0.88958153E-02 0.80381098E+02</pdfrwt>
<pdfrwt beam="2">  1       -1 0.42976932E-02 0.80381098E+02</pdfrwt>
<totfact> 0.15236069E+05</totfact>
</mgrwt>
</event>
<event>
 8    1  0.2389776E-020  0.7912986E+02  0.7818608E-02  0.1331539E+00
          2   -1    0    0  501    0  0.00000000000E+00  0.00000000000E+00  0.42124428851E+02  0.42124428928E+02  0.25500000000E-02 0. -1.
         -1   -1    0    0    0  501 -0.00000000000E+00 -0.00000000000E+00 -0.37160944792E+02  0.37160945133E+02  0.50400000000E-02 0.  1.
         24    2    1    2    0    0  0.00000000000E+00  0.00000000000E+00  0.49634840591E+01  0.79285374061E+02  0.79129857614E+02 0.  0.
         66    2    3    3    0    0  0.10421552455E+02 -0.37248264452E+02  0.10705343548E+02  0.40182662203E+02  0.20000002541E+01 0.  0.
        -13    1    3    3    0    0 -0.10421552455E+02  0.37248264452E+02 -0.57418594886E+01  0.39102711858E+02  0.10566000000E+00 0.  1.
         13    1    4    4    0    0  0.22722626257E+01 -0.10275154226E+02  0.33689262943E+01  0.11050013585E+02  0.10566000000E+00 0. -1.
        -13    1    4    4    0    0  0.30986367097E+01 -0.11649331729E+02  0.28874946986E+01  0.12395856924E+02  0.10566000000E+00 0.  1.
         14    1    4    4    0    0  0.50506531198E+01 -0.15323778496E+02  0.44489225548E+01  0.16736791695E+02  0.00000000000E+00 0. -1.
<mgrwt>
<rscale>  0 0.79129858E+02</rscale>
<asrwt>0</asrwt>
<pdfrwt beam="1">  1        2 0.64806814E-02 0.79129858E+02</pdfrwt>
<pdfrwt beam="2">  1       -1 0.57170685E-02 0.79129858E+02</pdfrwt>
<totfact> 0.14849368E+05</totfact>
</mgrwt>
</event>
<event>
 8    1  0.2389776E-020  0.7939536E+02  0.7818608E-02  0.1330776E+00
         -1   -1    0    0    0  501 -0.00000000000E+00  0.00000000000E+00  0.47240794930E+01  0.47240821815E+01  0.50400000000E-02 0.  1.
          2   -1    0    0  501    0  0.00000000000E+00 -0.00000000000E+00 -0.33358993164E+03  0.33358993165E+03  0.25500000000E-02 0. -1.
         24    2    1    2    0    0 -0.35527136788E-14  0.00000000000E+00 -0.32886585215E+03  0.33831401384E+03  0.79395360358E+02 0.  0.
         66    2    3    3    0    0  0.31254141498E+02  0.65494907355E-01 -0.26865822932E+03  0.27047748488E+03  0.19999981661E+01 0.  0.
        -13    1    3    3    0    0 -0.31254141498E+02 -0.65494907355E-01 -0.60207622830E+02  0.67836528959E+02  0.10566000000E+00 0.  1.
         13    1    4    4    0    0  0.96571944645E+01  0.40141104284E+00 -0.88796404811E+02  0.89320967344E+02  0.10566000000E+00 0. -1.
        -13    1    4    4    0    0  0.33031380032E+01  0.53654804689E-01 -0.25071883285E+02  0.25288813633E+02  0.10566000000E+00 0.  1.
        -14    1    4    4    0    0  0.18293809030E+02 -0.38957094018E+00 -0.15478994123E+03  0.15586770390E+03  0.00000000000E+00 0.  1.
<mgrwt>
<rscale>  0 0.79395360E+02</rscale>
<asrwt>0</asrwt>
<pdfrwt beam="1">  1        2 0.51321509E-01 0.79395360E+02</pdfrwt>
<pdfrwt beam="2">  1       -1 0.72678193E-03 0.79395360E+02</pdfrwt>
<totfact> 0.27021180E+05</totfact>
</mgrwt>
</event>
<event>
 8    1  0.2389776E-020  0.8097150E+02  0.7818608E-02  0.1326317E+00
         -1   -1    0    0    0  501 -0.00000000000E+00  0.00000000000E+00  0.32564581325E+02  0.32564581715E+02  0.50400000000E-02 0.  1.
          2   -1    0    0  501    0  0.00000000000E+00 -0.00000000000E+00 -0.50333699023E+02  0.50333699088E+02  0.25500000000E-02 0. -1.
         24    2    1    2    0    0  0.00000000000E+00  0.00000000000E+00 -0.17769117698E+02  0.82898280802E+02  0.80971497554E+02 0.  0.
         66    2    3    3    0    0 -0.19898288318E+02 -0.34484390949E+02 -0.15089869255E+01  0.39892256644E+02  0.20000003891E+01 0.  0.
        -13    1    3    3    0    0  0.19898288318E+02  0.34484390949E+02 -0.16260130773E+02  0.43006024158E+02  0.10566000000E+00 0.  1.
         13    1    4    4    0    0 -0.13858952365E+02 -0.22646821252E+02 -0.45648442614E+00  0.26555011119E+02  0.10566000000E+00 0. -1.
        -13    1    4    4    0    0 -0.26474364060E+01 -0.54823960429E+01 -0.62066899121E+00  0.61206192437E+01  0.10566000000E+00 0.  1.
         14    1    4    4    0    0 -0.33918995462E+01 -0.63551736539E+01 -0.43183350817E+00  0.72166262811E+01  0.00000000000E+00 0. -1.
<mgrwt>
<rscale>  0 0.80971498E+02</rscale>
<asrwt>0</asrwt>
<pdfrwt beam="1">  1        2 0.77436460E-02 0.80971498E+02</pdfrwt>
<pdfrwt beam="2">  1       -1 0.50099356E-02 0.80971498E+02</pdfrwt>
<totfact> 0.14477670E+05</totfact>
</mgrwt>
</event>
<event>
 8    1  0.2389776E-020  0.8075400E+02  0.7818608E-02  0.1326925E+00
         -1   -1    0    0    0  501 -0.00000000000E+00  0.00000000000E+00  0.19267360787E+01  0.19267426705E+01  0.50400000000E-02 0.  1.
          2   -1    0    0  501    0  0.00000000000E+00 -0.00000000000E+00 -0.84614558178E+03  0.84614558179E+03  0.25500000000E-02 0. -1.
         24    2    1    2    0    0  0.00000000000E+00  0.55511151231E-16 -0.84421884570E+03  0.84807232446E+03  0.80753997228E+02 0.  0.
         66    2    3    3    0    0 -0.20067111568E+02  0.31995411471E+00 -0.79001081020E+03  0.79026822759E+03  0.19999923636E+01 0.  0.
        -13    1    3    3    0    0  0.20067111568E+02 -0.31995411471E+00 -0.54208035507E+02  0.57804096869E+02  0.10566000000E+00 0.  1.
         13    1    4    4    0    0 -0.11747612961E+02  0.53293232510E+00 -0.43243359410E+03  0.43259347533E+03  0.10566000000E+00 0. -1.
        -13    1    4    4    0    0 -0.78523301330E+01 -0.55282408298E-01 -0.33298652496E+03  0.33307911840E+03  0.10566000000E+00 0.  1.
         14    1    4    4    0    0 -0.46716847320E+00 -0.15769580209E+00 -0.24590691131E+02  0.24595633853E+02  0.00000000000E+00 0. -1.
<mgrwt>
<rscale>  0 0.80753997E+02</rscale>
<asrwt>0</asrwt>
<pdfrwt beam="1">  1        2 0.13017595E+00 0.80753997E+02</pdfrwt>
<pdfrwt beam="2">  1       -1 0.29642212E-03 0.80753997E+02</pdfrwt>
<totfact> 0.33837805E+05</totfact>
</mgrwt>
</event>
<event>
 8    1  0.2389776E-020  0.7900687E+02  0.7818608E-02  0.1331894E+00
          2   -1    0    0  501    0  0.00000000000E+00  0.00000000000E+00  0.47770734964E+03  0.47770734965E+03  0.25500000000E-02 0. -1.
         -1   -1    0    0    0  501 -0.00000000000E+00 -0.00000000000E+00 -0.32666874274E+01  0.32666913153E+01  0.50400000000E-02 0.  1.
         24    2    1    2    0    0 -0.35527136788E-14 -0.35527136788E-14  0.47444066221E+03  0.48097404096E+03  0.79006873870E+02 0.  0.
         66    2    3    3    0    0 -0.26060897587E+02 -0.18552901737E+02  0.37819987097E+03  0.37955569149E+03  0.19999994109E+01 0.  0.
        -13    1    3    3    0    0  0.26060897587E+02  0.18552901737E+02  0.96240791246E+02  0.10141834947E+03  0.10566000000E+00 0.  1.
         13    1    4    4    0    0 -0.10943790254E+02 -0.68349519433E+01  0.15456177092E+03  0.15509943683E+03  0.10566000000E+00 0. -1.
        -13    1    4    4    0    0 -0.17179485340E+01 -0.16288087491E+01  0.26117539202E+02  0.26224823796E+02  0.10566000000E+00 0.  1.
         14    1    4    4    0    0 -0.13399158799E+02 -0.10089141044E+02  0.19752056085E+03  0.19823143086E+03  0.00000000000E+00 0. -1.
<mgrwt>
<rscale>  0 0.79006874E+02</rscale>
<asrwt>0</asrwt>
<pdfrwt beam="1">  1        2 0.73493394E-01 0.79006874E+02</pdfrwt>
<pdfrwt beam="2">  1       -1 0.50256790E-03 0.79006874E+02</pdfrwt>
<totfact> 0.30999270E+05</totfact>
</mgrwt>
</event>
<event>
 8    1  0.2389776E-020  0.7803902E+02  0.7818608E-02  0.1334710E+00
          2   -1    0    0  501    0  0.00000000000E+00  0.00000000000E+00  0.34631559571E+02  0.34631559665E+02  0.25500000000E-02 0. -1.
         -1   -1    0    0    0  501 -0.00000000000E+00 -0.00000000000E+00 -0.43963427282E+02  0.43963427571E+02  0.50400000000E-02 0.  1.
         24    2    1    2    0    0  0.35527136788E-14 -0.17763568394E-14 -0.93318677115E+01  0.78594987236E+02  0.78039017572E+02 0.  0.
         66    2    3    3    0    0 -0.21580378408E+02  0.83596156233E+01  0.26938048452E+02  0.35570414162E+02  0.20000009159E+01 0.  0.
        -13    1    3    3    0    0  0.21580378408E+02 -0.83596156233E+01 -0.36269916164E+02  0.43024573074E+02  0.10566000000E+00 0.  1.
         13    1    4    4    0    0 -0.18763671389E+01  0.92976554857E+00  0.20260829680E+01  0.29157149799E+01  0.10566000000E+00 0. -1.
        -13    1    4    4    0    0 -0.15947353908E+01  0.99663583275E+00  0.19381983566E+01  0.27026359087E+01  0.10566000000E+00 0.  1.
        -14    1    4    4    0    0 -0.18109275878E+02  0.64332142419E+01  0.22973767128E+02  0.29952063274E+02  0.00000000000E+00 0.  1.
<mgrwt>
<rscale>  0 0.78039018E+02</rscale>
<asrwt>0</asrwt>
<pdfrwt beam="1">  1        2 0.53279322E-02 0.78039018E+02</pdfrwt>
<pdfrwt beam="2">  1       -1 0.67636043E-02 0.78039018E+02</pdfrwt>
<totfact> 0.14832523E+05</totfact>
</mgrwt>
</event>
<event>
 8    1  0.2389776E-020  0.8129631E+02  0.7818608E-02  0.1325412E+00
          2   -1    0    0  501    0  0.00000000000E+00  0.00000000000E+00  0.69950088954E+03  0.69950088955E+03  0.25500000000E-02 0. -1.
         -1   -1    0    0    0  501 -0.00000000000E+00 -0.00000000000E+00 -0.23620709869E+01  0.23620763639E+01  0.50400000000E-02 0.  1.
         24    2    1    2    0    0 -0.35527136788E-14  0.00000000000E+00  0.69713881856E+03  0.70186296591E+03  0.81296313448E+02 0.  0.
         66    2    3    3    0    0  0.15242158646E+02  0.83486186354E+01  0.66578459800E+03  0.66601437955E+03  0.20000005866E+01 0.  0.
        -13    1    3    3    0    0 -0.15242158646E+02 -0.83486186354E+01  0.31354220560E+02  0.35848586364E+02  0.10566000000E+00 0.  1.
         13    1    4    4    0    0  0.14523079264E+01  0.64396450097E+00  0.61643327803E+02  0.61663886638E+02  0.10566000000E+00 0. -1.
        -13    1    4    4    0    0  0.90434631965E+01  0.59277723026E+01  0.39717637217E+03  0.39732355138E+03  0.10566000000E+00 0.  1.
         14    1    4    4    0    0  0.47463875233E+01  0.17768818318E+01  0.20696489802E+03  0.20702694153E+03  0.00000000000E+00 0. -1.
<mgrwt>
<rscale>  0 0.81296313E+02</rscale>
<asrwt>0</asrwt>
<pdfrwt beam="1">  1        2 0.10761547E+00 0.81296313E+02</pdfrwt>
<pdfrwt beam="2">  1       -1 0.36339613E-03 0.81296313E+02</pdfrwt>
<totfact> 0.32076415E+05</totfact>
</mgrwt>
</event>
<event>
 8    1  0.2389776E-020  0.8019581E+02  0.7818608E-02  0.1328497E+00
         -1   -1    0    0    0  501 -0.00000000000E+00  0.00000000000E+00  0.92279108555E+01  0.92279122319E+01  0.50400000000E-02 0.  1.
          2   -1    0    0  501    0  0.00000000000E+00 -0.00000000000E+00 -0.17423682867E+03  0.17423682869E+03  0.25500000000E-02 0. -1.
         24    2    1    2    0    0  0.00000000000E+00 -0.88817841970E-15 -0.16500891782E+03  0.18346474092E+03  0.80195811629E+02 0.  0.
         66    2    3    3    0    0  0.38087052071E+02  0.49102558301E+01 -0.56361307640E+02  0.68229987012E+02  0.19999952441E+01 0.  0.
        -13    1    3    3    0    0 -0.38087052071E+02 -0.49102558301E+01 -0.10864761018E+03  0.11523475391E+03  0.10566000000E+00 0.  1.
         13    1    4    4    0    0  0.20354699632E+02  0.32088170342E+01 -0.29377827783E+02  0.35884233769E+02  0.10566000000E+00 0. -1.
        -13    1    4    4    0    0  0.10851533331E+02  0.61015341734E+00 -0.16330040835E+02  0.19616560874E+02  0.10566000000E+00 0.  1.
        -14    1    4    4    0    0  0.68808191075E+01  0.10912853785E+01 -0.10653439022E+02  0.12729192369E+02  0.00000000000E+00 0.  1.
<mgrwt>
<rscale>  0 0.80195812E+02</rscale>
<asrwt>0</asrwt>
<pdfrwt beam="1">  1        2 0.26805664E-01 0.80195812E+02</pdfrwt>
<pdfrwt beam="2">  1       -1 0.14196788E-02 0.80195812E+02</pdfrwt>
<totfact> 0.20906258E+05</totfact>
</mgrwt>
</event>
<event>
 8    1  0.2389776E-020  0.7736427E+02  0.7818608E-02  0.1336702E+00
         -1   -1    0    0    0  501 -0.00000000000E+00  0.00000000000E+00  0.57888701547E+01  0.57888723487E+01  0.50400000000E-02 0.  1.
          2   -1    0    0  501    0  0.00000000000E+00 -0.00000000000E+00 -0.25848000063E+03  0.25848000064E+03  0.25500000000E-02 0. -1.
         24    2    1    2    0    0  0.00000000000E+00  0.00000000000E+00 -0.25269113047E+03  0.26426887299E+03  0.77364267018E+02 0.  0.
         66    2    3    3    0    0 -0.54210886533E+01 -0.33230515731E+02 -0.19130020929E+03  0.19425093425E+03  0.20000008503E+01 0.  0.
        -13    1    3    3    0    0  0.54210886533E+01  0.33230515731E+02 -0.61390921179E+02  0.70017938739E+02  0.10566000000E+00 0.  1.
         13    1    4    4    0    0 -0.17802462328E+01 -0.10670510932E+02 -0.62080977042E+02  0.63016568890E+02  0.10566000000E+00 0. -1.
        -13    1    4    4    0    0 -0.30556575649E+01 -0.15084527257E+02 -0.84279045433E+02  0.85672916775E+02  0.10566000000E+00 0.  1.
        -14    1    4    4    0    0 -0.58518485569E+00 -0.74754775418E+01 -0.44940186819E+02  0.45561448585E+02  0.00000000000E+00 0.  1.
<mgrwt>
<rscale>  0 0.77364267E+02</rscale>
<asrwt>0</asrwt>
<pdfrwt beam="1">  1        2 0.39766145E-01 0.77364267E+02</pdfrwt>
<pdfrwt beam="2">  1       -1 0.89059578E-03 0.77364267E+02</pdfrwt>
<totfact> 0.26374813E+05</totfact>
</mgrwt>
</event>
<event>
 8    1  0.2389776E-020  0.7978958E+02  0.7818608E-02  0.1329650E+00
         -1   -1    0    0    0  501 -0.00000000000E+00  0.00000000000E+00  0.12685804098E+02  0.12685805099E+02  0.50400000000E-02 0.  1.
          2   -1    0    0  501    0  0.00000000000E+00 -0.00000000000E+00 -0.12546263165E+03  0.12546263167E+03  0.25500000000E-02 0. -1.
         24    2    1    2    0    0  0.00000000000E+00  0.00000000000E+00 -0.11277682755E+03  0.13814843677E+03  0.79789584223E+02 0.  0.
         66    2    3    3    0    0 -0.18235026585E+02  0.19114483262E+02 -0.10812624416E+03  0.11132459001E+03  0.20000002453E+01 0.  0.
        -13    1    3    3    0    0  0.18235026585E+02 -0.19114483262E+02 -0.46505833887E+01  0.26823846757E+02  0.10566000000E+00 0.  1.
         13    1    4    4    0    0 -0.15838700112E+01  0.17297216476E+01 -0.90537831848E+01  0.93532205781E+01  0.10566000000E+00 0. -1.
        -13    1    4    4    0    0 -0.83946666224E+01  0.84464868862E+01 -0.52724661049E+02  0.54052887205E+02  0.10566000000E+00 0.  1.
        -14    1    4    4    0    0 -0.82564899509E+01  0.89382747286E+01 -0.46347799926E+02  0.47918482232E+02  0.00000000000E+00 0.  1.
<mgrwt>
<rscale>  0 0.79789584E+02</rscale>
<asrwt>0</asrwt>
<pdfrwt beam="1">  1        2 0.19301943E-01 0.79789584E+02</pdfrwt>
<pdfrwt beam="2">  1       -1 0.19516623E-02 0.79789584E+02</pdfrwt>
<totfact> 0.19072677E+05</totfact>
</mgrwt>
</event>
<event>
 8    1  0.2389776E-020  0.7684909E+02  0.7818608E-02  0.1338239E+00
         -1   -1    0    0    0  501 -0.00000000000E+00  0.00000000000E+00  0.12204827794E+03  0.12204827805E+03  0.50400000000E-02 0.  1.
          2   -1    0    0  501    0  0.00000000000E+00 -0.00000000000E+00 -0.12097226164E+02  0.12097226433E+02  0.25500000000E-02 0. -1.
         24    2    1    2    0    0  0.00000000000E+00  0.00000000000E+00  0.10995105178E+03  0.13414550448E+03  0.76849089681E+02 0.  0.
         66    2    3    3    0    0 -0.19151417190E+02 -0.87837022649E+01 -0.10228897454E+01  0.21189065676E+02  0.19999987307E+01 0.  0.
        -13    1    3    3    0    0  0.19151417190E+02  0.87837022649E+01  0.11097394152E+03  0.11295643880E+03  0.10566000000E+00 0.  1.
         13    1    4    4    0    0 -0.52328482184E+01 -0.21921412442E+01  0.43457825106E+00  0.56910636970E+01  0.10566000000E+00 0. -1.
        -13    1    4    4    0    0 -0.76138514856E+01 -0.37655172454E+01 -0.12458644867E+01  0.85856389934E+01  0.10566000000E+00 0.  1.
         14    1    4    4    0    0 -0.63047174856E+01 -0.28260437752E+01 -0.21160350975E+00  0.69123629851E+01  0.00000000000E+00 0. -1.
<mgrwt>
<rscale>  0 0.76849090E+02</rscale>
<asrwt>0</asrwt>
<pdfrwt beam="1">  1        2 0.18611118E-02 0.76849090E+02</pdfrwt>
<pdfrwt beam="2">  1       -1 0.18776658E-01 0.76849090E+02</pdfrwt>
<totfact> 0.12543980E+05</totfact>
</mgrwt>
</event>
<event>
 8    1  0.2389776E-020  0.8020007E+02  0.7818608E-02  0.1328485E+00
         -1   -1    0    0    0  501 -0.00000000000E+00  0.00000000000E+00  0.57724111545E+01  0.57724133548E+01  0.50400000000E-02 0.  1.
          2   -1    0    0  501    0  0.00000000000E+00 -0.00000000000E+00 -0.27856858424E+03  0.27856858425E+03  0.25500000000E-02 0. -1.
         24    2    1    2    0    0  0.00000000000E+00  0.35527136788E-14 -0.27279617308E+03  0.28434099760E+03  0.80200067766E+02 0.  0.
         66    2    3    3    0    0  0.39287163137E+01  0.24863398001E+02 -0.24703903470E+03  0.24832621295E+03  0.20000000282E+01 0.  0.
        -13    1    3    3    0    0 -0.39287163137E+01 -0.24863398001E+02 -0.25757138384E+02  0.36014784656E+02  0.10566000000E+00 0.  1.
         13    1    4    4    0    0  0.37100863221E+01  0.21321548845E+02 -0.21607173161E+03  0.21715288980E+03  0.10566000000E+00 0. -1.
        -13    1    4    4    0    0  0.40898039066E-01  0.88231450015E+00 -0.63163820742E+01  0.63787144528E+01  0.10566000000E+00 0. -1.
         14    1    4    4    0    0  0.17773195247E+00  0.26595346563E+01 -0.24650921013E+02  0.24794608689E+02  0.00000000000E+00 0. -1.
<mgrwt>
<rscale>  0 0.80200068E+02</rscale>
<asrwt>0</asrwt>
<pdfrwt beam="1">  1        2 0.42856695E-01 0.80200068E+02</pdfrwt>
<pdfrwt beam="2">  1       -1 0.88806364E-03 0.80200068E+02</pdfrwt>
<totfact> 0.24656868E+05</totfact>
</mgrwt>
</event>
<event>
 8    1  0.2389776E-020  0.8023440E+02  0.7818608E-02  0.1328388E+00
          2   -1    0    0  501    0  0.00000000000E+00  0.00000000000E+00  0.38071628767E+02  0.38071628852E+02  0.25500000000E-02 0. -1.
         -1   -1    0    0    0  501 -0.00000000000E+00 -0.00000000000E+00 -0.42272681632E+02  0.42272681932E+02  0.50400000000E-02 0.  1.
         24    2    1    2    0    0  0.00000000000E+00  0.00000000000E+00 -0.42010528647E+01  0.80344310784E+02  0.80234403034E+02 0.  0.
         66    2    3    3    0    0  0.14102464874E+02 -0.20392336286E+02  0.29447806249E+02  0.38547375748E+02  0.19999973650E+01 0.  0.
        -13    1    3    3    0    0 -0.14102464874E+02  0.20392336286E+02 -0.33648859114E+02  0.41796935036E+02  0.10566000000E+00 0.  1.
         13    1    4    4    0    0  0.10192843125E+02 -0.14877791597E+02  0.22091981725E+02  0.28518582615E+02  0.10566000000E+00 0. -1.
        -13    1    4    4    0    0  0.28949774479E+01 -0.35724549198E+01  0.53832552178E+01  0.70805317141E+01  0.10566000000E+00 0.  1.
         14    1    4    4    0    0  0.10146443008E+01 -0.19420897692E+01  0.19725693064E+01  0.29482614194E+01  0.00000000000E+00 0. -1.
<mgrwt>
<rscale>  0 0.80234403E+02</rscale>
<asrwt>0</asrwt>
<pdfrwt beam="1">  1        2 0.58571736E-02 0.80234403E+02</pdfrwt>
<pdfrwt beam="2">  1       -1 0.65034896E-02 0.80234403E+02</pdfrwt>
<totfact> 0.13997915E+05</totfact>
</mgrwt>
</event>
<event>
 8    1  0.2389776E-020  0.8006975E+02  0.7818608E-02  0.1328854E+00
          2   -1    0    0  501    0  0.00000000000E+00  0.00000000000E+00  0.14292820400E+02  0.14292820627E+02  0.25500000000E-02 0. -1.
         -1   -1    0    0    0  501 -0.00000000000E+00 -0.00000000000E+00 -0.11213959931E+03  0.11213959942E+03  0.50400000000E-02 0.  1.
         24    2    1    2    0    0  0.17763568394E-14  0.35527136788E-14 -0.97846778911E+02  0.12643242005E+03  0.80069748948E+02 0.  0.
         66    2    3    3    0    0  0.12071835815E+02  0.28587046851E+02 -0.90747516317E+01  0.32392894005E+02  0.19999993174E+01 0.  0.
        -13    1    3    3    0    0 -0.12071835815E+02 -0.28587046851E+02 -0.88772027279E+02  0.94039526046E+02  0.10566000000E+00 0.  1.
         13    1    4    4    0    0  0.44217141216E+01  0.10185559722E+02 -0.38686932011E+01  0.11759044764E+02  0.10566000000E+00 0. -1.
        -13    1    4    4    0    0  0.60262984856E+01  0.13091690029E+02 -0.38618024214E+01  0.14920901555E+02  0.10566000000E+00 0.  1.
         14    1    4    4    0    0  0.16238232077E+01  0.53097970995E+01 -0.13442560092E+01  0.57129476863E+01  0.00000000000E+00 0. -1.
<mgrwt>
<rscale>  0 0.80069749E+02</rscale>
<asrwt>0</asrwt>
<pdfrwt beam="1">  1        2 0.21988955E-02 0.80069749E+02</pdfrwt>
<pdfrwt beam="2">  1       -1 0.17252246E-01 0.80069749E+02</pdfrwt>
<totfact> 0.11534834E+05</totfact>
</mgrwt>
</event>
<event>
 8    1  0.2389776E-020  0.7601792E+02  0.7818608E-02  0.1340748E+00
          2   -1    0    0  501    0  0.00000000000E+00  0.00000000000E+00  0.13821769351E+03  0.13821769354E+03  0.25500000000E-02 0. -1.
         -1   -1    0    0    0  501 -0.00000000000E+00 -0.00000000000E+00 -0.10452214295E+02  0.10452215510E+02  0.50400000000E-02 0.  1.
         24    2    1    2    0    0  0.00000000000E+00  0.00000000000E+00  0.12776547922E+03  0.14866990905E+03  0.76017920099E+02 0.  0.
         66    2    3    3    0    0  0.20246317888E+02 -0.56491437774E+01  0.12579846809E+03  0.12755814668E+03  0.19999993737E+01 0.  0.
        -13    1    3    3    0    0 -0.20246317888E+02  0.56491437774E+01  0.19670111297E+01  0.21111762367E+02  0.10566000000E+00 0.  1.
         13    1    4    4    0    0  0.43799199900E+01 -0.45397694771E+00  0.26510079304E+02  0.26873504850E+02  0.10566000000E+00 0. -1.
        -13    1    4    4    0    0  0.18642476612E+01 -0.76851354720E+00  0.11202674838E+02  0.11383194630E+02  0.10566000000E+00 0. -1.
         14    1    4    4    0    0  0.14002150237E+02 -0.44266532825E+01  0.88085713948E+02  0.89301447201E+02  0.00000000000E+00 0. -1.
<mgrwt>
<rscale>  0 0.76017920E+02</rscale>
<asrwt>0</asrwt>
<pdfrwt beam="1">  1        2 0.21264261E-01 0.76017920E+02</pdfrwt>
<pdfrwt beam="2">  1       -1 0.16080330E-02 0.76017920E+02</pdfrwt>
<totfact> 0.22343353E+05</totfact>
</mgrwt>
</event>
<event>
 8    1  0.2389776E-020  0.7713009E+02  0.7818608E-02  0.1337399E+00
         -1   -1    0    0    0  501 -0.00000000000E+00  0.00000000000E+00  0.65239930270E+00  0.65241877024E+00  0.50400000000E-02 0.  1.
          2   -1    0    0  501    0  0.00000000000E+00 -0.00000000000E+00 -0.22796476530E+04  0.22796476530E+04  0.25500000000E-02 0. -1.
         24    2    1    2    0    0 -0.17763568394E-14  0.00000000000E+00 -0.22789952537E+04  0.22803000718E+04  0.77130091061E+02 0.  0.
         66    2    3    3    0    0 -0.11489832566E+02  0.41700659416E+01 -0.22208178332E+04  0.22208523710E+04  0.20000011243E+01 0.  0.
        -13    1    3    3    0    0  0.11489832566E+02 -0.41700659416E+01 -0.58177420559E+02  0.59447700791E+02  0.10566000000E+00 0.  1.
         13    1    4    4    0    0 -0.14717689194E+01  0.52175407869E+00 -0.27669924516E+03  0.27670367140E+03  0.10566000000E+00 0. -1.
        -13    1    4    4    0    0 -0.31533484059E+01  0.13904382166E+01 -0.48804587710E+03  0.48805805622E+03  0.10566000000E+00 0.  1.
        -14    1    4    4    0    0 -0.68647152411E+01  0.22578736463E+01 -0.14560727109E+04  0.14560906434E+04  0.00000000000E+00 0.  1.
<mgrwt>
<rscale>  0 0.77130091E+02</rscale>
<asrwt>0</asrwt>
<pdfrwt beam="1">  1        2 0.35070865E+00 0.77130091E+02</pdfrwt>
<pdfrwt beam="2">  1       -1 0.10037245E-03 0.77130091E+02</pdfrwt>
<totfact> 0.26423159E+05</totfact>
</mgrwt>
</event>
<event>
 8    1  0.2389776E-020  0.8064691E+02  0.7818608E-02  0.1327226E+00
          2   -1    0    0  501    0  0.00000000000E+00  0.00000000000E+00  0.11438320538E+03  0.11438320541E+03  0.25500000000E-02 0. -1.
         -1   -1    0    0    0  501 -0.00000000000E+00 -0.00000000000E+00 -0.14215207092E+02  0.14215207985E+02  0.50400000000E-02 0.  1.
         24    2    1    2    0    0  0.00000000000E+00  0.17763568394E-14  0.10016799829E+03  0.12859841339E+03  0.80646909713E+02 0.  0.
         66    2    3    3    0    0  0.14379579960E+02 -0.15034378694E+02  0.10514920830E+03  0.10720616059E+03  0.19999998584E+01 0.  0.
        -13    1    3    3    0    0 -0.14379579960E+02  0.15034378694E+02 -0.49812100182E+01  0.21392252799E+02  0.10566000000E+00 0.  1.
         13    1    4    4    0    0  0.89566517036E+01 -0.10080151260E+02  0.65050083361E+02  0.66433090915E+02  0.10566000000E+00 0. -1.
        -13    1    4    4    0    0  0.52059100334E+01 -0.47507254311E+01  0.37472640522E+02  0.38129789445E+02  0.10566000000E+00 0.  1.
        -14    1    4    4    0    0  0.21701822274E+00 -0.20350200365E+00  0.26264844208E+01  0.26432802324E+01  0.00000000000E+00 0.  1.
<mgrwt>
<rscale>  0 0.80646910E+02</rscale>
<asrwt>0</asrwt>
<pdfrwt beam="1">  1        2 0.17597417E-01 0.80646910E+02</pdfrwt>
<pdfrwt beam="2">  1       -1 0.21869550E-02 0.80646910E+02</pdfrwt>
<totfact> 0.18030672E+05</totfact>
</mgrwt>
</event>
<event>
 8    1  0.2389776E-020  0.7994931E+02  0.7818608E-02  0.1329195E+00
          2   -1    0    0  501    0  0.00000000000E+00  0.00000000000E+00  0.10405202835E+02  0.10405203147E+02  0.25500000000E-02 0. -1.
         -1   -1    0    0    0  501 -0.00000000000E+00 -0.00000000000E+00 -0.15357441719E+03  0.15357441727E+03  0.50400000000E-02 0.  1.
         24    2    1    2    0    0  0.00000000000E+00  0.00000000000E+00 -0.14316921435E+03  0.16397962042E+03  0.79949308776E+02 0.  0.
         66    2    3    3    0    0 -0.12601085052E+02 -0.24082456182E+02 -0.11578272038E+02  0.29610951064E+02  0.19999998221E+01 0.  0.
        -13    1    3    3    0    0  0.12601085052E+02  0.24082456182E+02 -0.13159094232E+03  0.13436866935E+03  0.10566000000E+00 0.  1.
         13    1    4    4    0    0 -0.65228126349E+01 -0.13768563168E+02 -0.61426588594E+01  0.16427532933E+02  0.10566000000E+00 0. -1.
        -13    1    4    4    0    0 -0.22003765048E+01 -0.32151536561E+01 -0.13780772197E+01  0.41339001747E+01  0.10566000000E+00 0.  1.
        -14    1    4    4    0    0 -0.38778959122E+01 -0.70987393587E+01 -0.40575359586E+01  0.90495179564E+01  0.00000000000E+00 0.  1.
<mgrwt>
<rscale>  0 0.79949309E+02</rscale>
<asrwt>0</asrwt>
<pdfrwt beam="1">  1        2 0.16008006E-02 0.79949309E+02</pdfrwt>
<pdfrwt beam="2">  1       -1 0.23626832E-01 0.79949309E+02</pdfrwt>
<totfact> 0.10739497E+05</totfact>
</mgrwt>
</event>
<event>
 8    1  0.2389776E-020  0.8011392E+02  0.7818608E-02  0.1328728E+00
          2   -1    0    0  501    0  0.00000000000E+00  0.00000000000E+00  0.31328188664E+03  0.31328188666E+03  0.25500000000E-02 0. -1.
         -1   -1    0    0    0  501 -0.00000000000E+00 -0.00000000000E+00 -0.51217755222E+01  0.51217780020E+01  0.50400000000E-02 0.  1.
         24    2    1    2    0    0  0.00000000000E+00  0.00000000000E+00  0.30816011112E+03  0.31840366466E+03  0.80113916269E+02 0.  0.
         66    2    3    3    0    0  0.83045379334E+01  0.18022120714E+02  0.29235607784E+03  0.29303555836E+03  0.20000061667E+01 0.  0.
        -13    1    3    3    0    0 -0.83045379334E+01 -0.18022120714E+02  0.15804033280E+02  0.25368106300E+02  0.10566000000E+00 0.  1.
         13    1    4    4    0    0  0.21261240452E+01  0.52867463599E+01  0.95362686029E+02  0.95532838026E+02  0.10566000000E+00 0. -1.
        -13    1    4    4    0    0  0.41811493047E+01  0.80389585145E+01  0.12946296654E+03  0.12977972774E+03  0.10566000000E+00 0.  1.
        -14    1    4    4    0    0  0.19972645834E+01  0.46964158394E+01  0.67530425273E+02  0.67722992588E+02  0.00000000000E+00 0.  1.
<mgrwt>
<rscale>  0 0.80113916E+02</rscale>
<asrwt>0</asrwt>
<pdfrwt beam="1">  1        2 0.48197221E-01 0.80113916E+02</pdfrwt>
<pdfrwt beam="2">  1       -1 0.78796554E-03 0.80113916E+02</pdfrwt>
<totfact> 0.25800734E+05</totfact>
</mgrwt>
</event>
<event>
 8    1  0.2389776E-020  0.7984705E+02  0.7818608E-02  0.1329486E+00
         -1   -1    0    0    0  501 -0.00000000000E+00  0.00000000000E+00  0.27363487373E+02  0.27363487837E+02  0.50400000000E-02 0.  1.
          2   -1    0    0  501    0  0.00000000000E+00 -0.00000000000E+00 -0.58248714354E+02  0.58248714409E+02  0.25500000000E-02 0. -1.
         24    2    1    2    0    0 -0.44408920985E-15  0.00000000000E+00 -0.30885226981E+02  0.85612202246E+02  0.79847053345E+02 0.  0.
         66    2    3    3    0    0 -0.33718475219E+01  0.39754487875E+02 -0.15781626979E+02  0.42951698746E+02  0.20000032745E+01 0.  0.
        -13    1    3    3    0    0  0.33718475219E+01 -0.39754487875E+02 -0.15103600001E+02  0.42660503501E+02  0.10566000000E+00 0.  1.
         13    1    4    4    0    0 -0.28703331286E+01  0.32811145248E+02 -0.13134273851E+02  0.35458854725E+02  0.10566000000E+00 0. -1.
        -13    1    4    4    0    0 -0.71613951665E+00  0.58324356196E+01 -0.21744590540E+01  0.62665458809E+01  0.10566000000E+00 0.  1.
         14    1    4    4    0    0  0.21462512335E+00  0.11109070075E+01 -0.47289407431E+00  0.12262981401E+01  0.00000000000E+00 0. -1.
<mgrwt>
<rscale>  0 0.79847053E+02</rscale>
<asrwt>0</asrwt>
<pdfrwt beam="1">  1        2 0.89613406E-02 0.79847053E+02</pdfrwt>
<pdfrwt beam="2">  1       -1 0.42097674E-02 0.79847053E+02</pdfrwt>
<totfact> 0.15541385E+05</totfact>
</mgrwt>
</event>
<event>
 8    1  0.2389776E-020  0.8090133E+02  0.7818608E-02  0.1326513E+00
          2   -1    0    0  501    0  0.00000000000E+00  0.00000000000E+00  0.82721066792E+01  0.82721070722E+01  0.25500000000E-02 0. -1.
         -1   -1    0    0    0  501 -0.00000000000E+00 -0.00000000000E+00 -0.19780405238E+03  0.19780405244E+03  0.50400000000E-02 0.  1.
         24    2    1    2    0    0  0.00000000000E+00  0.00000000000E+00 -0.18953194570E+03  0.20607615951E+03  0.80901329283E+02 0.  0.
         66    2    3    3    0    0 -0.30230897771E+02 -0.21209326243E+02 -0.52928685757E+02  0.64569253356E+02  0.20000008242E+01 0.  0.
        -13    1    3    3    0    0  0.30230897771E+02  0.21209326243E+02 -0.13660325994E+03  0.14150690616E+03  0.10566000000E+00 0.  1.
         13    1    4    4    0    0 -0.39764918020E+01 -0.21929410169E+01 -0.65581213232E+01  0.79775683438E+01  0.10566000000E+00 0. -1.
        -13    1    4    4    0    0 -0.12039043132E+02 -0.85909589679E+01 -0.20128493702E+02  0.24978201662E+02  0.10566000000E+00 0.  1.
         14    1    4    4    0    0 -0.14215362837E+02 -0.10425426258E+02 -0.26242070732E+02  0.31613483351E+02  0.00000000000E+00 0. -1.
<mgrwt>
<rscale>  0 0.80901329E+02</rscale>
<asrwt>0</asrwt>
<pdfrwt beam="1">  1        2 0.12726320E-02 0.80901329E+02</pdfrwt>
<pdfrwt beam="2">  1       -1 0.30431389E-01 0.80901329E+02</pdfrwt>
<totfact> 0.97126446E+04</totfact>
</mgrwt>
</event>
<event>
 8    1  0.2389776E-020  0.8214345E+02  0.7818608E-02  0.1323076E+00
         -1   -1    0    0    0  501 -0.00000000000E+00  0.00000000000E+00  0.48374976692E+01  0.48375002947E+01  0.50400000000E-02 0.  1.
          2   -1    0    0  501    0  0.00000000000E+00 -0.00000000000E+00 -0.34871046184E+03  0.34871046185E+03  0.25500000000E-02 0. -1.
         24    2    1    2    0    0  0.00000000000E+00 -0.71054273576E-14 -0.34387296417E+03  0.35354796214E+03  0.82143447995E+02 0.  0.
         66    2    3    3    0    0  0.26836150533E+01 -0.40169975126E+02 -0.20648457988E+03  0.21038229589E+03  0.20000012508E+01 0.  0.
        -13    1    3    3    0    0 -0.26836150533E+01  0.40169975126E+02 -0.13738838429E+03  0.14316566625E+03  0.10566000000E+00 0.  1.
         13    1    4    4    0    0  0.10396455276E+00 -0.49839099082E+00 -0.19121495957E+01  0.19815858094E+01  0.10566000000E+00 0. -1.
        -13    1    4    4    0    0  0.14520170397E+01 -0.25645905246E+02 -0.13346346598E+03  0.13591294539E+03  0.10566000000E+00 0.  1.
         14    1    4    4    0    0  0.11276334608E+01 -0.14025678889E+02 -0.71108964305E+02  0.72487764693E+02  0.00000000000E+00 0. -1.
<mgrwt>
<rscale>  0 0.82143448E+02</rscale>
<asrwt>0</asrwt>
<pdfrwt beam="1">  1        2 0.53647744E-01 0.82143448E+02</pdfrwt>
<pdfrwt beam="2">  1       -1 0.74423089E-03 0.82143448E+02</pdfrwt>
<totfact> 0.25112727E+05</totfact>
</mgrwt>
</event>
<event>
 8    1  0.2389776E-020  0.7900014E+02  0.7818608E-02  0.1331913E+00
         -1   -1    0    0    0  501 -0.00000000000E+00  0.00000000000E+00  0.22815444510E+01  0.22815500177E+01  0.50400000000E-02 0.  1.
          2   -1    0    0  501    0  0.00000000000E+00 -0.00000000000E+00 -0.68385855044E+03  0.68385855044E+03  0.25500000000E-02 0. -1.
         24    2    1    2    0    0  0.00000000000E+00  0.00000000000E+00 -0.68157700599E+03  0.68614010046E+03  0.79000141580E+02 0.  0.
         66    2    3    3    0    0 -0.62402564691E+01  0.12715234529E+02 -0.66102553764E+03  0.66118029266E+03  0.20000017266E+01 0.  0.
        -13    1    3    3    0    0  0.62402564691E+01 -0.12715234529E+02 -0.20551468347E+02  0.24959807795E+02  0.10566000000E+00 0.  1.
         13    1    4    4    0    0 -0.19773598213E+01  0.47563580650E+01 -0.24029615450E+03  0.24035138012E+03  0.10566000000E+00 0. -1.
        -13    1    4    4    0    0 -0.72903111252E+00  0.51740704633E+00 -0.35031417757E+02  0.35042982044E+02  0.10566000000E+00 0.  1.
         14    1    4    4    0    0 -0.35338655353E+01  0.74414694171E+01 -0.38569796538E+03  0.38578593050E+03  0.00000000000E+00 0. -1.
<mgrwt>
<rscale>  0 0.79000142E+02</rscale>
<asrwt>0</asrwt>
<pdfrwt beam="1">  1        2 0.10520884E+00 0.79000142E+02</pdfrwt>
<pdfrwt beam="2">  1       -1 0.35100781E-03 0.79000142E+02</pdfrwt>
<totfact> 0.34375453E+05</totfact>
</mgrwt>
</event>
<event>
 8    1  0.2389776E-020  0.8200332E+02  0.7818608E-02  0.1323461E+00
         -1   -1    0    0    0  501 -0.00000000000E+00  0.00000000000E+00  0.68179067940E+01  0.68179086568E+01  0.50400000000E-02 0.  1.
          2   -1    0    0  501    0  0.00000000000E+00 -0.00000000000E+00 -0.24657656209E+03  0.24657656210E+03  0.25500000000E-02 0. -1.
         24    2    1    2    0    0  0.00000000000E+00  0.00000000000E+00 -0.23975865530E+03  0.25339447076E+03  0.82003323240E+02 0.  0.
         66    2    3    3    0    0  0.30503609766E+02  0.21264414028E+02 -0.17315729293E+03  0.17711604559E+03  0.19999998744E+01 0.  0.
        -13    1    3    3    0    0 -0.30503609766E+02 -0.21264414028E+02 -0.66601362370E+02  0.76278425169E+02  0.10566000000E+00 0.  1.
         13    1    4    4    0    0  0.10032242053E+02  0.62577363127E+01 -0.54039951930E+02  0.55318466293E+02  0.10566000000E+00 0. -1.
        -13    1    4    4    0    0  0.17866215708E+00  0.14503904709E+00 -0.14459605972E+01  0.14679654546E+01  0.10566000000E+00 0. -1.
         14    1    4    4    0    0  0.20292705556E+02  0.14861638668E+02 -0.11767138040E+03  0.12032961384E+03  0.00000000000E+00 0. -1.
<mgrwt>
<rscale>  0 0.82003323E+02</rscale>
<asrwt>0</asrwt>
<pdfrwt beam="1">  1        2 0.37934849E-01 0.82003323E+02</pdfrwt>
<pdfrwt beam="2">  1       -1 0.10489091E-02 0.82003323E+02</pdfrwt>
<totfact> 0.22253508E+05</totfact>
</mgrwt>
</event>
<event>
 8    1  0.2389776E-020  0.7897204E+02  0.7818608E-02  0.1331994E+00
          2   -1    0    0  501    0  0.00000000000E+00  0.00000000000E+00  0.42460281061E+03  0.42460281062E+03  0.25500000000E-02 0. -1.
         -1   -1    0    0    0  501 -0.00000000000E+00 -0.00000000000E+00 -0.36720082327E+01  0.36720116915E+01  0.50400000000E-02 0.  1.
         24    2    1    2    0    0 -0.35527136788E-14 -0.35527136788E-14  0.42093080238E+03  0.42827482231E+03  0.78972039571E+02 0.  0.
         66    2    3    3    0    0 -0.27305075016E+02 -0.25622569838E+02  0.27812985658E+03  0.28064621908E+03  0.19999889748E+01 0.  0.
        -13    1    3    3    0    0  0.27305075016E+02  0.25622569838E+02  0.14280094580E+03  0.14762860323E+03  0.10566000000E+00 0.  1.
         13    1    4    4    0    0 -0.16215364546E+02 -0.15254493482E+02  0.16801084188E+03  0.16947947301E+03  0.10566000000E+00 0. -1.
        -13    1    4    4    0    0 -0.20653796402E+01 -0.24466300769E+01  0.25277179450E+02  0.25479379050E+02  0.10566000000E+00 0.  1.
         14    1    4    4    0    0 -0.90243308296E+01 -0.79214462791E+01  0.84841835255E+02  0.85687367024E+02  0.00000000000E+00 0. -1.
<mgrwt>
<rscale>  0 0.78972040E+02</rscale>
<asrwt>0</asrwt>
<pdfrwt beam="1">  1        2 0.65323463E-01 0.78972040E+02</pdfrwt>
<pdfrwt beam="2">  1       -1 0.56492502E-03 0.78972040E+02</pdfrwt>
<totfact> 0.29833747E+05</totfact>
</mgrwt>
</event>
<event>
 8    1  0.2389776E-020  0.7902779E+02  0.7818608E-02  0.1331833E+00
          2   -1    0    0  501    0  0.00000000000E+00  0.00000000000E+00  0.96340380384E+03  0.96340380384E+03  0.25500000000E-02 0. -1.
         -1   -1    0    0    0  501 -0.00000000000E+00 -0.00000000000E+00 -0.16206539108E+01  0.16206617476E+01  0.50400000000E-02 0.  1.
         24    2    1    2    0    0  0.00000000000E+00  0.00000000000E+00  0.96178314993E+03  0.96502446559E+03  0.79027790691E+02 0.  0.
         66    2    3    3    0    0 -0.21977239911E+02  0.22204529596E+02  0.77611957790E+03  0.77675069325E+03  0.20000141220E+01 0.  0.
        -13    1    3    3    0    0  0.21977239911E+02 -0.22204529596E+02  0.18566357203E+03  0.18827377234E+03  0.10566000000E+00 0.  1.
         13    1    4    4    0    0 -0.92967791183E+01  0.97483698196E+01  0.34035436942E+03  0.34062085779E+03  0.10566000000E+00 0. -1.
        -13    1    4    4    0    0 -0.53922168984E+01  0.45559658450E+01  0.16235998030E+03  0.16251340620E+03  0.10566000000E+00 0.  1.
        -14    1    4    4    0    0 -0.72882438943E+01  0.79001939317E+01  0.27340522819E+03  0.27361642926E+03  0.00000000000E+00 0.  1.
<mgrwt>
<rscale>  0 0.79027791E+02</rscale>
<asrwt>0</asrwt>
<pdfrwt beam="1">  1        2 0.14821588E+00 0.79027791E+02</pdfrwt>
<pdfrwt beam="2">  1       -1 0.24933212E-03 0.79027791E+02</pdfrwt>
<totfact> 0.36292614E+05</totfact>
</mgrwt>
</event>
<event>
 8    1  0.2389776E-020  0.8238663E+02  0.7818608E-02  0.1322412E+00
          2   -1    0    0  501    0  0.00000000000E+00  0.00000000000E+00  0.27791528341E+03  0.27791528342E+03  0.25500000000E-02 0. -1.
         -1   -1    0    0    0  501 -0.00000000000E+00 -0.00000000000E+00 -0.61057773279E+01  0.61057794081E+01  0.50400000000E-02 0.  1.
         24    2    1    2    0    0  0.00000000000E+00  0.00000000000E+00  0.27180950608E+03  0.28402106283E+03  0.82386628371E+02 0.  0.
         66    2    3    3    0    0  0.89508382126E+01 -0.34583158244E+02  0.20653226686E+03  0.20960841966E+03  0.19999999231E+01 0.  0.
        -13    1    3    3    0    0 -0.89508382126E+01  0.34583158244E+02  0.65277239223E+02  0.74412643170E+02  0.10566000000E+00 0.  1.
         13    1    4    4    0    0  0.30616279639E+01 -0.93330409720E+01  0.57144853510E+02  0.57982968761E+02  0.10566000000E+00 0. -1.
        -13    1    4    4    0    0  0.12891111211E+01 -0.51210116233E+01  0.27812288683E+02  0.28309382426E+02  0.10566000000E+00 0.  1.
         14    1    4    4    0    0  0.46000991276E+01 -0.20129105649E+02  0.12157512466E+03  0.12331606847E+03  0.00000000000E+00 0. -1.
<mgrwt>
<rscale>  0 0.82386628E+02</rscale>
<asrwt>0</asrwt>
<pdfrwt beam="1">  1        2 0.42756187E-01 0.82386628E+02</pdfrwt>
<pdfrwt beam="2">  1       -1 0.93935075E-03 0.82386628E+02</pdfrwt>
<totfact> 0.22954022E+05</totfact>
</mgrwt>
</event>
<event>
 8    1  0.2389776E-020  0.8007253E+02  0.7818608E-02  0.1328846E+00
         -1   -1    0    0    0  501 -0.00000000000E+00  0.00000000000E+00  0.97482714573E+00  0.97484017441E+00  0.50400000000E-02 0.  1.
          2   -1    0    0  501    0  0.00000000000E+00 -0.00000000000E+00 -0.16442832271E+04  0.16442832271E+04  0.25500000000E-02 0. -1.
         24    2    1    2    0    0  0.00000000000E+00  0.00000000000E+00 -0.16433084000E+04  0.16452580673E+04  0.80072533230E+02 0.  0.
         66    2    3    3    0    0 -0.14577701918E+02 -0.11110689795E+02 -0.15529435534E+04  0.15530530051E+04  0.20000024039E+01 0.  0.
        -13    1    3    3    0    0  0.14577701918E+02  0.11110689795E+02 -0.90364846629E+02  0.92205062178E+02  0.10566000000E+00 0.  1.
         13    1    4    4    0    0 -0.62368296251E+01 -0.54400974671E+01 -0.69205007740E+03  0.69209956907E+03  0.10566000000E+00 0. -1.
        -13    1    4    4    0    0 -0.18322064724E+01 -0.12002496446E+01 -0.23287329432E+03  0.23288361890E+03  0.10566000000E+00 0.  1.
         14    1    4    4    0    0 -0.65086658205E+01 -0.44703426834E+01 -0.62802018163E+03  0.62806981716E+03  0.00000000000E+00 0. -1.
<mgrwt>
<rscale>  0 0.80072533E+02</rscale>
<asrwt>0</asrwt>
<pdfrwt beam="1">  1        2 0.25296443E+00 0.80072533E+02</pdfrwt>
<pdfrwt beam="2">  1       -1 0.14997573E-03 0.80072533E+02</pdfrwt>
<totfact> 0.31839853E+05</totfact>
</mgrwt>
</event>
<event>
 8    1  0.2389776E-020  0.8110299E+02  0.7818608E-02  0.1325950E+00
         -1   -1    0    0    0  501 -0.00000000000E+00  0.00000000000E+00  0.13218564716E+02  0.13218565677E+02  0.50400000000E-02 0.  1.
          2   -1    0    0  501    0  0.00000000000E+00 -0.00000000000E+00 -0.12440257641E+03  0.12440257644E+03  0.25500000000E-02 0. -1.
         24    2    1    2    0    0  0.00000000000E+00  0.00000000000E+00 -0.11118401170E+03  0.13762114212E+03  0.81102985767E+02 0.  0.
         66    2    3    3    0    0 -0.19031897866E+02  0.35109291705E+02 -0.43925552103E+02  0.59399744460E+02  0.20000034848E+01 0.  0.
        -13    1    3    3    0    0  0.19031897866E+02 -0.35109291705E+02 -0.67258459595E+02  0.78221397657E+02  0.10566000000E+00 0.  1.
         13    1    4    4    0    0 -0.51260762204E+01  0.96155607979E+01 -0.11638226018E+02  0.15943498228E+02  0.10566000000E+00 0. -1.
        -13    1    4    4    0    0 -0.73456522372E+01  0.14893277925E+02 -0.19079964600E+02  0.25294753356E+02  0.10566000000E+00 0.  1.
        -14    1    4    4    0    0 -0.65601694081E+01  0.10600452982E+02 -0.13207361485E+02  0.18161492876E+02  0.00000000000E+00 0.  1.
<mgrwt>
<rscale>  0 0.81102986E+02</rscale>
<asrwt>0</asrwt>
<pdfrwt beam="1">  1        2 0.19138857E-01 0.81102986E+02</pdfrwt>
<pdfrwt beam="2">  1       -1 0.20336255E-02 0.81102986E+02</pdfrwt>
<totfact> 0.18213274E+05</totfact>
</mgrwt>
</event>
<event>
 8    1  0.2389776E-020  0.7876702E+02  0.7818608E-02  0.1332587E+00
         -1   -1    0    0    0  501 -0.00000000000E+00  0.00000000000E+00  0.15956166098E+02  0.15956166894E+02  0.50400000000E-02 0.  1.
          2   -1    0    0  501    0  0.00000000000E+00 -0.00000000000E+00 -0.97207606777E+02  0.97207606810E+02  0.25500000000E-02 0. -1.
         24    2    1    2    0    0 -0.71054273576E-14 -0.11102230246E-15 -0.81251440679E+02  0.11316377370E+03  0.78767017633E+02 0.  0.
         66    2    3    3    0    0 -0.36027173742E+02 -0.68827161794E+00 -0.63396271403E+02  0.72948736721E+02  0.19999989372E+01 0.  0.
        -13    1    3    3    0    0  0.36027173742E+02  0.68827161794E+00 -0.17855169276E+02  0.40215036983E+02  0.10566000000E+00 0.  1.
         13    1    4    4    0    0 -0.21321227002E+02 -0.15762499213E+00 -0.37115832629E+02  0.42804389521E+02  0.10566000000E+00 0. -1.
        -13    1    4    4    0    0 -0.64984501496E+00 -0.25460021514E+00 -0.13248371283E+01  0.15011586409E+01  0.10566000000E+00 0. -1.
         14    1    4    4    0    0 -0.14056101726E+02 -0.27604641067E+00 -0.24955601645E+02  0.28643188559E+02  0.00000000000E+00 0. -1.
<mgrwt>
<rscale>  0 0.78767018E+02</rscale>
<asrwt>0</asrwt>
<pdfrwt beam="1">  1        2 0.14955016E-01 0.78767018E+02</pdfrwt>
<pdfrwt beam="2">  1       -1 0.24547949E-02 0.78767018E+02</pdfrwt>
<totfact> 0.18333687E+05</totfact>
</mgrwt>
</event>
<event>
 8    1  0.2389776E-020  0.7957428E+02  0.7818608E-02  0.1330264E+00
         -1   -1    0    0    0  501 -0.00000000000E+00  0.00000000000E+00  0.15508918389E+02  0.15508919208E+02  0.50400000000E-02 0.  1.
          2   -1    0    0  501    0  0.00000000000E+00 -0.00000000000E+00 -0.10207136983E+03  0.10207136986E+03  0.25500000000E-02 0. -1.
         24    2    1    2    0    0 -0.35527136788E-14  0.00000000000E+00 -0.86562451442E+02  0.11758028907E+03  0.79574282143E+02 0.  0.
         66    2    3    3    0    0 -0.30609228602E+02  0.24368684839E+01 -0.80635452812E+02  0.86307238686E+02  0.19999989516E+01 0.  0.
        -13    1    3    3    0    0  0.30609228602E+02 -0.24368684839E+01 -0.59269986301E+01  0.31273050385E+02  0.10566000000E+00 0.  1.
         13    1    4    4    0    0 -0.13881020234E+02  0.54035625210E+00 -0.36523322873E+02  0.39076066656E+02  0.10566000000E+00 0. -1.
        -13    1    4    4    0    0 -0.14717005353E+01  0.31123470684E+00 -0.31787255742E+01  0.35182708565E+01  0.10566000000E+00 0.  1.
         14    1    4    4    0    0 -0.15256507833E+02  0.15852775250E+01 -0.40933404365E+02  0.43712901174E+02  0.00000000000E+00 0. -1.
<mgrwt>
<rscale>  0 0.79574282E+02</rscale>
<asrwt>0</asrwt>
<pdfrwt beam="1">  1        2 0.15703287E-01 0.79574282E+02</pdfrwt>
<pdfrwt beam="2">  1       -1 0.23859876E-02 0.79574282E+02</pdfrwt>
<totfact> 0.18084697E+05</totfact>
</mgrwt>
</event>
<event>
 8    1  0.2389776E-020  0.7911840E+02  0.7818608E-02  0.1331572E+00
          2   -1    0    0  501    0  0.00000000000E+00  0.00000000000E+00  0.71735830983E+03  0.71735830984E+03  0.25500000000E-02 0. -1.
         -1   -1    0    0    0  501 -0.00000000000E+00 -0.00000000000E+00 -0.21815151979E+01  0.21815210199E+01  0.50400000000E-02 0.  1.
         24    2    1    2    0    0  0.00000000000E+00  0.00000000000E+00  0.71517679463E+03  0.71953983086E+03  0.79118396128E+02 0.  0.
         66    2    3    3    0    0 -0.10219404037E+02 -0.28334894348E+02  0.59068134275E+03  0.59145223910E+03  0.20000035083E+01 0.  0.
        -13    1    3    3    0    0  0.10219404037E+02  0.28334894348E+02  0.12449545189E+03  0.12808759175E+03  0.10566000000E+00 0.  1.
         13    1    4    4    0    0 -0.32603167362E+01 -0.88270874998E+01  0.19676480014E+03  0.19698970754E+03  0.10566000000E+00 0. -1.
        -13    1    4    4    0    0 -0.34623225168E+01 -0.10259458009E+02  0.19503999988E+03  0.19534036161E+03  0.10566000000E+00 0.  1.
        -14    1    4    4    0    0 -0.34967647840E+01 -0.92483488388E+01  0.19887654273E+03  0.19912216996E+03  0.00000000000E+00 0.  1.
<mgrwt>
<rscale>  0 0.79118396E+02</rscale>
<asrwt>0</asrwt>
<pdfrwt beam="1">  1        2 0.11036289E+00 0.79118396E+02</pdfrwt>
<pdfrwt beam="2">  1       -1 0.33561795E-03 0.79118396E+02</pdfrwt>
<totfact> 0.34618257E+05</totfact>
</mgrwt>
</event>
<event>
 8    1  0.2389776E-020  0.7244608E+02  0.7818608E-02  0.1351967E+00
          2   -1    0    0  501    0  0.00000000000E+00  0.00000000000E+00  0.27550541688E+03  0.27550541689E+03  0.25500000000E-02 0. -1.
         -1   -1    0    0    0  501 -0.00000000000E+00 -0.00000000000E+00 -0.47625495830E+01  0.47625522498E+01  0.50400000000E-02 0.  1.
         24    2    1    2    0    0  0.00000000000E+00 -0.35527136788E-14  0.27074286729E+03  0.28026796914E+03  0.72446078807E+02 0.  0.
         66    2    3    3    0    0  0.24827092099E+02  0.22728091058E+02  0.18696551563E+03  0.18998172190E+03  0.19999986490E+01 0.  0.
        -13    1    3    3    0    0 -0.24827092099E+02 -0.22728091058E+02  0.83777351662E+02  0.90286247241E+02  0.10566000000E+00 0.  1.
         13    1    4    4    0    0  0.14432398663E+02  0.13333996080E+02  0.10682808823E+03  0.10862016931E+03  0.10566000000E+00 0. -1.
        -13    1    4    4    0    0  0.45857562854E+01  0.39992548743E+01  0.38136573047E+02  0.38619070005E+02  0.10566000000E+00 0.  1.
         14    1    4    4    0    0  0.58089371512E+01  0.53948401035E+01  0.42000854359E+02  0.42742482584E+02  0.00000000000E+00 0. -1.
<mgrwt>
<rscale>  0 0.72446079E+02</rscale>
<asrwt>0</asrwt>
<pdfrwt beam="1">  1        2 0.42385450E-01 0.72446079E+02</pdfrwt>
<pdfrwt beam="2">  1       -1 0.73270012E-03 0.72446079E+02</pdfrwt>
<totfact> 0.32025090E+05</totfact>
</mgrwt>
</event>
