<event>
 8    1  0.2676873E-024  0.7729765E+02  0.7818608E-02  0.1336900E+00
         -1   -1    0    0    0  501 -0.00000000000E+00  0.00000000000E+00  0.33736297361E+01  0.33736335008E+01  0.50400000000E-02 0.  1.
          2   -1    0    0  501    0  0.00000000000E+00 -0.00000000000E+00 -0.44276673468E+03  0.44276673468E+03  0.25500000000E-02 0. -1.
         24    2    1    2    0    0  0.00000000000E+00  0.35527136788E-14 -0.43939310494E+03  0.44614036818E+03  0.77297654911E+02 0.  0.
         66    2    3    3    0    0  0.25899825858E+02  0.28514015670E+02 -0.23604200027E+03  0.23917289972E+03  0.19999996118E+01 0.  0.
        -13    1    3    3    0    0 -0.25899825858E+02 -0.28514015670E+02 -0.20335110467E+03  0.20696746846E+03  0.10566000000E+00 0.  1.
         13    1    4    4    0    0  0.12749431510E+02  0.14973420999E+02 -0.12341189548E+03  0.12496902997E+03  0.10566000000E+00 0.  1.
        -13    1    4    4    0    0  0.11059042339E+02  0.11787793268E+02 -0.95842940886E+02  0.97196373232E+02  0.10566000000E+00 0. -1.
        -14    1    4    4    0    0  0.20913520090E+01  0.17528014029E+01 -0.16787163903E+02  0.17007496521E+02  0.00000000000E+00 0.  1.
<mgrwt>
<rscale>  0 0.77297655E+02</rscale>
<asrwt>0</asrwt>
<pdfrwt beam="1">  1        2 0.68117913E-01 0.77297655E+02</pdfrwt>
<pdfrwt beam="2">  1       -1 0.51902060E-03 0.77297655E+02</pdfrwt>
<totfact> 0.31998196E+05</totfact>
</mgrwt>
</event>
<event>
 8    1  0.2676873E-024  0.7902405E+02  0.7818608E-02  0.1331844E+00
          2   -1    0    0  501    0  0.00000000000E+00  0.00000000000E+00  0.63572908429E+02  0.63572908480E+02  0.25500000000E-02 0. -1.
         -1   -1    0    0    0  501 -0.00000000000E+00 -0.00000000000E+00 -0.24557630475E+02  0.24557630992E+02  0.50400000000E-02 0.  1.
         24    2    1    2    0    0  0.00000000000E+00  0.00000000000E+00  0.39015277954E+02  0.88130539472E+02  0.79024047440E+02 0.  0.
         66    2    3    3    0    0 -0.64575249414E+01  0.32063386200E+02  0.44192678053E+02  0.55015935461E+02  0.19999995317E+01 0.  0.
        -13    1    3    3    0    0  0.64575249414E+01 -0.32063386200E+02 -0.51774000985E+01  0.33114604011E+02  0.10566000000E+00 0.  1.
         13    1    4    4    0    0 -0.28255471304E+01  0.14619631368E+02  0.20557890643E+02  0.25384155878E+02  0.10566000000E+00 0. -1.
        -13    1    4    4    0    0 -0.31193101312E+01  0.11915070271E+02  0.16022173497E+02  0.20209408771E+02  0.10566000000E+00 0.  1.
        -14    1    4    4    0    0 -0.51266767991E+00  0.55286845609E+01  0.76126139130E+01  0.94223708117E+01  0.00000000000E+00 0.  1.
<mgrwt>
<rscale>  0 0.79024047E+02</rscale>
<asrwt>0</asrwt>
<pdfrwt beam="1">  1        2 0.97804472E-02 0.79024047E+02</pdfrwt>
<pdfrwt beam="2">  1       -1 0.37780971E-02 0.79024047E+02</pdfrwt>
<totfact> 0.16311975E+05</totfact>
</mgrwt>
</event>
<event>
 8    1  0.2676873E-024  0.8005115E+02  0.7818608E-02  0.1328906E+00
         -1   -1    0    0    0  501 -0.00000000000E+00  0.00000000000E+00  0.16843749145E+02  0.16843749899E+02  0.50400000000E-02 0.  1.
          2   -1    0    0  501    0  0.00000000000E+00 -0.00000000000E+00 -0.95112240070E+02  0.95112240104E+02  0.25500000000E-02 0. -1.
         24    2    1    2    0    0  0.00000000000E+00 -0.17763568394E-14 -0.78268490926E+02  0.11195599000E+03  0.80051152558E+02 0.  0.
         66    2    3    3    0    0  0.26494231253E+01  0.12389891615E+02 -0.92221083460E+02  0.93108845403E+02  0.20000001615E+01 0.  0.
        -13    1    3    3    0    0 -0.26494231253E+01 -0.12389891615E+02  0.13952592534E+02  0.18847144600E+02  0.10566000000E+00 0.  1.
         13    1    4    4    0    0  0.36121589776E+00  0.24521128225E+01 -0.13915676198E+02  0.14135081970E+02  0.10566000000E+00 0. -1.
        -13    1    4    4    0    0  0.42593296829E+00  0.68792054183E+00 -0.59015402231E+01  0.59576836612E+01  0.10566000000E+00 0.  1.
         14    1    4    4    0    0  0.18622742593E+01  0.92498582507E+01 -0.72403867039E+02  0.73016079772E+02  0.00000000000E+00 0. -1.
<mgrwt>
<rscale>  0 0.80051153E+02</rscale>
<asrwt>0</asrwt>
<pdfrwt beam="1">  1        2 0.14632652E-01 0.80051153E+02</pdfrwt>
<pdfrwt beam="2">  1       -1 0.25913462E-02 0.80051153E+02</pdfrwt>
<totfact> 0.17451305E+05</totfact>
</mgrwt>
</event>
<event>
 8    1  0.2676873E-024  0.7998080E+02  0.7818608E-02  0.1329106E+00
          2   -1    0    0  501    0  0.00000000000E+00  0.00000000000E+00  0.26271200846E+03  0.26271200847E+03  0.25500000000E-02 0. -1.
         -1   -1    0    0    0  501 -0.00000000000E+00 -0.00000000000E+00 -0.60873951763E+01  0.60873972627E+01  0.50400000000E-02 0.  1.
         24    2    1    2    0    0  0.00000000000E+00  0.00000000000E+00  0.25662461328E+03  0.26879940573E+03  0.79980800074E+02 0.  0.
         66    2    3    3    0    0 -0.30761056759E+02  0.53881671598E+01  0.21220718256E+03  0.21450212888E+03  0.20000008767E+01 0.  0.
        -13    1    3    3    0    0  0.30761056759E+02 -0.53881671598E+01  0.44417430721E+02  0.54297276857E+02  0.10566000000E+00 0.  1.
         13    1    4    4    0    0 -0.21199248379E+02  0.32154996712E+01  0.14689370101E+03  0.14845038946E+03  0.10566000000E+00 0. -1.
        -13    1    4    4    0    0 -0.89689589876E+01  0.22532238641E+01  0.61598552580E+02  0.62288940327E+02  0.10566000000E+00 0.  1.
        -14    1    4    4    0    0 -0.59284939236E+00 -0.80556375559E-01  0.37149289716E+01  0.37627990905E+01  0.00000000000E+00 0.  1.
<mgrwt>
<rscale>  0 0.79980800E+02</rscale>
<asrwt>0</asrwt>
<pdfrwt beam="1">  1        2 0.40417244E-01 0.79980800E+02</pdfrwt>
<pdfrwt beam="2">  1       -1 0.93652223E-03 0.79980800E+02</pdfrwt>
<totfact> 0.24313512E+05</totfact>
</mgrwt>
</event>
<event>
 8    1  0.2676873E-024  0.8320923E+02  0.7818608E-02  0.1320183E+00
          2   -1    0    0  501    0  0.00000000000E+00  0.00000000000E+00  0.15818705721E+03  0.15818705723E+03  0.25500000000E-02 0. -1.
         -1   -1    0    0    0  501 -0.00000000000E+00 -0.00000000000E+00 -0.10942387241E+02  0.10942388402E+02  0.50400000000E-02 0.  1.
         24    2    1    2    0    0  0.00000000000E+00  0.00000000000E+00  0.14724466997E+03  0.16912944563E+03  0.83209233537E+02 0.  0.
         66    2    3    3    0    0  0.37955475368E+02  0.81802772123E+00  0.10813792468E+03  0.11462590473E+03  0.20000002685E+01 0.  0.
        -13    1    3    3    0    0 -0.37955475368E+02 -0.81802772123E+00  0.39106745283E+02  0.54503540898E+02  0.10566000000E+00 0.  1.
         13    1    4    4    0    0  0.61550031132E+01 -0.38998173284E+00  0.16896857254E+02  0.17987526183E+02  0.10566000000E+00 0. -1.
        -13    1    4    4    0    0  0.27204630795E+02  0.83873251692E+00  0.79058486385E+02  0.83612504103E+02  0.10566000000E+00 0.  1.
        -14    1    4    4    0    0  0.45958414605E+01  0.36927693715E+00  0.12182581045E+02  0.13025874446E+02  0.00000000000E+00 0.  1.
<mgrwt>
<rscale>  0 0.83209234E+02</rscale>
<asrwt>0</asrwt>
<pdfrwt beam="1">  1        2 0.24336470E-01 0.83209234E+02</pdfrwt>
<pdfrwt beam="2">  1       -1 0.16834443E-02 0.83209234E+02</pdfrwt>
<totfact> 0.18357037E+05</totfact>
</mgrwt>
</event>
<event>
 8    1  0.2676873E-024  0.7981234E+02  0.7818608E-02  0.1329585E+00
         -1   -1    0    0    0  501 -0.00000000000E+00  0.00000000000E+00  0.20087289256E+01  0.20087352484E+01  0.50400000000E-02 0.  1.
          2   -1    0    0  501    0  0.00000000000E+00 -0.00000000000E+00 -0.79278991665E+03  0.79278991665E+03  0.25500000000E-02 0. -1.
         24    2    1    2    0    0  0.17763568394E-14  0.35527136788E-14 -0.79078118772E+03  0.79479865190E+03  0.79812343702E+02 0.  0.
         66    2    3    3    0    0 -0.14780374046E+02 -0.10480123081E+02 -0.74943346215E+03  0.74965512511E+03  0.19999955924E+01 0.  0.
        -13    1    3    3    0    0  0.14780374046E+02  0.10480123081E+02 -0.41347725574E+02  0.45143526788E+02  0.10566000000E+00 0.  1.
         13    1    4    4    0    0 -0.73344319206E+00 -0.36408043289E+00 -0.28119948381E+02  0.28132066302E+02  0.10566000000E+00 0. -1.
        -13    1    4    4    0    0 -0.10219496791E+01 -0.12976687130E+01 -0.64616776695E+02  0.64637971191E+02  0.10566000000E+00 0.  1.
        -14    1    4    4    0    0 -0.13024981175E+02 -0.88183739347E+01 -0.65669673707E+03  0.65688508762E+03  0.00000000000E+00 0.  1.
<mgrwt>
<rscale>  0 0.79812344E+02</rscale>
<asrwt>0</asrwt>
<pdfrwt beam="1">  1        2 0.12196743E+00 0.79812344E+02</pdfrwt>
<pdfrwt beam="2">  1       -1 0.30903634E-03 0.79812344E+02</pdfrwt>
<totfact> 0.34521305E+05</totfact>
</mgrwt>
</event>
<event>
 8    1  0.2676873E-024  0.7981791E+02  0.7818608E-02  0.1329569E+00
          2   -1    0    0  501    0  0.00000000000E+00  0.00000000000E+00  0.18761186834E+02  0.18761187007E+02  0.25500000000E-02 0. -1.
         -1   -1    0    0    0  501 -0.00000000000E+00 -0.00000000000E+00 -0.84894660495E+02  0.84894660644E+02  0.50400000000E-02 0.  1.
         24    2    1    2    0    0  0.00000000000E+00  0.00000000000E+00 -0.66133473661E+02  0.10365584765E+03  0.79817907852E+02 0.  0.
         66    2    3    3    0    0  0.20329447346E+02  0.22602788376E-01  0.11474235804E+02  0.23429575940E+02  0.20000002986E+01 0.  0.
        -13    1    3    3    0    0 -0.20329447346E+02 -0.22602788376E-01 -0.77607709465E+02  0.80226271711E+02  0.10566000000E+00 0.  1.
         13    1    4    4    0    0  0.38411514551E+01 -0.31906606904E+00  0.20306837772E+01  0.43578765811E+01  0.10566000000E+00 0. -1.
        -13    1    4    4    0    0  0.15696700909E+02  0.40471221045E+00  0.93419917515E+01  0.18271129831E+02  0.10566000000E+00 0.  1.
        -14    1    4    4    0    0  0.79159498180E+00 -0.63043353043E-01  0.10156027526E+00  0.80056952795E+00  0.00000000000E+00 0.  1.
<mgrwt>
<rscale>  0 0.79817908E+02</rscale>
<asrwt>0</asrwt>
<pdfrwt beam="1">  1        2 0.28863365E-02 0.79817908E+02</pdfrwt>
<pdfrwt beam="2">  1       -1 0.13060717E-01 0.79817908E+02</pdfrwt>
<totfact> 0.12335911E+05</totfact>
</mgrwt>
</event>
<event>
 8    1  0.2676873E-024  0.7957247E+02  0.7818608E-02  0.1330269E+00
          2   -1    0    0  501    0  0.00000000000E+00  0.00000000000E+00  0.16282115940E+03  0.16282115942E+03  0.25500000000E-02 0. -1.
         -1   -1    0    0    0  501 -0.00000000000E+00 -0.00000000000E+00 -0.97219818816E+01  0.97219831880E+01  0.50400000000E-02 0.  1.
         24    2    1    2    0    0  0.00000000000E+00  0.00000000000E+00  0.15309917752E+03  0.17254314261E+03  0.79572469512E+02 0.  0.
         66    2    3    3    0    0  0.12832787247E+02 -0.37102796525E+02  0.90250255063E+02  0.98439862274E+02  0.20000017721E+01 0.  0.
        -13    1    3    3    0    0 -0.12832787247E+02  0.37102796525E+02  0.62848922457E+02  0.74103280336E+02  0.10566000000E+00 0.  1.
         13    1    4    4    0    0  0.90847641158E+01 -0.26873526071E+02  0.66241000237E+02  0.72059701768E+02  0.10566000000E+00 0. -1.
        -13    1    4    4    0    0  0.35634734739E+01 -0.92903788308E+01  0.22342152889E+02  0.24457972970E+02  0.10566000000E+00 0.  1.
        -14    1    4    4    0    0  0.18454965738E+00 -0.93889162272E+00  0.16671019371E+01  0.19221875361E+01  0.00000000000E+00 0.  1.
<mgrwt>
<rscale>  0 0.79572470E+02</rscale>
<asrwt>0</asrwt>
<pdfrwt beam="1">  1        2 0.25049410E-01 0.79572470E+02</pdfrwt>
<pdfrwt beam="2">  1       -1 0.14956896E-02 0.79572470E+02</pdfrwt>
<totfact> 0.20866854E+05</totfact>
</mgrwt>
</event>
<event>
 8    1  0.2676873E-024  0.8197898E+02  0.7818608E-02  0.1323527E+00
         -1   -1    0    0    0  501 -0.00000000000E+00  0.00000000000E+00  0.22935187744E+01  0.22935243121E+01  0.50400000000E-02 0.  1.
          2   -1    0    0  501    0  0.00000000000E+00 -0.00000000000E+00 -0.73255840594E+03  0.73255840594E+03  0.25500000000E-02 0. -1.
         24    2    1    2    0    0  0.71054273576E-14  0.00000000000E+00 -0.73026488716E+03  0.73485193025E+03  0.81978984958E+02 0.  0.
         66    2    3    3    0    0 -0.25981163042E+02 -0.24327135478E+02 -0.54714264692E+03  0.54830275071E+03  0.20000004910E+01 0.  0.
        -13    1    3    3    0    0  0.25981163042E+02  0.24327135478E+02 -0.18312224024E+03  0.18654917954E+03  0.10566000000E+00 0.  1.
         13    1    4    4    0    0 -0.87853877117E+01 -0.77076076436E+01 -0.18110887282E+03  0.18148560613E+03  0.10566000000E+00 0. -1.
        -13    1    4    4    0    0 -0.14356137878E+01 -0.16891624766E+01 -0.28870782013E+02  0.28955957503E+02  0.10566000000E+00 0.  1.
         14    1    4    4    0    0 -0.15760161542E+02 -0.14930365357E+02 -0.33716299209E+03  0.33786118708E+03  0.00000000000E+00 0. -1.
<mgrwt>
<rscale>  0 0.81978985E+02</rscale>
<asrwt>0</asrwt>
<pdfrwt beam="1">  1        2 0.11270111E+00 0.81978985E+02</pdfrwt>
<pdfrwt beam="2">  1       -1 0.35285005E-03 0.81978985E+02</pdfrwt>
<totfact> 0.31706706E+05</totfact>
</mgrwt>
</event>
<event>
 8    1  0.2676873E-024  0.7979739E+02  0.7818608E-02  0.1329627E+00
          2   -1    0    0  501    0  0.00000000000E+00  0.00000000000E+00  0.24277693967E+03  0.24277693968E+03  0.25500000000E-02 0. -1.
         -1   -1    0    0    0  501 -0.00000000000E+00 -0.00000000000E+00 -0.65570710579E+01  0.65570729948E+01  0.50400000000E-02 0.  1.
         24    2    1    2    0    0  0.17763568394E-14  0.00000000000E+00  0.23621986861E+03  0.24933401268E+03  0.79797390628E+02 0.  0.
         66    2    3    3    0    0  0.10255568261E+02  0.28806926056E+02  0.19814441081E+03  0.20049993319E+03  0.20000005384E+01 0.  0.
        -13    1    3    3    0    0 -0.10255568261E+02 -0.28806926056E+02  0.38075457798E+02  0.48834079490E+02  0.10566000000E+00 0.  1.
         13    1    4    4    0    0  0.20497394568E+01  0.47454554594E+01  0.31672598756E+02  0.32091828483E+02  0.10566000000E+00 0. -1.
        -13    1    4    4    0    0  0.51338354825E+01  0.12809119038E+02  0.90287801963E+02  0.91336346241E+02  0.10566000000E+00 0.  1.
         14    1    4    4    0    0  0.30719933216E+01  0.11252351558E+02  0.76184010095E+02  0.77071758464E+02  0.00000000000E+00 0. -1.
<mgrwt>
<rscale>  0 0.79797391E+02</rscale>
<asrwt>0</asrwt>
<pdfrwt beam="1">  1        2 0.37350298E-01 0.79797391E+02</pdfrwt>
<pdfrwt beam="2">  1       -1 0.10087803E-02 0.79797391E+02</pdfrwt>
<totfact> 0.23777402E+05</totfact>
</mgrwt>
</event>
<event>
 8    1  0.2676873E-024  0.7944379E+02  0.7818608E-02  0.1330637E+00
         -1   -1    0    0    0  501 -0.00000000000E+00  0.00000000000E+00  0.53818506070E+01  0.53818529669E+01  0.50400000000E-02 0.  1.
          2   -1    0    0  501    0  0.00000000000E+00 -0.00000000000E+00 -0.29317580701E+03  0.29317580702E+03  0.25500000000E-02 0. -1.
         24    2    1    2    0    0  0.00000000000E+00  0.00000000000E+00 -0.28779395640E+03  0.29855765999E+03  0.79443785128E+02 0.  0.
         66    2    3    3    0    0  0.33077225463E+02  0.15961045798E+02 -0.87370686885E+02  0.94797124173E+02  0.19999993482E+01 0.  0.
        -13    1    3    3    0    0 -0.33077225463E+02 -0.15961045798E+02 -0.20042326952E+03  0.20376053581E+03  0.10566000000E+00 0.  1.
         13    1    4    4    0    0  0.27681996453E+02  0.13300305646E+02 -0.74059674816E+02  0.80175043846E+02  0.10566000000E+00 0. -1.
        -13    1    4    4    0    0  0.24034544113E+01  0.15167004176E+01 -0.65457018362E+01  0.71368305169E+01  0.10566000000E+00 0.  1.
         14    1    4    4    0    0  0.29917745987E+01  0.11440397350E+01 -0.67653102334E+01  0.74852498100E+01  0.00000000000E+00 0. -1.
<mgrwt>
<rscale>  0 0.79443785E+02</rscale>
<asrwt>0</asrwt>
<pdfrwt beam="1">  1        2 0.45103958E-01 0.79443785E+02</pdfrwt>
<pdfrwt beam="2">  1       -1 0.82797743E-03 0.79443785E+02</pdfrwt>
<totfact> 0.25749633E+05</totfact>
</mgrwt>
</event>
<event>
 8    1  0.2676873E-024  0.7836767E+02  0.7818608E-02  0.1333749E+00
         -1   -1    0    0    0  501 -0.00000000000E+00  0.00000000000E+00  0.31212227319E+02  0.31212227726E+02  0.50400000000E-02 0.  1.
          2   -1    0    0  501    0  0.00000000000E+00 -0.00000000000E+00 -0.49191390411E+02  0.49191390477E+02  0.25500000000E-02 0. -1.
         24    2    1    2    0    0  0.17763568394E-14  0.00000000000E+00 -0.17979163092E+02  0.80403618203E+02  0.78367668810E+02 0.  0.
         66    2    3    3    0    0 -0.14719248864E+02  0.28914200544E+02 -0.31489435987E+02  0.45257837262E+02  0.19999936563E+01 0.  0.
        -13    1    3    3    0    0  0.14719248864E+02 -0.28914200544E+02  0.13510272895E+02  0.35145780941E+02  0.10566000000E+00 0.  1.
         13    1    4    4    0    0 -0.54359953113E+01  0.12066143130E+02 -0.12130399916E+02  0.17952705123E+02  0.10566000000E+00 0. -1.
        -13    1    4    4    0    0 -0.85453145733E+01  0.15825250899E+02 -0.17868883139E+02  0.25352891667E+02  0.10566000000E+00 0.  1.
        -14    1    4    4    0    0 -0.73793897913E+00  0.10228065153E+01 -0.14901529310E+01  0.19522404725E+01  0.00000000000E+00 0.  1.
<mgrwt>
<rscale>  0 0.78367669E+02</rscale>
<asrwt>0</asrwt>
<pdfrwt beam="1">  1        2 0.75679062E-02 0.78367669E+02</pdfrwt>
<pdfrwt beam="2">  1       -1 0.48018812E-02 0.78367669E+02</pdfrwt>
<totfact> 0.15754482E+05</totfact>
</mgrwt>
</event>
<event>
 8    1  0.2676873E-024  0.7692477E+02  0.7818608E-02  0.1338012E+00
         -1   -1    0    0    0  501 -0.00000000000E+00  0.00000000000E+00  0.32231893375E+01  0.32231932780E+01  0.50400000000E-02 0.  1.
          2   -1    0    0  501    0  0.00000000000E+00 -0.00000000000E+00 -0.45897216996E+03  0.45897216997E+03  0.25500000000E-02 0. -1.
         24    2    1    2    0    0  0.00000000000E+00  0.71054273576E-14 -0.45574898062E+03  0.46219536325E+03  0.76924771477E+02 0.  0.
         66    2    3    3    0    0  0.82560524977E+01 -0.36491131002E+02 -0.28095161371E+03  0.28343883697E+03  0.20000020746E+01 0.  0.
        -13    1    3    3    0    0 -0.82560524977E+01  0.36491131002E+02 -0.17479736691E+03  0.17875652628E+03  0.10566000000E+00 0.  1.
         13    1    4    4    0    0  0.91961581835E+00 -0.22146377870E+01 -0.17735567427E+02  0.17897257605E+02  0.10566000000E+00 0. -1.
        -13    1    4    4    0    0  0.32029099517E+01 -0.14021482030E+02 -0.11124445462E+03  0.11217040803E+03  0.10566000000E+00 0.  1.
         14    1    4    4    0    0  0.41335267276E+01 -0.20255011185E+02 -0.15197159167E+03  0.15337117133E+03  0.00000000000E+00 0. -1.
<mgrwt>
<rscale>  0 0.76924771E+02</rscale>
<asrwt>0</asrwt>
<pdfrwt beam="1">  1        2 0.70611051E-01 0.76924771E+02</pdfrwt>
<pdfrwt beam="2">  1       -1 0.49587595E-03 0.76924771E+02</pdfrwt>
<totfact> 0.32794776E+05</totfact>
</mgrwt>
</event>
<event>
 8    1  0.2676873E-024  0.7902507E+02  0.7818608E-02  0.1331841E+00
          2   -1    0    0  501    0  0.00000000000E+00  0.00000000000E+00  0.21864243305E+03  0.21864243307E+03  0.25500000000E-02 0. -1.
         -1   -1    0    0    0  501 -0.00000000000E+00 -0.00000000000E+00 -0.71406096759E+01  0.71406114546E+01  0.50400000000E-02 0.  1.
         24    2    1    2    0    0  0.00000000000E+00  0.00000000000E+00  0.21150182338E+03  0.22578304452E+03  0.79025071351E+02 0.  0.
         66    2    3    3    0    0 -0.24867535132E+02  0.18516974501E+02  0.17568408122E+03  0.17841011485E+03  0.20000098915E+01 0.  0.
        -13    1    3    3    0    0  0.24867535132E+02 -0.18516974501E+02  0.35817742157E+02  0.47372929670E+02  0.10566000000E+00 0.  1.
         13    1    4    4    0    0 -0.93918621422E+01  0.72203381313E+01  0.67374250774E+02  0.68407902969E+02  0.10566000000E+00 0. -1.
        -13    1    4    4    0    0 -0.13166062951E+02  0.95160263157E+01  0.94716823357E+02  0.96099884295E+02  0.10566000000E+00 0.  1.
        -14    1    4    4    0    0 -0.23096100383E+01  0.17806100545E+01  0.13593007090E+02  0.13902327591E+02  0.00000000000E+00 0.  1.
<mgrwt>
<rscale>  0 0.79025071E+02</rscale>
<asrwt>0</asrwt>
<pdfrwt beam="1">  1        2 0.33637289E-01 0.79025071E+02</pdfrwt>
<pdfrwt beam="2">  1       -1 0.10985557E-02 0.79025071E+02</pdfrwt>
<totfact> 0.23504181E+05</totfact>
</mgrwt>
</event>
<event>
 8    1  0.2676873E-024  0.7970173E+02  0.7818608E-02  0.1329900E+00
          2   -1    0    0  501    0  0.00000000000E+00  0.00000000000E+00  0.42674090198E+02  0.42674090274E+02  0.25500000000E-02 0. -1.
         -1   -1    0    0    0  501 -0.00000000000E+00 -0.00000000000E+00 -0.37214422415E+02  0.37214422756E+02  0.50400000000E-02 0.  1.
         24    2    1    2    0    0  0.00000000000E+00  0.00000000000E+00  0.54596677824E+01  0.79888513030E+02  0.79701734874E+02 0.  0.
         66    2    3    3    0    0 -0.43146080882E+01  0.11505144950E+02  0.40703071259E+02  0.42564353885E+02  0.20000021035E+01 0.  0.
        -13    1    3    3    0    0  0.43146080882E+01 -0.11505144950E+02 -0.35243403477E+02  0.37324159146E+02  0.10566000000E+00 0.  1.
         13    1    4    4    0    0 -0.38563100212E+01  0.85974965591E+01  0.30740407548E+02  0.32152323311E+02  0.10566000000E+00 0. -1.
        -13    1    4    4    0    0  0.60658959412E-01  0.41521835072E+00  0.90101523436E+00  0.99953903189E+00  0.10566000000E+00 0.  1.
         14    1    4    4    0    0 -0.51895702645E+00  0.24924300406E+01  0.90616484766E+01  0.94124915414E+01  0.00000000000E+00 0. -1.
<mgrwt>
<rscale>  0 0.79701735E+02</rscale>
<asrwt>0</asrwt>
<pdfrwt beam="1">  1        2 0.65652446E-02 0.79701735E+02</pdfrwt>
<pdfrwt beam="2">  1       -1 0.57252958E-02 0.79701735E+02</pdfrwt>
<totfact> 0.14596917E+05</totfact>
</mgrwt>
</event>
<event>
 8    1  0.2676873E-024  0.7941033E+02  0.7818608E-02  0.1330733E+00
         -1   -1    0    0    0  501 -0.00000000000E+00  0.00000000000E+00  0.33135176870E+01  0.33135215200E+01  0.50400000000E-02 0.  1.
          2   -1    0    0  501    0  0.00000000000E+00 -0.00000000000E+00 -0.47577814738E+03  0.47577814739E+03  0.25500000000E-02 0. -1.
         24    2    1    2    0    0  0.00000000000E+00  0.00000000000E+00 -0.47246462970E+03  0.47909166891E+03  0.79410332483E+02 0.  0.
         66    2    3    3    0    0 -0.53124514492E+01  0.37421902650E+02 -0.30924876900E+03  0.31155645086E+03  0.20000024333E+01 0.  0.
        -13    1    3    3    0    0  0.53124514492E+01 -0.37421902650E+02 -0.16321586070E+03  0.16753521805E+03  0.10566000000E+00 0.  1.
         13    1    4    4    0    0 -0.13635283584E+01  0.79936547160E+01 -0.65293389522E+02  0.65795103197E+02  0.10566000000E+00 0. -1.
        -13    1    4    4    0    0 -0.19797043399E+01  0.12679914704E+02 -0.11189511474E+03  0.11262871451E+03  0.10566000000E+00 0.  1.
        -14    1    4    4    0    0 -0.19692187509E+01  0.16748333230E+02 -0.13206026473E+03  0.13313263315E+03  0.00000000000E+00 0.  1.
<mgrwt>
<rscale>  0 0.79410332E+02</rscale>
<asrwt>0</asrwt>
<pdfrwt beam="1">  1        2 0.73196584E-01 0.79410332E+02</pdfrwt>
<pdfrwt beam="2">  1       -1 0.50977262E-03 0.79410332E+02</pdfrwt>
<totfact> 0.30550277E+05</totfact>
</mgrwt>
</event>
<event>
 8    1  0.2676873E-024  0.8077882E+02  0.7818608E-02  0.1326856E+00
         -1   -1    0    0    0  501 -0.00000000000E+00  0.00000000000E+00  0.40019348402E+02  0.40019348719E+02  0.50400000000E-02 0.  1.
          2   -1    0    0  501    0  0.00000000000E+00 -0.00000000000E+00 -0.40762896569E+02  0.40762896649E+02  0.25500000000E-02 0. -1.
         24    2    1    2    0    0  0.00000000000E+00  0.00000000000E+00 -0.74354816731E+00  0.80782245368E+02  0.80778823356E+02 0.  0.
         66    2    3    3    0    0 -0.27740846511E+02 -0.17997062671E+02 -0.23521432407E+02  0.40628889289E+02  0.20000080989E+01 0.  0.
        -13    1    3    3    0    0  0.27740846511E+02  0.17997062671E+02  0.22777884239E+02  0.40153356079E+02  0.10566000000E+00 0.  1.
         13    1    4    4    0    0 -0.17258595375E+02 -0.11518810764E+02 -0.15173266733E+02  0.25705666751E+02  0.10566000000E+00 0. -1.
        -13    1    4    4    0    0 -0.69387587984E+01 -0.40422631222E+01 -0.48670100541E+01  0.93906983614E+01  0.10566000000E+00 0.  1.
        -14    1    4    4    0    0 -0.35434923377E+01 -0.24359887856E+01 -0.34811556201E+01  0.55325241764E+01  0.00000000000E+00 0.  1.
<mgrwt>
<rscale>  0 0.80778823E+02</rscale>
<asrwt>0</asrwt>
<pdfrwt beam="1">  1        2 0.62712148E-02 0.80778823E+02</pdfrwt>
<pdfrwt beam="2">  1       -1 0.61568229E-02 0.80778823E+02</pdfrwt>
<totfact> 0.13932655E+05</totfact>
</mgrwt>
</event>
<event>
 8    1  0.2676873E-024  0.8051587E+02  0.7818608E-02  0.1327594E+00
         -1   -1    0    0    0  501 -0.00000000000E+00  0.00000000000E+00  0.74446186178E+02  0.74446186349E+02  0.50400000000E-02 0.  1.
          2   -1    0    0  501    0  0.00000000000E+00 -0.00000000000E+00 -0.21770106932E+02  0.21770107082E+02  0.25500000000E-02 0. -1.
         24    2    1    2    0    0 -0.17763568394E-14  0.00000000000E+00  0.52676079246E+02  0.96216293430E+02  0.80515872949E+02 0.  0.
         66    2    3    3    0    0  0.11032142375E+02 -0.34317044536E+02  0.49999057486E+01  0.36446766124E+02  0.19999980825E+01 0.  0.
        -13    1    3    3    0    0 -0.11032142375E+02  0.34317044536E+02  0.47676173497E+02  0.59769527306E+02  0.10566000000E+00 0.  1.
         13    1    4    4    0    0  0.47910052988E+01 -0.14830702748E+02  0.21623036969E+01  0.15734999113E+02  0.10566000000E+00 0. -1.
        -13    1    4    4    0    0  0.24323165506E+01 -0.68592261925E+01  0.32656942527E+00  0.72858053356E+01  0.10566000000E+00 0.  1.
        -14    1    4    4    0    0  0.38088205255E+01 -0.12627115595E+02  0.25110326265E+01  0.13425961675E+02  0.00000000000E+00 0.  1.
<mgrwt>
<rscale>  0 0.80515873E+02</rscale>
<asrwt>0</asrwt>
<pdfrwt beam="1">  1        2 0.33492473E-02 0.80515873E+02</pdfrwt>
<pdfrwt beam="2">  1       -1 0.11453259E-01 0.80515873E+02</pdfrwt>
<totfact> 0.12399232E+05</totfact>
</mgrwt>
</event>
<event>
 8    1  0.2676873E-024  0.7730622E+02  0.7818608E-02  0.1336875E+00
         -1   -1    0    0    0  501 -0.00000000000E+00  0.00000000000E+00  0.12908808389E+01  0.12908906778E+01  0.50400000000E-02 0.  1.
          2   -1    0    0  501    0  0.00000000000E+00 -0.00000000000E+00 -0.11573936380E+04  0.11573936380E+04  0.25500000000E-02 0. -1.
         24    2    1    2    0    0  0.00000000000E+00  0.00000000000E+00 -0.11561027572E+04  0.11586845287E+04  0.77306221537E+02 0.  0.
         66    2    3    3    0    0  0.47634461665E+01 -0.23254079594E+02 -0.10351768387E+04  0.10354508825E+04  0.20000009902E+01 0.  0.
        -13    1    3    3    0    0 -0.47634461665E+01  0.23254079594E+02 -0.12092591850E+03  0.12323364624E+03  0.10566000000E+00 0.  1.
         13    1    4    4    0    0  0.51156704798E+00 -0.35489713259E+01 -0.16656668103E+03  0.16660530392E+03  0.10566000000E+00 0.  1.
        -13    1    4    4    0    0  0.19690078014E+01 -0.12638618702E+02 -0.53848610732E+03  0.53863801445E+03  0.10566000000E+00 0. -1.
         14    1    4    4    0    0  0.22828713171E+01 -0.70664895658E+01 -0.33012405033E+03  0.33020756409E+03  0.00000000000E+00 0. -1.
<mgrwt>
<rscale>  0 0.77306222E+02</rscale>
<asrwt>0</asrwt>
<pdfrwt beam="1">  1        2 0.17805973E+00 0.77306222E+02</pdfrwt>
<pdfrwt beam="2">  1       -1 0.19859874E-03 0.77306222E+02</pdfrwt>
<totfact> 0.38419319E+05</totfact>
</mgrwt>
</event>
<event>
 8    1  0.2676873E-024  0.7953056E+02  0.7818608E-02  0.1330389E+00
         -1   -1    0    0    0  501 -0.00000000000E+00  0.00000000000E+00  0.96603431299E+01  0.96603444446E+01  0.50400000000E-02 0.  1.
          2   -1    0    0  501    0  0.00000000000E+00 -0.00000000000E+00 -0.16368750535E+03  0.16368750537E+03  0.25500000000E-02 0. -1.
         24    2    1    2    0    0  0.35527136788E-14 -0.17763568394E-14 -0.15402716222E+03  0.17334784981E+03  0.79530562261E+02 0.  0.
         66    2    3    3    0    0 -0.20345838004E+02  0.13832089363E+02 -0.14508616671E+03  0.14717090605E+03  0.19999989574E+01 0.  0.
        -13    1    3    3    0    0  0.20345838004E+02 -0.13832089363E+02 -0.89409955085E+01  0.26176943766E+02  0.10566000000E+00 0.  1.
         13    1    4    4    0    0 -0.10560856664E+02  0.68150217157E+01 -0.70526083240E+02  0.71637391045E+02  0.10566000000E+00 0. -1.
        -13    1    4    4    0    0 -0.82226697120E+01  0.63405185082E+01 -0.64391656858E+02  0.65223547198E+02  0.10566000000E+00 0.  1.
         14    1    4    4    0    0 -0.15623116272E+01  0.67654913866E+00 -0.10168426610E+02  0.10309967802E+02  0.00000000000E+00 0. -1.
<mgrwt>
<rscale>  0 0.79530562E+02</rscale>
<asrwt>0</asrwt>
<pdfrwt beam="1">  1        2 0.25182691E-01 0.79530562E+02</pdfrwt>
<pdfrwt beam="2">  1       -1 0.14862069E-02 0.79530562E+02</pdfrwt>
<totfact> 0.20932567E+05</totfact>
</mgrwt>
</event>
<event>
 8    1  0.2676873E-024  0.7973691E+02  0.7818608E-02  0.1329800E+00
         -1   -1    0    0    0  501 -0.00000000000E+00  0.00000000000E+00  0.17125683345E+01  0.17125757507E+01  0.50400000000E-02 0.  1.
          2   -1    0    0  501    0  0.00000000000E+00 -0.00000000000E+00 -0.92813238912E+03  0.92813238913E+03  0.25500000000E-02 0. -1.
         24    2    1    2    0    0  0.00000000000E+00  0.00000000000E+00 -0.92641982079E+03  0.92984496488E+03  0.79736907124E+02 0.  0.
         66    2    3    3    0    0  0.38963159950E+01  0.19248343781E+02 -0.86776800354E+03  0.86799250456E+03  0.19999971832E+01 0.  0.
        -13    1    3    3    0    0 -0.38963159950E+01 -0.19248343781E+02 -0.58651817248E+02  0.61852460316E+02  0.10566000000E+00 0.  1.
         13    1    4    4    0    0  0.10581482023E+01  0.42034108218E+01 -0.16887088057E+03  0.16892653376E+03  0.10566000000E+00 0. -1.
        -13    1    4    4    0    0  0.11318594013E+01  0.32029023897E+01 -0.15184471161E+03  0.15188274193E+03  0.10566000000E+00 0.  1.
         14    1    4    4    0    0  0.17063083914E+01  0.11842030569E+02 -0.54705241136E+03  0.54718322887E+03  0.00000000000E+00 0. -1.
<mgrwt>
<rscale>  0 0.79736907E+02</rscale>
<asrwt>0</asrwt>
<pdfrwt beam="1">  1        2 0.14278920E+00 0.79736907E+02</pdfrwt>
<pdfrwt beam="2">  1       -1 0.26347336E-03 0.79736907E+02</pdfrwt>
<totfact> 0.35356193E+05</totfact>
</mgrwt>
</event>
<event>
 8    1  0.2676873E-024  0.7958493E+02  0.7818608E-02  0.1330233E+00
         -1   -1    0    0    0  501 -0.00000000000E+00  0.00000000000E+00  0.19214244029E+03  0.19214244036E+03  0.50400000000E-02 0.  1.
          2   -1    0    0  501    0  0.00000000000E+00 -0.00000000000E+00 -0.82409714228E+01  0.82409718174E+01  0.25500000000E-02 0. -1.
         24    2    1    2    0    0  0.00000000000E+00  0.00000000000E+00  0.18390146887E+03  0.20038341218E+03  0.79584933392E+02 0.  0.
         66    2    3    3    0    0  0.34509118874E+02  0.11304029001E+02  0.13282394374E+03  0.13771296384E+03  0.20000055377E+01 0.  0.
        -13    1    3    3    0    0 -0.34509118874E+02 -0.11304029001E+02  0.51077525133E+02  0.62670448338E+02  0.10566000000E+00 0.  1.
         13    1    4    4    0    0  0.13862789978E+02  0.50452790302E+01  0.53907590626E+02  0.55889813719E+02  0.10566000000E+00 0. -1.
        -13    1    4    4    0    0  0.15832744860E+02  0.42256991682E+01  0.59241485698E+02  0.61466227596E+02  0.10566000000E+00 0.  1.
        -14    1    4    4    0    0  0.48135840369E+01  0.20330508028E+01  0.19674867415E+02  0.20356922524E+02  0.00000000000E+00 0.  1.
<mgrwt>
<rscale>  0 0.79584933E+02</rscale>
<asrwt>0</asrwt>
<pdfrwt beam="1">  1        2 0.12678419E-02 0.79584933E+02</pdfrwt>
<pdfrwt beam="2">  1       -1 0.29560374E-01 0.79584933E+02</pdfrwt>
<totfact> 0.10214592E+05</totfact>
</mgrwt>
</event>
<event>
 8    1  0.2676873E-024  0.8004281E+02  0.7818608E-02  0.1328930E+00
          2   -1    0    0  501    0  0.00000000000E+00  0.00000000000E+00  0.19537058008E+02  0.19537058174E+02  0.25500000000E-02 0. -1.
         -1   -1    0    0    0  501 -0.00000000000E+00 -0.00000000000E+00 -0.81983310162E+02  0.81983310317E+02  0.50400000000E-02 0.  1.
         24    2    1    2    0    0  0.00000000000E+00  0.00000000000E+00 -0.62446252154E+02  0.10152036849E+03  0.80042806113E+02 0.  0.
         66    2    3    3    0    0  0.36009025098E+02  0.15447206088E+02 -0.21061005634E+02  0.44529001969E+02  0.19999984100E+01 0.  0.
        -13    1    3    3    0    0 -0.36009025098E+02 -0.15447206088E+02 -0.41385246520E+02  0.56991366521E+02  0.10566000000E+00 0.  1.
         13    1    4    4    0    0  0.12239789699E+02  0.52872721448E+01 -0.70498422446E+01  0.15082411555E+02  0.10566000000E+00 0. -1.
        -13    1    4    4    0    0  0.19821462016E+02  0.87876401550E+01 -0.12318843996E+02  0.24937482980E+02  0.10566000000E+00 0.  1.
        -14    1    4    4    0    0  0.39477733832E+01  0.13722937885E+01 -0.16923193940E+01  0.45091074347E+01  0.00000000000E+00 0.  1.
<mgrwt>
<rscale>  0 0.80042806E+02</rscale>
<asrwt>0</asrwt>
<pdfrwt beam="1">  1        2 0.30057013E-02 0.80042806E+02</pdfrwt>
<pdfrwt beam="2">  1       -1 0.12612817E-01 0.80042806E+02</pdfrwt>
<totfact> 0.12337906E+05</totfact>
</mgrwt>
</event>
<event>
 8    1  0.2676873E-024  0.7824882E+02  0.7818608E-02  0.1334096E+00
         -1   -1    0    0    0  501 -0.00000000000E+00  0.00000000000E+00  0.68167578700E+01  0.68167597332E+01  0.50400000000E-02 0.  1.
          2   -1    0    0  501    0  0.00000000000E+00 -0.00000000000E+00 -0.22455237777E+03  0.22455237778E+03  0.25500000000E-02 0. -1.
         24    2    1    2    0    0  0.00000000000E+00  0.00000000000E+00 -0.21773561990E+03  0.23136913752E+03  0.78248818665E+02 0.  0.
         66    2    3    3    0    0 -0.12497547020E+02 -0.32694824963E+02 -0.16045686271E+03  0.16424233624E+03  0.19999902624E+01 0.  0.
        -13    1    3    3    0    0  0.12497547020E+02  0.32694824963E+02 -0.57278757190E+02  0.67126801280E+02  0.10566000000E+00 0.  1.
         13    1    4    4    0    0 -0.16413302346E+01 -0.42276017935E+01 -0.21180463172E+02  0.21660788676E+02  0.10566000000E+00 0. -1.
        -13    1    4    4    0    0 -0.47838862233E+01 -0.14082882119E+02 -0.64555097799E+02  0.66246395766E+02  0.10566000000E+00 0.  1.
        -14    1    4    4    0    0 -0.60723305619E+01 -0.14384341051E+02 -0.74721301739E+02  0.76335151795E+02  0.00000000000E+00 0.  1.
<mgrwt>
<rscale>  0 0.78248819E+02</rscale>
<asrwt>0</asrwt>
<pdfrwt beam="1">  1        2 0.34546514E-01 0.78248819E+02</pdfrwt>
<pdfrwt beam="2">  1       -1 0.10487323E-02 0.78248819E+02</pdfrwt>
<totfact> 0.24350107E+05</totfact>
</mgrwt>
</event>
<event>
 8    1  0.2676873E-024  0.8026363E+02  0.7818608E-02  0.1328305E+00
         -1   -1    0    0    0  501 -0.00000000000E+00  0.00000000000E+00  0.65004471211E+01  0.65004490749E+01  0.50400000000E-02 0.  1.
          2   -1    0    0  501    0  0.00000000000E+00 -0.00000000000E+00 -0.24776174813E+03  0.24776174815E+03  0.25500000000E-02 0. -1.
         24    2    1    2    0    0 -0.35527136788E-14  0.00000000000E+00 -0.24126130101E+03  0.25426219722E+03  0.80263625446E+02 0.  0.
         66    2    3    3    0    0 -0.29266275778E+02  0.11535287193E+02 -0.19951895116E+03  0.20199353850E+03  0.19999946306E+01 0.  0.
        -13    1    3    3    0    0  0.29266275778E+02 -0.11535287193E+02 -0.41742349857E+02  0.52268658718E+02  0.10566000000E+00 0.  1.
         13    1    4    4    0    0 -0.44905711748E+01  0.17071719625E+01 -0.28513084634E+02  0.28915166003E+02  0.10566000000E+00 0. -1.
        -13    1    4    4    0    0 -0.16711698721E+01  0.11053468828E+01 -0.13346739125E+02  0.13496711073E+02  0.10566000000E+00 0.  1.
         14    1    4    4    0    0 -0.23104534731E+02  0.87227683474E+01 -0.15765912740E+03  0.15958166143E+03  0.00000000000E+00 0. -1.
<mgrwt>
<rscale>  0 0.80263625E+02</rscale>
<asrwt>0</asrwt>
<pdfrwt beam="1">  1        2 0.38117185E-01 0.80263625E+02</pdfrwt>
<pdfrwt beam="2">  1       -1 0.10000691E-02 0.80263625E+02</pdfrwt>
<totfact> 0.23586681E+05</totfact>
</mgrwt>
</event>
<event>
 8    1  0.2676873E-024  0.7925661E+02  0.7818608E-02  0.1331174E+00
         -1   -1    0    0    0  501 -0.00000000000E+00  0.00000000000E+00  0.56200493418E+01  0.56200516017E+01  0.50400000000E-02 0.  1.
          2   -1    0    0  501    0  0.00000000000E+00 -0.00000000000E+00 -0.27942851773E+03  0.27942851774E+03  0.25500000000E-02 0. -1.
         24    2    1    2    0    0 -0.71054273576E-14 -0.17763568394E-14 -0.27380846838E+03  0.28504856934E+03  0.79256605551E+02 0.  0.
         66    2    3    3    0    0  0.35209747765E+02  0.77834524674E+01 -0.19587863452E+03  0.19918018960E+03  0.19999987453E+01 0.  0.
        -13    1    3    3    0    0 -0.35209747765E+02 -0.77834524674E+01 -0.77929833859E+02  0.85868379741E+02  0.10566000000E+00 0.  1.
         13    1    4    4    0    0  0.20400849027E+02  0.44984063309E+01 -0.11305990416E+03  0.11497383786E+03  0.10566000000E+00 0. -1.
        -13    1    4    4    0    0  0.41247667850E+01  0.12821862203E+01 -0.26131513984E+02  0.26486315139E+02  0.10566000000E+00 0.  1.
         14    1    4    4    0    0  0.10684131953E+02  0.20028599162E+01 -0.56687216385E+02  0.57720036599E+02  0.00000000000E+00 0. -1.
<mgrwt>
<rscale>  0 0.79256606E+02</rscale>
<asrwt>0</asrwt>
<pdfrwt beam="1">  1        2 0.42988992E-01 0.79256606E+02</pdfrwt>
<pdfrwt beam="2">  1       -1 0.86462337E-03 0.79256606E+02</pdfrwt>
<totfact> 0.25462784E+05</totfact>
</mgrwt>
</event>
<event>
 8    1  0.2676873E-024  0.7990226E+02  0.7818608E-02  0.1329329E+00
         -1   -1    0    0    0  501 -0.00000000000E+00  0.00000000000E+00  0.38182550484E+01  0.38182583747E+01  0.50400000000E-02 0.  1.
          2   -1    0    0  501    0  0.00000000000E+00 -0.00000000000E+00 -0.41801608365E+03  0.41801608365E+03  0.25500000000E-02 0. -1.
         24    2    1    2    0    0  0.88817841970E-15 -0.35527136788E-14 -0.41419782860E+03  0.42183434203E+03  0.79902258414E+02 0.  0.
         66    2    3    3    0    0 -0.67920703831E+01  0.24662254635E+02 -0.36906765911E+03  0.36995850579E+03  0.19999947282E+01 0.  0.
        -13    1    3    3    0    0  0.67920703831E+01 -0.24662254635E+02 -0.45130169486E+02  0.51875836241E+02  0.10566000000E+00 0.  1.
         13    1    4    4    0    0 -0.27584287667E+01  0.10574498415E+02 -0.15736288943E+03  0.15774193824E+03  0.10566000000E+00 0.  1.
        -13    1    4    4    0    0 -0.20089868345E+01  0.81296268851E+01 -0.11112052647E+03  0.11143567395E+03  0.10566000000E+00 0. -1.
        -14    1    4    4    0    0 -0.20246547819E+01  0.59581293356E+01 -0.10058424321E+03  0.10078089359E+03  0.00000000000E+00 0.  1.
<mgrwt>
<rscale>  0 0.79902258E+02</rscale>
<asrwt>0</asrwt>
<pdfrwt beam="1">  1        2 0.64310131E-01 0.79902258E+02</pdfrwt>
<pdfrwt beam="2">  1       -1 0.58742444E-03 0.79902258E+02</pdfrwt>
<totfact> 0.28780942E+05</totfact>
</mgrwt>
</event>
<event>
 8    1  0.2676873E-024  0.7965178E+02  0.7818608E-02  0.1330043E+00
         -1   -1    0    0    0  501 -0.00000000000E+00  0.00000000000E+00  0.46131943183E+01  0.46131970714E+01  0.50400000000E-02 0.  1.
          2   -1    0    0  501    0  0.00000000000E+00 -0.00000000000E+00 -0.34381841230E+03  0.34381841231E+03  0.25500000000E-02 0. -1.
         24    2    1    2    0    0  0.00000000000E+00  0.00000000000E+00 -0.33920521799E+03  0.34843160939E+03  0.79651782841E+02 0.  0.
         66    2    3    3    0    0 -0.24790104057E+02 -0.23787938559E+02 -0.25759963612E+03  0.25988841408E+03  0.19999902444E+01 0.  0.
        -13    1    3    3    0    0  0.24790104057E+02  0.23787938559E+02 -0.81605581864E+02  0.88543195308E+02  0.10566000000E+00 0.  1.
         13    1    4    4    0    0 -0.62583564053E+01 -0.64700009548E+01 -0.67562103435E+02  0.68159202768E+02  0.10566000000E+00 0. -1.
        -13    1    4    4    0    0 -0.20936357770E+01 -0.22986032366E+01 -0.20156492994E+02  0.20395152891E+02  0.10566000000E+00 0.  1.
         14    1    4    4    0    0 -0.16438111875E+02 -0.15019334368E+02 -0.16988103969E+03  0.17133405842E+03  0.00000000000E+00 0. -1.
<mgrwt>
<rscale>  0 0.79651783E+02</rscale>
<asrwt>0</asrwt>
<pdfrwt beam="1">  1        2 0.52895120E-01 0.79651783E+02</pdfrwt>
<pdfrwt beam="2">  1       -1 0.70972269E-03 0.79651783E+02</pdfrwt>
<totfact> 0.27085836E+05</totfact>
</mgrwt>
</event>
<event>
 8    1  0.2676873E-024  0.8135734E+02  0.7818608E-02  0.1325243E+00
          2   -1    0    0  501    0  0.00000000000E+00  0.00000000000E+00  0.23607550316E+02  0.23607550453E+02  0.25500000000E-02 0. -1.
         -1   -1    0    0    0  501 -0.00000000000E+00 -0.00000000000E+00 -0.70094280824E+02  0.70094281005E+02  0.50400000000E-02 0.  1.
         24    2    1    2    0    0  0.17763568394E-14  0.44408920985E-15 -0.46486730508E+02  0.93701831459E+02  0.81357342049E+02 0.  0.
         66    2    3    3    0    0  0.11684871830E+02  0.20125795264E+01  0.21529483142E+02  0.24659792168E+02  0.19999998462E+01 0.  0.
        -13    1    3    3    0    0 -0.11684871830E+02 -0.20125795264E+01 -0.68016213650E+02  0.69042039290E+02  0.10566000000E+00 0.  1.
         13    1    4    4    0    0  0.13798606047E+01  0.83280719012E+00  0.24994719367E+01  0.29759212191E+01  0.10566000000E+00 0.  1.
        -13    1    4    4    0    0  0.39989159081E+01  0.35015376095E+00  0.67405402232E+01  0.78460169916E+01  0.10566000000E+00 0. -1.
        -14    1    4    4    0    0  0.63060953174E+01  0.82961857529E+00  0.12289470982E+02  0.13837853957E+02  0.00000000000E+00 0.  1.
<mgrwt>
<rscale>  0 0.81357342E+02</rscale>
<asrwt>0</asrwt>
<pdfrwt beam="1">  1        2 0.36319309E-02 0.81357342E+02</pdfrwt>
<pdfrwt beam="2">  1       -1 0.10783735E-01 0.81357342E+02</pdfrwt>
<totfact> 0.12234126E+05</totfact>
</mgrwt>
</event>
<event>
 8    1  0.2676873E-024  0.8021971E+02  0.7818608E-02  0.1328429E+00
         -1   -1    0    0    0  501 -0.00000000000E+00  0.00000000000E+00  0.10881980366E+02  0.10881981533E+02  0.50400000000E-02 0.  1.
          2   -1    0    0  501    0  0.00000000000E+00 -0.00000000000E+00 -0.14784077965E+03  0.14784077967E+03  0.25500000000E-02 0. -1.
         24    2    1    2    0    0  0.00000000000E+00 -0.35527136788E-14 -0.13695879929E+03  0.15872276121E+03  0.80219712187E+02 0.  0.
         66    2    3    3    0    0  0.22109386763E+02 -0.16807449034E+02 -0.12571265121E+03  0.12875941132E+03  0.20000004871E+01 0.  0.
        -13    1    3    3    0    0 -0.22109386763E+02  0.16807449034E+02 -0.11246148074E+02  0.29963349890E+02  0.10566000000E+00 0.  1.
         13    1    4    4    0    0  0.15288649376E+02 -0.11949577297E+02 -0.87472437084E+02  0.89598959876E+02  0.10566000000E+00 0. -1.
        -13    1    4    4    0    0  0.22674820335E+00 -0.40458158891E+00 -0.25548563389E+01  0.25987604657E+01  0.10566000000E+00 0. -1.
         14    1    4    4    0    0  0.65939891834E+01 -0.44532901485E+01 -0.35685357790E+02  0.36561690977E+02  0.00000000000E+00 0. -1.
<mgrwt>
<rscale>  0 0.80219712E+02</rscale>
<asrwt>0</asrwt>
<pdfrwt beam="1">  1        2 0.22744734E-01 0.80219712E+02</pdfrwt>
<pdfrwt beam="2">  1       -1 0.16741510E-02 0.80219712E+02</pdfrwt>
<totfact> 0.19792223E+05</totfact>
</mgrwt>
</event>
<event>
 8    1  0.2676873E-024  0.8000260E+02  0.7818608E-02  0.1329044E+00
          2   -1    0    0  501    0  0.00000000000E+00  0.00000000000E+00  0.89448155350E+02  0.89448155386E+02  0.25500000000E-02 0. -1.
         -1   -1    0    0    0  501 -0.00000000000E+00 -0.00000000000E+00 -0.17888620532E+02  0.17888621242E+02  0.50400000000E-02 0.  1.
         24    2    1    2    0    0  0.00000000000E+00  0.00000000000E+00  0.71559534818E+02  0.10733677663E+03  0.80002603667E+02 0.  0.
         66    2    3    3    0    0 -0.20286230324E+02  0.34314649197E+02  0.39843331315E+02  0.56396075622E+02  0.20000012354E+01 0.  0.
        -13    1    3    3    0    0  0.20286230324E+02 -0.34314649197E+02  0.31716203503E+02  0.50940701006E+02  0.10566000000E+00 0.  1.
         13    1    4    4    0    0 -0.35788590792E+01  0.56990498645E+01  0.67028148441E+01  0.94987521568E+01  0.10566000000E+00 0. -1.
        -13    1    4    4    0    0 -0.99932464726E+01  0.18696437093E+02  0.20799597319E+02  0.29699430090E+02  0.10566000000E+00 0.  1.
        -14    1    4    4    0    0 -0.67141247724E+01  0.99191622403E+01  0.12340919153E+02  0.17197893375E+02  0.00000000000E+00 0.  1.
<mgrwt>
<rscale>  0 0.80002604E+02</rscale>
<asrwt>0</asrwt>
<pdfrwt beam="1">  1        2 0.13761255E-01 0.80002604E+02</pdfrwt>
<pdfrwt beam="2">  1       -1 0.27520955E-02 0.80002604E+02</pdfrwt>
<totfact> 0.17190779E+05</totfact>
</mgrwt>
</event>
<event>
 8    1  0.2676873E-024  0.8021274E+02  0.7818608E-02  0.1328449E+00
         -1   -1    0    0    0  501 -0.00000000000E+00  0.00000000000E+00  0.13600362731E+03  0.13600362741E+03  0.50400000000E-02 0.  1.
          2   -1    0    0  501    0  0.00000000000E+00 -0.00000000000E+00 -0.11827044598E+02  0.11827044872E+02  0.25500000000E-02 0. -1.
         24    2    1    2    0    0  0.35527136788E-14  0.71054273576E-14  0.12417658272E+03  0.14783067228E+03  0.80212741952E+02 0.  0.
         66    2    3    3    0    0  0.22803188277E+02  0.32937982115E+02  0.59781072394E+02  0.71990781885E+02  0.19999996135E+01 0.  0.
        -13    1    3    3    0    0 -0.22803188277E+02 -0.32937982115E+02  0.64395510322E+02  0.75839890394E+02  0.10566000000E+00 0.  1.
         13    1    4    4    0    0  0.15834901594E+02  0.23527104247E+02  0.43154821881E+02  0.51639312141E+02  0.10566000000E+00 0. -1.
        -13    1    4    4    0    0  0.60396774979E+01  0.77839341375E+01  0.13643563446E+02  0.16829299524E+02  0.10566000000E+00 0.  1.
        -14    1    4    4    0    0  0.92860918467E+00  0.16269437302E+01  0.29826870671E+01  0.35221702201E+01  0.00000000000E+00 0.  1.
<mgrwt>
<rscale>  0 0.80212742E+02</rscale>
<asrwt>0</asrwt>
<pdfrwt beam="1">  1        2 0.18195453E-02 0.80212742E+02</pdfrwt>
<pdfrwt beam="2">  1       -1 0.20923636E-01 0.80212742E+02</pdfrwt>
<totfact> 0.10979525E+05</totfact>
</mgrwt>
</event>
<event>
 8    1  0.2676873E-024  0.7967358E+02  0.7818608E-02  0.1329980E+00
          2   -1    0    0  501    0  0.00000000000E+00  0.00000000000E+00  0.48969637607E+03  0.48969637607E+03  0.25500000000E-02 0. -1.
         -1   -1    0    0    0  501 -0.00000000000E+00 -0.00000000000E+00 -0.32407202713E+01  0.32407241904E+01  0.50400000000E-02 0.  1.
         24    2    1    2    0    0  0.71054273576E-14  0.00000000000E+00  0.48645565580E+03  0.49293710026E+03  0.79673582580E+02 0.  0.
         66    2    3    3    0    0  0.34769516979E+02 -0.94475306311E+00  0.36321504702E+03  0.36488214845E+03  0.20000011135E+01 0.  0.
        -13    1    3    3    0    0 -0.34769516979E+02  0.94475306311E+00  0.12324060877E+03  0.12805495182E+03  0.10566000000E+00 0.  1.
         13    1    4    4    0    0  0.84150301566E+01 -0.16709196633E+00  0.86581687116E+02  0.86989886539E+02  0.10566000000E+00 0. -1.
        -13    1    4    4    0    0  0.24976108967E+01 -0.22492555774E+00  0.31678150688E+02  0.31777429832E+02  0.10566000000E+00 0.  1.
        -14    1    4    4    0    0  0.23856875926E+02 -0.55273553903E+00  0.24495520922E+03  0.24611483208E+03  0.00000000000E+00 0.  1.
<mgrwt>
<rscale>  0 0.79673583E+02</rscale>
<asrwt>0</asrwt>
<pdfrwt beam="1">  1        2 0.75337894E-01 0.79673583E+02</pdfrwt>
<pdfrwt beam="2">  1       -1 0.49857272E-03 0.79673583E+02</pdfrwt>
<totfact> 0.30572829E+05</totfact>
</mgrwt>
</event>
<event>
 8    1  0.2676873E-024  0.7996780E+02  0.7818608E-02  0.1329143E+00
          2   -1    0    0  501    0  0.00000000000E+00  0.00000000000E+00  0.17379524468E+02  0.17379524655E+02  0.25500000000E-02 0. -1.
         -1   -1    0    0    0  501 -0.00000000000E+00 -0.00000000000E+00 -0.91988260976E+02  0.91988261114E+02  0.50400000000E-02 0.  1.
         24    2    1    2    0    0  0.00000000000E+00  0.00000000000E+00 -0.74608736508E+02  0.10936778577E+03  0.79967799773E+02 0.  0.
         66    2    3    3    0    0  0.19598959997E+02 -0.16944704822E+02  0.42782014434E+01  0.26335247581E+02  0.20000007734E+01 0.  0.
        -13    1    3    3    0    0 -0.19598959997E+02  0.16944704822E+02 -0.78886937951E+02  0.83032538187E+02  0.10566000000E+00 0.  1.
         13    1    4    4    0    0  0.95561004717E+01 -0.90940088015E+01  0.17360713297E+01  0.13305831804E+02  0.10566000000E+00 0. -1.
        -13    1    4    4    0    0  0.15569057670E+01 -0.13517165426E+01  0.72032556223E+00  0.21865786357E+01  0.10566000000E+00 0.  1.
         14    1    4    4    0    0  0.84859537583E+01 -0.64989794775E+01  0.18218045514E+01  0.10842837141E+02  0.00000000000E+00 0. -1.
<mgrwt>
<rscale>  0 0.79967800E+02</rscale>
<asrwt>0</asrwt>
<pdfrwt beam="1">  1        2 0.26737731E-02 0.79967800E+02</pdfrwt>
<pdfrwt beam="2">  1       -1 0.14152040E-01 0.79967800E+02</pdfrwt>
<totfact> 0.12076433E+05</totfact>
</mgrwt>
</event>
<event>
 8    1  0.2676873E-024  0.8000732E+02  0.7818608E-02  0.1329031E+00
          2   -1    0    0  501    0  0.00000000000E+00  0.00000000000E+00  0.26733352825E+02  0.26733352946E+02  0.25500000000E-02 0. -1.
         -1   -1    0    0    0  501 -0.00000000000E+00 -0.00000000000E+00 -0.59861285075E+02  0.59861285287E+02  0.50400000000E-02 0.  1.
         24    2    1    2    0    0  0.00000000000E+00 -0.71054273576E-14 -0.33127932250E+02  0.86594638233E+02  0.80007321387E+02 0.  0.
         66    2    3    3    0    0  0.14894691437E+02 -0.33955410424E+02 -0.39471047531E+00  0.37134586657E+02  0.19999999441E+01 0.  0.
        -13    1    3    3    0    0 -0.14894691437E+02  0.33955410424E+02 -0.32733221775E+02  0.49460051576E+02  0.10566000000E+00 0.  1.
         13    1    4    4    0    0  0.10959938511E+02 -0.26224051311E+02 -0.24356174924E+00  0.28423434094E+02  0.10566000000E+00 0. -1.
        -13    1    4    4    0    0  0.15172547758E+01 -0.37653487643E+01  0.64245280502E-01  0.40614289189E+01  0.10566000000E+00 0.  1.
        -14    1    4    4    0    0  0.24174981502E+01 -0.39660103493E+01 -0.21539400657E+00  0.46497236451E+01  0.00000000000E+00 0.  1.
<mgrwt>
<rscale>  0 0.80007321E+02</rscale>
<asrwt>0</asrwt>
<pdfrwt beam="1">  1        2 0.41128235E-02 0.80007321E+02</pdfrwt>
<pdfrwt beam="2">  1       -1 0.92094285E-02 0.80007321E+02</pdfrwt>
<totfact> 0.13149673E+05</totfact>
</mgrwt>
</event>
<event>
 8    1  0.2676873E-024  0.8074559E+02  0.7818608E-02  0.1326949E+00
          2   -1    0    0  501    0  0.00000000000E+00  0.00000000000E+00  0.14232789263E+03  0.14232789265E+03  0.25500000000E-02 0. -1.
         -1   -1    0    0    0  501 -0.00000000000E+00 -0.00000000000E+00 -0.11452165803E+02  0.11452166912E+02  0.50400000000E-02 0.  1.
         24    2    1    2    0    0  0.00000000000E+00  0.00000000000E+00  0.13087572682E+03  0.15378005956E+03  0.80745593361E+02 0.  0.
         66    2    3    3    0    0  0.19540937221E+02  0.34474591009E+02  0.51022235296E+02  0.64634465583E+02  0.19999984786E+01 0.  0.
        -13    1    3    3    0    0 -0.19540937221E+02 -0.34474591009E+02  0.79853491526E+02  0.89145593977E+02  0.10566000000E+00 0.  1.
         13    1    4    4    0    0  0.61635955461E+01  0.97544107256E+01  0.14994460077E+02  0.18920450198E+02  0.10566000000E+00 0. -1.
        -13    1    4    4    0    0  0.76690802922E+01  0.15405057282E+02  0.21631293026E+02  0.27641537302E+02  0.10566000000E+00 0.  1.
         14    1    4    4    0    0  0.57082613827E+01  0.93151230012E+01  0.14396482193E+02  0.18072478083E+02  0.00000000000E+00 0. -1.
<mgrwt>
<rscale>  0 0.80745593E+02</rscale>
<asrwt>0</asrwt>
<pdfrwt beam="1">  1        2 0.21896599E-01 0.80745593E+02</pdfrwt>
<pdfrwt beam="2">  1       -1 0.17618718E-02 0.80745593E+02</pdfrwt>
<totfact> 0.19216937E+05</totfact>
</mgrwt>
</event>
<event>
 8    1  0.2676873E-024  0.7833448E+02  0.7818608E-02  0.1333845E+00
         -1   -1    0    0    0  501 -0.00000000000E+00  0.00000000000E+00  0.11188831370E+01  0.11188944882E+01  0.50400000000E-02 0.  1.
          2   -1    0    0  501    0  0.00000000000E+00 -0.00000000000E+00 -0.13710680670E+04  0.13710680670E+04  0.25500000000E-02 0. -1.
         24    2    1    2    0    0 -0.35527136788E-14  0.00000000000E+00 -0.13699491838E+04  0.13721869614E+04  0.78334481026E+02 0.  0.
         66    2    3    3    0    0 -0.21919903629E+02  0.38173405759E+01 -0.12495152156E+04  0.12497148988E+04  0.19999995800E+01 0.  0.
        -13    1    3    3    0    0  0.21919903629E+02 -0.38173405759E+01 -0.12043396818E+03  0.12247206261E+03  0.10566000000E+00 0.  1.
         13    1    4    4    0    0 -0.17920276987E+01  0.24906576928E+00 -0.12596877182E+03  0.12598180835E+03  0.10566000000E+00 0. -1.
        -13    1    4    4    0    0 -0.78538618441E+01  0.78430070882E+00 -0.42768260190E+03  0.42775544112E+03  0.10566000000E+00 0.  1.
        -14    1    4    4    0    0 -0.12274014086E+02  0.27839740978E+01 -0.69586384192E+03  0.69597764937E+03  0.00000000000E+00 0.  1.
<mgrwt>
<rscale>  0 0.78334481E+02</rscale>
<asrwt>0</asrwt>
<pdfrwt beam="1">  1        2 0.21093221E+00 0.78334481E+02</pdfrwt>
<pdfrwt beam="2">  1       -1 0.17213784E-03 0.78334481E+02</pdfrwt>
<totfact> 0.36124922E+05</totfact>
</mgrwt>
</event>
<event>
 8    1  0.2676873E-024  0.7841528E+02  0.7818608E-02  0.1333610E+00
          2   -1    0    0  501    0  0.00000000000E+00  0.00000000000E+00  0.29853492317E+03  0.29853492318E+03  0.25500000000E-02 0. -1.
         -1   -1    0    0    0  501 -0.00000000000E+00 -0.00000000000E+00 -0.51492754068E+01  0.51492778733E+01  0.50400000000E-02 0.  1.
         24    2    1    2    0    0  0.00000000000E+00  0.00000000000E+00  0.29338564776E+03  0.30368420105E+03  0.78415276933E+02 0.  0.
         66    2    3    3    0    0 -0.11923578093E+02  0.26561142507E+02  0.24833784582E+03  0.25004669897E+03  0.19999984499E+01 0.  0.
        -13    1    3    3    0    0  0.11923578093E+02 -0.26561142507E+02  0.45047801945E+02  0.53637502085E+02  0.10566000000E+00 0.  1.
         13    1    4    4    0    0 -0.20069242917E+01  0.56293942767E+01  0.51134576370E+02  0.51482753322E+02  0.10566000000E+00 0. -1.
        -13    1    4    4    0    0 -0.34184797066E+01  0.76955165816E+01  0.66223412156E+02  0.66756710978E+02  0.10566000000E+00 0.  1.
         14    1    4    4    0    0 -0.64981740950E+01  0.13236231649E+02  0.13097985729E+03  0.13180723467E+03  0.00000000000E+00 0. -1.
<mgrwt>
<rscale>  0 0.78415277E+02</rscale>
<asrwt>0</asrwt>
<pdfrwt beam="1">  1        2 0.45928459E-01 0.78415277E+02</pdfrwt>
<pdfrwt beam="2">  1       -1 0.79219625E-03 0.78415277E+02</pdfrwt>
<totfact> 0.26818651E+05</totfact>
</mgrwt>
</event>
<event>
 8    1  0.2676873E-024  0.7957488E+02  0.7818608E-02  0.1330262E+00
         -1   -1    0    0    0  501 -0.00000000000E+00  0.00000000000E+00  0.20465425423E+01  0.20465487482E+01  0.50400000000E-02 0.  1.
          2   -1    0    0  501    0  0.00000000000E+00 -0.00000000000E+00 -0.77351816386E+03  0.77351816386E+03  0.25500000000E-02 0. -1.
         24    2    1    2    0    0  0.00000000000E+00  0.00000000000E+00 -0.77147162131E+03  0.77556471261E+03  0.79574876381E+02 0.  0.
         66    2    3    3    0    0 -0.16310714591E+01 -0.26191412828E+02 -0.67712970438E+03  0.67764097210E+03  0.20000044051E+01 0.  0.
        -13    1    3    3    0    0  0.16310714591E+01  0.26191412828E+02 -0.94341916934E+02  0.97923740507E+02  0.10566000000E+00 0.  1.
         13    1    4    4    0    0 -0.60676091448E+00 -0.12833637792E+02 -0.34027661229E+03  0.34051909558E+03  0.10566000000E+00 0. -1.
        -13    1    4    4    0    0 -0.71315778111E+00 -0.33643646257E+01 -0.78400138698E+02  0.78475604204E+02  0.10566000000E+00 0.  1.
        -14    1    4    4    0    0 -0.31115276349E+00 -0.99934104102E+01 -0.25845295339E+03  0.25864627231E+03  0.00000000000E+00 0.  1.
<mgrwt>
<rscale>  0 0.79574876E+02</rscale>
<asrwt>0</asrwt>
<pdfrwt beam="1">  1        2 0.11900256E+00 0.79574876E+02</pdfrwt>
<pdfrwt beam="2">  1       -1 0.31485380E-03 0.79574876E+02</pdfrwt>
<totfact> 0.34633704E+05</totfact>
</mgrwt>
</event>
<event>
 8    1  0.2676873E-024  0.7938132E+02  0.7818608E-02  0.1330816E+00
         -1   -1    0    0    0  501 -0.00000000000E+00  0.00000000000E+00  0.54400387821E+01  0.54400411168E+01  0.50400000000E-02 0.  1.
          2   -1    0    0  501    0  0.00000000000E+00 -0.00000000000E+00 -0.28958397966E+03  0.28958397967E+03  0.25500000000E-02 0. -1.
         24    2    1    2    0    0  0.00000000000E+00  0.00000000000E+00 -0.28414394087E+03  0.29502402078E+03  0.79381318358E+02 0.  0.
         66    2    3    3    0    0  0.18199061203E+02 -0.19877957160E+02 -0.25032569919E+03  0.25178025078E+03  0.19999995278E+01 0.  0.
        -13    1    3    3    0    0 -0.18199061203E+02  0.19877957160E+02 -0.33818241682E+02  0.43243770003E+02  0.10566000000E+00 0.  1.
         13    1    4    4    0    0  0.62300486365E+01 -0.68092060091E+01 -0.77839193420E+02  0.78384500947E+02  0.10566000000E+00 0. -1.
        -13    1    4    4    0    0  0.43079756878E+01 -0.43228607259E+01 -0.60972489025E+02  0.61277249949E+02  0.10566000000E+00 0.  1.
         14    1    4    4    0    0  0.76610368792E+01 -0.87458904250E+01 -0.11151401675E+03  0.11211849989E+03  0.00000000000E+00 0. -1.
<mgrwt>
<rscale>  0 0.79381318E+02</rscale>
<asrwt>0</asrwt>
<pdfrwt beam="1">  1        2 0.44551370E-01 0.79381318E+02</pdfrwt>
<pdfrwt beam="2">  1       -1 0.83692945E-03 0.79381318E+02</pdfrwt>
<totfact> 0.25687881E+05</totfact>
</mgrwt>
</event>
<event>
 8    1  0.2676873E-024  0.7963961E+02  0.7818608E-02  0.1330077E+00
         -1   -1    0    0    0  501 -0.00000000000E+00  0.00000000000E+00  0.59337574168E+01  0.59337595572E+01  0.50400000000E-02 0.  1.
          2   -1    0    0  501    0  0.00000000000E+00 -0.00000000000E+00 -0.26721967957E+03  0.26721967958E+03  0.25500000000E-02 0. -1.
         24    2    1    2    0    0  0.00000000000E+00 -0.71054273576E-14 -0.26128592215E+03  0.27315343914E+03  0.79639614503E+02 0.  0.
         66    2    3    3    0    0  0.11473996520E+02 -0.37953115034E+02 -0.14236676617E+03  0.14779846971E+03  0.20000004849E+01 0.  0.
        -13    1    3    3    0    0 -0.11473996520E+02  0.37953115034E+02 -0.11891915599E+03  0.12535496943E+03  0.10566000000E+00 0.  1.
         13    1    4    4    0    0  0.86996224883E-01 -0.40970675232E+00 -0.14035094294E+01  0.14684790499E+01  0.10566000000E+00 0.  1.
        -13    1    4    4    0    0  0.72402818883E+00 -0.16037127176E+01 -0.72253364683E+01  0.74372550322E+01  0.10566000000E+00 0. -1.
         14    1    4    4    0    0  0.10662972106E+02 -0.35939695564E+02 -0.13373792027E+03  0.13889273562E+03  0.00000000000E+00 0. -1.
<mgrwt>
<rscale>  0 0.79639615E+02</rscale>
<asrwt>0</asrwt>
<pdfrwt beam="1">  1        2 0.41110711E-01 0.79639615E+02</pdfrwt>
<pdfrwt beam="2">  1       -1 0.91288613E-03 0.79639615E+02</pdfrwt>
<totfact> 0.24739657E+05</totfact>
</mgrwt>
</event>
<event>
 8    1  0.2676873E-024  0.8083592E+02  0.7818608E-02  0.1326696E+00
          2   -1    0    0  501    0  0.00000000000E+00  0.00000000000E+00  0.54234920305E+03  0.54234920305E+03  0.25500000000E-02 0. -1.
         -1   -1    0    0    0  501 -0.00000000000E+00 -0.00000000000E+00 -0.30121003696E+01  0.30121045862E+01  0.50400000000E-02 0.  1.
         24    2    1    2    0    0  0.00000000000E+00  0.00000000000E+00  0.53933710268E+03  0.54536130764E+03  0.80835917422E+02 0.  0.
         66    2    3    3    0    0 -0.35802241219E+02  0.15629605160E+02  0.33913586924E+03  0.34138427446E+03  0.20000010903E+01 0.  0.
        -13    1    3    3    0    0  0.35802241219E+02 -0.15629605160E+02  0.20020123344E+03  0.20397703318E+03  0.10566000000E+00 0.  1.
         13    1    4    4    0    0 -0.28992329536E+01  0.12099386293E+01  0.23596362223E+02  0.23804809964E+02  0.10566000000E+00 0. -1.
        -13    1    4    4    0    0 -0.59535093550E+01  0.29403977528E+01  0.60308964060E+02  0.60673491103E+02  0.10566000000E+00 0.  1.
         14    1    4    4    0    0 -0.26949498911E+02  0.11479268778E+02  0.25523054296E+03  0.25690597339E+03  0.00000000000E+00 0. -1.
<mgrwt>
<rscale>  0 0.80835917E+02</rscale>
<asrwt>0</asrwt>
<pdfrwt beam="1">  1        2 0.83438371E-01 0.80835917E+02</pdfrwt>
<pdfrwt beam="2">  1       -1 0.46340021E-03 0.80835917E+02</pdfrwt>
<totfact> 0.30396191E+05</totfact>
</mgrwt>
</event>
<event>
 8    1  0.2676873E-024  0.8510869E+02  0.7818608E-02  0.1315149E+00
         -1   -1    0    0    0  501 -0.00000000000E+00  0.00000000000E+00  0.11893467369E+02  0.11893468437E+02  0.50400000000E-02 0.  1.
          2   -1    0    0  501    0  0.00000000000E+00 -0.00000000000E+00 -0.15225771299E+03  0.15225771301E+03  0.25500000000E-02 0. -1.
         24    2    1    2    0    0 -0.17763568394E-14 -0.35527136788E-14 -0.14036424562E+03  0.16415118145E+03  0.85108688875E+02 0.  0.
         66    2    3    3    0    0  0.14511054335E+02  0.31606656977E+02 -0.11743772311E+03  0.12249559285E+03  0.19999987814E+01 0.  0.
        -13    1    3    3    0    0 -0.14511054335E+02 -0.31606656977E+02 -0.22926522515E+02  0.41655588602E+02  0.10566000000E+00 0.  1.
         13    1    4    4    0    0  0.13177980105E+01  0.30436810127E+01 -0.11488591296E+02  0.11958238988E+02  0.10566000000E+00 0. -1.
        -13    1    4    4    0    0  0.10190845101E+02  0.23145143720E+02 -0.83033374579E+02  0.86799213474E+02  0.10566000000E+00 0.  1.
        -14    1    4    4    0    0  0.30024112238E+01  0.54178322436E+01 -0.22915757232E+02  0.23738140384E+02  0.00000000000E+00 0.  1.
<mgrwt>
<rscale>  0 0.85108689E+02</rscale>
<asrwt>0</asrwt>
<pdfrwt beam="1">  1        2 0.23424262E-01 0.85108689E+02</pdfrwt>
<pdfrwt beam="2">  1       -1 0.18297644E-02 0.85108689E+02</pdfrwt>
<totfact> 0.17069568E+05</totfact>
</mgrwt>
</event>
<event>
 8    1  0.2676873E-024  0.8038403E+02  0.7818608E-02  0.1327965E+00
         -1   -1    0    0    0  501 -0.00000000000E+00  0.00000000000E+00  0.10187935161E+02  0.10187936408E+02  0.50400000000E-02 0.  1.
          2   -1    0    0  501    0  0.00000000000E+00 -0.00000000000E+00 -0.15855989923E+03  0.15855989925E+03  0.25500000000E-02 0. -1.
         24    2    1    2    0    0  0.00000000000E+00  0.00000000000E+00 -0.14837196407E+03  0.16874783566E+03  0.80384030242E+02 0.  0.
         66    2    3    3    0    0  0.28648186747E+02  0.92631046661E+01 -0.13004511983E+03  0.13350002586E+03  0.20000000877E+01 0.  0.
        -13    1    3    3    0    0 -0.28648186747E+02 -0.92631046661E+01 -0.18326844236E+02  0.35247809799E+02  0.10566000000E+00 0.  1.
         13    1    4    4    0    0  0.97590254628E+01  0.32280448969E+01 -0.43094256149E+02  0.44303328643E+02  0.10566000000E+00 0. -1.
        -13    1    4    4    0    0  0.12724717973E+02  0.44380323880E+01 -0.61774363129E+02  0.63227349169E+02  0.10566000000E+00 0.  1.
        -14    1    4    4    0    0  0.61644433109E+01  0.15970273812E+01 -0.25176500558E+02  0.25969348050E+02  0.00000000000E+00 0.  1.
<mgrwt>
<rscale>  0 0.80384030E+02</rscale>
<asrwt>0</asrwt>
<pdfrwt beam="1">  1        2 0.24393829E-01 0.80384030E+02</pdfrwt>
<pdfrwt beam="2">  1       -1 0.15673749E-02 0.80384030E+02</pdfrwt>
<totfact> 0.20137047E+05</totfact>
</mgrwt>
</event>
<event>
 8    1  0.2676873E-024  0.7757918E+02  0.7818608E-02  0.1336065E+00
          2   -1    0    0  501    0  0.00000000000E+00  0.00000000000E+00  0.32385552858E+03  0.32385552859E+03  0.25500000000E-02 0. -1.
         -1   -1    0    0    0  501 -0.00000000000E+00 -0.00000000000E+00 -0.46459971384E+01  0.46459998721E+01  0.50400000000E-02 0.  1.
         24    2    1    2    0    0  0.00000000000E+00 -0.17763568394E-14  0.31920953145E+03  0.32850152847E+03  0.77579180447E+02 0.  0.
         66    2    3    3    0    0 -0.39058905178E+01  0.10933288052E+02  0.31631676378E+03  0.31653607665E+03  0.20000011742E+01 0.  0.
        -13    1    3    3    0    0  0.39058905178E+01 -0.10933288052E+02  0.28927676663E+01  0.11965451816E+02  0.10566000000E+00 0.  1.
         13    1    4    4    0    0  0.74656563702E-01  0.48054324668E+00  0.85618499951E+01  0.85763007636E+01  0.10566000000E+00 0. -1.
        -13    1    4    4    0    0 -0.47956573074E+00  0.23531972259E+01  0.62853557788E+02  0.62899510420E+02  0.10566000000E+00 0.  1.
         14    1    4    4    0    0 -0.35009813508E+01  0.80995475791E+01  0.24490135600E+03  0.24506026547E+03  0.00000000000E+00 0. -1.
<mgrwt>
<rscale>  0 0.77579180E+02</rscale>
<asrwt>0</asrwt>
<pdfrwt beam="1">  1        2 0.49823948E-01 0.77579180E+02</pdfrwt>
<pdfrwt beam="2">  1       -1 0.71476871E-03 0.77579180E+02</pdfrwt>
<totfact> 0.28402165E+05</totfact>
</mgrwt>
</event>
<event>
 8    1  0.2676873E-024  0.7522951E+02  0.7818608E-02  0.1343162E+00
         -1   -1    0    0    0  501 -0.00000000000E+00  0.00000000000E+00  0.47405888388E+02  0.47405888656E+02  0.50400000000E-02 0.  1.
          2   -1    0    0  501    0  0.00000000000E+00 -0.00000000000E+00 -0.29845867138E+02  0.29845867247E+02  0.25500000000E-02 0. -1.
         24    2    1    2    0    0  0.00000000000E+00  0.00000000000E+00  0.17560021250E+02  0.77251755903E+02  0.75229511788E+02 0.  0.
         66    2    3    3    0    0 -0.12715398969E+02 -0.16551529961E+02 -0.23314805126E+02  0.31356253833E+02  0.20000003402E+01 0.  0.
        -13    1    3    3    0    0  0.12715398969E+02  0.16551529961E+02  0.40874826376E+02  0.45895502071E+02  0.10566000000E+00 0.  1.
         13    1    4    4    0    0 -0.58279494775E+01 -0.78081736303E+01 -0.10264704329E+02  0.14153016977E+02  0.10566000000E+00 0. -1.
        -13    1    4    4    0    0 -0.15568182814E+01 -0.27273796854E+01 -0.31252739964E+01  0.44317924926E+01  0.10566000000E+00 0.  1.
        -14    1    4    4    0    0 -0.53306312101E+01 -0.60159766453E+01 -0.99248268009E+01  0.12771444363E+02  0.00000000000E+00 0.  1.
<mgrwt>
<rscale>  0 0.75229512E+02</rscale>
<asrwt>0</asrwt>
<pdfrwt beam="1">  1        2 0.45916719E-02 0.75229512E+02</pdfrwt>
<pdfrwt beam="2">  1       -1 0.72932136E-02 0.75229512E+02</pdfrwt>
<totfact> 0.15955703E+05</totfact>
</mgrwt>
</event>
<event>
 8    1  0.2676873E-024  0.8065142E+02  0.7818608E-02  0.1327213E+00
         -1   -1    0    0    0  501 -0.00000000000E+00  0.00000000000E+00  0.16097488067E+01  0.16097566966E+01  0.50400000000E-02 0.  1.
          2   -1    0    0  501    0  0.00000000000E+00 -0.00000000000E+00 -0.10101940911E+04  0.10101940911E+04  0.25500000000E-02 0. -1.
         24    2    1    2    0    0 -0.17763568394E-14  0.35527136788E-14 -0.10085843423E+04  0.10118038478E+04  0.80651416004E+02 0.  0.
         66    2    3    3    0    0  0.13768034701E+02 -0.15122119314E+02 -0.94025738356E+03  0.94048188957E+03  0.19999997036E+01 0.  0.
        -13    1    3    3    0    0 -0.13768034701E+02  0.15122119314E+02 -0.68326958767E+02  0.71321958263E+02  0.10566000000E+00 0.  1.
         13    1    4    4    0    0  0.72413538966E+01 -0.80303505747E+01 -0.53369228929E+03  0.53380183078E+03  0.10566000000E+00 0. -1.
        -13    1    4    4    0    0  0.17550428412E+01 -0.23688863999E+01 -0.11791923115E+03  0.11795612759E+03  0.10566000000E+00 0.  1.
         14    1    4    4    0    0  0.47716379633E+01 -0.47228823396E+01 -0.28864586312E+03  0.28872393120E+03  0.00000000000E+00 0. -1.
<mgrwt>
<rscale>  0 0.80651416E+02</rscale>
<asrwt>0</asrwt>
<pdfrwt beam="1">  1        2 0.15541397E+00 0.80651416E+02</pdfrwt>
<pdfrwt beam="2">  1       -1 0.24765508E-03 0.80651416E+02</pdfrwt>
<totfact> 0.34510249E+05</totfact>
</mgrwt>
</event>
<event>
 8    1  0.2676873E-024  0.8077724E+02  0.7818608E-02  0.1326860E+00
          2   -1    0    0  501    0  0.00000000000E+00  0.00000000000E+00  0.20105810045E+03  0.20105810047E+03  0.25500000000E-02 0. -1.
         -1   -1    0    0    0  501 -0.00000000000E+00 -0.00000000000E+00 -0.81132794319E+01  0.81132809974E+01  0.50400000000E-02 0.  1.
         24    2    1    2    0    0  0.88817841970E-15  0.00000000000E+00  0.19294482102E+03  0.20917138147E+03  0.80777242252E+02 0.  0.
         66    2    3    3    0    0 -0.50524131901E+01 -0.27848700293E+02  0.17105090471E+03  0.17338826083E+03  0.20000011606E+01 0.  0.
        -13    1    3    3    0    0  0.50524131901E+01  0.27848700293E+02  0.21893916314E+02  0.35783120639E+02  0.10566000000E+00 0.  1.
         13    1    4    4    0    0 -0.88307617010E+00 -0.49231497658E+01  0.28188221426E+02  0.28628730645E+02  0.10566000000E+00 0. -1.
        -13    1    4    4    0    0 -0.27288180835E+01 -0.10545557539E+02  0.66102285383E+02  0.66993869337E+02  0.10566000000E+00 0.  1.
         14    1    4    4    0    0 -0.14405189365E+01 -0.12379992988E+02  0.76760397900E+02  0.77765660847E+02  0.00000000000E+00 0. -1.
<mgrwt>
<rscale>  0 0.80777242E+02</rscale>
<asrwt>0</asrwt>
<pdfrwt beam="1">  1        2 0.30932019E-01 0.80777242E+02</pdfrwt>
<pdfrwt beam="2">  1       -1 0.12481968E-02 0.80777242E+02</pdfrwt>
<totfact> 0.21542146E+05</totfact>
</mgrwt>
</event>
<event>
 8    1  0.2676873E-024  0.8109050E+02  0.7818608E-02  0.1325985E+00
         -1   -1    0    0    0  501 -0.00000000000E+00  0.00000000000E+00  0.97838973170E+02  0.97838973300E+02  0.50400000000E-02 0.  1.
          2   -1    0    0  501    0  0.00000000000E+00 -0.00000000000E+00 -0.16802276228E+02  0.16802276422E+02  0.25500000000E-02 0. -1.
         24    2    1    2    0    0  0.00000000000E+00  0.00000000000E+00  0.81036696942E+02  0.11464124972E+03  0.81090504293E+02 0.  0.
         66    2    3    3    0    0 -0.37397237299E+02  0.12123379987E+02  0.54422326431E+02  0.67166355497E+02  0.19999991722E+01 0.  0.
        -13    1    3    3    0    0  0.37397237299E+02 -0.12123379987E+02  0.26614370511E+02  0.47474894224E+02  0.10566000000E+00 0.  1.
         13    1    4    4    0    0 -0.89226745610E+01  0.36496198235E+01  0.13718782220E+02  0.16767528017E+02  0.10566000000E+00 0.  1.
        -13    1    4    4    0    0 -0.27306183614E+02  0.82893195683E+01  0.39101785197E+02  0.48407656958E+02  0.10566000000E+00 0. -1.
        -14    1    4    4    0    0 -0.11683791238E+01  0.18444059555E+00  0.16017590142E+01  0.19911705225E+01  0.00000000000E+00 0.  1.
<mgrwt>
<rscale>  0 0.81090504E+02</rscale>
<asrwt>0</asrwt>
<pdfrwt beam="1">  1        2 0.25849656E-02 0.81090504E+02</pdfrwt>
<pdfrwt beam="2">  1       -1 0.15052150E-01 0.81090504E+02</pdfrwt>
<totfact> 0.11513635E+05</totfact>
</mgrwt>
</event>
<event>
 8    1  0.2676873E-024  0.8094489E+02  0.7818608E-02  0.1326391E+00
         -1   -1    0    0    0  501 -0.00000000000E+00  0.00000000000E+00  0.44134617781E+02  0.44134618069E+02  0.50400000000E-02 0.  1.
          2   -1    0    0  501    0  0.00000000000E+00 -0.00000000000E+00 -0.37114151495E+02  0.37114151583E+02  0.25500000000E-02 0. -1.
         24    2    1    2    0    0 -0.71054273576E-14 -0.88817841970E-15  0.70204662864E+01  0.81248769652E+02  0.80944892508E+02 0.  0.
         66    2    3    3    0    0  0.35810493726E+02  0.64982891790E+01 -0.14200255959E+02  0.39118620829E+02  0.20000007884E+01 0.  0.
        -13    1    3    3    0    0 -0.35810493726E+02 -0.64982891790E+01  0.21220722246E+02  0.42130148822E+02  0.10566000000E+00 0.  1.
         13    1    4    4    0    0  0.18576641189E+02  0.28631708418E+01 -0.76768036228E+01  0.20303542130E+02  0.10566000000E+00 0. -1.
        -13    1    4    4    0    0  0.13933375241E+01  0.22188733729E+00 -0.82740095251E+00  0.16390179433E+01  0.10566000000E+00 0.  1.
        -14    1    4    4    0    0  0.15840515012E+02  0.34132309999E+01 -0.56960513840E+01  0.17176060756E+02  0.00000000000E+00 0.  1.
<mgrwt>
<rscale>  0 0.80944893E+02</rscale>
<asrwt>0</asrwt>
<pdfrwt beam="1">  1        2 0.57098695E-02 0.80944893E+02</pdfrwt>
<pdfrwt beam="2">  1       -1 0.67899412E-02 0.80944893E+02</pdfrwt>
<totfact> 0.13588741E+05</totfact>
</mgrwt>
</event>
<event>
 8    1  0.2676873E-024  0.7677902E+02  0.7818608E-02  0.1338449E+00
         -1   -1    0    0    0  501 -0.00000000000E+00  0.00000000000E+00  0.35258940753E+03  0.35258940756E+03  0.50400000000E-02 0.  1.
          2   -1    0    0  501    0  0.00000000000E+00 -0.00000000000E+00 -0.41798029016E+01  0.41798036795E+01  0.25500000000E-02 0. -1.
         24    2    1    2    0    0  0.00000000000E+00  0.00000000000E+00  0.34840960463E+03  0.35676921124E+03  0.76779017286E+02 0.  0.
         66    2    3    3    0    0 -0.34487862939E+02  0.52573331956E+01  0.24848049227E+03  0.25092550145E+03  0.19999992136E+01 0.  0.
        -13    1    3    3    0    0  0.34487862939E+02 -0.52573331956E+01  0.99929112351E+02  0.10584370979E+03  0.10566000000E+00 0.  1.
         13    1    4    4    0    0 -0.82287063874E+01  0.10400932585E+01  0.57903299388E+02  0.58494415518E+02  0.10566000000E+00 0. -1.
        -13    1    4    4    0    0 -0.25502177727E+02  0.39418161925E+01  0.18283230179E+03  0.18464441699E+03  0.10566000000E+00 0.  1.
        -14    1    4    4    0    0 -0.75697882415E+00  0.27542374469E+00  0.77448910966E+01  0.77866689462E+01  0.00000000000E+00 0.  1.
<mgrwt>
<rscale>  0 0.76779017E+02</rscale>
<asrwt>0</asrwt>
<pdfrwt beam="1">  1        2 0.64304670E-03 0.76779017E+02</pdfrwt>
<pdfrwt beam="2">  1       -1 0.54244521E-01 0.76779017E+02</pdfrwt>
<totfact> 0.89567423E+04</totfact>
</mgrwt>
</event>
<event>
 8    1  0.2676873E-024  0.7816647E+02  0.7818608E-02  0.1334337E+00
         -1   -1    0    0    0  501 -0.00000000000E+00  0.00000000000E+00  0.30806848500E+01  0.30806889727E+01  0.50400000000E-02 0.  1.
          2   -1    0    0  501    0  0.00000000000E+00 -0.00000000000E+00 -0.49583077305E+03  0.49583077305E+03  0.25500000000E-02 0. -1.
         24    2    1    2    0    0 -0.17763568394E-14  0.00000000000E+00 -0.49275008820E+03  0.49891146203E+03  0.78166473140E+02 0.  0.
         66    2    3    3    0    0  0.85456582865E+01 -0.33734686240E+02 -0.35971593367E+03  0.36140089964E+03  0.19999995348E+01 0.  0.
        -13    1    3    3    0    0 -0.85456582865E+01  0.33734686240E+02 -0.13303415453E+03  0.13751056238E+03  0.10566000000E+00 0.  1.
         13    1    4    4    0    0  0.24651050452E+01 -0.78647276651E+01 -0.80646205747E+02  0.81066345357E+02  0.10566000000E+00 0. -1.
        -13    1    4    4    0    0  0.20199987120E+01 -0.10879780900E+02 -0.11825421428E+03  0.11877087347E+03  0.10566000000E+00 0.  1.
        -14    1    4    4    0    0  0.40605545293E+01 -0.14990177675E+02 -0.16081551364E+03  0.16156368081E+03  0.00000000000E+00 0.  1.
<mgrwt>
<rscale>  0 0.78166473E+02</rscale>
<asrwt>0</asrwt>
<pdfrwt beam="1">  1        2 0.76281594E-01 0.78166473E+02</pdfrwt>
<pdfrwt beam="2">  1       -1 0.47395223E-03 0.78166473E+02</pdfrwt>
<totfact> 0.32259682E+05</totfact>
</mgrwt>
</event>
<event>
 8    1  0.2676873E-024  0.7549427E+02  0.7818608E-02  0.1342347E+00
         -1   -1    0    0    0  501 -0.00000000000E+00  0.00000000000E+00  0.48527038400E+01  0.48527064573E+01  0.50400000000E-02 0.  1.
          2   -1    0    0  501    0  0.00000000000E+00 -0.00000000000E+00 -0.29361893133E+03  0.29361893134E+03  0.25500000000E-02 0. -1.
         24    2    1    2    0    0  0.00000000000E+00  0.00000000000E+00 -0.28876622749E+03  0.29847163780E+03  0.75494267539E+02 0.  0.
         66    2    3    3    0    0  0.14929649435E+02  0.16777968225E+02 -0.26430050141E+03  0.26526053172E+03  0.19999987760E+01 0.  0.
        -13    1    3    3    0    0 -0.14929649435E+02 -0.16777968225E+02 -0.24465726081E+02  0.33211106075E+02  0.10566000000E+00 0.  1.
         13    1    4    4    0    0  0.33193481387E+01  0.33644107458E+01 -0.57757946204E+02  0.57951090115E+02  0.10566000000E+00 0. -1.
        -13    1    4    4    0    0  0.93109062027E+01  0.11304196119E+02 -0.17577134198E+03  0.17638042309E+03  0.10566000000E+00 0.  1.
        -14    1    4    4    0    0  0.22993950934E+01  0.21093613607E+01 -0.30771213227E+02  0.30929018520E+02  0.00000000000E+00 0.  1.
<mgrwt>
<rscale>  0 0.75494268E+02</rscale>
<asrwt>0</asrwt>
<pdfrwt beam="1">  1        2 0.45172129E-01 0.75494268E+02</pdfrwt>
<pdfrwt beam="2">  1       -1 0.74657026E-03 0.75494268E+02</pdfrwt>
<totfact> 0.29437418E+05</totfact>
</mgrwt>
</event>
<event>
 8    1  0.2676873E-024  0.8081021E+02  0.7818608E-02  0.1326768E+00
          2   -1    0    0  501    0  0.00000000000E+00  0.00000000000E+00  0.17537060070E+04  0.17537060070E+04  0.25500000000E-02 0. -1.
         -1   -1    0    0    0  501 -0.00000000000E+00 -0.00000000000E+00 -0.93092034779E+00  0.93093399096E+00  0.50400000000E-02 0.  1.
         24    2    1    2    0    0  0.00000000000E+00 -0.17763568394E-14  0.17527750867E+04  0.17546369410E+04  0.80810211657E+02 0.  0.
         66    2    3    3    0    0  0.52601464739E+01 -0.12524180300E+02  0.17026027041E+04  0.17026580668E+04  0.20000024964E+01 0.  0.
        -13    1    3    3    0    0 -0.52601464739E+01  0.12524180300E+02  0.50172382566E+02  0.51978874262E+02  0.10566000000E+00 0.  1.
         13    1    4    4    0    0  0.18218337123E+01 -0.49445542476E+01  0.65591247155E+03  0.65593364694E+03  0.10566000000E+00 0. -1.
        -13    1    4    4    0    0  0.11408608792E+01 -0.22635486914E+01  0.41000454513E+03  0.41001239421E+03  0.10566000000E+00 0.  1.
        -14    1    4    4    0    0  0.22974518824E+01 -0.53160773613E+01  0.63668568743E+03  0.63671202559E+03  0.00000000000E+00 0.  1.
<mgrwt>
<rscale>  0 0.80810212E+02</rscale>
<asrwt>0</asrwt>
<pdfrwt beam="1">  1        2 0.26979875E+00 0.80810212E+02</pdfrwt>
<pdfrwt beam="2">  1       -1 0.14322072E-03 0.80810212E+02</pdfrwt>
<totfact> 0.29950157E+05</totfact>
</mgrwt>
</event>
<event>
 8    1  0.2676873E-024  0.8105920E+02  0.7818608E-02  0.1326072E+00
          2   -1    0    0  501    0  0.00000000000E+00  0.00000000000E+00  0.93726739654E+03  0.93726739654E+03  0.25500000000E-02 0. -1.
         -1   -1    0    0    0  501 -0.00000000000E+00 -0.00000000000E+00 -0.17525896763E+01  0.17525969232E+01  0.50400000000E-02 0.  1.
         24    2    1    2    0    0  0.00000000000E+00 -0.17763568394E-14  0.93551480686E+03  0.93901999347E+03  0.81059202247E+02 0.  0.
         66    2    3    3    0    0  0.19040808347E+02 -0.14917805036E+02  0.84440875158E+03  0.84475749953E+03  0.19999947903E+01 0.  0.
        -13    1    3    3    0    0 -0.19040808347E+02  0.14917805036E+02  0.91106055280E+02  0.94262493932E+02  0.10566000000E+00 0.  1.
         13    1    4    4    0    0  0.15162734564E+02 -0.11792776108E+02  0.65752889056E+03  0.65780941858E+03  0.10566000000E+00 0. -1.
        -13    1    4    4    0    0  0.26409176576E+01 -0.23901249348E+01  0.12076820730E+03  0.12082076892E+03  0.10566000000E+00 0.  1.
         14    1    4    4    0    0  0.12371561251E+01 -0.73490399335E+00  0.66111653719E+02  0.66127312032E+02  0.00000000000E+00 0. -1.
<mgrwt>
<rscale>  0 0.81059202E+02</rscale>
<asrwt>0</asrwt>
<pdfrwt beam="1">  1        2 0.14419498E+00 0.81059202E+02</pdfrwt>
<pdfrwt beam="2">  1       -1 0.26962975E-03 0.81059202E+02</pdfrwt>
<totfact> 0.33906735E+05</totfact>
</mgrwt>
</event>
<event>
 8    1  0.2676873E-024  0.7835190E+02  0.7818608E-02  0.1333795E+00
          2   -1    0    0  501    0  0.00000000000E+00  0.00000000000E+00  0.10660269982E+03  0.10660269985E+03  0.25500000000E-02 0. -1.
         -1   -1    0    0    0  501 -0.00000000000E+00 -0.00000000000E+00 -0.14396963016E+02  0.14396963898E+02  0.50400000000E-02 0.  1.
         24    2    1    2    0    0  0.00000000000E+00  0.35527136788E-14  0.92205736804E+02  0.12099966375E+03  0.78351903152E+02 0.  0.
         66    2    3    3    0    0 -0.17473778628E+02 -0.30516288778E+02  0.72709927999E+02  0.80791772168E+02  0.20000000037E+01 0.  0.
        -13    1    3    3    0    0  0.17473778628E+02  0.30516288778E+02  0.19495808804E+02  0.40207891580E+02  0.10566000000E+00 0.  1.
         13    1    4    4    0    0 -0.81548932386E+01 -0.14188398539E+02  0.35508266287E+02  0.39098095549E+02  0.10566000000E+00 0.  1.
        -13    1    4    4    0    0 -0.44069656135E+01 -0.85493864095E+01  0.18448674309E+02  0.20805722811E+02  0.10566000000E+00 0. -1.
         14    1    4    4    0    0 -0.49119197759E+01 -0.77785038294E+01  0.18752987403E+02  0.20887953807E+02  0.00000000000E+00 0. -1.
<mgrwt>
<rscale>  0 0.78351903E+02</rscale>
<asrwt>0</asrwt>
<pdfrwt beam="1">  1        2 0.16400415E-01 0.78351903E+02</pdfrwt>
<pdfrwt beam="2">  1       -1 0.22149175E-02 0.78351903E+02</pdfrwt>
<totfact> 0.19081922E+05</totfact>
</mgrwt>
</event>
<event>
 8    1  0.2676873E-024  0.7959047E+02  0.7818608E-02  0.1330218E+00
         -1   -1    0    0    0  501 -0.00000000000E+00  0.00000000000E+00  0.15906647745E+01  0.15906727591E+01  0.50400000000E-02 0.  1.
          2   -1    0    0  501    0  0.00000000000E+00 -0.00000000000E+00 -0.99559423256E+03  0.99559423256E+03  0.25500000000E-02 0. -1.
         24    2    1    2    0    0  0.00000000000E+00  0.00000000000E+00 -0.99400356778E+03  0.99718490532E+03  0.79590468226E+02 0.  0.
         66    2    3    3    0    0 -0.42796701267E+01 -0.16295744128E+02 -0.94866807382E+03  0.94881978328E+03  0.20000008970E+01 0.  0.
        -13    1    3    3    0    0  0.42796701267E+01  0.16295744128E+02 -0.45335493961E+02  0.48365122038E+02  0.10566000000E+00 0.  1.
         13    1    4    4    0    0 -0.14660239335E+01 -0.33832269916E+01 -0.20618249840E+03  0.20621549229E+03  0.10566000000E+00 0. -1.
        -13    1    4    4    0    0 -0.19549936946E+01 -0.80175326628E+01 -0.49539958747E+03  0.49546832922E+03  0.10566000000E+00 0.  1.
         14    1    4    4    0    0 -0.85865249860E+00 -0.48949844739E+01 -0.24708598795E+03  0.24713596177E+03  0.00000000000E+00 0. -1.
<mgrwt>
<rscale>  0 0.79590468E+02</rscale>
<asrwt>0</asrwt>
<pdfrwt beam="1">  1        2 0.15316785E+00 0.79590468E+02</pdfrwt>
<pdfrwt beam="2">  1       -1 0.24471907E-03 0.79590468E+02</pdfrwt>
<totfact> 0.35696783E+05</totfact>
</mgrwt>
</event>
<event>
 8    1  0.2676873E-024  0.7315458E+02  0.7818608E-02  0.1349683E+00
         -1   -1    0    0    0  501 -0.00000000000E+00  0.00000000000E+00  0.41019779555E+01  0.41019810518E+01  0.50400000000E-02 0.  1.
          2   -1    0    0  501    0  0.00000000000E+00 -0.00000000000E+00 -0.32615918594E+03  0.32615918595E+03  0.25500000000E-02 0. -1.
         24    2    1    2    0    0 -0.35527136788E-14  0.00000000000E+00 -0.32205720799E+03  0.33026116700E+03  0.73154584372E+02 0.  0.
         66    2    3    3    0    0  0.26261385492E+02  0.11422659360E+02 -0.26367558743E+03  0.26523377049E+03  0.20000214401E+01 0.  0.
        -13    1    3    3    0    0 -0.26261385492E+02 -0.11422659360E+02 -0.58381620559E+02  0.65027396518E+02  0.10566000000E+00 0.  1.
         13    1    4    4    0    0  0.16190831698E+02  0.64820471814E+01 -0.16604536058E+03  0.16695877605E+03  0.10566000000E+00 0. -1.
        -13    1    4    4    0    0  0.58466545046E+00  0.25307190044E+00 -0.67822175404E+01  0.68128935025E+01  0.10566000000E+00 0.  1.
        -14    1    4    4    0    0  0.94858883442E+01  0.46875402780E+01 -0.90848009310E+02  0.91462100933E+02  0.00000000000E+00 0.  1.
<mgrwt>
<rscale>  0 0.73154584E+02</rscale>
<asrwt>0</asrwt>
<pdfrwt beam="1">  1        2 0.50178316E-01 0.73154584E+02</pdfrwt>
<pdfrwt beam="2">  1       -1 0.63107403E-03 0.73154584E+02</pdfrwt>
<totfact> 0.33174482E+05</totfact>
</mgrwt>
</event>
<event>
 8    1  0.2676873E-024  0.8090654E+02  0.7818608E-02  0.1326498E+00
          2   -1    0    0  501    0  0.00000000000E+00  0.00000000000E+00  0.69105634890E+03  0.69105634891E+03  0.25500000000E-02 0. -1.
         -1   -1    0    0    0  501 -0.00000000000E+00 -0.00000000000E+00 -0.23680632833E+01  0.23680686467E+01  0.50400000000E-02 0.  1.
         24    2    1    2    0    0 -0.35527136788E-14 -0.88817841970E-15  0.68868828562E+03  0.69342441755E+03  0.80906539358E+02 0.  0.
         66    2    3    3    0    0 -0.25959536368E+02 -0.42358868270E+01  0.60769238251E+03  0.60826463978E+03  0.19999957066E+01 0.  0.
        -13    1    3    3    0    0  0.25959536368E+02  0.42358868270E+01  0.80995903109E+02  0.85159777772E+02  0.10566000000E+00 0.  1.
         13    1    4    4    0    0 -0.27630261869E+01 -0.75798616914E+00  0.60641842112E+02  0.60709579437E+02  0.10566000000E+00 0. -1.
        -13    1    4    4    0    0 -0.15892222137E+02 -0.17076862614E+01  0.37318238532E+03  0.37352454109E+03  0.10566000000E+00 0.  1.
         14    1    4    4    0    0 -0.73042880441E+01 -0.17702143965E+01  0.17386815508E+03  0.17403051926E+03  0.00000000000E+00 0. -1.
<mgrwt>
<rscale>  0 0.80906539E+02</rscale>
<asrwt>0</asrwt>
<pdfrwt beam="1">  1        2 0.10631643E+00 0.80906539E+02</pdfrwt>
<pdfrwt beam="2">  1       -1 0.36431761E-03 0.80906539E+02</pdfrwt>
<totfact> 0.32389038E+05</totfact>
</mgrwt>
</event>
<event>
 8    1  0.2676873E-024  0.7735018E+02  0.7818608E-02  0.1336744E+00
         -1   -1    0    0    0  501 -0.00000000000E+00  0.00000000000E+00  0.69352800877E+01  0.69352819190E+01  0.50400000000E-02 0.  1.
          2   -1    0    0  501    0  0.00000000000E+00 -0.00000000000E+00 -0.21567439742E+03  0.21567439744E+03  0.25500000000E-02 0. -1.
         24    2    1    2    0    0  0.00000000000E+00 -0.17763568394E-14 -0.20873911734E+03  0.22260967936E+03  0.77350179298E+02 0.  0.
         66    2    3    3    0    0 -0.35493777390E+02 -0.14183428534E+02 -0.12091642501E+03  0.12682964841E+03  0.19999995428E+01 0.  0.
        -13    1    3    3    0    0  0.35493777390E+02  0.14183428534E+02 -0.87822692320E+02  0.95780030950E+02  0.10566000000E+00 0.  1.
         13    1    4    4    0    0 -0.15694624641E+02 -0.65687897430E+01 -0.56193709404E+02  0.58712983078E+02  0.10566000000E+00 0. -1.
        -13    1    4    4    0    0 -0.65709528664E+00 -0.17320302627E+00 -0.24498589510E+01  0.25445523024E+01  0.10566000000E+00 0. -1.
         14    1    4    4    0    0 -0.19142057463E+02 -0.74414357646E+01 -0.62272856660E+02  0.65572113027E+02  0.00000000000E+00 0. -1.
<mgrwt>
<rscale>  0 0.77350179E+02</rscale>
<asrwt>0</asrwt>
<pdfrwt beam="1">  1        2 0.33180671E-01 0.77350179E+02</pdfrwt>
<pdfrwt beam="2">  1       -1 0.10669665E-02 0.77350179E+02</pdfrwt>
<totfact> 0.24746704E+05</totfact>
</mgrwt>
</event>
<event>
 8    1  0.2676873E-024  0.7855972E+02  0.7818608E-02  0.1333189E+00
         -1   -1    0    0    0  501 -0.00000000000E+00  0.00000000000E+00  0.77920100521E+01  0.77920116820E+01  0.50400000000E-02 0.  1.
          2   -1    0    0  501    0  0.00000000000E+00 -0.00000000000E+00 -0.19801147800E+03  0.19801147802E+03  0.25500000000E-02 0. -1.
         24    2    1    2    0    0  0.00000000000E+00  0.00000000000E+00 -0.19021946795E+03  0.20580348970E+03  0.78559724960E+02 0.  0.
         66    2    3    3    0    0 -0.81035767468E+01  0.79983442490E+01 -0.19358511358E+03  0.19392998132E+03  0.19999968667E+01 0.  0.
        -13    1    3    3    0    0  0.81035767468E+01 -0.79983442490E+01  0.33656456282E+01  0.11873508384E+02  0.10566000000E+00 0.  1.
         13    1    4    4    0    0 -0.16073832644E+01  0.88651316923E+00 -0.30491368653E+02  0.30546756177E+02  0.10566000000E+00 0. -1.
        -13    1    4    4    0    0 -0.33103544669E+00  0.79705369195E+00 -0.18476996054E+02  0.18497443777E+02  0.10566000000E+00 0.  1.
         14    1    4    4    0    0 -0.61651580357E+01  0.63147773878E+01 -0.14461674887E+03  0.14488578136E+03  0.00000000000E+00 0. -1.
<mgrwt>
<rscale>  0 0.78559725E+02</rscale>
<asrwt>0</asrwt>
<pdfrwt beam="1">  1        2 0.30463301E-01 0.78559725E+02</pdfrwt>
<pdfrwt beam="2">  1       -1 0.11987711E-02 0.78559725E+02</pdfrwt>
<totfact> 0.23060822E+05</totfact>
</mgrwt>
</event>
<event>
 8    1  0.2676873E-024  0.7962980E+02  0.7818608E-02  0.1330105E+00
         -1   -1    0    0    0  501 -0.00000000000E+00  0.00000000000E+00  0.33173122108E+01  0.33173160394E+01  0.50400000000E-02 0.  1.
          2   -1    0    0  501    0  0.00000000000E+00 -0.00000000000E+00 -0.47786434160E+03  0.47786434161E+03  0.25500000000E-02 0. -1.
         24    2    1    2    0    0  0.00000000000E+00  0.00000000000E+00 -0.47454702939E+03  0.48118165765E+03  0.79629796892E+02 0.  0.
         66    2    3    3    0    0  0.18392561429E+02  0.34771426552E+02 -0.27362009203E+03  0.27644039717E+03  0.20000013008E+01 0.  0.
        -13    1    3    3    0    0 -0.18392561429E+02 -0.34771426552E+02 -0.20092693736E+03  0.20474126048E+03  0.10566000000E+00 0.  1.
         13    1    4    4    0    0  0.27152154298E+01  0.43729797405E+01 -0.36686687439E+02  0.37046181259E+02  0.10566000000E+00 0. -1.
        -13    1    4    4    0    0  0.35958206808E+01  0.83616963558E+01 -0.64343908894E+02  0.64984595621E+02  0.10566000000E+00 0.  1.
         14    1    4    4    0    0  0.12081525319E+02  0.22036750455E+02 -0.17258949570E+03  0.17440962029E+03  0.00000000000E+00 0. -1.
<mgrwt>
<rscale>  0 0.79629797E+02</rscale>
<asrwt>0</asrwt>
<pdfrwt beam="1">  1        2 0.73517537E-01 0.79629797E+02</pdfrwt>
<pdfrwt beam="2">  1       -1 0.51035640E-03 0.79629797E+02</pdfrwt>
<totfact> 0.30374738E+05</totfact>
</mgrwt>
</event>
<event>
 8    1  0.2676873E-024  0.7874164E+02  0.7818608E-02  0.1332661E+00
         -1   -1    0    0    0  501 -0.00000000000E+00  0.00000000000E+00  0.29626388492E+02  0.29626388921E+02  0.50400000000E-02 0.  1.
          2   -1    0    0  501    0  0.00000000000E+00 -0.00000000000E+00 -0.52320295157E+02  0.52320295220E+02  0.25500000000E-02 0. -1.
         24    2    1    2    0    0  0.00000000000E+00  0.00000000000E+00 -0.22693906666E+02  0.81946684140E+02  0.78741638552E+02 0.  0.
         66    2    3    3    0    0 -0.16319408818E+02 -0.35433632598E+02 -0.16680280666E+02  0.42474665127E+02  0.19999978194E+01 0.  0.
        -13    1    3    3    0    0  0.16319408818E+02  0.35433632598E+02 -0.60136259996E+01  0.39472019013E+02  0.10566000000E+00 0.  1.
         13    1    4    4    0    0 -0.11425841731E+02 -0.26155123735E+02 -0.12131721806E+02  0.31013387349E+02  0.10566000000E+00 0. -1.
        -13    1    4    4    0    0 -0.86476882994E+00 -0.14282173742E+01 -0.45188002841E+00  0.17329136138E+01  0.10566000000E+00 0.  1.
         14    1    4    4    0    0 -0.40287982575E+01 -0.78502914896E+01 -0.40966788316E+01  0.97283641647E+01  0.00000000000E+00 0. -1.
<mgrwt>
<rscale>  0 0.78741639E+02</rscale>
<asrwt>0</asrwt>
<pdfrwt beam="1">  1        2 0.80492762E-02 0.78741639E+02</pdfrwt>
<pdfrwt beam="2">  1       -1 0.45579060E-02 0.78741639E+02</pdfrwt>
<totfact> 0.15760274E+05</totfact>
</mgrwt>
</event>
<event>
 8    1  0.2676873E-024  0.7930126E+02  0.7818608E-02  0.1331046E+00
          2   -1    0    0  501    0  0.00000000000E+00  0.00000000000E+00  0.10171712614E+03  0.10171712617E+03  0.25500000000E-02 0. -1.
         -1   -1    0    0    0  501 -0.00000000000E+00 -0.00000000000E+00 -0.15456319237E+02  0.15456320059E+02  0.50400000000E-02 0.  1.
         24    2    1    2    0    0  0.00000000000E+00  0.00000000000E+00  0.86260806898E+02  0.11717344623E+03  0.79301259093E+02 0.  0.
         66    2    3    3    0    0 -0.85276227888E+01 -0.28953363068E+02  0.81092858708E+02  0.86550963702E+02  0.20000002452E+01 0.  0.
        -13    1    3    3    0    0  0.85276227888E+01  0.28953363068E+02  0.51679481904E+01  0.30622482524E+02  0.10566000000E+00 0.  1.
         13    1    4    4    0    0 -0.44470196234E+01 -0.13514367216E+02  0.39379531553E+02  0.41870906059E+02  0.10566000000E+00 0. -1.
        -13    1    4    4    0    0 -0.40157995231E+01 -0.15036638456E+02  0.40059577430E+02  0.42976831546E+02  0.10566000000E+00 0.  1.
         14    1    4    4    0    0 -0.64803642298E-01 -0.40235739606E+00  0.16537497246E+01  0.17032260971E+01  0.00000000000E+00 0. -1.
<mgrwt>
<rscale>  0 0.79301259E+02</rscale>
<asrwt>0</asrwt>
<pdfrwt beam="1">  1        2 0.15648788E-01 0.79301259E+02</pdfrwt>
<pdfrwt beam="2">  1       -1 0.23778954E-02 0.79301259E+02</pdfrwt>
<totfact> 0.18233908E+05</totfact>
</mgrwt>
</event>
<event>
 8    1  0.2676873E-024  0.7937306E+02  0.7818608E-02  0.1330840E+00
         -1   -1    0    0    0  501 -0.00000000000E+00  0.00000000000E+00  0.10007192589E+02  0.10007193858E+02  0.50400000000E-02 0.  1.
          2   -1    0    0  501    0  0.00000000000E+00 -0.00000000000E+00 -0.15738886491E+03  0.15738886493E+03  0.25500000000E-02 0. -1.
         24    2    1    2    0    0 -0.88817841970E-15  0.00000000000E+00 -0.14738167232E+03  0.16739605879E+03  0.79373063199E+02 0.  0.
         66    2    3    3    0    0 -0.37586322365E+01 -0.93750269361E+01 -0.15462436444E+03  0.15496681104E+03  0.19999997299E+01 0.  0.
        -13    1    3    3    0    0  0.37586322365E+01  0.93750269361E+01  0.72426921215E+01  0.12429247747E+02  0.10566000000E+00 0.  1.
         13    1    4    4    0    0 -0.86447421540E+00 -0.12847112607E+01 -0.20690664668E+02  0.20748796763E+02  0.10566000000E+00 0. -1.
        -13    1    4    4    0    0 -0.43822856125E+00 -0.51310597816E+00 -0.16747882093E+02  0.16761803025E+02  0.10566000000E+00 0.  1.
        -14    1    4    4    0    0 -0.24559294599E+01 -0.75772096972E+01 -0.11718581768E+03  0.11745621125E+03  0.00000000000E+00 0.  1.
<mgrwt>
<rscale>  0 0.79373063E+02</rscale>
<asrwt>0</asrwt>
<pdfrwt beam="1">  1        2 0.24213670E-01 0.79373063E+02</pdfrwt>
<pdfrwt beam="2">  1       -1 0.15395683E-02 0.79373063E+02</pdfrwt>
<totfact> 0.20773548E+05</totfact>
</mgrwt>
</event>
<event>
 8    1  0.2676873E-024  0.8885355E+02  0.7818608E-02  0.1305652E+00
          2   -1    0    0  501    0  0.00000000000E+00  0.00000000000E+00  0.58011632385E+03  0.58011632386E+03  0.25500000000E-02 0. -1.
         -1   -1    0    0    0  501 -0.00000000000E+00 -0.00000000000E+00 -0.34023129350E+01  0.34023166680E+01  0.50400000000E-02 0.  1.
         24    2    1    2    0    0 -0.35527136788E-14  0.00000000000E+00  0.57671401092E+03  0.58351864053E+03  0.88853550593E+02 0.  0.
         66    2    3    3    0    0 -0.12547719565E+02  0.19712281327E+02  0.53647098724E+03  0.53698336981E+03  0.20000018123E+01 0.  0.
        -13    1    3    3    0    0  0.12547719565E+02 -0.19712281327E+02  0.40243023683E+02  0.46535270716E+02  0.10566000000E+00 0.  1.
         13    1    4    4    0    0 -0.18221517068E+01  0.36014815817E+01  0.93891497121E+02  0.93978270372E+02  0.10566000000E+00 0. -1.
        -13    1    4    4    0    0 -0.50087766311E+00  0.11882811980E+01  0.36431812841E+02  0.36454780778E+02  0.10566000000E+00 0.  1.
        -14    1    4    4    0    0 -0.10224690195E+02  0.14922518547E+02  0.40614767727E+03  0.40655031866E+03  0.00000000000E+00 0.  1.
<mgrwt>
<rscale>  0 0.88853551E+02</rscale>
<asrwt>0</asrwt>
<pdfrwt beam="1">  1        2 0.89248649E-01 0.88853551E+02</pdfrwt>
<pdfrwt beam="2">  1       -1 0.52343315E-03 0.88853551E+02</pdfrwt>
<totfact> 0.24208194E+05</totfact>
</mgrwt>
</event>
<event>
 8    1  0.2676873E-024  0.7925532E+02  0.7818608E-02  0.1331178E+00
          2   -1    0    0  501    0  0.00000000000E+00  0.00000000000E+00  0.29152881939E+03  0.29152881940E+03  0.25500000000E-02 0. -1.
         -1   -1    0    0    0  501 -0.00000000000E+00 -0.00000000000E+00 -0.53866072267E+01  0.53866095846E+01  0.50400000000E-02 0.  1.
         24    2    1    2    0    0  0.00000000000E+00  0.00000000000E+00  0.28614221216E+03  0.29691542898E+03  0.79255324036E+02 0.  0.
         66    2    3    3    0    0 -0.93550283777E+01  0.36187237921E+02  0.19219633257E+03  0.19580720874E+03  0.19999994235E+01 0.  0.
        -13    1    3    3    0    0  0.93550283777E+01 -0.36187237921E+02  0.93945879595E+02  0.10110822025E+03  0.10566000000E+00 0.  1.
         13    1    4    4    0    0 -0.62768360678E+01  0.26787647800E+02  0.13930094445E+03  0.14199204567E+03  0.10566000000E+00 0. -1.
        -13    1    4    4    0    0 -0.11412908391E+00  0.32348151637E+00  0.18428417358E+01  0.18774704892E+01  0.10566000000E+00 0. -1.
         14    1    4    4    0    0 -0.29640632260E+01  0.90761086042E+01  0.51052546384E+02  0.51937692580E+02  0.00000000000E+00 0. -1.
<mgrwt>
<rscale>  0 0.79255324E+02</rscale>
<asrwt>0</asrwt>
<pdfrwt beam="1">  1        2 0.44850597E-01 0.79255324E+02</pdfrwt>
<pdfrwt beam="2">  1       -1 0.82870881E-03 0.79255324E+02</pdfrwt>
<totfact> 0.25857622E+05</totfact>
</mgrwt>
</event>
<event>
 8    1  0.2676873E-024  0.8840974E+02  0.7818608E-02  0.1306749E+00
         -1   -1    0    0    0  501 -0.00000000000E+00  0.00000000000E+00  0.94253482817E+02  0.94253482952E+02  0.50400000000E-02 0.  1.
          2   -1    0    0  501    0  0.00000000000E+00 -0.00000000000E+00 -0.20732077489E+02  0.20732077646E+02  0.25500000000E-02 0. -1.
         24    2    1    2    0    0  0.00000000000E+00  0.00000000000E+00  0.73521405328E+02  0.11498556060E+03  0.88409739873E+02 0.  0.
         66    2    3    3    0    0 -0.13784954869E+02  0.36254377391E+02  0.64297510719E+02  0.75117073587E+02  0.19999997000E+01 0.  0.
        -13    1    3    3    0    0  0.13784954869E+02 -0.36254377391E+02  0.92238946087E+01  0.39868487011E+02  0.10566000000E+00 0.  1.
         13    1    4    4    0    0 -0.39922469532E+01  0.90565101481E+01  0.16211123093E+02  0.18993948715E+02  0.10566000000E+00 0. -1.
        -13    1    4    4    0    0 -0.17576767688E+01  0.64101897875E+01  0.11513229597E+02  0.13294569588E+02  0.10566000000E+00 0.  1.
         14    1    4    4    0    0 -0.80350311469E+01  0.20787677455E+02  0.36573158029E+02  0.42828555284E+02  0.00000000000E+00 0. -1.
<mgrwt>
<rscale>  0 0.88409740E+02</rscale>
<asrwt>0</asrwt>
<pdfrwt beam="1">  1        2 0.31895504E-02 0.88409740E+02</pdfrwt>
<pdfrwt beam="2">  1       -1 0.14500536E-01 0.88409740E+02</pdfrwt>
<totfact> 0.93634725E+04</totfact>
</mgrwt>
</event>
<event>
 8    1  0.2676873E-024  0.8023147E+02  0.7818608E-02  0.1328396E+00
         -1   -1    0    0    0  501 -0.00000000000E+00  0.00000000000E+00  0.16656922471E+02  0.16656923234E+02  0.50400000000E-02 0.  1.
          2   -1    0    0  501    0  0.00000000000E+00 -0.00000000000E+00 -0.96612813206E+02  0.96612813239E+02  0.25500000000E-02 0. -1.
         24    2    1    2    0    0  0.00000000000E+00 -0.88817841970E-15 -0.79955890734E+02  0.11326973647E+03  0.80231469746E+02 0.  0.
         66    2    3    3    0    0  0.10064544372E+02 -0.48931472727E+01 -0.94352466111E+02  0.95034866299E+02  0.20000018892E+01 0.  0.
        -13    1    3    3    0    0 -0.10064544372E+02  0.48931472727E+01  0.14396575377E+02  0.18234870174E+02  0.10566000000E+00 0.  1.
         13    1    4    4    0    0  0.20121178992E+01 -0.98033548567E+00 -0.19167631742E+02  0.19298159154E+02  0.10566000000E+00 0. -1.
        -13    1    4    4    0    0  0.12022678108E+01 -0.14446620395E+00 -0.69573841874E+01  0.70627669606E+01  0.10566000000E+00 0.  1.
        -14    1    4    4    0    0  0.68501586624E+01 -0.37683455831E+01 -0.68227450182E+02  0.68673940184E+02  0.00000000000E+00 0.  1.
<mgrwt>
<rscale>  0 0.80231470E+02</rscale>
<asrwt>0</asrwt>
<pdfrwt beam="1">  1        2 0.14863509E-01 0.80231470E+02</pdfrwt>
<pdfrwt beam="2">  1       -1 0.25626036E-02 0.80231470E+02</pdfrwt>
<totfact> 0.17421295E+05</totfact>
</mgrwt>
</event>
<event>
 8    1  0.2676873E-024  0.7940686E+02  0.7818608E-02  0.1330743E+00
         -1   -1    0    0    0  501 -0.00000000000E+00  0.00000000000E+00  0.59694796500E+02  0.59694796713E+02  0.50400000000E-02 0.  1.
          2   -1    0    0  501    0  0.00000000000E+00 -0.00000000000E+00 -0.26407031702E+02  0.26407031825E+02  0.25500000000E-02 0. -1.
         24    2    1    2    0    0  0.00000000000E+00  0.00000000000E+00  0.33287764798E+02  0.86101828537E+02  0.79406861115E+02 0.  0.
         66    2    3    3    0    0 -0.14663062664E+02  0.32573058722E+02  0.35383464976E+02  0.50318973921E+02  0.19999953906E+01 0.  0.
        -13    1    3    3    0    0  0.14663062664E+02 -0.32573058722E+02 -0.20957001781E+01  0.35782854616E+02  0.10566000000E+00 0.  1.
         13    1    4    4    0    0 -0.62772051532E+01  0.15299567358E+02  0.15716114370E+02  0.22814194721E+02  0.10566000000E+00 0. -1.
        -13    1    4    4    0    0 -0.83053507360E+01  0.17031317198E+02  0.19222069822E+02  0.26991549578E+02  0.10566000000E+00 0.  1.
        -14    1    4    4    0    0 -0.80506774293E-01  0.24217416682E+00  0.44528078446E+00  0.51322962189E+00  0.00000000000E+00 0.  1.
<mgrwt>
<rscale>  0 0.79406861E+02</rscale>
<asrwt>0</asrwt>
<pdfrwt beam="1">  1        2 0.40626202E-02 0.79406861E+02</pdfrwt>
<pdfrwt beam="2">  1       -1 0.91838150E-02 0.79406861E+02</pdfrwt>
<totfact> 0.13399634E+05</totfact>
</mgrwt>
</event>
<event>
 8    1  0.2676873E-024  0.7893273E+02  0.7818608E-02  0.1332108E+00
          2   -1    0    0  501    0  0.00000000000E+00  0.00000000000E+00  0.40382756337E+03  0.40382756337E+03  0.25500000000E-02 0. -1.
         -1   -1    0    0    0  501 -0.00000000000E+00 -0.00000000000E+00 -0.38570752697E+01  0.38570785626E+01  0.50400000000E-02 0.  1.
         24    2    1    2    0    0 -0.35527136788E-14  0.71054273576E-14  0.39997048810E+03  0.40768464194E+03  0.78932730366E+02 0.  0.
         66    2    3    3    0    0 -0.12650257369E+02  0.37064668495E+02  0.17601421222E+03  0.18032975783E+03  0.19999976874E+01 0.  0.
        -13    1    3    3    0    0  0.12650257369E+02 -0.37064668495E+02  0.22395627587E+03  0.22735488411E+03  0.10566000000E+00 0.  1.
         13    1    4    4    0    0 -0.54474055660E+01  0.14880605079E+02  0.70027201869E+02  0.71797818912E+02  0.10566000000E+00 0. -1.
        -13    1    4    4    0    0 -0.15798284365E+01  0.55366456773E+01  0.23671468640E+02  0.24361853272E+02  0.10566000000E+00 0.  1.
        -14    1    4    4    0    0 -0.56230233665E+01  0.16647417739E+02  0.82315541715E+02  0.84170085642E+02  0.00000000000E+00 0.  1.
<mgrwt>
<rscale>  0 0.78932730E+02</rscale>
<asrwt>0</asrwt>
<pdfrwt beam="1">  1        2 0.62127277E-01 0.78932730E+02</pdfrwt>
<pdfrwt beam="2">  1       -1 0.59339684E-03 0.78932730E+02</pdfrwt>
<totfact> 0.29359091E+05</totfact>
</mgrwt>
</event>
<event>
 8    1  0.2676873E-024  0.7939985E+02  0.7818608E-02  0.1330763E+00
          2   -1    0    0  501    0  0.00000000000E+00  0.00000000000E+00  0.15087670728E+04  0.15087670728E+04  0.25500000000E-02 0. -1.
         -1   -1    0    0    0  501 -0.00000000000E+00 -0.00000000000E+00 -0.10446111238E+01  0.10446232822E+01  0.50400000000E-02 0.  1.
         24    2    1    2    0    0  0.17763568394E-14 -0.35527136788E-14  0.15077224617E+04  0.15098116961E+04  0.79399850064E+02 0.  0.
         66    2    3    3    0    0  0.11722491340E+02 -0.16855439397E+02  0.13998946323E+04  0.14000466078E+04  0.20000010945E+01 0.  0.
        -13    1    3    3    0    0 -0.11722491340E+02  0.16855439397E+02  0.10782782942E+03  0.10976508826E+03  0.10566000000E+00 0.  1.
         13    1    4    4    0    0  0.15092096955E+01 -0.20514894451E+01  0.14359816169E+03  0.14362078376E+03  0.10566000000E+00 0. -1.
        -13    1    4    4    0    0  0.11401301859E+01 -0.17424058707E+01  0.17459888014E+03  0.17461132834E+03  0.10566000000E+00 0.  1.
         14    1    4    4    0    0  0.90731514589E+01 -0.13061544081E+02  0.10816975905E+04  0.10818144957E+04  0.00000000000E+00 0. -1.
<mgrwt>
<rscale>  0 0.79399850E+02</rscale>
<asrwt>0</asrwt>
<pdfrwt beam="1">  1        2 0.23212017E+00 0.79399850E+02</pdfrwt>
<pdfrwt beam="2">  1       -1 0.16070884E-03 0.79399850E+02</pdfrwt>
<totfact> 0.33833391E+05</totfact>
</mgrwt>
</event>
<event>
 8    1  0.2676873E-024  0.8213697E+02  0.7818608E-02  0.1323094E+00
          2   -1    0    0  501    0  0.00000000000E+00  0.00000000000E+00  0.10274180415E+04  0.10274180415E+04  0.25500000000E-02 0. -1.
         -1   -1    0    0    0  501 -0.00000000000E+00 -0.00000000000E+00 -0.16416068998E+01  0.16416146366E+01  0.50400000000E-02 0.  1.
         24    2    1    2    0    0  0.00000000000E+00  0.00000000000E+00  0.10257764346E+04  0.10290596562E+04  0.82136971660E+02 0.  0.
         66    2    3    3    0    0  0.16210148415E+02 -0.10218459449E+02  0.96793401024E+03  0.96812573254E+03  0.20000020280E+01 0.  0.
        -13    1    3    3    0    0 -0.16210148415E+02  0.10218459449E+02  0.57842424395E+02  0.60933923631E+02  0.10566000000E+00 0.  1.
         13    1    4    4    0    0  0.14097828209E+02 -0.81460795689E+01  0.82411824316E+03  0.82427907728E+03  0.10566000000E+00 0. -1.
        -13    1    4    4    0    0  0.69500055118E+00 -0.65876437819E+00  0.40091594609E+02  0.40103168435E+02  0.10566000000E+00 0.  1.
         14    1    4    4    0    0  0.14173196548E+01 -0.14136155021E+01  0.10372417247E+03  0.10374348682E+03  0.00000000000E+00 0. -1.
<mgrwt>
<rscale>  0 0.82136972E+02</rscale>
<asrwt>0</asrwt>
<pdfrwt beam="1">  1        2 0.15806441E+00 0.82136972E+02</pdfrwt>
<pdfrwt beam="2">  1       -1 0.25255535E-03 0.82136972E+02</pdfrwt>
<totfact> 0.32926259E+05</totfact>
</mgrwt>
</event>
<event>
 8    1  0.2676873E-024  0.7446253E+02  0.7818608E-02  0.1345544E+00
          2   -1    0    0  501    0  0.00000000000E+00  0.00000000000E+00  0.57547037174E+03  0.57547037175E+03  0.25500000000E-02 0. -1.
         -1   -1    0    0    0  501 -0.00000000000E+00 -0.00000000000E+00 -0.24087524675E+01  0.24087577402E+01  0.50400000000E-02 0.  1.
         24    2    1    2    0    0  0.00000000000E+00  0.00000000000E+00  0.57306161927E+03  0.57787912949E+03  0.74462532942E+02 0.  0.
         66    2    3    3    0    0 -0.95496115643E+01  0.56472954217E+01  0.56233091344E+03  0.56244390230E+03  0.19999994741E+01 0.  0.
        -13    1    3    3    0    0  0.95496115643E+01 -0.56472954217E+01  0.10730705837E+02  0.15435227190E+02  0.10566000000E+00 0.  1.
         13    1    4    4    0    0 -0.21635239882E+01  0.96287260406E+00  0.15087688563E+03  0.15089550604E+03  0.10566000000E+00 0. -1.
        -13    1    4    4    0    0 -0.14291099741E+01  0.11838536987E+01  0.71469510987E+02  0.71493678249E+02  0.10566000000E+00 0.  1.
        -14    1    4    4    0    0 -0.59569776020E+01  0.35005691190E+01  0.33998451682E+03  0.34005471801E+03  0.00000000000E+00 0.  1.
<mgrwt>
<rscale>  0 0.74462533E+02</rscale>
<asrwt>0</asrwt>
<pdfrwt beam="1">  1        2 0.88533950E-01 0.74462533E+02</pdfrwt>
<pdfrwt beam="2">  1       -1 0.37057751E-03 0.74462533E+02</pdfrwt>
<totfact> 0.38283080E+05</totfact>
</mgrwt>
</event>
<event>
 8    1  0.2676873E-024  0.7889012E+02  0.7818608E-02  0.1332231E+00
         -1   -1    0    0    0  501 -0.00000000000E+00  0.00000000000E+00  0.32064367961E+01  0.32064407572E+01  0.50400000000E-02 0.  1.
          2   -1    0    0  501    0  0.00000000000E+00 -0.00000000000E+00 -0.48524638356E+03  0.48524638356E+03  0.25500000000E-02 0. -1.
         24    2    1    2    0    0  0.00000000000E+00  0.00000000000E+00 -0.48203994676E+03  0.48845282432E+03  0.78890121776E+02 0.  0.
         66    2    3    3    0    0 -0.35394862484E+02  0.17293403863E+02 -0.25003894472E+03  0.25313105690E+03  0.19999965280E+01 0.  0.
        -13    1    3    3    0    0  0.35394862484E+02 -0.17293403863E+02 -0.23200100204E+03  0.23532176742E+03  0.10566000000E+00 0.  1.
         13    1    4    4    0    0 -0.87764218895E+01  0.42343469478E+01 -0.60337703152E+02  0.61119594738E+02  0.10566000000E+00 0. -1.
        -13    1    4    4    0    0 -0.63255314411E+01  0.38475526618E+01 -0.45724783804E+02  0.46320438550E+02  0.10566000000E+00 0.  1.
        -14    1    4    4    0    0 -0.20292909153E+02  0.92115042530E+01 -0.14397645776E+03  0.14569102362E+03  0.00000000000E+00 0.  1.
<mgrwt>
<rscale>  0 0.78890122E+02</rscale>
<asrwt>0</asrwt>
<pdfrwt beam="1">  1        2 0.74653231E-01 0.78890122E+02</pdfrwt>
<pdfrwt beam="2">  1       -1 0.49329866E-03 0.78890122E+02</pdfrwt>
<totfact> 0.31277585E+05</totfact>
</mgrwt>
</event>
<event>
 8    1  0.2676873E-024  0.7963117E+02  0.7818608E-02  0.1330101E+00
          2   -1    0    0  501    0  0.00000000000E+00  0.00000000000E+00  0.25019387006E+03  0.25019387008E+03  0.25500000000E-02 0. -1.
         -1   -1    0    0    0  501 -0.00000000000E+00 -0.00000000000E+00 -0.63362080503E+01  0.63362100547E+01  0.50400000000E-02 0.  1.
         24    2    1    2    0    0  0.00000000000E+00  0.35527136788E-14  0.24385766201E+03  0.25653008013E+03  0.79631166572E+02 0.  0.
         66    2    3    3    0    0 -0.11897821464E+02 -0.24378481735E+02  0.21578359957E+03  0.21749121906E+03  0.20000000047E+01 0.  0.
        -13    1    3    3    0    0  0.11897821464E+02  0.24378481735E+02  0.28074062446E+02  0.39038861069E+02  0.10566000000E+00 0.  1.
         13    1    4    4    0    0 -0.21277881393E+01 -0.46596941626E+01  0.37702701648E+02  0.38049245822E+02  0.10566000000E+00 0. -1.
        -13    1    4    4    0    0 -0.57790746678E+00 -0.57790319633E+00  0.62534135837E+01  0.63074792611E+01  0.10566000000E+00 0.  1.
         14    1    4    4    0    0 -0.91921258574E+01 -0.19140884376E+02  0.17182748433E+03  0.17313449398E+03  0.00000000000E+00 0. -1.
<mgrwt>
<rscale>  0 0.79631167E+02</rscale>
<asrwt>0</asrwt>
<pdfrwt beam="1">  1        2 0.38491362E-01 0.79631167E+02</pdfrwt>
<pdfrwt beam="2">  1       -1 0.97480146E-03 0.79631167E+02</pdfrwt>
<totfact> 0.24166744E+05</totfact>
</mgrwt>
</event>
<event>
 8    1  0.2676873E-024  0.8539732E+02  0.7818608E-02  0.1314397E+00
          2   -1    0    0  501    0  0.00000000000E+00  0.00000000000E+00  0.90891890429E+02  0.90891890465E+02  0.25500000000E-02 0. -1.
         -1   -1    0    0    0  501 -0.00000000000E+00 -0.00000000000E+00 -0.20058726469E+02  0.20058727102E+02  0.50400000000E-02 0.  1.
         24    2    1    2    0    0 -0.35527136788E-14  0.00000000000E+00  0.70833163960E+02  0.11095061757E+03  0.85397320930E+02 0.  0.
         66    2    3    3    0    0 -0.27861749887E+02 -0.13105675671E+02  0.73826660419E+02  0.80015071239E+02  0.19999987870E+01 0.  0.
        -13    1    3    3    0    0  0.27861749887E+02  0.13105675671E+02 -0.29934964589E+01  0.30935546329E+02  0.10566000000E+00 0.  1.
         13    1    4    4    0    0 -0.64459522608E+01 -0.26235825531E+01  0.15428507296E+02  0.16925823093E+02  0.10566000000E+00 0. -1.
        -13    1    4    4    0    0 -0.18097970317E+02 -0.91848147908E+01  0.50445111914E+02  0.54374790412E+02  0.10566000000E+00 0.  1.
        -14    1    4    4    0    0 -0.33178273091E+01 -0.12972783269E+01  0.79530412089E+01  0.87144577330E+01  0.00000000000E+00 0.  1.
<mgrwt>
<rscale>  0 0.85397321E+02</rscale>
<asrwt>0</asrwt>
<pdfrwt beam="1">  1        2 0.13983368E-01 0.85397321E+02</pdfrwt>
<pdfrwt beam="2">  1       -1 0.30859580E-02 0.85397321E+02</pdfrwt>
<totfact> 0.14479223E+05</totfact>
</mgrwt>
</event>
<event>
 8    1  0.2676873E-024  0.7786960E+02  0.7818608E-02  0.1335208E+00
         -1   -1    0    0    0  501 -0.00000000000E+00  0.00000000000E+00  0.61993414117E+01  0.61993434604E+01  0.50400000000E-02 0.  1.
          2   -1    0    0  501    0  0.00000000000E+00 -0.00000000000E+00 -0.24452897177E+03  0.24452897178E+03  0.25500000000E-02 0. -1.
         24    2    1    2    0    0  0.00000000000E+00  0.35527136788E-14 -0.23832963035E+03  0.25072831524E+03  0.77869604841E+02 0.  0.
         66    2    3    3    0    0  0.82943520957E+01 -0.30520762007E+02 -0.19221385744E+03  0.19480882967E+03  0.19999843983E+01 0.  0.
        -13    1    3    3    0    0 -0.82943520957E+01  0.30520762007E+02 -0.46115772915E+02  0.55919485565E+02  0.10566000000E+00 0.  1.
         13    1    4    4    0    0  0.27031975260E+01 -0.11651807716E+02 -0.76738660997E+02  0.77665340761E+02  0.10566000000E+00 0. -1.
        -13    1    4    4    0    0  0.23811381914E+01 -0.89342792964E+01 -0.56323459225E+02  0.57077442031E+02  0.10566000000E+00 0.  1.
        -14    1    4    4    0    0  0.32100163783E+01 -0.99346749956E+01 -0.59151737217E+02  0.60066046883E+02  0.00000000000E+00 0.  1.
<mgrwt>
<rscale>  0 0.77869605E+02</rscale>
<asrwt>0</asrwt>
<pdfrwt beam="1">  1        2 0.37619834E-01 0.77869605E+02</pdfrwt>
<pdfrwt beam="2">  1       -1 0.95374519E-03 0.77869605E+02</pdfrwt>
<totfact> 0.25419644E+05</totfact>
</mgrwt>
</event>
<event>
 8    1  0.2676873E-024  0.7921554E+02  0.7818608E-02  0.1331292E+00
         -1   -1    0    0    0  501 -0.00000000000E+00  0.00000000000E+00  0.15054354123E+01  0.15054438489E+01  0.50400000000E-02 0.  1.
          2   -1    0    0  501    0  0.00000000000E+00 -0.00000000000E+00 -0.10420713056E+04  0.10420713056E+04  0.25500000000E-02 0. -1.
         24    2    1    2    0    0  0.00000000000E+00  0.17763568394E-14 -0.10405658702E+04  0.10435767495E+04  0.79215540126E+02 0.  0.
         66    2    3    3    0    0  0.18583132695E+02 -0.15030128293E+02 -0.93627709201E+03  0.93658423572E+03  0.19999991705E+01 0.  0.
        -13    1    3    3    0    0 -0.18583132695E+02  0.15030128293E+02 -0.10428877820E+03  0.10699251375E+03  0.10566000000E+00 0.  1.
         13    1    4    4    0    0  0.52387621681E+01 -0.48333026116E+01 -0.28789159444E+03  0.28797983742E+03  0.10566000000E+00 0. -1.
        -13    1    4    4    0    0  0.28430902621E+01 -0.25275275485E+01 -0.16645357878E+03  0.16649707689E+03  0.10566000000E+00 0.  1.
        -14    1    4    4    0    0  0.10501280264E+02 -0.76692981330E+01 -0.48193191878E+03  0.48210732142E+03  0.00000000000E+00 0.  1.
<mgrwt>
<rscale>  0 0.79215540E+02</rscale>
<asrwt>0</asrwt>
<pdfrwt beam="1">  1        2 0.16031809E+00 0.79215540E+02</pdfrwt>
<pdfrwt beam="2">  1       -1 0.23160693E-03 0.79215540E+02</pdfrwt>
<totfact> 0.36183793E+05</totfact>
</mgrwt>
</event>
<event>
 8    1  0.2676873E-024  0.8085972E+02  0.7818608E-02  0.1326629E+00
          2   -1    0    0  501    0  0.00000000000E+00  0.00000000000E+00  0.34551962694E+03  0.34551962695E+03  0.25500000000E-02 0. -1.
         -1   -1    0    0    0  501 -0.00000000000E+00 -0.00000000000E+00 -0.47307671791E+01  0.47307698638E+01  0.50400000000E-02 0.  1.
         24    2    1    2    0    0  0.55511151231E-16  0.00000000000E+00  0.34078885976E+03  0.35025039681E+03  0.80859715128E+02 0.  0.
         66    2    3    3    0    0 -0.45292214041E+00 -0.14545872906E+02  0.33376973033E+03  0.33409283205E+03  0.19999963657E+01 0.  0.
        -13    1    3    3    0    0  0.45292214041E+00  0.14545872906E+02  0.70191294306E+01  0.16157564763E+02  0.10566000000E+00 0.  1.
         13    1    4    4    0    0 -0.64417027532E+00 -0.56413002624E+01  0.12046988511E+03  0.12060366332E+03  0.10566000000E+00 0. -1.
        -13    1    4    4    0    0 -0.26326711874E+00 -0.40849110435E+01  0.86296589295E+02  0.86393682036E+02  0.10566000000E+00 0.  1.
        -14    1    4    4    0    0  0.45451525365E+00 -0.48196616004E+01  0.12700325593E+03  0.12709548669E+03  0.00000000000E+00 0.  1.
<mgrwt>
<rscale>  0 0.80859715E+02</rscale>
<asrwt>0</asrwt>
<pdfrwt beam="1">  1        2 0.53156883E-01 0.80859715E+02</pdfrwt>
<pdfrwt beam="2">  1       -1 0.72781031E-03 0.80859715E+02</pdfrwt>
<totfact> 0.26085413E+05</totfact>
</mgrwt>
</event>
<event>
 8    1  0.2676873E-024  0.7983381E+02  0.7818608E-02  0.1329524E+00
         -1   -1    0    0    0  501 -0.00000000000E+00  0.00000000000E+00  0.22369291385E+01  0.22369348163E+01  0.50400000000E-02 0.  1.
          2   -1    0    0  501    0  0.00000000000E+00 -0.00000000000E+00 -0.71229664110E+03  0.71229664110E+03  0.25500000000E-02 0. -1.
         24    2    1    2    0    0  0.00000000000E+00  0.88817841970E-15 -0.71005971196E+03  0.71453357592E+03  0.79833805918E+02 0.  0.
         66    2    3    3    0    0 -0.10460910429E+02  0.53013155897E+01 -0.69651651508E+03  0.69661810942E+03  0.20000008565E+01 0.  0.
        -13    1    3    3    0    0  0.10460910429E+02 -0.53013155897E+01 -0.13543196878E+02  0.17915466494E+02  0.10566000000E+00 0.  1.
         13    1    4    4    0    0 -0.11935554042E+00  0.17922804647E-01 -0.19726128630E+02  0.19726780825E+02  0.10566000000E+00 0. -1.
        -13    1    4    4    0    0 -0.36646278026E+01  0.16929131826E+01 -0.20114652451E+03  0.20118705460E+03  0.10566000000E+00 0.  1.
        -14    1    4    4    0    0 -0.66769270861E+01  0.35904796025E+01 -0.47564386194E+03  0.47570427400E+03  0.00000000000E+00 0.  1.
<mgrwt>
<rscale>  0 0.79833806E+02</rscale>
<asrwt>0</asrwt>
<pdfrwt beam="1">  1        2 0.10958392E+00 0.79833806E+02</pdfrwt>
<pdfrwt beam="2">  1       -1 0.34414395E-03 0.79833806E+02</pdfrwt>
<totfact> 0.33765359E+05</totfact>
</mgrwt>
</event>
<event>
 8    1  0.2676873E-024  0.7750970E+02  0.7818608E-02  0.1336271E+00
          2   -1    0    0  501    0  0.00000000000E+00  0.00000000000E+00  0.89270420046E+03  0.89270420046E+03  0.25500000000E-02 0. -1.
         -1   -1    0    0    0  501 -0.00000000000E+00 -0.00000000000E+00 -0.16824553521E+01  0.16824629011E+01  0.50400000000E-02 0.  1.
         24    2    1    2    0    0  0.00000000000E+00 -0.35527136788E-14  0.89102174510E+03  0.89438666336E+03  0.77509698423E+02 0.  0.
         66    2    3    3    0    0  0.16925486561E+01 -0.16477901759E+02  0.84976291947E+03  0.84992670582E+03  0.20000003524E+01 0.  0.
        -13    1    3    3    0    0 -0.16925486561E+01  0.16477901759E+02  0.41258825636E+02  0.44459957537E+02  0.10566000000E+00 0.  1.
         13    1    4    4    0    0 -0.51308939436E-01 -0.75076737883E+01  0.38163613266E+03  0.38170999032E+03  0.10566000000E+00 0.  1.
        -13    1    4    4    0    0  0.11844018491E+01 -0.61173848631E+01  0.33815626476E+03  0.33821368359E+03  0.10566000000E+00 0. -1.
        -14    1    4    4    0    0  0.55945574646E+00 -0.28528431081E+01  0.12997052205E+03  0.13000303191E+03  0.00000000000E+00 0.  1.
<mgrwt>
<rscale>  0 0.77509698E+02</rscale>
<asrwt>0</asrwt>
<pdfrwt beam="1">  1        2 0.13733915E+00 0.77509698E+02</pdfrwt>
<pdfrwt beam="2">  1       -1 0.25883978E-03 0.77509698E+02</pdfrwt>
<totfact> 0.37897663E+05</totfact>
</mgrwt>
</event>
<event>
 8    1  0.2676873E-024  0.8129580E+02  0.7818608E-02  0.1325414E+00
         -1   -1    0    0    0  501 -0.00000000000E+00  0.00000000000E+00  0.99520071314E+01  0.99520084076E+01  0.50400000000E-02 0.  1.
          2   -1    0    0  501    0  0.00000000000E+00 -0.00000000000E+00 -0.16602194708E+03  0.16602194710E+03  0.25500000000E-02 0. -1.
         24    2    1    2    0    0 -0.88817841970E-15  0.00000000000E+00 -0.15606993995E+03  0.17597395550E+03  0.81295798546E+02 0.  0.
         66    2    3    3    0    0 -0.60707806714E+01  0.39349090199E+02 -0.95539302029E+02  0.10352276802E+03  0.19999971369E+01 0.  0.
        -13    1    3    3    0    0  0.60707806714E+01 -0.39349090199E+02 -0.60530637917E+02  0.72451187486E+02  0.10566000000E+00 0.  1.
         13    1    4    4    0    0 -0.12838615434E+01  0.89102076425E+01 -0.22136038880E+02  0.23896767187E+02  0.10566000000E+00 0. -1.
        -13    1    4    4    0    0 -0.25548633507E+01  0.14004564136E+02 -0.35865845782E+02  0.38587889306E+02  0.10566000000E+00 0.  1.
         14    1    4    4    0    0 -0.22320557773E+01  0.16434318420E+02 -0.37537417367E+02  0.41038111525E+02  0.00000000000E+00 0. -1.
<mgrwt>
<rscale>  0 0.81295799E+02</rscale>
<asrwt>0</asrwt>
<pdfrwt beam="1">  1        2 0.25541836E-01 0.81295799E+02</pdfrwt>
<pdfrwt beam="2">  1       -1 0.15310782E-02 0.81295799E+02</pdfrwt>
<totfact> 0.19842423E+05</totfact>
</mgrwt>
</event>
<event>
 8    1  0.2676873E-024  0.7987532E+02  0.7818608E-02  0.1329406E+00
          2   -1    0    0  501    0  0.00000000000E+00  0.00000000000E+00  0.21321639900E+03  0.21321639902E+03  0.25500000000E-02 0. -1.
         -1   -1    0    0    0  501 -0.00000000000E+00 -0.00000000000E+00 -0.74807410341E+01  0.74807427319E+01  0.50400000000E-02 0.  1.
         24    2    1    2    0    0  0.35527136788E-14  0.00000000000E+00  0.20573565797E+03  0.22069714175E+03  0.79875324204E+02 0.  0.
         66    2    3    3    0    0  0.19867725313E+02  0.34339674359E+02  0.11499871437E+03  0.12166611711E+03  0.20000002279E+01 0.  0.
        -13    1    3    3    0    0 -0.19867725313E+02 -0.34339674359E+02  0.90736943598E+02  0.99031024642E+02  0.10566000000E+00 0.  1.
         13    1    4    4    0    0  0.75978997659E+01  0.12934664350E+02  0.42049535874E+02  0.44645360946E+02  0.10566000000E+00 0. -1.
        -13    1    4    4    0    0  0.50324944458E+01  0.87604300725E+01  0.27800506016E+02  0.29579561088E+02  0.10566000000E+00 0.  1.
        -14    1    4    4    0    0  0.72373311008E+01  0.12644579936E+02  0.45148672480E+02  0.47441195073E+02  0.00000000000E+00 0.  1.
<mgrwt>
<rscale>  0 0.79875324E+02</rscale>
<asrwt>0</asrwt>
<pdfrwt beam="1">  1        2 0.32802516E-01 0.79875324E+02</pdfrwt>
<pdfrwt beam="2">  1       -1 0.11508836E-02 0.79875324E+02</pdfrwt>
<totfact> 0.22650041E+05</totfact>
</mgrwt>
</event>
<event>
 8    1  0.2676873E-024  0.7824777E+02  0.7818608E-02  0.1334099E+00
         -1   -1    0    0    0  501 -0.00000000000E+00  0.00000000000E+00  0.19160932959E+01  0.19160999243E+01  0.50400000000E-02 0.  1.
          2   -1    0    0  501    0  0.00000000000E+00 -0.00000000000E+00 -0.79885236967E+03  0.79885236968E+03  0.25500000000E-02 0. -1.
         24    2    1    2    0    0  0.00000000000E+00  0.00000000000E+00 -0.79693627638E+03  0.80076846960E+03  0.78247768671E+02 0.  0.
         66    2    3    3    0    0 -0.30835773518E+02 -0.46210083938E+01 -0.64013910941E+03  0.64090114530E+03  0.20000002238E+01 0.  0.
        -13    1    3    3    0    0  0.30835773518E+02  0.46210083938E+01 -0.15679716697E+03  0.15986732430E+03  0.10566000000E+00 0.  1.
         13    1    4    4    0    0 -0.17307447340E+02 -0.31478290552E+01 -0.35429173536E+03  0.35472820788E+03  0.10566000000E+00 0. -1.
        -13    1    4    4    0    0 -0.10136728070E+02 -0.67147066891E+00 -0.21495934160E+03  0.21519928865E+03  0.10566000000E+00 0.  1.
        -14    1    4    4    0    0 -0.33915981071E+01 -0.80170866971E+00 -0.70888032451E+02  0.70973648767E+02  0.00000000000E+00 0.  1.
<mgrwt>
<rscale>  0 0.78247769E+02</rscale>
<asrwt>0</asrwt>
<pdfrwt beam="1">  1        2 0.12290010E+00 0.78247769E+02</pdfrwt>
<pdfrwt beam="2">  1       -1 0.29478473E-03 0.78247769E+02</pdfrwt>
<totfact> 0.36389249E+05</totfact>
</mgrwt>
</event>
<event>
 8    1  0.2676873E-024  0.7973840E+02  0.7818608E-02  0.1329795E+00
          2   -1    0    0  501    0  0.00000000000E+00  0.00000000000E+00  0.91935239802E+02  0.91935239837E+02  0.25500000000E-02 0. -1.
         -1   -1    0    0    0  501 -0.00000000000E+00 -0.00000000000E+00 -0.17289919939E+02  0.17289920674E+02  0.50400000000E-02 0.  1.
         24    2    1    2    0    0  0.00000000000E+00 -0.35527136788E-14  0.74645319863E+02  0.10922516051E+03  0.79738396718E+02 0.  0.
         66    2    3    3    0    0  0.20899941018E+02  0.16877539629E+02  0.77653618876E+02  0.82193329173E+02  0.19999893684E+01 0.  0.
        -13    1    3    3    0    0 -0.20899941018E+02 -0.16877539629E+02 -0.30082990138E+01  0.27031831338E+02  0.10566000000E+00 0.  1.
         13    1    4    4    0    0  0.43172359812E+01  0.42006494885E+01  0.16643838325E+02  0.17700635606E+02  0.10566000000E+00 0. -1.
        -13    1    4    4    0    0  0.15848883701E+02  0.12364144233E+02  0.59003812792E+02  0.62333941518E+02  0.10566000000E+00 0.  1.
        -14    1    4    4    0    0  0.73382133507E+00  0.31274590812E+00  0.20059677602E+01  0.21587520492E+01  0.00000000000E+00 0.  1.
<mgrwt>
<rscale>  0 0.79738397E+02</rscale>
<asrwt>0</asrwt>
<pdfrwt beam="1">  1        2 0.14143883E-01 0.79738397E+02</pdfrwt>
<pdfrwt beam="2">  1       -1 0.26599877E-02 0.79738397E+02</pdfrwt>
<totfact> 0.17472881E+05</totfact>
</mgrwt>
</event>
<event>
 8    1  0.2676873E-024  0.7325172E+02  0.7818608E-02  0.1349372E+00
          2   -1    0    0  501    0  0.00000000000E+00  0.00000000000E+00  0.51018047079E+02  0.51018047143E+02  0.25500000000E-02 0. -1.
         -1   -1    0    0    0  501 -0.00000000000E+00 -0.00000000000E+00 -0.26293710661E+02  0.26293711144E+02  0.50400000000E-02 0.  1.
         24    2    1    2    0    0  0.00000000000E+00 -0.88817841970E-15  0.24724336418E+02  0.77311758287E+02  0.73251724608E+02 0.  0.
         66    2    3    3    0    0  0.30262383978E+02  0.45894343546E+01  0.33547685336E+02  0.45456814528E+02  0.20000009869E+01 0.  0.
        -13    1    3    3    0    0 -0.30262383978E+02 -0.45894343546E+01 -0.88233489181E+01  0.31854943759E+02  0.10566000000E+00 0.  1.
         13    1    4    4    0    0  0.32708496233E+01  0.44528902534E+00  0.28381630769E+01  0.43546610960E+01  0.10566000000E+00 0. -1.
        -13    1    4    4    0    0  0.11755943290E+02  0.15910194791E+01  0.13804971954E+02  0.18202251518E+02  0.10566000000E+00 0.  1.
         14    1    4    4    0    0  0.15235591065E+02  0.25531258501E+01  0.16904550304E+02  0.22899901914E+02  0.00000000000E+00 0. -1.
<mgrwt>
<rscale>  0 0.73251725E+02</rscale>
<asrwt>0</asrwt>
<pdfrwt beam="1">  1        2 0.78489302E-02 0.73251725E+02</pdfrwt>
<pdfrwt beam="2">  1       -1 0.40451864E-02 0.73251725E+02</pdfrwt>
<totfact> 0.19071183E+05</totfact>
</mgrwt>
</event>
<event>
 8    1  0.2832630E-024  0.7961054E+02  0.7818608E-02  0.1330160E+00
          2   -1    0    0  501    0  0.00000000000E+00  0.00000000000E+00  0.90303334045E+02  0.90303334081E+02  0.25500000000E-02 0. -1.
         -1   -1    0    0    0  501 -0.00000000000E+00 -0.00000000000E+00 -0.17545969347E+02  0.17545970071E+02  0.50400000000E-02 0.  1.
         24    2    1    2    0    0  0.00000000000E+00  0.00000000000E+00  0.72757364698E+02  0.10784930415E+03  0.79610541313E+02 0.  0.
         66    2    3    3    0    0 -0.57781101417E+01 -0.11707427533E+02  0.87307084674E+02  0.88300495194E+02  0.20000002466E+01 0.  0.
        -13    1    3    3    0    0  0.57781101417E+01  0.11707427533E+02 -0.14549719976E+02  0.19548808958E+02  0.10566000000E+00 0.  1.
         13    1    4    4    0    0 -0.38615733776E+01 -0.76621140542E+01  0.54408313413E+02  0.55080808574E+02  0.10566000000E+00 0. -1.
        -13    1    4    4    0    0 -0.57509749191E+00 -0.22849752086E+01  0.14935404955E+02  0.15120493842E+02  0.10566000000E+00 0.  1.
        -14    1    4    4    0    0 -0.13414392721E+01 -0.17603382702E+01  0.17963366307E+02  0.18099192778E+02  0.00000000000E+00 0.  1.
<mgrwt>
<rscale>  0 0.79610541E+02</rscale>
<asrwt>0</asrwt>
<pdfrwt beam="1">  1        2 0.13892821E-01 0.79610541E+02</pdfrwt>
<pdfrwt beam="2">  1       -1 0.26993800E-02 0.79610541E+02</pdfrwt>
<totfact> 0.17463677E+05</totfact>
</mgrwt>
</event>
<event>
 8    1  0.2676873E-024  0.7926541E+02  0.7818608E-02  0.1331149E+00
          2   -1    0    0  501    0  0.00000000000E+00  0.00000000000E+00  0.12824069568E+04  0.12824069568E+04  0.25500000000E-02 0. -1.
         -1   -1    0    0    0  501 -0.00000000000E+00 -0.00000000000E+00 -0.12248410482E+01  0.12248514175E+01  0.50400000000E-02 0.  1.
         24    2    1    2    0    0  0.35527136788E-14  0.35527136788E-14  0.12811821158E+04  0.12836318082E+04  0.79265410819E+02 0.  0.
         66    2    3    3    0    0 -0.13853253653E+02 -0.21650810549E+02  0.11289955750E+04  0.11292899002E+04  0.19999988546E+01 0.  0.
        -13    1    3    3    0    0  0.13853253653E+02  0.21650810549E+02  0.15218654076E+03  0.15434190807E+03  0.10566000000E+00 0.  1.
         13    1    4    4    0    0 -0.45790379181E+01 -0.58316870127E+01  0.33387045363E+03  0.33395279177E+03  0.10566000000E+00 0. -1.
        -13    1    4    4    0    0 -0.47409927657E+00 -0.12286787529E+01  0.60135832763E+02  0.60150344701E+02  0.10566000000E+00 0.  1.
         14    1    4    4    0    0 -0.88001164585E+01 -0.14590444783E+02  0.73498928862E+03  0.73518676370E+03  0.00000000000E+00 0. -1.
<mgrwt>
<rscale>  0 0.79265411E+02</rscale>
<asrwt>0</asrwt>
<pdfrwt beam="1">  1        2 0.19729422E+00 0.79265411E+02</pdfrwt>
<pdfrwt beam="2">  1       -1 0.18843708E-03 0.79265411E+02</pdfrwt>
<totfact> 0.35545896E+05</totfact>
</mgrwt>
</event>
<event>
 8    1  0.2676873E-024  0.7863559E+02  0.7818608E-02  0.1332969E+00
         -1   -1    0    0    0  501 -0.00000000000E+00  0.00000000000E+00  0.25721707389E+01  0.25721756767E+01  0.50400000000E-02 0.  1.
          2   -1    0    0  501    0  0.00000000000E+00 -0.00000000000E+00 -0.60100508249E+03  0.60100508249E+03  0.25500000000E-02 0. -1.
         24    2    1    2    0    0  0.00000000000E+00 -0.35527136788E-14 -0.59843291175E+03  0.60357725817E+03  0.78635594457E+02 0.  0.
         66    2    3    3    0    0 -0.24646654006E+02  0.17601684698E+02 -0.49154666663E+03  0.49248289550E+03  0.20000061235E+01 0.  0.
        -13    1    3    3    0    0  0.24646654006E+02 -0.17601684698E+02 -0.10688624511E+03  0.11109436267E+03  0.10566000000E+00 0.  1.
         13    1    4    4    0    0 -0.20522978559E+01  0.17881620256E+01 -0.44257563585E+02  0.44341318749E+02  0.10566000000E+00 0. -1.
        -13    1    4    4    0    0 -0.48806355499E+00  0.65393446695E+00 -0.13902698941E+02  0.13927025461E+02  0.10566000000E+00 0.  1.
         14    1    4    4    0    0 -0.22106292595E+02  0.15159588206E+02 -0.43338640411E+03  0.43421455129E+03  0.00000000000E+00 0. -1.
<mgrwt>
<rscale>  0 0.78635594E+02</rscale>
<asrwt>0</asrwt>
<pdfrwt beam="1">  1        2 0.92462209E-01 0.78635594E+02</pdfrwt>
<pdfrwt beam="2">  1       -1 0.39571943E-03 0.78635594E+02</pdfrwt>
<totfact> 0.33650309E+05</totfact>
</mgrwt>
</event>
<event>
 8    1  0.2676873E-024  0.8308119E+02  0.7818608E-02  0.1320528E+00
         -1   -1    0    0    0  501 -0.00000000000E+00  0.00000000000E+00  0.12135498987E+02  0.12135500034E+02  0.50400000000E-02 0.  1.
          2   -1    0    0  501    0  0.00000000000E+00 -0.00000000000E+00 -0.14219612725E+03  0.14219612728E+03  0.25500000000E-02 0. -1.
         24    2    1    2    0    0  0.55511151231E-16  0.35527136788E-14 -0.13006062827E+03  0.15433162731E+03  0.83081190188E+02 0.  0.
         66    2    3    3    0    0 -0.33233427511E+00 -0.26118115852E+02 -0.12501255461E+03  0.12772785627E+03  0.20000092234E+01 0.  0.
        -13    1    3    3    0    0  0.33233427511E+00  0.26118115852E+02 -0.50480736599E+01  0.26603771038E+02  0.10566000000E+00 0.  1.
         13    1    4    4    0    0  0.17580788095E+00 -0.11206516511E+02 -0.56823286857E+02  0.57918166529E+02  0.10566000000E+00 0. -1.
        -13    1    4    4    0    0  0.27714990286E-01 -0.55231555553E+01 -0.23283301035E+02  0.23929673766E+02  0.10566000000E+00 0.  1.
         14    1    4    4    0    0 -0.53585714635E+00 -0.93884437854E+01 -0.44905966714E+02  0.45880015977E+02  0.00000000000E+00 0. -1.
<mgrwt>
<rscale>  0 0.83081190E+02</rscale>
<asrwt>0</asrwt>
<pdfrwt beam="1">  1        2 0.21876326E-01 0.83081190E+02</pdfrwt>
<pdfrwt beam="2">  1       -1 0.18670000E-02 0.83081190E+02</pdfrwt>
<totfact> 0.17806327E+05</totfact>
</mgrwt>
</event>
<event>
 8    1  0.2676873E-024  0.7888344E+02  0.7818608E-02  0.1332250E+00
         -1   -1    0    0    0  501 -0.00000000000E+00  0.00000000000E+00  0.17632481333E+01  0.17632553364E+01  0.50400000000E-02 0.  1.
          2   -1    0    0  501    0  0.00000000000E+00 -0.00000000000E+00 -0.88226165155E+03  0.88226165156E+03  0.25500000000E-02 0. -1.
         24    2    1    2    0    0  0.00000000000E+00  0.17763568394E-14 -0.88049840342E+03  0.88402490689E+03  0.78883443019E+02 0.  0.
         66    2    3    3    0    0 -0.85524204635E+01  0.11430573300E+02 -0.85226870104E+03  0.85239060332E+03  0.19999908128E+01 0.  0.
        -13    1    3    3    0    0  0.85524204635E+01 -0.11430573300E+02 -0.28229702382E+02  0.31634303570E+02  0.10566000000E+00 0.  1.
         13    1    4    4    0    0 -0.17427554913E+01  0.33280718382E+01 -0.21886380076E+03  0.21889606599E+03  0.10566000000E+00 0.  1.
        -13    1    4    4    0    0 -0.61375874724E+01  0.70948954368E+01 -0.53591513573E+03  0.53599724942E+03  0.10566000000E+00 0. -1.
         14    1    4    4    0    0 -0.67207749983E+00  0.10076060246E+01 -0.97489764550E+02  0.97497287911E+02  0.00000000000E+00 0. -1.
<mgrwt>
<rscale>  0 0.78883443E+02</rscale>
<asrwt>0</asrwt>
<pdfrwt beam="1">  1        2 0.13573221E+00 0.78883443E+02</pdfrwt>
<pdfrwt beam="2">  1       -1 0.27127020E-03 0.78883443E+02</pdfrwt>
<totfact> 0.36161218E+05</totfact>
</mgrwt>
</event>
<event>
 8    1  0.2676873E-024  0.8015957E+02  0.7818608E-02  0.1328599E+00
          2   -1    0    0  501    0  0.00000000000E+00  0.00000000000E+00  0.14778476130E+03  0.14778476132E+03  0.25500000000E-02 0. -1.
         -1   -1    0    0    0  501 -0.00000000000E+00 -0.00000000000E+00 -0.10869787514E+02  0.10869788682E+02  0.50400000000E-02 0.  1.
         24    2    1    2    0    0  0.00000000000E+00  0.00000000000E+00  0.13691497378E+03  0.15865455000E+03  0.80159567052E+02 0.  0.
         66    2    3    3    0    0  0.20604773177E+02 -0.12286963081E+02  0.13198553234E+03  0.13416298622E+03  0.19999963022E+01 0.  0.
        -13    1    3    3    0    0 -0.20604773177E+02  0.12286963081E+02  0.49294414431E+01  0.24491563780E+02  0.10566000000E+00 0.  1.
         13    1    4    4    0    0  0.87182854885E+01 -0.41748597486E+01  0.53288999223E+02  0.54158716362E+02  0.10566000000E+00 0. -1.
        -13    1    4    4    0    0  0.48595499081E+00 -0.38287852122E+00  0.38831859732E+01  0.39335792293E+01  0.10566000000E+00 0.  1.
        -14    1    4    4    0    0  0.11400532697E+02 -0.77292248110E+01  0.74813347145E+02  0.76070690630E+02  0.00000000000E+00 0.  1.
<mgrwt>
<rscale>  0 0.80159567E+02</rscale>
<asrwt>0</asrwt>
<pdfrwt beam="1">  1        2 0.22736117E-01 0.80159567E+02</pdfrwt>
<pdfrwt beam="2">  1       -1 0.16722751E-02 0.80159567E+02</pdfrwt>
<totfact> 0.19829263E+05</totfact>
</mgrwt>
</event>
<event>
 8    1  0.2676873E-024  0.7980158E+02  0.7818608E-02  0.1329615E+00
         -1   -1    0    0    0  501 -0.00000000000E+00  0.00000000000E+00  0.68352178045E+02  0.68352178230E+02  0.50400000000E-02 0.  1.
          2   -1    0    0  501    0  0.00000000000E+00 -0.00000000000E+00 -0.23292209152E+02  0.23292209292E+02  0.25500000000E-02 0. -1.
         24    2    1    2    0    0  0.00000000000E+00 -0.35527136788E-14  0.45059968892E+02  0.91644387522E+02  0.79801584995E+02 0.  0.
         66    2    3    3    0    0  0.19677454774E+01 -0.18348488334E+02 -0.18050438322E+02  0.25891260530E+02  0.20000004545E+01 0.  0.
        -13    1    3    3    0    0 -0.19677454774E+01  0.18348488334E+02  0.63110407215E+02  0.65753126992E+02  0.10566000000E+00 0.  1.
         13    1    4    4    0    0 -0.26607877728E+00 -0.35173927540E+01 -0.37544687574E+01  0.51526740036E+01  0.10566000000E+00 0. -1.
        -13    1    4    4    0    0  0.11549566767E+01 -0.98406113726E+01 -0.90860716924E+01  0.13443936178E+02  0.10566000000E+00 0.  1.
         14    1    4    4    0    0  0.10788675780E+01 -0.49904842072E+01 -0.52098978724E+01  0.72946503490E+01  0.00000000000E+00 0. -1.
<mgrwt>
<rscale>  0 0.79801585E+02</rscale>
<asrwt>0</asrwt>
<pdfrwt beam="1">  1        2 0.35834169E-02 0.79801585E+02</pdfrwt>
<pdfrwt beam="2">  1       -1 0.10515720E-01 0.79801585E+02</pdfrwt>
<totfact> 0.12890714E+05</totfact>
</mgrwt>
</event>
<event>
 8    1  0.2676873E-024  0.8510892E+02  0.7818608E-02  0.1315148E+00
          2   -1    0    0  501    0  0.00000000000E+00  0.00000000000E+00  0.67622520872E+03  0.67622520872E+03  0.25500000000E-02 0. -1.
         -1   -1    0    0    0  501 -0.00000000000E+00 -0.00000000000E+00 -0.26779249063E+01  0.26779296491E+01  0.50400000000E-02 0.  1.
         24    2    1    2    0    0  0.00000000000E+00  0.00000000000E+00  0.67354728381E+03  0.67890313837E+03  0.85108917049E+02 0.  0.
         66    2    3    3    0    0 -0.26476523794E+01  0.16624667498E+02  0.64851576014E+03  0.64873729720E+03  0.19999972833E+01 0.  0.
        -13    1    3    3    0    0  0.26476523794E+01 -0.16624667498E+02  0.25031523669E+02  0.30165841174E+02  0.10566000000E+00 0.  1.
         13    1    4    4    0    0 -0.25314651101E+00  0.45091756014E+01  0.14728465596E+03  0.14735392018E+03  0.10566000000E+00 0.  1.
        -13    1    4    4    0    0 -0.84976579261E+00  0.51934577867E+01  0.21240959671E+03  0.21247480331E+03  0.10566000000E+00 0. -1.
        -14    1    4    4    0    0 -0.15447400758E+01  0.69220341096E+01  0.28882150747E+03  0.28890857370E+03  0.00000000000E+00 0.  1.
<mgrwt>
<rscale>  0 0.85108917E+02</rscale>
<asrwt>0</asrwt>
<pdfrwt beam="1">  1        2 0.10403464E+00 0.85108917E+02</pdfrwt>
<pdfrwt beam="2">  1       -1 0.41198885E-03 0.85108917E+02</pdfrwt>
<totfact> 0.28234104E+05</totfact>
</mgrwt>
</event>
<event>
 8    1  0.2676873E-024  0.7981842E+02  0.7818608E-02  0.1329568E+00
          2   -1    0    0  501    0  0.00000000000E+00  0.00000000000E+00  0.54593252484E+03  0.54593252485E+03  0.25500000000E-02 0. -1.
         -1   -1    0    0    0  501 -0.00000000000E+00 -0.00000000000E+00 -0.29174739405E+01  0.29174782938E+01  0.50400000000E-02 0.  1.
         24    2    1    2    0    0  0.00000000000E+00  0.00000000000E+00  0.54301505090E+03  0.54885000314E+03  0.79818421703E+02 0.  0.
         66    2    3    3    0    0 -0.15970768994E+02 -0.31902563797E+02  0.39427923405E+03  0.39589512935E+03  0.19999996432E+01 0.  0.
        -13    1    3    3    0    0  0.15970768994E+02  0.31902563797E+02  0.14873581685E+03  0.15295487379E+03  0.10566000000E+00 0.  1.
         13    1    4    4    0    0 -0.52830980409E+01 -0.11036436446E+02  0.14271347106E+03  0.14323707635E+03  0.10566000000E+00 0. -1.
        -13    1    4    4    0    0 -0.61592102469E+00 -0.16762343795E+01  0.20875805927E+02  0.20952316281E+02  0.10566000000E+00 0.  1.
        -14    1    4    4    0    0 -0.10071749928E+02 -0.19189892971E+02  0.23068995706E+03  0.23170573672E+03  0.00000000000E+00 0.  1.
<mgrwt>
<rscale>  0 0.79818422E+02</rscale>
<asrwt>0</asrwt>
<pdfrwt beam="1">  1        2 0.83989684E-01 0.79818422E+02</pdfrwt>
<pdfrwt beam="2">  1       -1 0.44884214E-03 0.79818422E+02</pdfrwt>
<totfact> 0.31478754E+05</totfact>
</mgrwt>
</event>
<event>
 8    1  0.2676873E-024  0.8776600E+02  0.7818608E-02  0.1308354E+00
         -1   -1    0    0    0  501 -0.00000000000E+00  0.00000000000E+00  0.99499539822E+01  0.99499552586E+01  0.50400000000E-02 0.  1.
          2   -1    0    0  501    0  0.00000000000E+00 -0.00000000000E+00 -0.19354036154E+03  0.19354036155E+03  0.25500000000E-02 0. -1.
         24    2    1    2    0    0  0.00000000000E+00  0.35527136788E-14 -0.18359040756E+03  0.20349031681E+03  0.87766003044E+02 0.  0.
         66    2    3    3    0    0  0.41315669170E+01  0.31401160101E+02 -0.16219131054E+03  0.16526682642E+03  0.19999997504E+01 0.  0.
        -13    1    3    3    0    0 -0.41315669170E+01 -0.31401160101E+02 -0.21399097018E+02  0.38223490397E+02  0.10566000000E+00 0.  1.
         13    1    4    4    0    0  0.14092444098E+01  0.72939736425E+01 -0.38069639055E+02  0.38787840919E+02  0.10566000000E+00 0. -1.
        -13    1    4    4    0    0  0.31901055797E+00  0.71894791839E+01 -0.34465190864E+02  0.35208676829E+02  0.10566000000E+00 0.  1.
        -14    1    4    4    0    0  0.24033119492E+01  0.16917707275E+02 -0.89656480618E+02  0.91270308669E+02  0.00000000000E+00 0.  1.
<mgrwt>
<rscale>  0 0.87766003E+02</rscale>
<asrwt>0</asrwt>
<pdfrwt beam="1">  1        2 0.29775437E-01 0.87766003E+02</pdfrwt>
<pdfrwt beam="2">  1       -1 0.15307624E-02 0.87766003E+02</pdfrwt>
<totfact> 0.17056429E+05</totfact>
</mgrwt>
</event>
<event>
 8    1  0.2676873E-024  0.8038537E+02  0.7818608E-02  0.1327961E+00
         -1   -1    0    0    0  501 -0.00000000000E+00  0.00000000000E+00  0.12512590245E+03  0.12512590255E+03  0.50400000000E-02 0.  1.
          2   -1    0    0  501    0  0.00000000000E+00 -0.00000000000E+00 -0.12910611214E+02  0.12910611466E+02  0.25500000000E-02 0. -1.
         24    2    1    2    0    0 -0.71054273576E-14 -0.17763568394E-14  0.11221529123E+03  0.13803651401E+03  0.80385369407E+02 0.  0.
         66    2    3    3    0    0  0.36716443907E+02  0.10759006242E+02  0.35139668790E+02  0.51987015425E+02  0.19999954001E+01 0.  0.
        -13    1    3    3    0    0 -0.36716443907E+02 -0.10759006242E+02  0.77075622443E+02  0.86049498590E+02  0.10566000000E+00 0.  1.
         13    1    4    4    0    0  0.32744905191E+02  0.92390029187E+01  0.31480884542E+02  0.46353481492E+02  0.10566000000E+00 0. -1.
        -13    1    4    4    0    0  0.36858324786E+01  0.13093378898E+01  0.34778493740E+01  0.52351052592E+01  0.10566000000E+00 0.  1.
        -14    1    4    4    0    0  0.28570623761E+00  0.21066543319E+00  0.18093487431E+00  0.39842867328E+00  0.00000000000E+00 0.  1.
<mgrwt>
<rscale>  0 0.80385369E+02</rscale>
<asrwt>0</asrwt>
<pdfrwt beam="1">  1        2 0.19862479E-02 0.80385369E+02</pdfrwt>
<pdfrwt beam="2">  1       -1 0.19250139E-01 0.80385369E+02</pdfrwt>
<totfact> 0.11139471E+05</totfact>
</mgrwt>
</event>
<event>
 8    1  0.2676873E-024  0.8098836E+02  0.7818608E-02  0.1326270E+00
         -1   -1    0    0    0  501 -0.00000000000E+00  0.00000000000E+00  0.50195355601E+01  0.50195380904E+01  0.50400000000E-02 0.  1.
          2   -1    0    0  501    0  0.00000000000E+00 -0.00000000000E+00 -0.32667924045E+03  0.32667924046E+03  0.25500000000E-02 0. -1.
         24    2    1    2    0    0  0.00000000000E+00  0.00000000000E+00 -0.32165970489E+03  0.33169877855E+03  0.80988356829E+02 0.  0.
         66    2    3    3    0    0 -0.13982252596E+02  0.37094412285E+02 -0.12758538880E+03  0.13361710312E+03  0.20000003168E+01 0.  0.
        -13    1    3    3    0    0  0.13982252596E+02 -0.37094412285E+02 -0.19407431609E+03  0.19808167543E+03  0.10566000000E+00 0.  1.
         13    1    4    4    0    0 -0.52585660061E+01  0.13915780971E+02 -0.47624000155E+02  0.49893466819E+02  0.10566000000E+00 0. -1.
        -13    1    4    4    0    0 -0.34159179090E+01  0.93333710384E+01 -0.29552987159E+02  0.31179649199E+02  0.10566000000E+00 0.  1.
        -14    1    4    4    0    0 -0.53077686806E+01  0.13845260275E+02 -0.50408401486E+02  0.52543987104E+02  0.00000000000E+00 0.  1.
<mgrwt>
<rscale>  0 0.80988357E+02</rscale>
<asrwt>0</asrwt>
<pdfrwt beam="1">  1        2 0.50258328E-01 0.80988357E+02</pdfrwt>
<pdfrwt beam="2">  1       -1 0.77223669E-03 0.80988357E+02</pdfrwt>
<totfact> 0.25458790E+05</totfact>
</mgrwt>
</event>
<event>
 8    1  0.2676873E-024  0.7996886E+02  0.7818608E-02  0.1329140E+00
         -1   -1    0    0    0  501 -0.00000000000E+00  0.00000000000E+00  0.62284101701E+01  0.62284122092E+01  0.50400000000E-02 0.  1.
          2   -1    0    0  501    0  0.00000000000E+00 -0.00000000000E+00 -0.25668741786E+03  0.25668741787E+03  0.25500000000E-02 0. -1.
         24    2    1    2    0    0  0.17763568394E-14  0.71054273576E-14 -0.25045900769E+03  0.26291583008E+03  0.79968863783E+02 0.  0.
         66    2    3    3    0    0 -0.14248699621E+02 -0.35310489178E+02 -0.16515477798E+03  0.16949913534E+03  0.20000257254E+01 0.  0.
        -13    1    3    3    0    0  0.14248699621E+02  0.35310489178E+02 -0.85304229707E+02  0.93416694744E+02  0.10566000000E+00 0.  1.
         13    1    4    4    0    0 -0.99917142254E+01 -0.22776288209E+02 -0.10694884284E+03  0.10980282239E+03  0.10566000000E+00 0. -1.
        -13    1    4    4    0    0 -0.57937743231E+00 -0.17755741859E+01 -0.92747285713E+01  0.94615060115E+01  0.10566000000E+00 0.  1.
         14    1    4    4    0    0 -0.36776079636E+01 -0.10758626783E+02 -0.48931206577E+02  0.50234806934E+02  0.00000000000E+00 0. -1.
<mgrwt>
<rscale>  0 0.79968864E+02</rscale>
<asrwt>0</asrwt>
<pdfrwt beam="1">  1        2 0.39490364E-01 0.79968864E+02</pdfrwt>
<pdfrwt beam="2">  1       -1 0.95821731E-03 0.79968864E+02</pdfrwt>
<totfact> 0.24120099E+05</totfact>
</mgrwt>
</event>
<event>
 8    1  0.2676873E-024  0.7868779E+02  0.7818608E-02  0.1332817E+00
         -1   -1    0    0    0  501 -0.00000000000E+00  0.00000000000E+00  0.38530233814E+02  0.38530234143E+02  0.50400000000E-02 0.  1.
          2   -1    0    0  501    0  0.00000000000E+00 -0.00000000000E+00 -0.40174742163E+02  0.40174742244E+02  0.25500000000E-02 0. -1.
         24    2    1    2    0    0  0.00000000000E+00  0.00000000000E+00 -0.16445083492E+01  0.78704976387E+02  0.78687793846E+02 0.  0.
         66    2    3    3    0    0 -0.19310988564E+02 -0.34142553790E+02 -0.35268957487E+01  0.39434340983E+02  0.19999991332E+01 0.  0.
        -13    1    3    3    0    0  0.19310988564E+02  0.34142553790E+02  0.18823873995E+01  0.39270635403E+02  0.10566000000E+00 0.  1.
         13    1    4    4    0    0 -0.30763644530E+01 -0.60714503245E+01 -0.38861521836E-01  0.68072903232E+01  0.10566000000E+00 0. -1.
        -13    1    4    4    0    0 -0.33463566828E+01 -0.51545856125E+01 -0.53763526232E+00  0.61699328680E+01  0.10566000000E+00 0.  1.
         14    1    4    4    0    0 -0.12888267428E+02 -0.22916517853E+02 -0.29503989645E+01  0.26457117792E+02  0.00000000000E+00 0. -1.
<mgrwt>
<rscale>  0 0.78687794E+02</rscale>
<asrwt>0</asrwt>
<pdfrwt beam="1">  1        2 0.61807296E-02 0.78687794E+02</pdfrwt>
<pdfrwt beam="2">  1       -1 0.59277283E-02 0.78687794E+02</pdfrwt>
<totfact> 0.14934487E+05</totfact>
</mgrwt>
</event>
<event>
 8    1  0.2676873E-024  0.8007341E+02  0.7818608E-02  0.1328843E+00
          2   -1    0    0  501    0  0.00000000000E+00  0.00000000000E+00  0.45442270921E+03  0.45442270922E+03  0.25500000000E-02 0. -1.
         -1   -1    0    0    0  501 -0.00000000000E+00 -0.00000000000E+00 -0.35274133691E+01  0.35274169697E+01  0.50400000000E-02 0.  1.
         24    2    1    2    0    0  0.00000000000E+00 -0.35527136788E-14  0.45089529584E+03  0.45795012619E+03  0.80073405467E+02 0.  0.
         66    2    3    3    0    0  0.24832885991E+02  0.28429074995E+02  0.30147108149E+03  0.30383169274E+03  0.20000006784E+01 0.  0.
        -13    1    3    3    0    0 -0.24832885991E+02 -0.28429074995E+02  0.14942421435E+03  0.15411843345E+03  0.10566000000E+00 0.  1.
         13    1    4    4    0    0  0.53866749702E+01  0.59110519562E+01  0.66230934820E+02  0.66712103052E+02  0.10566000000E+00 0. -1.
        -13    1    4    4    0    0  0.93963585236E+01  0.97283659452E+01  0.10876167143E+03  0.10959947534E+03  0.10566000000E+00 0.  1.
         14    1    4    4    0    0  0.10049852497E+02  0.12789657094E+02  0.12647847524E+03  0.12752011435E+03  0.00000000000E+00 0. -1.
<mgrwt>
<rscale>  0 0.80073405E+02</rscale>
<asrwt>0</asrwt>
<pdfrwt beam="1">  1        2 0.69911163E-01 0.80073405E+02</pdfrwt>
<pdfrwt beam="2">  1       -1 0.54267944E-03 0.80073405E+02</pdfrwt>
<totfact> 0.29444488E+05</totfact>
</mgrwt>
</event>
<event>
 8    1  0.2676873E-024  0.7979242E+02  0.7818608E-02  0.1329642E+00
          2   -1    0    0  501    0  0.00000000000E+00  0.00000000000E+00  0.36199379821E+03  0.36199379822E+03  0.25500000000E-02 0. -1.
         -1   -1    0    0    0  501 -0.00000000000E+00 -0.00000000000E+00 -0.43970555620E+01  0.43970584505E+01  0.50400000000E-02 0.  1.
         24    2    1    2    0    0  0.00000000000E+00 -0.88817841970E-15  0.35759674265E+03  0.36639085667E+03  0.79792415044E+02 0.  0.
         66    2    3    3    0    0 -0.38949598087E+02  0.50845068504E+01  0.21031610162E+03  0.21396211336E+03  0.19999880523E+01 0.  0.
        -13    1    3    3    0    0  0.38949598087E+02 -0.50845068504E+01  0.14728064104E+03  0.15242874332E+03  0.10566000000E+00 0.  1.
         13    1    4    4    0    0 -0.35900847622E+02  0.47040656007E+01  0.19226956467E+03  0.19564916497E+03  0.10566000000E+00 0. -1.
        -13    1    4    4    0    0 -0.25849014565E+01  0.29037641645E+00  0.16147681305E+02  0.16356185667E+02  0.10566000000E+00 0.  1.
         14    1    4    4    0    0 -0.46384900852E+00  0.90064833208E-01  0.18988556428E+01  0.19567627166E+01  0.00000000000E+00 0. -1.
<mgrwt>
<rscale>  0 0.79792415E+02</rscale>
<asrwt>0</asrwt>
<pdfrwt beam="1">  1        2 0.55691387E-01 0.79792415E+02</pdfrwt>
<pdfrwt beam="2">  1       -1 0.67646991E-03 0.79792415E+02</pdfrwt>
<totfact> 0.27460860E+05</totfact>
</mgrwt>
</event>
<event>
 8    1  0.2676873E-024  0.8062769E+02  0.7818608E-02  0.1327280E+00
         -1   -1    0    0    0  501 -0.00000000000E+00  0.00000000000E+00  0.31169020013E+01  0.31169060761E+01  0.50400000000E-02 0.  1.
          2   -1    0    0  501    0  0.00000000000E+00 -0.00000000000E+00 -0.52141680046E+03  0.52141680047E+03  0.25500000000E-02 0. -1.
         24    2    1    2    0    0  0.88817841970E-15 -0.71054273576E-14 -0.51829989846E+03  0.52453370654E+03  0.80627691005E+02 0.  0.
         66    2    3    3    0    0  0.59118864042E+01 -0.39348930513E+02 -0.30040910014E+03  0.30303946308E+03  0.20000000495E+01 0.  0.
        -13    1    3    3    0    0 -0.59118864042E+01  0.39348930513E+02 -0.21789079832E+03  0.22149424347E+03  0.10566000000E+00 0.  1.
         13    1    4    4    0    0  0.16887010274E+01 -0.87146111197E+01 -0.67727334018E+02  0.68306654839E+02  0.10566000000E+00 0. -1.
        -13    1    4    4    0    0  0.32462310926E+00 -0.70327756816E+01 -0.52518882687E+02  0.52988767835E+02  0.10566000000E+00 0.  1.
        -14    1    4    4    0    0  0.38985622675E+01 -0.23601543712E+02 -0.18016288344E+03  0.18174404040E+03  0.00000000000E+00 0.  1.
<mgrwt>
<rscale>  0 0.80627691E+02</rscale>
<asrwt>0</asrwt>
<pdfrwt beam="1">  1        2 0.80217900E-01 0.80627691E+02</pdfrwt>
<pdfrwt beam="2">  1       -1 0.47952411E-03 0.80627691E+02</pdfrwt>
<totfact> 0.30233780E+05</totfact>
</mgrwt>
</event>
<event>
 8    1  0.2676873E-024  0.8125812E+02  0.7818608E-02  0.1325519E+00
         -1   -1    0    0    0  501 -0.00000000000E+00  0.00000000000E+00  0.24455620970E+02  0.24455621489E+02  0.50400000000E-02 0.  1.
          2   -1    0    0  501    0  0.00000000000E+00 -0.00000000000E+00 -0.67498612074E+02  0.67498612122E+02  0.25500000000E-02 0. -1.
         24    2    1    2    0    0  0.00000000000E+00  0.00000000000E+00 -0.43042991104E+02  0.91954233611E+02  0.81258119569E+02 0.  0.
         66    2    3    3    0    0  0.32572529843E+02 -0.12681739154E+02 -0.44916291819E+02  0.56949710646E+02  0.20000158870E+01 0.  0.
        -13    1    3    3    0    0 -0.32572529843E+02  0.12681739154E+02  0.18733007152E+01  0.35004522965E+02  0.10566000000E+00 0.  1.
         13    1    4    4    0    0  0.11587012165E+02 -0.52258048700E+01 -0.16693036816E+02  0.20981814259E+02  0.10566000000E+00 0. -1.
        -13    1    4    4    0    0  0.76411063281E+01 -0.31879285081E+01 -0.10893289052E+02  0.13682993258E+02  0.10566000000E+00 0.  1.
         14    1    4    4    0    0  0.13344411351E+02 -0.42680057764E+01 -0.17329965951E+02  0.22284903129E+02  0.00000000000E+00 0. -1.
<mgrwt>
<rscale>  0 0.81258120E+02</rscale>
<asrwt>0</asrwt>
<pdfrwt beam="1">  1        2 0.10384402E-01 0.81258120E+02</pdfrwt>
<pdfrwt beam="2">  1       -1 0.37624033E-02 0.81258120E+02</pdfrwt>
<totfact> 0.15341267E+05</totfact>
</mgrwt>
</event>
<event>
 8    1  0.2676873E-024  0.8046379E+02  0.7818608E-02  0.1327740E+00
          2   -1    0    0  501    0  0.00000000000E+00  0.00000000000E+00  0.39816986008E+02  0.39816986089E+02  0.25500000000E-02 0. -1.
         -1   -1    0    0    0  501 -0.00000000000E+00 -0.00000000000E+00 -0.40651126930E+02  0.40651127242E+02  0.50400000000E-02 0.  1.
         24    2    1    2    0    0  0.00000000000E+00  0.35527136788E-14 -0.83414092209E+00  0.80468113331E+02  0.80463789819E+02 0.  0.
         66    2    3    3    0    0 -0.10435273168E+02  0.19690549270E+02  0.33050688732E+02  0.39911911569E+02  0.20000006840E+01 0.  0.
        -13    1    3    3    0    0  0.10435273168E+02 -0.19690549270E+02 -0.33884829654E+02  0.40556201763E+02  0.10566000000E+00 0.  1.
         13    1    4    4    0    0 -0.40890539020E+01  0.86857328768E+01  0.13461491003E+02  0.16534364865E+02  0.10566000000E+00 0. -1.
        -13    1    4    4    0    0 -0.44616452997E+01  0.79341918639E+01  0.13046999493E+02  0.15908898111E+02  0.10566000000E+00 0.  1.
        -14    1    4    4    0    0 -0.18845739662E+01  0.30706245297E+01  0.65421982371E+01  0.74686485933E+01  0.00000000000E+00 0.  1.
<mgrwt>
<rscale>  0 0.80463790E+02</rscale>
<asrwt>0</asrwt>
<pdfrwt beam="1">  1        2 0.61256902E-02 0.80463790E+02</pdfrwt>
<pdfrwt beam="2">  1       -1 0.62540196E-02 0.80463790E+02</pdfrwt>
<totfact> 0.14015881E+05</totfact>
</mgrwt>
</event>
<event>
 8    1  0.2676873E-024  0.7855577E+02  0.7818608E-02  0.1333201E+00
         -1   -1    0    0    0  501 -0.00000000000E+00  0.00000000000E+00  0.22354326323E+01  0.22354383139E+01  0.50400000000E-02 0.  1.
          2   -1    0    0  501    0  0.00000000000E+00 -0.00000000000E+00 -0.69013497490E+03  0.69013497490E+03  0.25500000000E-02 0. -1.
         24    2    1    2    0    0  0.00000000000E+00 -0.17763568394E-14 -0.68789954227E+03  0.69237041322E+03  0.78555769034E+02 0.  0.
         66    2    3    3    0    0  0.15286411385E+02  0.13910814559E+02 -0.63828741334E+03  0.63862509123E+03  0.19999968233E+01 0.  0.
        -13    1    3    3    0    0 -0.15286411385E+02 -0.13910814559E+02 -0.49612128925E+02  0.53745321985E+02  0.10566000000E+00 0.  1.
         13    1    4    4    0    0  0.11216940497E+02  0.10216457710E+02 -0.46858923582E+03  0.46883480977E+03  0.10566000000E+00 0. -1.
        -13    1    4    4    0    0  0.17877737122E+01  0.17452704754E+01 -0.62247569005E+02  0.62297777769E+02  0.10566000000E+00 0.  1.
         14    1    4    4    0    0  0.22816971762E+01  0.19490863733E+01 -0.10745060852E+03  0.10749250370E+03  0.00000000000E+00 0. -1.
<mgrwt>
<rscale>  0 0.78555769E+02</rscale>
<asrwt>0</asrwt>
<pdfrwt beam="1">  1        2 0.10617444E+00 0.78555769E+02</pdfrwt>
<pdfrwt beam="2">  1       -1 0.34391370E-03 0.78555769E+02</pdfrwt>
<totfact> 0.34957599E+05</totfact>
</mgrwt>
</event>
<event>
 8    1  0.2676873E-024  0.8152078E+02  0.7818608E-02  0.1324790E+00
          2   -1    0    0  501    0  0.00000000000E+00  0.00000000000E+00  0.32303336467E+02  0.32303336567E+02  0.25500000000E-02 0. -1.
         -1   -1    0    0    0  501 -0.00000000000E+00 -0.00000000000E+00 -0.51431504448E+02  0.51431504695E+02  0.50400000000E-02 0.  1.
         24    2    1    2    0    0  0.00000000000E+00  0.17763568394E-14 -0.19128167981E+02  0.83734841262E+02  0.81520775456E+02 0.  0.
         66    2    3    3    0    0 -0.87797089694E+01  0.14993303503E+02  0.28275419032E+02  0.33247281752E+02  0.19999957427E+01 0.  0.
        -13    1    3    3    0    0  0.87797089694E+01 -0.14993303503E+02 -0.47403587013E+02  0.50487559510E+02  0.10566000000E+00 0.  1.
         13    1    4    4    0    0 -0.40994826096E+01  0.60360881243E+01  0.11458917135E+02  0.13585214884E+02  0.10566000000E+00 0. -1.
        -13    1    4    4    0    0 -0.50457451315E+00  0.10290296055E+01  0.12379066939E+01  0.16902882555E+01  0.10566000000E+00 0.  1.
         14    1    4    4    0    0 -0.41756518467E+01  0.79281857732E+01  0.15578595203E+02  0.17971778613E+02  0.00000000000E+00 0. -1.
<mgrwt>
<rscale>  0 0.81520775E+02</rscale>
<asrwt>0</asrwt>
<pdfrwt beam="1">  1        2 0.49697441E-02 0.81520775E+02</pdfrwt>
<pdfrwt beam="2">  1       -1 0.79125392E-02 0.81520775E+02</pdfrwt>
<totfact> 0.12953246E+05</totfact>
</mgrwt>
</event>
<event>
 8    1  0.2676873E-024  0.8041351E+02  0.7818608E-02  0.1327882E+00
         -1   -1    0    0    0  501 -0.00000000000E+00  0.00000000000E+00  0.33212777869E+02  0.33212778251E+02  0.50400000000E-02 0.  1.
          2   -1    0    0  501    0  0.00000000000E+00 -0.00000000000E+00 -0.48673535103E+02  0.48673535170E+02  0.25500000000E-02 0. -1.
         24    2    1    2    0    0  0.00000000000E+00  0.17763568394E-14 -0.15460757234E+02  0.81886313421E+02  0.80413514482E+02 0.  0.
         66    2    3    3    0    0 -0.25865301007E+02  0.10772584791E+02 -0.37063971580E+02  0.46505917530E+02  0.19999991843E+01 0.  0.
        -13    1    3    3    0    0  0.25865301007E+02 -0.10772584791E+02  0.21603214346E+02  0.35380395891E+02  0.10566000000E+00 0.  1.
         13    1    4    4    0    0 -0.11098873508E+01  0.44365095587E+00 -0.13986892368E+01  0.18428705106E+01  0.10566000000E+00 0. -1.
        -13    1    4    4    0    0 -0.37738530946E+01  0.14755703851E+01 -0.64956237999E+01  0.76566028842E+01  0.10566000000E+00 0.  1.
        -14    1    4    4    0    0 -0.20981560562E+02  0.88533634497E+01 -0.29169658544E+02  0.37006444135E+02  0.00000000000E+00 0.  1.
<mgrwt>
<rscale>  0 0.80413514E+02</rscale>
<asrwt>0</asrwt>
<pdfrwt beam="1">  1        2 0.74882362E-02 0.80413514E+02</pdfrwt>
<pdfrwt beam="2">  1       -1 0.51096582E-02 0.80413514E+02</pdfrwt>
<totfact> 0.14647518E+05</totfact>
</mgrwt>
</event>
<event>
 8    1  0.2676873E-024  0.7705202E+02  0.7818608E-02  0.1337632E+00
         -1   -1    0    0    0  501 -0.00000000000E+00  0.00000000000E+00  0.85597591422E+01  0.85597606260E+01  0.50400000000E-02 0.  1.
          2   -1    0    0  501    0  0.00000000000E+00 -0.00000000000E+00 -0.17339894641E+03  0.17339894643E+03  0.25500000000E-02 0. -1.
         24    2    1    2    0    0  0.22204460493E-15  0.00000000000E+00 -0.16483918727E+03  0.18195870706E+03  0.77052017586E+02 0.  0.
         66    2    3    3    0    0 -0.14453853642E+01 -0.35220869095E+02 -0.11903253274E+03  0.12415853818E+03  0.19999986605E+01 0.  0.
        -13    1    3    3    0    0  0.14453853642E+01  0.35220869095E+02 -0.45806654534E+02  0.57800168878E+02  0.10566000000E+00 0.  1.
         13    1    4    4    0    0  0.42274972868E-01 -0.14104241688E+02 -0.49702839773E+02  0.51665412669E+02  0.10566000000E+00 0. -1.
        -13    1    4    4    0    0 -0.71789706301E-01 -0.32312441891E+01 -0.11231840606E+02  0.11688092240E+02  0.10566000000E+00 0.  1.
         14    1    4    4    0    0 -0.14158706307E+01 -0.17885383218E+02 -0.58097852358E+02  0.60805033271E+02  0.00000000000E+00 0. -1.
<mgrwt>
<rscale>  0 0.77052018E+02</rscale>
<asrwt>0</asrwt>
<pdfrwt beam="1">  1        2 0.26676759E-01 0.77052018E+02</pdfrwt>
<pdfrwt beam="2">  1       -1 0.13168863E-02 0.77052018E+02</pdfrwt>
<totfact> 0.23197310E+05</totfact>
</mgrwt>
</event>
<event>
 8    1  0.2676873E-024  0.7851514E+02  0.7818608E-02  0.1333319E+00
          2   -1    0    0  501    0  0.00000000000E+00  0.00000000000E+00  0.55128389036E+03  0.55128389037E+03  0.25500000000E-02 0. -1.
         -1   -1    0    0    0  501 -0.00000000000E+00 -0.00000000000E+00 -0.27955748745E+01  0.27955794176E+01  0.50400000000E-02 0.  1.
         24    2    1    2    0    0 -0.88817841970E-15  0.00000000000E+00  0.54848831549E+03  0.55407946979E+03  0.78515136194E+02 0.  0.
         66    2    3    3    0    0  0.72287341095E+01 -0.19764114838E+02  0.50807860928E+03  0.50851818851E+03  0.19999999646E+01 0.  0.
        -13    1    3    3    0    0 -0.72287341095E+01  0.19764114838E+02  0.40409706206E+02  0.45561281279E+02  0.10566000000E+00 0.  1.
         13    1    4    4    0    0  0.23524402858E+01 -0.49494152897E+01  0.14116424615E+03  0.14127061351E+03  0.10566000000E+00 0. -1.
        -13    1    4    4    0    0  0.11538234424E+01 -0.45107823346E+01  0.11972352085E+03  0.11981406877E+03  0.10566000000E+00 0.  1.
         14    1    4    4    0    0  0.37224703813E+01 -0.10303917213E+02  0.24719084228E+03  0.24743350623E+03  0.00000000000E+00 0. -1.
<mgrwt>
<rscale>  0 0.78515136E+02</rscale>
<asrwt>0</asrwt>
<pdfrwt beam="1">  1        2 0.84812929E-01 0.78515136E+02</pdfrwt>
<pdfrwt beam="2">  1       -1 0.43008868E-03 0.78515136E+02</pdfrwt>
<totfact> 0.32952595E+05</totfact>
</mgrwt>
</event>
<event>
 8    1  0.2676873E-024  0.7869314E+02  0.7818608E-02  0.1332802E+00
          2   -1    0    0  501    0  0.00000000000E+00  0.00000000000E+00  0.41991256334E+03  0.41991256335E+03  0.25500000000E-02 0. -1.
         -1   -1    0    0    0  501 -0.00000000000E+00 -0.00000000000E+00 -0.36868437733E+01  0.36868472182E+01  0.50400000000E-02 0.  1.
         24    2    1    2    0    0 -0.35527136788E-14  0.00000000000E+00  0.41622571957E+03  0.42359941057E+03  0.78693144574E+02 0.  0.
         66    2    3    3    0    0 -0.18151234797E+02 -0.19286735253E+02  0.36469501122E+03  0.36566090396E+03  0.19999980018E+01 0.  0.
        -13    1    3    3    0    0  0.18151234797E+02  0.19286735253E+02  0.51530708346E+02  0.57938506609E+02  0.10566000000E+00 0.  1.
         13    1    4    4    0    0 -0.96811427864E+01 -0.10799194214E+02  0.19901670402E+03  0.19954449821E+03  0.10566000000E+00 0. -1.
        -13    1    4    4    0    0 -0.26938907513E+01 -0.33806975031E+01  0.64477490900E+02  0.64622319363E+02  0.10566000000E+00 0.  1.
        -14    1    4    4    0    0 -0.57762012597E+01 -0.51068435364E+01  0.10120081630E+03  0.10149408639E+03  0.00000000000E+00 0.  1.
<mgrwt>
<rscale>  0 0.78693145E+02</rscale>
<asrwt>0</asrwt>
<pdfrwt beam="1">  1        2 0.64601943E-01 0.78693145E+02</pdfrwt>
<pdfrwt beam="2">  1       -1 0.56720691E-03 0.78693145E+02</pdfrwt>
<totfact> 0.29995547E+05</totfact>
</mgrwt>
</event>
<event>
 8    1  0.2676873E-024  0.8277301E+02  0.7818608E-02  0.1321361E+00
         -1   -1    0    0    0  501 -0.00000000000E+00  0.00000000000E+00  0.82028742602E+02  0.82028742757E+02  0.50400000000E-02 0.  1.
          2   -1    0    0  501    0  0.00000000000E+00 -0.00000000000E+00 -0.20881005829E+02  0.20881005985E+02  0.25500000000E-02 0. -1.
         24    2    1    2    0    0  0.00000000000E+00  0.00000000000E+00  0.61147736772E+02  0.10290974874E+03  0.82773006914E+02 0.  0.
         66    2    3    3    0    0 -0.38304317466E+02  0.14742461393E+02  0.24218524759E+02  0.47697985788E+02  0.20000005582E+01 0.  0.
        -13    1    3    3    0    0  0.38304317466E+02 -0.14742461393E+02  0.36929212014E+02  0.55211762954E+02  0.10566000000E+00 0.  1.
         13    1    4    4    0    0 -0.23921179225E+02  0.89893654500E+01  0.14901251882E+02  0.29581919789E+02  0.10566000000E+00 0. -1.
        -13    1    4    4    0    0 -0.45771329958E+01  0.12756011092E+01  0.30367103115E+01  0.56400423937E+01  0.10566000000E+00 0.  1.
         14    1    4    4    0    0 -0.98060052457E+01  0.44774948334E+01  0.62805625653E+01  0.12476023605E+02  0.00000000000E+00 0. -1.
<mgrwt>
<rscale>  0 0.82773007E+02</rscale>
<asrwt>0</asrwt>
<pdfrwt beam="1">  1        2 0.32124625E-02 0.82773007E+02</pdfrwt>
<pdfrwt beam="2">  1       -1 0.12619806E-01 0.82773007E+02</pdfrwt>
<totfact> 0.11355826E+05</totfact>
</mgrwt>
</event>
<event>
 8    1  0.2676873E-024  0.8101987E+02  0.7818608E-02  0.1326182E+00
          2   -1    0    0  501    0  0.00000000000E+00  0.00000000000E+00  0.11821171994E+03  0.11821171997E+03  0.25500000000E-02 0. -1.
         -1   -1    0    0    0  501 -0.00000000000E+00 -0.00000000000E+00 -0.13882334671E+02  0.13882335586E+02  0.50400000000E-02 0.  1.
         24    2    1    2    0    0  0.00000000000E+00  0.00000000000E+00  0.10432938527E+03  0.13209405555E+03  0.81019867206E+02 0.  0.
         66    2    3    3    0    0  0.21316839210E+02 -0.88749683045E+01 -0.20218181213E+01  0.23265004640E+02  0.19999990210E+01 0.  0.
        -13    1    3    3    0    0 -0.21316839210E+02  0.88749683045E+01  0.10635120339E+03  0.10882905091E+03  0.10566000000E+00 0.  1.
         13    1    4    4    0    0  0.99810252602E+01 -0.45070832249E+01 -0.37404528330E+00  0.10958363854E+02  0.10566000000E+00 0. -1.
        -13    1    4    4    0    0  0.15427759618E+01 -0.86513546856E+00  0.26404630969E-01  0.17721394661E+01  0.10566000000E+00 0.  1.
        -14    1    4    4    0    0  0.97930379876E+01 -0.35027496110E+01 -0.16741774689E+01  0.10534501320E+02  0.00000000000E+00 0.  1.
<mgrwt>
<rscale>  0 0.81019867E+02</rscale>
<asrwt>0</asrwt>
<pdfrwt beam="1">  1        2 0.18186418E-01 0.81019867E+02</pdfrwt>
<pdfrwt beam="2">  1       -1 0.21357439E-02 0.81019867E+02</pdfrwt>
<totfact> 0.17984415E+05</totfact>
</mgrwt>
</event>
<event>
 8    1  0.2676873E-024  0.8101953E+02  0.7818608E-02  0.1326183E+00
         -1   -1    0    0    0  501 -0.00000000000E+00  0.00000000000E+00  0.45530969184E+01  0.45530997078E+01  0.50400000000E-02 0.  1.
          2   -1    0    0  501    0  0.00000000000E+00 -0.00000000000E+00 -0.36042291226E+03  0.36042291227E+03  0.25500000000E-02 0. -1.
         24    2    1    2    0    0  0.00000000000E+00  0.00000000000E+00 -0.35586981534E+03  0.36497601198E+03  0.81019527567E+02 0.  0.
         66    2    3    3    0    0 -0.58299254395E+01 -0.13298818939E+02 -0.34828534687E+03  0.34859364518E+03  0.20000001022E+01 0.  0.
        -13    1    3    3    0    0  0.58299254395E+01  0.13298818939E+02 -0.75844684718E+01  0.16382366796E+02  0.10566000000E+00 0.  1.
         13    1    4    4    0    0 -0.17837721920E+01 -0.53655444189E+01 -0.14843440249E+03  0.14854209476E+03  0.10566000000E+00 0. -1.
        -13    1    4    4    0    0 -0.12940234191E+01 -0.18870105501E+01 -0.57757684426E+02  0.57803084517E+02  0.10566000000E+00 0. -1.
        -14    1    4    4    0    0 -0.27521298284E+01 -0.60462639701E+01 -0.14209325996E+03  0.14224846590E+03  0.00000000000E+00 0.  1.
<mgrwt>
<rscale>  0 0.81019528E+02</rscale>
<asrwt>0</asrwt>
<pdfrwt beam="1">  1        2 0.55449656E-01 0.81019528E+02</pdfrwt>
<pdfrwt beam="2">  1       -1 0.70047695E-03 0.81019528E+02</pdfrwt>
<totfact> 0.26345015E+05</totfact>
</mgrwt>
</event>
<event>
 8    1  0.2676873E-024  0.7986704E+02  0.7818608E-02  0.1329429E+00
         -1   -1    0    0    0  501 -0.00000000000E+00  0.00000000000E+00  0.10254194733E+02  0.10254195972E+02  0.50400000000E-02 0.  1.
          2   -1    0    0  501    0  0.00000000000E+00 -0.00000000000E+00 -0.15551548422E+03  0.15551548424E+03  0.25500000000E-02 0. -1.
         24    2    1    2    0    0  0.35527136788E-14  0.88817841970E-15 -0.14526128948E+03  0.16576968021E+03  0.79867043605E+02 0.  0.
         66    2    3    3    0    0 -0.31461016152E+02  0.69648993929E+01 -0.12154575933E+03  0.12576039509E+03  0.20000006220E+01 0.  0.
        -13    1    3    3    0    0  0.31461016152E+02 -0.69648993929E+01 -0.23715530155E+02  0.40009285115E+02  0.10566000000E+00 0.  1.
         13    1    4    4    0    0 -0.23725351644E+02  0.49577509328E+01 -0.88273363972E+02  0.91540535043E+02  0.10566000000E+00 0. -1.
        -13    1    4    4    0    0 -0.41656556362E+01  0.11851041676E+01 -0.17759813320E+02  0.18280571434E+02  0.10566000000E+00 0.  1.
         14    1    4    4    0    0 -0.35700088724E+01  0.82204429244E+00 -0.15512582037E+02  0.15939288617E+02  0.00000000000E+00 0. -1.
<mgrwt>
<rscale>  0 0.79867044E+02</rscale>
<asrwt>0</asrwt>
<pdfrwt beam="1">  1        2 0.23925457E-01 0.79867044E+02</pdfrwt>
<pdfrwt beam="2">  1       -1 0.15775686E-02 0.79867044E+02</pdfrwt>
<totfact> 0.20355231E+05</totfact>
</mgrwt>
</event>
<event>
 8    1  0.2676873E-024  0.7995309E+02  0.7818608E-02  0.1329185E+00
         -1   -1    0    0    0  501 -0.00000000000E+00  0.00000000000E+00  0.19261556233E+03  0.19261556239E+03  0.50400000000E-02 0.  1.
          2   -1    0    0  501    0  0.00000000000E+00 -0.00000000000E+00 -0.82969627261E+01  0.82969631179E+01  0.25500000000E-02 0. -1.
         24    2    1    2    0    0  0.00000000000E+00  0.71054273576E-14  0.18431859960E+03  0.20091252551E+03  0.79953090924E+02 0.  0.
         66    2    3    3    0    0 -0.79076251600E+01  0.34548297713E+02  0.45881327557E+02  0.58010444121E+02  0.19999995522E+01 0.  0.
        -13    1    3    3    0    0  0.79076251600E+01 -0.34548297713E+02  0.13843727204E+03  0.14290208139E+03  0.10566000000E+00 0.  1.
         13    1    4    4    0    0 -0.12792244844E+01  0.53863689187E+01  0.82128091633E+01  0.99050887829E+01  0.10566000000E+00 0. -1.
        -13    1    4    4    0    0 -0.35115552304E+01  0.16575968799E+02  0.21944605024E+02  0.27724909657E+02  0.10566000000E+00 0.  1.
        -14    1    4    4    0    0 -0.31168454451E+01  0.12585959995E+02  0.15723913370E+02  0.20380445681E+02  0.00000000000E+00 0.  1.
<mgrwt>
<rscale>  0 0.79953091E+02</rscale>
<asrwt>0</asrwt>
<pdfrwt beam="1">  1        2 0.12764559E-02 0.79953091E+02</pdfrwt>
<pdfrwt beam="2">  1       -1 0.29633161E-01 0.79953091E+02</pdfrwt>
<totfact> 0.10088089E+05</totfact>
</mgrwt>
</event>
<event>
 8    1  0.2676873E-024  0.7840686E+02  0.7818608E-02  0.1333634E+00
          2   -1    0    0  501    0  0.00000000000E+00  0.00000000000E+00  0.62613019752E+03  0.62613019752E+03  0.25500000000E-02 0. -1.
         -1   -1    0    0    0  501 -0.00000000000E+00 -0.00000000000E+00 -0.24546129219E+01  0.24546180962E+01  0.50400000000E-02 0.  1.
         24    2    1    2    0    0  0.35527136788E-14  0.17763568394E-14  0.62367558459E+03  0.62858481562E+03  0.78406859432E+02 0.  0.
         66    2    3    3    0    0  0.25064542902E+02 -0.12794921308E+02  0.53056119452E+03  0.53131075882E+03  0.19999973562E+01 0.  0.
        -13    1    3    3    0    0 -0.25064542902E+02  0.12794921308E+02  0.93114390075E+02  0.97274056794E+02  0.10566000000E+00 0.  1.
         13    1    4    4    0    0  0.87080427447E+01 -0.38144282667E+01  0.17751583003E+03  0.17777024764E+03  0.10566000000E+00 0. -1.
        -13    1    4    4    0    0  0.60387800398E+01 -0.26217216805E+01  0.12285360166E+03  0.12302991057E+03  0.10566000000E+00 0.  1.
        -14    1    4    4    0    0  0.10317720117E+02 -0.63587713608E+01  0.23019176283E+03  0.23051060061E+03  0.00000000000E+00 0.  1.
<mgrwt>
<rscale>  0 0.78406859E+02</rscale>
<asrwt>0</asrwt>
<pdfrwt beam="1">  1        2 0.96327672E-01 0.78406859E+02</pdfrwt>
<pdfrwt beam="2">  1       -1 0.37763335E-03 0.78406859E+02</pdfrwt>
<totfact> 0.34285164E+05</totfact>
</mgrwt>
</event>
<event>
 8    1  0.2676873E-024  0.8067252E+02  0.7818608E-02  0.1327154E+00
          2   -1    0    0  501    0  0.00000000000E+00  0.00000000000E+00  0.35697562674E+02  0.35697562765E+02  0.25500000000E-02 0. -1.
         -1   -1    0    0    0  501 -0.00000000000E+00 -0.00000000000E+00 -0.45577733229E+02  0.45577733508E+02  0.50400000000E-02 0.  1.
         24    2    1    2    0    0 -0.71054273576E-14 -0.17763568394E-14 -0.98801705545E+01  0.81275296273E+02  0.80672523291E+02 0.  0.
         66    2    3    3    0    0 -0.37685088174E+02 -0.13689896743E+02 -0.73700729192E+00  0.40151243190E+02  0.20000016180E+01 0.  0.
        -13    1    3    3    0    0  0.37685088174E+02  0.13689896743E+02 -0.91431632626E+01  0.41124053083E+02  0.10566000000E+00 0.  1.
         13    1    4    4    0    0 -0.53481053213E+01 -0.19974356624E+01 -0.29980660522E+00  0.57177817193E+01  0.10566000000E+00 0.  1.
        -13    1    4    4    0    0 -0.15478189586E+02 -0.58364324178E+01 -0.10540483005E+01  0.16575900521E+02  0.10566000000E+00 0.  1.
         14    1    4    4    0    0 -0.16858793266E+02 -0.58560286631E+01  0.61684761377E+00  0.17857560950E+02  0.00000000000E+00 0. -1.
<mgrwt>
<rscale>  0 0.80672523E+02</rscale>
<asrwt>0</asrwt>
<pdfrwt beam="1">  1        2 0.54919328E-02 0.80672523E+02</pdfrwt>
<pdfrwt beam="2">  1       -1 0.70119590E-02 0.80672523E+02</pdfrwt>
<totfact> 0.13608635E+05</totfact>
</mgrwt>
</event>
<event>
 8    1  0.2676873E-024  0.7861792E+02  0.7818608E-02  0.1333020E+00
         -1   -1    0    0    0  501 -0.00000000000E+00  0.00000000000E+00  0.14540658365E+02  0.14540659238E+02  0.50400000000E-02 0.  1.
          2   -1    0    0  501    0  0.00000000000E+00 -0.00000000000E+00 -0.10626714277E+03  0.10626714281E+03  0.25500000000E-02 0. -1.
         24    2    1    2    0    0  0.00000000000E+00 -0.17763568394E-14 -0.91726484410E+02  0.12080780204E+03  0.78617918393E+02 0.  0.
         66    2    3    3    0    0  0.36668210933E+02  0.10661984823E+02 -0.60056145548E+02  0.71196743387E+02  0.20000093603E+01 0.  0.
        -13    1    3    3    0    0 -0.36668210933E+02 -0.10661984823E+02 -0.31670338862E+02  0.49611058657E+02  0.10566000000E+00 0.  1.
         13    1    4    4    0    0  0.22738414006E+02  0.71355134541E+01 -0.37515992921E+02  0.44445606224E+02  0.10566000000E+00 0. -1.
        -13    1    4    4    0    0  0.38638339014E+01  0.70260652704E+00 -0.54865128071E+01  0.67480260201E+01  0.10566000000E+00 0.  1.
         14    1    4    4    0    0  0.10065963025E+02  0.28238648420E+01 -0.17053639820E+02  0.20003111142E+02  0.00000000000E+00 0. -1.
<mgrwt>
<rscale>  0 0.78617918E+02</rscale>
<asrwt>0</asrwt>
<pdfrwt beam="1">  1        2 0.16348791E-01 0.78617918E+02</pdfrwt>
<pdfrwt beam="2">  1       -1 0.22370245E-02 0.78617918E+02</pdfrwt>
<totfact> 0.18893106E+05</totfact>
</mgrwt>
</event>
<event>
 8    1  0.2676873E-024  0.8201011E+02  0.7818608E-02  0.1323442E+00
         -1   -1    0    0    0  501 -0.00000000000E+00  0.00000000000E+00  0.42030343071E+01  0.42030373289E+01  0.50400000000E-02 0.  1.
          2   -1    0    0  501    0  0.00000000000E+00 -0.00000000000E+00 -0.40004760759E+03  0.40004760760E+03  0.25500000000E-02 0. -1.
         24    2    1    2    0    0  0.00000000000E+00  0.88817841970E-15 -0.39584457329E+03  0.40425064493E+03  0.82010107466E+02 0.  0.
         66    2    3    3    0    0  0.87538198578E+01  0.72316291998E+01 -0.39213582459E+03  0.39230527746E+03  0.19999946821E+01 0.  0.
        -13    1    3    3    0    0 -0.87538198578E+01 -0.72316291998E+01 -0.37087487012E+01  0.11945367468E+02  0.10566000000E+00 0.  1.
         13    1    4    4    0    0  0.90352354553E+00  0.16055009745E+01 -0.59505302754E+02  0.59533908053E+02  0.10566000000E+00 0. -1.
        -13    1    4    4    0    0  0.13176408685E+01  0.71548399142E+00 -0.47800731266E+02  0.47824357480E+02  0.10566000000E+00 0.  1.
         14    1    4    4    0    0  0.65326554438E+01  0.49106442339E+01 -0.28482979057E+03  0.28494701193E+03  0.00000000000E+00 0. -1.
<mgrwt>
<rscale>  0 0.82010107E+02</rscale>
<asrwt>0</asrwt>
<pdfrwt beam="1">  1        2 0.61545756E-01 0.82010107E+02</pdfrwt>
<pdfrwt beam="2">  1       -1 0.64662121E-03 0.82010107E+02</pdfrwt>
<totfact> 0.26479208E+05</totfact>
</mgrwt>
</event>
<event>
 8    1  0.2676873E-024  0.7855139E+02  0.7818608E-02  0.1333213E+00
         -1   -1    0    0    0  501 -0.00000000000E+00  0.00000000000E+00  0.16468251819E+02  0.16468252590E+02  0.50400000000E-02 0.  1.
          2   -1    0    0  501    0  0.00000000000E+00 -0.00000000000E+00 -0.93669929590E+02  0.93669929625E+02  0.25500000000E-02 0. -1.
         24    2    1    2    0    0  0.71054273576E-14 -0.44408920985E-15 -0.77201677772E+02  0.11013818221E+03  0.78551385289E+02 0.  0.
         66    2    3    3    0    0 -0.30430482729E+02  0.20624033650E+01 -0.73264234008E+02  0.79384606582E+02  0.19999976384E+01 0.  0.
        -13    1    3    3    0    0  0.30430482729E+02 -0.20624033650E+01 -0.39374437633E+01  0.30753575633E+02  0.10566000000E+00 0.  1.
         13    1    4    4    0    0 -0.17877743416E+02  0.76017247420E+00 -0.43650367592E+02  0.47175812943E+02  0.10566000000E+00 0. -1.
        -13    1    4    4    0    0 -0.15449884096E+01 -0.16265519443E+00 -0.39147925223E+01  0.42130998595E+01  0.10566000000E+00 0.  1.
         14    1    4    4    0    0 -0.11007750904E+02  0.14648860852E+01 -0.25699073894E+02  0.27995693780E+02  0.00000000000E+00 0. -1.
<mgrwt>
<rscale>  0 0.78551385E+02</rscale>
<asrwt>0</asrwt>
<pdfrwt beam="1">  1        2 0.14410758E-01 0.78551385E+02</pdfrwt>
<pdfrwt beam="2">  1       -1 0.25335773E-02 0.78551385E+02</pdfrwt>
<totfact> 0.18282191E+05</totfact>
</mgrwt>
</event>
<event>
 8    1  0.2676873E-024  0.7345370E+02  0.7818608E-02  0.1348727E+00
          2   -1    0    0  501    0  0.00000000000E+00  0.00000000000E+00  0.15547508019E+03  0.15547508021E+03  0.25500000000E-02 0. -1.
         -1   -1    0    0    0  501 -0.00000000000E+00 -0.00000000000E+00 -0.86757405735E+01  0.86757420375E+01  0.50400000000E-02 0.  1.
         24    2    1    2    0    0 -0.71054273576E-14  0.00000000000E+00  0.14679933961E+03  0.16415082224E+03  0.73453701968E+02 0.  0.
         66    2    3    3    0    0 -0.32327804924E+02 -0.17371176275E+02  0.73698588725E+02  0.82354882976E+02  0.20000084150E+01 0.  0.
        -13    1    3    3    0    0  0.32327804924E+02  0.17371176275E+02  0.73100750887E+02  0.81795939268E+02  0.10566000000E+00 0.  1.
         13    1    4    4    0    0 -0.82763102508E+01 -0.46039788840E+01  0.18021244455E+02  0.20358544856E+02  0.10566000000E+00 0. -1.
        -13    1    4    4    0    0 -0.10857619065E+02 -0.58824569489E+01  0.23641917488E+02  0.26672881698E+02  0.10566000000E+00 0.  1.
        -14    1    4    4    0    0 -0.13193875607E+02 -0.68847404424E+01  0.32035426782E+02  0.35323456422E+02  0.00000000000E+00 0.  1.
<mgrwt>
<rscale>  0 0.73453702E+02</rscale>
<asrwt>0</asrwt>
<pdfrwt beam="1">  1        2 0.23919242E-01 0.73453702E+02</pdfrwt>
<pdfrwt beam="2">  1       -1 0.13347295E-02 0.73453702E+02</pdfrwt>
<totfact> 0.25381957E+05</totfact>
</mgrwt>
</event>
<event>
 8    1  0.2676873E-024  0.7690547E+02  0.7818608E-02  0.1338070E+00
         -1   -1    0    0    0  501 -0.00000000000E+00  0.00000000000E+00  0.92964352885E+02  0.92964353022E+02  0.50400000000E-02 0.  1.
          2   -1    0    0  501    0  0.00000000000E+00 -0.00000000000E+00 -0.15905158168E+02  0.15905158373E+02  0.25500000000E-02 0. -1.
         24    2    1    2    0    0  0.35527136788E-14  0.00000000000E+00  0.77059194717E+02  0.10886951139E+03  0.76905468081E+02 0.  0.
         66    2    3    3    0    0  0.22066995557E+02 -0.28731905505E+02  0.20419344651E+02  0.41634412923E+02  0.20000041498E+01 0.  0.
        -13    1    3    3    0    0 -0.22066995557E+02  0.28731905505E+02  0.56639850066E+02  0.67235098471E+02  0.10566000000E+00 0.  1.
         13    1    4    4    0    0  0.12191869552E+02 -0.16507067330E+02  0.11044921531E+02  0.23305072638E+02  0.10566000000E+00 0. -1.
        -13    1    4    4    0    0  0.34252561474E+01 -0.41486647591E+01  0.37880305709E+01  0.65805880133E+01  0.10566000000E+00 0.  1.
        -14    1    4    4    0    0  0.64498698576E+01 -0.80761734166E+01  0.55863925490E+01  0.11748752272E+02  0.00000000000E+00 0.  1.
<mgrwt>
<rscale>  0 0.76905468E+02</rscale>
<asrwt>0</asrwt>
<pdfrwt beam="1">  1        2 0.24469474E-02 0.76905468E+02</pdfrwt>
<pdfrwt beam="2">  1       -1 0.14302208E-01 0.76905468E+02</pdfrwt>
<totfact> 0.13277695E+05</totfact>
</mgrwt>
</event>
<event>
 8    1  0.2676873E-024  0.7873334E+02  0.7818608E-02  0.1332685E+00
          2   -1    0    0  501    0  0.00000000000E+00  0.00000000000E+00  0.26124169850E+03  0.26124169851E+03  0.25500000000E-02 0. -1.
         -1   -1    0    0    0  501 -0.00000000000E+00 -0.00000000000E+00 -0.59321864772E+01  0.59321886182E+01  0.50400000000E-02 0.  1.
         24    2    1    2    0    0  0.00000000000E+00  0.11102230246E-15  0.25530951202E+03  0.26717388713E+03  0.78733341319E+02 0.  0.
         66    2    3    3    0    0 -0.27208965135E+02  0.48271862193E+00  0.22414589596E+03  0.22580067199E+03  0.19999985494E+01 0.  0.
        -13    1    3    3    0    0  0.27208965135E+02 -0.48271862193E+00  0.31163616062E+02  0.41373215141E+02  0.10566000000E+00 0.  1.
         13    1    4    4    0    0 -0.88564181528E+01  0.23084719662E+00  0.79628834830E+02  0.80120234232E+02  0.10566000000E+00 0. -1.
        -13    1    4    4    0    0 -0.87322660327E+01 -0.26001101087E+00  0.70145937912E+02  0.70687932813E+02  0.10566000000E+00 0.  1.
        -14    1    4    4    0    0 -0.96202809492E+01  0.51188243618E+00  0.74371123219E+02  0.74992504945E+02  0.00000000000E+00 0.  1.
<mgrwt>
<rscale>  0 0.78733341E+02</rscale>
<asrwt>0</asrwt>
<pdfrwt beam="1">  1        2 0.40191026E-01 0.78733341E+02</pdfrwt>
<pdfrwt beam="2">  1       -1 0.91264435E-03 0.78733341E+02</pdfrwt>
<totfact> 0.25286398E+05</totfact>
</mgrwt>
</event>
<event>
 8    1  0.2676873E-024  0.8026928E+02  0.7818608E-02  0.1328289E+00
         -1   -1    0    0    0  501 -0.00000000000E+00  0.00000000000E+00  0.14162797756E+03  0.14162797765E+03  0.50400000000E-02 0.  1.
          2   -1    0    0  501    0  0.00000000000E+00 -0.00000000000E+00 -0.11373384040E+02  0.11373384326E+02  0.25500000000E-02 0. -1.
         24    2    1    2    0    0 -0.17763568394E-14 -0.35527136788E-14  0.13025459352E+03  0.15300136197E+03  0.80269282003E+02 0.  0.
         66    2    3    3    0    0  0.13166078407E+02  0.21374899787E+02  0.55412995131E+01  0.25786391050E+02  0.20000003850E+01 0.  0.
        -13    1    3    3    0    0 -0.13166078407E+02 -0.21374899787E+02  0.12471329400E+03  0.12721497092E+03  0.10566000000E+00 0.  1.
         13    1    4    4    0    0  0.33829972463E+01  0.50656560125E+01  0.13488152768E+01  0.62398724260E+01  0.10566000000E+00 0. -1.
        -13    1    4    4    0    0  0.24986205291E+01  0.33636591828E+01  0.14894027128E+01  0.44482347198E+01  0.10566000000E+00 0.  1.
         14    1    4    4    0    0  0.72844606320E+01  0.12945584592E+02  0.27030815235E+01  0.15098283904E+02  0.00000000000E+00 0. -1.
<mgrwt>
<rscale>  0 0.80269282E+02</rscale>
<asrwt>0</asrwt>
<pdfrwt beam="1">  1        2 0.17497514E-02 0.80269282E+02</pdfrwt>
<pdfrwt beam="2">  1       -1 0.21788920E-01 0.80269282E+02</pdfrwt>
<totfact> 0.10851604E+05</totfact>
</mgrwt>
</event>
<event>
 8    1  0.2676873E-024  0.7623712E+02  0.7818608E-02  0.1340082E+00
          2   -1    0    0  501    0  0.00000000000E+00  0.00000000000E+00  0.12260272235E+03  0.12260272237E+03  0.25500000000E-02 0. -1.
         -1   -1    0    0    0  501 -0.00000000000E+00 -0.00000000000E+00 -0.11851488108E+02  0.11851489180E+02  0.50400000000E-02 0.  1.
         24    2    1    2    0    0  0.17763568394E-14  0.00000000000E+00  0.11075123424E+03  0.13445421155E+03  0.76237124283E+02 0.  0.
         66    2    3    3    0    0  0.80428821933E+01  0.35315884340E+02  0.76215524253E+02  0.84407972244E+02  0.20000001300E+01 0.  0.
        -13    1    3    3    0    0 -0.80428821933E+01 -0.35315884340E+02  0.34535709986E+02  0.50046239309E+02  0.10566000000E+00 0.  1.
         13    1    4    4    0    0  0.48630203211E+01  0.22804040950E+02  0.50411149460E+02  0.55542491880E+02  0.10566000000E+00 0. -1.
        -13    1    4    4    0    0  0.30494668241E+01  0.12381236001E+02  0.25419403390E+02  0.28438556320E+02  0.10566000000E+00 0.  1.
        -14    1    4    4    0    0  0.13039504808E+00  0.13060738866E+00  0.38497140226E+00  0.42692404371E+00  0.00000000000E+00 0.  1.
<mgrwt>
<rscale>  0 0.76237124E+02</rscale>
<asrwt>0</asrwt>
<pdfrwt beam="1">  1        2 0.18861957E-01 0.76237124E+02</pdfrwt>
<pdfrwt beam="2">  1       -1 0.18233060E-02 0.76237124E+02</pdfrwt>
<totfact> 0.21376792E+05</totfact>
</mgrwt>
</event>
<event>
 8    1  0.2676873E-024  0.7980938E+02  0.7818608E-02  0.1329593E+00
         -1   -1    0    0    0  501 -0.00000000000E+00  0.00000000000E+00  0.87667229163E+01  0.87667243650E+01  0.50400000000E-02 0.  1.
          2   -1    0    0  501    0  0.00000000000E+00 -0.00000000000E+00 -0.18163961259E+03  0.18163961261E+03  0.25500000000E-02 0. -1.
         24    2    1    2    0    0  0.00000000000E+00  0.00000000000E+00 -0.17287288968E+03  0.19040633698E+03  0.79809380247E+02 0.  0.
         66    2    3    3    0    0  0.11407401893E+02 -0.29502892083E+01 -0.17738618444E+03  0.17778833325E+03  0.19999966125E+01 0.  0.
        -13    1    3    3    0    0 -0.11407401893E+02  0.29502892083E+01  0.45132947610E+01  0.12618003725E+02  0.10566000000E+00 0.  1.
         13    1    4    4    0    0  0.78620974226E+01 -0.21817825189E+01 -0.13192816537E+03  0.13218027361E+03  0.10566000000E+00 0. -1.
        -13    1    4    4    0    0  0.94150503655E+00 -0.19752171885E-01 -0.90895769734E+01  0.91388399413E+01  0.10566000000E+00 0.  1.
         14    1    4    4    0    0  0.26037994340E+01 -0.74875451755E+00 -0.36368442096E+02  0.36469219697E+02  0.00000000000E+00 0. -1.
<mgrwt>
<rscale>  0 0.79809380E+02</rscale>
<asrwt>0</asrwt>
<pdfrwt beam="1">  1        2 0.27944553E-01 0.79809380E+02</pdfrwt>
<pdfrwt beam="2">  1       -1 0.13487269E-02 0.79809380E+02</pdfrwt>
<totfact> 0.21475076E+05</totfact>
</mgrwt>
</event>
<event>
 8    1  0.2676873E-024  0.8081090E+02  0.7818608E-02  0.1326766E+00
         -1   -1    0    0    0  501 -0.00000000000E+00  0.00000000000E+00  0.23050237670E+01  0.23050292770E+01  0.50400000000E-02 0.  1.
          2   -1    0    0  501    0  0.00000000000E+00 -0.00000000000E+00 -0.70827836328E+03  0.70827836329E+03  0.25500000000E-02 0. -1.
         24    2    1    2    0    0  0.00000000000E+00 -0.17763568394E-14 -0.70597333952E+03  0.71058339256E+03  0.80810900757E+02 0.  0.
         66    2    3    3    0    0 -0.17159888447E+02  0.13431199171E+02 -0.65213573998E+03  0.65250278332E+03  0.19999987743E+01 0.  0.
        -13    1    3    3    0    0  0.17159888447E+02 -0.13431199171E+02 -0.53837599535E+02  0.58080609246E+02  0.10566000000E+00 0.  1.
         13    1    4    4    0    0 -0.11500296960E+02  0.90102958386E+01 -0.43632639184E+03  0.43657092624E+03  0.10566000000E+00 0. -1.
        -13    1    4    4    0    0 -0.12843259458E+01  0.46887809302E+00 -0.44111471790E+02  0.44132782003E+02  0.10566000000E+00 0.  1.
        -14    1    4    4    0    0 -0.43752655412E+01  0.39520252392E+01 -0.17169787635E+03  0.17179907507E+03  0.00000000000E+00 0.  1.
<mgrwt>
<rscale>  0 0.80810901E+02</rscale>
<asrwt>0</asrwt>
<pdfrwt beam="1">  1        2 0.10896573E+00 0.80810901E+02</pdfrwt>
<pdfrwt beam="2">  1       -1 0.35462003E-03 0.80810901E+02</pdfrwt>
<totfact> 0.32672667E+05</totfact>
</mgrwt>
</event>
<event>
 8    1  0.2676873E-024  0.7687388E+02  0.7818608E-02  0.1338165E+00
          2   -1    0    0  501    0  0.00000000000E+00  0.00000000000E+00  0.36878476022E+03  0.36878476023E+03  0.25500000000E-02 0. -1.
         -1   -1    0    0    0  501 -0.00000000000E+00 -0.00000000000E+00 -0.40061246403E+01  0.40061278107E+01  0.50400000000E-02 0.  1.
         24    2    1    2    0    0  0.00000000000E+00  0.00000000000E+00  0.36477863558E+03  0.37279088804E+03  0.76873878723E+02 0.  0.
         66    2    3    3    0    0  0.37496836474E+02  0.28131855981E+01  0.14449294166E+03  0.14931891022E+03  0.20000005971E+01 0.  0.
        -13    1    3    3    0    0 -0.37496836474E+02 -0.28131855981E+01  0.22028569392E+03  0.22347197781E+03  0.10566000000E+00 0.  1.
         13    1    4    4    0    0  0.69077175827E+01  0.52292492930E+00  0.26917122405E+02  0.27794471668E+02  0.10566000000E+00 0. -1.
        -13    1    4    4    0    0  0.24891486486E+02  0.14150537547E+01  0.97526242503E+02  0.10066264261E+03  0.10566000000E+00 0.  1.
        -14    1    4    4    0    0  0.56976324049E+01  0.87520691403E+00  0.20049576750E+02  0.20861795944E+02  0.00000000000E+00 0.  1.
<mgrwt>
<rscale>  0 0.76873879E+02</rscale>
<asrwt>0</asrwt>
<pdfrwt beam="1">  1        2 0.56736123E-01 0.76873879E+02</pdfrwt>
<pdfrwt beam="2">  1       -1 0.61632705E-03 0.76873879E+02</pdfrwt>
<totfact> 0.30464878E+05</totfact>
</mgrwt>
</event>
<event>
 8    1  0.2676873E-024  0.7933100E+02  0.7818608E-02  0.1330961E+00
         -1   -1    0    0    0  501 -0.00000000000E+00  0.00000000000E+00  0.84832601879E+01  0.84832616850E+01  0.50400000000E-02 0.  1.
          2   -1    0    0  501    0  0.00000000000E+00 -0.00000000000E+00 -0.18546547544E+03  0.18546547546E+03  0.25500000000E-02 0. -1.
         24    2    1    2    0    0 -0.35527136788E-14 -0.71054273576E-14 -0.17698221525E+03  0.19394873715E+03  0.79331003547E+02 0.  0.
         66    2    3    3    0    0 -0.18108587167E+02 -0.31707260525E+02 -0.50824595340E+02  0.62613183978E+02  0.20000042975E+01 0.  0.
        -13    1    3    3    0    0  0.18108587167E+02  0.31707260525E+02 -0.12615761991E+03  0.13133555317E+03  0.10566000000E+00 0.  1.
         13    1    4    4    0    0 -0.21247158615E+01 -0.38197474584E+01 -0.66946686603E+01  0.79959139969E+01  0.10566000000E+00 0. -1.
        -13    1    4    4    0    0 -0.31069675422E+01 -0.55296179481E+01 -0.97690389499E+01  0.11647970124E+02  0.10566000000E+00 0.  1.
        -14    1    4    4    0    0 -0.12876903763E+02 -0.22357895118E+02 -0.34360887730E+02  0.42969299857E+02  0.00000000000E+00 0.  1.
<mgrwt>
<rscale>  0 0.79331004E+02</rscale>
<asrwt>0</asrwt>
<pdfrwt beam="1">  1        2 0.28533147E-01 0.79331004E+02</pdfrwt>
<pdfrwt beam="2">  1       -1 0.13051172E-02 0.79331004E+02</pdfrwt>
<totfact> 0.21974360E+05</totfact>
</mgrwt>
</event>
<event>
 8    1  0.2676873E-024  0.8009215E+02  0.7818608E-02  0.1328790E+00
          2   -1    0    0  501    0  0.00000000000E+00  0.00000000000E+00  0.30296510690E+02  0.30296510798E+02  0.25500000000E-02 0. -1.
         -1   -1    0    0    0  501 -0.00000000000E+00 -0.00000000000E+00 -0.52933097409E+02  0.52933097649E+02  0.50400000000E-02 0.  1.
         24    2    1    2    0    0 -0.35527136788E-14  0.00000000000E+00 -0.22636586718E+02  0.83229608446E+02  0.80092151075E+02 0.  0.
         66    2    3    3    0    0  0.14921834504E+02  0.22972065637E+02  0.18994781035E+02  0.33394290752E+02  0.20000009128E+01 0.  0.
        -13    1    3    3    0    0 -0.14921834504E+02 -0.22972065637E+02 -0.41631367754E+02  0.49835317694E+02  0.10566000000E+00 0.  1.
         13    1    4    4    0    0  0.44641652979E+01  0.74265892472E+01  0.56135062825E+01  0.10324999587E+02  0.10566000000E+00 0. -1.
        -13    1    4    4    0    0  0.36960488501E+01  0.66038414053E+01  0.58149676486E+01  0.95444492349E+01  0.10566000000E+00 0.  1.
        -14    1    4    4    0    0  0.67616203559E+01  0.89416349844E+01  0.75663071043E+01  0.13524841930E+02  0.00000000000E+00 0.  1.
<mgrwt>
<rscale>  0 0.80092151E+02</rscale>
<asrwt>0</asrwt>
<pdfrwt beam="1">  1        2 0.46610016E-02 0.80092151E+02</pdfrwt>
<pdfrwt beam="2">  1       -1 0.81435535E-02 0.80092151E+02</pdfrwt>
<totfact> 0.13437967E+05</totfact>
</mgrwt>
</event>
<event>
 8    1  0.2676873E-024  0.8043104E+02  0.7818608E-02  0.1327833E+00
         -1   -1    0    0    0  501 -0.00000000000E+00  0.00000000000E+00  0.89034142574E+02  0.89034142717E+02  0.50400000000E-02 0.  1.
          2   -1    0    0  501    0  0.00000000000E+00 -0.00000000000E+00 -0.18164807651E+02  0.18164807830E+02  0.25500000000E-02 0. -1.
         24    2    1    2    0    0  0.00000000000E+00 -0.17763568394E-14  0.70869334924E+02  0.10719895055E+03  0.80431041059E+02 0.  0.
         66    2    3    3    0    0  0.17033340926E+02  0.12421572556E+02 -0.10149067904E+02  0.23482626400E+02  0.19999988629E+01 0.  0.
        -13    1    3    3    0    0 -0.17033340926E+02 -0.12421572556E+02  0.81018402828E+02  0.83716324147E+02  0.10566000000E+00 0.  1.
         13    1    4    4    0    0  0.13066462475E+02  0.98362936144E+01 -0.72393227933E+01  0.17885862356E+02  0.10566000000E+00 0. -1.
        -13    1    4    4    0    0  0.34231694955E+00  0.26600962068E+00 -0.99065615382E-01  0.45707772205E+00  0.10566000000E+00 0.  1.
         14    1    4    4    0    0  0.36245615018E+01  0.23192693209E+01 -0.28106794953E+01  0.51396863220E+01  0.00000000000E+00 0. -1.
<mgrwt>
<rscale>  0 0.80431041E+02</rscale>
<asrwt>0</asrwt>
<pdfrwt beam="1">  1        2 0.27945858E-02 0.80431041E+02</pdfrwt>
<pdfrwt beam="2">  1       -1 0.13697560E-01 0.80431041E+02</pdfrwt>
<totfact> 0.11985885E+05</totfact>
</mgrwt>
</event>
<event>
 8    1  0.2676873E-024  0.8011111E+02  0.7818608E-02  0.1328736E+00
         -1   -1    0    0    0  501 -0.00000000000E+00  0.00000000000E+00  0.16708251180E+02  0.16708251940E+02  0.50400000000E-02 0.  1.
          2   -1    0    0  501    0  0.00000000000E+00 -0.00000000000E+00 -0.96027250747E+02  0.96027250781E+02  0.25500000000E-02 0. -1.
         24    2    1    2    0    0  0.17763568394E-14 -0.71054273576E-14 -0.79318999567E+02  0.11273550272E+03  0.80111109600E+02 0.  0.
         66    2    3    3    0    0 -0.15245984668E+02  0.36582467429E+02 -0.31757814243E+02  0.50825935728E+02  0.20000013644E+01 0.  0.
        -13    1    3    3    0    0  0.15245984668E+02 -0.36582467429E+02 -0.47561185324E+02  0.61909566993E+02  0.10566000000E+00 0.  1.
         13    1    4    4    0    0 -0.37693019173E+01  0.92575619403E+01 -0.83098664285E+01  0.12999043585E+02  0.10566000000E+00 0. -1.
        -13    1    4    4    0    0 -0.73786078124E+01  0.19489402710E+02 -0.16348953386E+02  0.26487357590E+02  0.10566000000E+00 0.  1.
         14    1    4    4    0    0 -0.40980749385E+01  0.78355027790E+01 -0.70989944281E+01  0.11339534554E+02  0.00000000000E+00 0. -1.
<mgrwt>
<rscale>  0 0.80111110E+02</rscale>
<asrwt>0</asrwt>
<pdfrwt beam="1">  1        2 0.14773423E-01 0.80111110E+02</pdfrwt>
<pdfrwt beam="2">  1       -1 0.25705003E-02 0.80111110E+02</pdfrwt>
<totfact> 0.17462248E+05</totfact>
</mgrwt>
</event>
<event>
 8    1  0.2676873E-024  0.7970662E+02  0.7818608E-02  0.1329886E+00
          2   -1    0    0  501    0  0.00000000000E+00  0.00000000000E+00  0.16034263334E+03  0.16034263336E+03  0.25500000000E-02 0. -1.
         -1   -1    0    0    0  501 -0.00000000000E+00 -0.00000000000E+00 -0.99055771195E+01  0.99055784017E+01  0.50400000000E-02 0.  1.
         24    2    1    2    0    0  0.00000000000E+00  0.88817841970E-15  0.15043705622E+03  0.17024821176E+03  0.79706622836E+02 0.  0.
         66    2    3    3    0    0 -0.30462055429E+02  0.65291165083E+01  0.12826602890E+03  0.13201037972E+03  0.19999997377E+01 0.  0.
        -13    1    3    3    0    0  0.30462055429E+02 -0.65291165083E+01  0.22171027321E+02  0.38237832049E+02  0.10566000000E+00 0.  1.
         13    1    4    4    0    0 -0.17646581938E+02  0.39975804208E+01  0.74983662746E+02  0.77135875869E+02  0.10566000000E+00 0. -1.
        -13    1    4    4    0    0 -0.80869840634E+01  0.20645924999E+01  0.35522579484E+02  0.36490090033E+02  0.10566000000E+00 0.  1.
         14    1    4    4    0    0 -0.47284894274E+01  0.46694358756E+00  0.17759786673E+02  0.18384413813E+02  0.00000000000E+00 0. -1.
<mgrwt>
<rscale>  0 0.79706623E+02</rscale>
<asrwt>0</asrwt>
<pdfrwt beam="1">  1        2 0.24668097E-01 0.79706623E+02</pdfrwt>
<pdfrwt beam="2">  1       -1 0.15239351E-02 0.79706623E+02</pdfrwt>
<totfact> 0.20669454E+05</totfact>
</mgrwt>
</event>
<event>
 8    1  0.2676873E-024  0.7960120E+02  0.7818608E-02  0.1330187E+00
         -1   -1    0    0    0  501 -0.00000000000E+00  0.00000000000E+00  0.32752616368E+01  0.32752655146E+01  0.50400000000E-02 0.  1.
          2   -1    0    0  501    0  0.00000000000E+00 -0.00000000000E+00 -0.48365204261E+03  0.48365204262E+03  0.25500000000E-02 0. -1.
         24    2    1    2    0    0  0.00000000000E+00  0.00000000000E+00 -0.48037678098E+03  0.48692730813E+03  0.79601204173E+02 0.  0.
         66    2    3    3    0    0 -0.13338451004E+02 -0.26915064353E+02 -0.39982408732E+03  0.40095590252E+03  0.19999995916E+01 0.  0.
        -13    1    3    3    0    0  0.13338451004E+02  0.26915064353E+02 -0.80552693655E+02  0.85971405615E+02  0.10566000000E+00 0.  1.
         13    1    4    4    0    0 -0.32212852971E+01 -0.63979785791E+01 -0.95983557974E+02  0.96250534410E+02  0.10566000000E+00 0. -1.
        -13    1    4    4    0    0 -0.48769728576E+01 -0.10844652785E+02 -0.14784893074E+03  0.14832635923E+03  0.10566000000E+00 0.  1.
        -14    1    4    4    0    0 -0.52401928497E+01 -0.96724329886E+01 -0.15599159860E+03  0.15637900887E+03  0.00000000000E+00 0.  1.
<mgrwt>
<rscale>  0 0.79601204E+02</rscale>
<asrwt>0</asrwt>
<pdfrwt beam="1">  1        2 0.74407950E-01 0.79601204E+02</pdfrwt>
<pdfrwt beam="2">  1       -1 0.50388709E-03 0.79601204E+02</pdfrwt>
<totfact> 0.30522503E+05</totfact>
</mgrwt>
</event>
<event>
 8    1  0.2676873E-024  0.8924759E+02  0.7818608E-02  0.1304684E+00
          2   -1    0    0  501    0  0.00000000000E+00  0.00000000000E+00  0.53018387975E+02  0.53018388037E+02  0.25500000000E-02 0. -1.
         -1   -1    0    0    0  501 -0.00000000000E+00 -0.00000000000E+00 -0.37558346286E+02  0.37558346624E+02  0.50400000000E-02 0.  1.
         24    2    1    2    0    0 -0.35527136788E-14  0.00000000000E+00  0.15460041689E+02  0.90576734661E+02  0.89247588050E+02 0.  0.
         66    2    3    3    0    0 -0.31062980749E+02 -0.12731451155E+02  0.37535805383E+02  0.50397770908E+02  0.20000012908E+01 0.  0.
        -13    1    3    3    0    0  0.31062980749E+02  0.12731451155E+02 -0.22075763694E+02  0.40178963753E+02  0.10566000000E+00 0.  1.
         13    1    4    4    0    0 -0.20325196250E+02 -0.85449080026E+01  0.25527185162E+02  0.33730956134E+02  0.10566000000E+00 0. -1.
        -13    1    4    4    0    0 -0.13594975126E+01 -0.82914534091E+00  0.16073319221E+01  0.22650376215E+01  0.10566000000E+00 0.  1.
        -14    1    4    4    0    0 -0.93782869861E+01 -0.33573978115E+01  0.10401288299E+02  0.14401777152E+02  0.00000000000E+00 0.  1.
<mgrwt>
<rscale>  0 0.89247588E+02</rscale>
<asrwt>0</asrwt>
<pdfrwt beam="1">  1        2 0.81566751E-02 0.89247588E+02</pdfrwt>
<pdfrwt beam="2">  1       -1 0.57782072E-02 0.89247588E+02</pdfrwt>
<totfact> 0.11198610E+05</totfact>
</mgrwt>
</event>
<event>
 8    1  0.2676873E-024  0.7982130E+02  0.7818608E-02  0.1329559E+00
         -1   -1    0    0    0  501 -0.00000000000E+00  0.00000000000E+00  0.21659254561E+01  0.21659313200E+01  0.50400000000E-02 0.  1.
          2   -1    0    0  501    0  0.00000000000E+00 -0.00000000000E+00 -0.73541672215E+03  0.73541672216E+03  0.25500000000E-02 0. -1.
         24    2    1    2    0    0 -0.11102230246E-15 -0.35527136788E-14 -0.73325079669E+03  0.73758265348E+03  0.79821299501E+02 0.  0.
         66    2    3    3    0    0  0.68424443317E+00  0.27442052504E+02 -0.63424037999E+03  0.63483729730E+03  0.19999983957E+01 0.  0.
        -13    1    3    3    0    0 -0.68424443317E+00 -0.27442052504E+02 -0.99010416702E+02  0.10274535618E+03  0.10566000000E+00 0.  1.
         13    1    4    4    0    0  0.95996319653E+00  0.23930231369E+02 -0.55370847167E+03  0.55422618150E+03  0.10566000000E+00 0. -1.
        -13    1    4    4    0    0  0.78876232897E-01  0.41253799226E+00 -0.12968398483E+02  0.12975628397E+02  0.10566000000E+00 0.  1.
        -14    1    4    4    0    0 -0.35459499626E+00  0.30992831424E+01 -0.67563509840E+02  0.67635487397E+02  0.00000000000E+00 0.  1.
<mgrwt>
<rscale>  0 0.79821300E+02</rscale>
<asrwt>0</asrwt>
<pdfrwt beam="1">  1        2 0.11314084E+00 0.79821300E+02</pdfrwt>
<pdfrwt beam="2">  1       -1 0.33322034E-03 0.79821300E+02</pdfrwt>
<totfact> 0.34012997E+05</totfact>
</mgrwt>
</event>
<event>
 8    1  0.2676873E-024  0.7311154E+02  0.7818608E-02  0.1349821E+00
         -1   -1    0    0    0  501 -0.00000000000E+00  0.00000000000E+00  0.70203547439E+01  0.70203565530E+01  0.50400000000E-02 0.  1.
          2   -1    0    0  501    0  0.00000000000E+00 -0.00000000000E+00 -0.19034992162E+03  0.19034992163E+03  0.25500000000E-02 0. -1.
         24    2    1    2    0    0  0.88817841970E-15  0.00000000000E+00 -0.18332956687E+03  0.19737027819E+03  0.73111535491E+02 0.  0.
         66    2    3    3    0    0 -0.59857979246E+01  0.31465602989E+02 -0.13914175204E+03  0.14279475169E+03  0.20000006299E+01 0.  0.
        -13    1    3    3    0    0  0.59857979246E+01 -0.31465602989E+02 -0.44187814836E+02  0.54575526495E+02  0.10566000000E+00 0.  1.
         13    1    4    4    0    0 -0.15818322685E+01  0.11251324093E+02 -0.46956524521E+02  0.48311705065E+02  0.10566000000E+00 0. -1.
        -13    1    4    4    0    0 -0.30206510150E+01  0.11881052331E+02 -0.53676536868E+02  0.55058746001E+02  0.10566000000E+00 0.  1.
         14    1    4    4    0    0 -0.13833146411E+01  0.83332265647E+01 -0.38508690648E+02  0.39424300626E+02  0.00000000000E+00 0. -1.
<mgrwt>
<rscale>  0 0.73111535E+02</rscale>
<asrwt>0</asrwt>
<pdfrwt beam="1">  1        2 0.29284600E-01 0.73111535E+02</pdfrwt>
<pdfrwt beam="2">  1       -1 0.10800549E-02 0.73111535E+02</pdfrwt>
<totfact> 0.27471675E+05</totfact>
</mgrwt>
</event>
<event>
 8    1  0.2676873E-024  0.7962185E+02  0.7818608E-02  0.1330128E+00
          2   -1    0    0  501    0  0.00000000000E+00  0.00000000000E+00  0.74861640527E+03  0.74861640527E+03  0.25500000000E-02 0. -1.
         -1   -1    0    0    0  501 -0.00000000000E+00 -0.00000000000E+00 -0.21171157795E+01  0.21171217786E+01  0.50400000000E-02 0.  1.
         24    2    1    2    0    0 -0.17763568394E-14  0.00000000000E+00  0.74649928949E+03  0.75073352705E+03  0.79621852725E+02 0.  0.
         66    2    3    3    0    0 -0.15916476025E+02 -0.28536480411E+01  0.71623269082E+03  0.71641799594E+03  0.19999989004E+01 0.  0.
        -13    1    3    3    0    0  0.15916476025E+02  0.28536480411E+01  0.30266598668E+02  0.34315531107E+02  0.10566000000E+00 0.  1.
         13    1    4    4    0    0 -0.38665887993E+01 -0.12897109354E+01  0.17641211285E+03  0.17645922642E+03  0.10566000000E+00 0. -1.
        -13    1    4    4    0    0 -0.97760911852E+01 -0.97002434593E+00  0.41710783194E+03  0.41722352227E+03  0.10566000000E+00 0.  1.
         14    1    4    4    0    0 -0.22737960409E+01 -0.59391275985E+00  0.12271274602E+03  0.12273524725E+03  0.00000000000E+00 0. -1.
<mgrwt>
<rscale>  0 0.79621853E+02</rscale>
<asrwt>0</asrwt>
<pdfrwt beam="1">  1        2 0.11517176E+00 0.79621853E+02</pdfrwt>
<pdfrwt beam="2">  1       -1 0.32571056E-03 0.79621853E+02</pdfrwt>
<totfact> 0.34360464E+05</totfact>
</mgrwt>
</event>
<event>
 8    1  0.2676873E-024  0.7631349E+02  0.7818608E-02  0.1339851E+00
          2   -1    0    0  501    0  0.00000000000E+00  0.00000000000E+00  0.16011524931E+03  0.16011524933E+03  0.25500000000E-02 0. -1.
         -1   -1    0    0    0  501 -0.00000000000E+00 -0.00000000000E+00 -0.90930575407E+01  0.90930589375E+01  0.50400000000E-02 0.  1.
         24    2    1    2    0    0  0.00000000000E+00  0.00000000000E+00  0.15102219177E+03  0.16920830827E+03  0.76313492779E+02 0.  0.
         66    2    3    3    0    0  0.12841593037E+02  0.97406199921E+01  0.15218404265E+03  0.15304825718E+03  0.19999998415E+01 0.  0.
        -13    1    3    3    0    0 -0.12841593037E+02 -0.97406199921E+01 -0.11618508821E+01  0.16160051085E+02  0.10566000000E+00 0.  1.
         13    1    4    4    0    0  0.83085576542E+01  0.63359405684E+01  0.10709268347E+03  0.10760125598E+03  0.10566000000E+00 0. -1.
        -13    1    4    4    0    0  0.18242413887E+01  0.13563184404E+01  0.17408868894E+02  0.17556974015E+02  0.10566000000E+00 0.  1.
         14    1    4    4    0    0  0.27087939944E+01  0.20483609833E+01  0.27682490290E+02  0.27890027183E+02  0.00000000000E+00 0. -1.
<mgrwt>
<rscale>  0 0.76313493E+02</rscale>
<asrwt>0</asrwt>
<pdfrwt beam="1">  1        2 0.24633116E-01 0.76313493E+02</pdfrwt>
<pdfrwt beam="2">  1       -1 0.13989320E-02 0.76313493E+02</pdfrwt>
<totfact> 0.23176962E+05</totfact>
</mgrwt>
</event>
<event>
 8    1  0.2676873E-024  0.7968517E+02  0.7818608E-02  0.1329947E+00
          2   -1    0    0  501    0  0.00000000000E+00  0.00000000000E+00  0.39510269289E+03  0.39510269289E+03  0.25500000000E-02 0. -1.
         -1   -1    0    0    0  501 -0.00000000000E+00 -0.00000000000E+00 -0.40177684495E+01  0.40177716107E+01  0.50400000000E-02 0.  1.
         24    2    1    2    0    0 -0.35527136788E-14 -0.35527136788E-14  0.39108492444E+03  0.39912046451E+03  0.79685174689E+02 0.  0.
         66    2    3    3    0    0  0.28469364637E+02  0.18572099318E+02  0.29952816508E+03  0.30145737555E+03  0.20000006870E+01 0.  0.
        -13    1    3    3    0    0 -0.28469364637E+02 -0.18572099318E+02  0.91556759360E+02  0.97663088956E+02  0.10566000000E+00 0.  1.
         13    1    4    4    0    0  0.81493286284E+01  0.51866662846E+01  0.81798109265E+02  0.82366588539E+02  0.10566000000E+00 0. -1.
        -13    1    4    4    0    0  0.19194096871E+02  0.13011791893E+02  0.20803840717E+03  0.20932680216E+03  0.10566000000E+00 0.  1.
        -14    1    4    4    0    0  0.11259391374E+01  0.37364114069E+00  0.96916486469E+01  0.97639848494E+01  0.00000000000E+00 0.  1.
<mgrwt>
<rscale>  0 0.79685175E+02</rscale>
<asrwt>0</asrwt>
<pdfrwt beam="1">  1        2 0.60784991E-01 0.79685175E+02</pdfrwt>
<pdfrwt beam="2">  1       -1 0.61811886E-03 0.79685175E+02</pdfrwt>
<totfact> 0.28423258E+05</totfact>
</mgrwt>
</event>
<event>
 8    1  0.2676873E-024  0.8786522E+02  0.7818608E-02  0.1308105E+00
          2   -1    0    0  501    0  0.00000000000E+00  0.00000000000E+00  0.91566314852E+03  0.91566314852E+03  0.25500000000E-02 0. -1.
         -1   -1    0    0    0  501 -0.00000000000E+00 -0.00000000000E+00 -0.21078401496E+01  0.21078461751E+01  0.50400000000E-02 0.  1.
         24    2    1    2    0    0 -0.17763568394E-14  0.00000000000E+00  0.91355530837E+03  0.91777099469E+03  0.87865222121E+02 0.  0.
         66    2    3    3    0    0 -0.15899285287E+02  0.31776485664E+02  0.72647929869E+03  0.72735046829E+03  0.19999975888E+01 0.  0.
        -13    1    3    3    0    0  0.15899285287E+02 -0.31776485664E+02  0.18707600968E+03  0.19042052640E+03  0.10566000000E+00 0.  1.
         13    1    4    4    0    0 -0.52538680498E+01  0.98901566993E+01  0.22786645325E+03  0.22814151312E+03  0.10566000000E+00 0. -1.
        -13    1    4    4    0    0 -0.30934015934E+01  0.49450080921E+01  0.11442075680E+03  0.11456938067E+03  0.10566000000E+00 0.  1.
        -14    1    4    4    0    0 -0.75520156442E+01  0.16941320872E+02  0.38419208864E+03  0.38463957450E+03  0.00000000000E+00 0.  1.
<mgrwt>
<rscale>  0 0.87865222E+02</rscale>
<asrwt>0</asrwt>
<pdfrwt beam="1">  1        2 0.14087083E+00 0.87865222E+02</pdfrwt>
<pdfrwt beam="2">  1       -1 0.32428454E-03 0.87865222E+02</pdfrwt>
<totfact> 0.27412092E+05</totfact>
</mgrwt>
</event>
<event>
 8    1  0.2676873E-024  0.7896349E+02  0.7818608E-02  0.1332019E+00
         -1   -1    0    0    0  501 -0.00000000000E+00  0.00000000000E+00  0.81670911266E+02  0.81670911422E+02  0.50400000000E-02 0.  1.
          2   -1    0    0  501    0  0.00000000000E+00 -0.00000000000E+00 -0.19086457381E+02  0.19086457551E+02  0.25500000000E-02 0. -1.
         24    2    1    2    0    0  0.00000000000E+00  0.88817841970E-15  0.62584453885E+02  0.10075736897E+03  0.78963494947E+02 0.  0.
         66    2    3    3    0    0  0.19610524525E+02 -0.41311015125E+01 -0.12056057146E+02  0.23473116225E+02  0.19999998843E+01 0.  0.
        -13    1    3    3    0    0 -0.19610524525E+02  0.41311015125E+01  0.74640511031E+02  0.77284252748E+02  0.10566000000E+00 0.  1.
         13    1    4    4    0    0  0.10179744243E+02 -0.16511497755E+01 -0.60468807181E+01  0.11955309234E+02  0.10566000000E+00 0. -1.
        -13    1    4    4    0    0  0.16919570967E+00  0.79702438635E-01 -0.16989512286E+00  0.27387598520E+00  0.10566000000E+00 0. -1.
        -14    1    4    4    0    0  0.92615845727E+01 -0.25596541757E+01 -0.58392813047E+01  0.11243931005E+02  0.00000000000E+00 0.  1.
<mgrwt>
<rscale>  0 0.78963495E+02</rscale>
<asrwt>0</asrwt>
<pdfrwt beam="1">  1        2 0.29363781E-02 0.78963495E+02</pdfrwt>
<pdfrwt beam="2">  1       -1 0.12564756E-01 0.78963495E+02</pdfrwt>
<totfact> 0.12768622E+05</totfact>
</mgrwt>
</event>
<event>
 8    1  0.2676873E-024  0.7321304E+02  0.7818608E-02  0.1349496E+00
          2   -1    0    0  501    0  0.00000000000E+00  0.00000000000E+00  0.33434578388E+03  0.33434578389E+03  0.25500000000E-02 0. -1.
         -1   -1    0    0    0  501 -0.00000000000E+00 -0.00000000000E+00 -0.40079372357E+01  0.40079404046E+01  0.50400000000E-02 0.  1.
         24    2    1    2    0    0  0.35527136788E-14  0.00000000000E+00  0.33033784665E+03  0.33835372430E+03  0.73213044044E+02 0.  0.
         66    2    3    3    0    0  0.22643250256E+02  0.11910783324E+02  0.28611093075E+03  0.28725954855E+03  0.19999991182E+01 0.  0.
        -13    1    3    3    0    0 -0.22643250256E+02 -0.11910783324E+02  0.44226915897E+02  0.51094175748E+02  0.10566000000E+00 0.  1.
         13    1    4    4    0    0  0.14586358125E+02  0.74861305962E+01  0.18204196123E+03  0.18277880295E+03  0.10566000000E+00 0. -1.
        -13    1    4    4    0    0  0.40840575541E+01  0.24846027261E+01  0.47916398152E+02  0.48154388717E+02  0.10566000000E+00 0.  1.
         14    1    4    4    0    0  0.39728345772E+01  0.19400500013E+01  0.56152571365E+02  0.56326356881E+02  0.00000000000E+00 0. -1.
<mgrwt>
<rscale>  0 0.73213044E+02</rscale>
<asrwt>0</asrwt>
<pdfrwt beam="1">  1        2 0.51437804E-01 0.73213044E+02</pdfrwt>
<pdfrwt beam="2">  1       -1 0.61660608E-03 0.73213044E+02</pdfrwt>
<totfact> 0.33399910E+05</totfact>
</mgrwt>
</event>
<event>
 8    1  0.2676873E-024  0.8247351E+02  0.7818608E-02  0.1322175E+00
          2   -1    0    0  501    0  0.00000000000E+00  0.00000000000E+00  0.32144512555E+02  0.32144512656E+02  0.25500000000E-02 0. -1.
         -1   -1    0    0    0  501 -0.00000000000E+00 -0.00000000000E+00 -0.52900791404E+02  0.52900791644E+02  0.50400000000E-02 0.  1.
         24    2    1    2    0    0  0.00000000000E+00 -0.71054273576E-14 -0.20756278849E+02  0.85045304300E+02  0.82473514972E+02 0.  0.
         66    2    3    3    0    0 -0.71313376549E+01  0.37355925314E+02  0.59899781583E+01  0.38551277148E+02  0.19999996545E+01 0.  0.
        -13    1    3    3    0    0  0.71313376549E+01 -0.37355925314E+02 -0.26746257007E+02  0.46494027151E+02  0.10566000000E+00 0.  1.
         13    1    4    4    0    0 -0.37723566543E+01  0.21870465699E+02  0.39592161242E+01  0.22544056888E+02  0.10566000000E+00 0. -1.
        -13    1    4    4    0    0 -0.28295659282E+01  0.14005848186E+02  0.20507804363E+01  0.14435618836E+02  0.10566000000E+00 0.  1.
        -14    1    4    4    0    0 -0.52941507242E+00  0.14796114291E+01 -0.20018402129E-01  0.15716014242E+01  0.00000000000E+00 0.  1.
<mgrwt>
<rscale>  0 0.82473515E+02</rscale>
<asrwt>0</asrwt>
<pdfrwt beam="1">  1        2 0.49453097E-02 0.82473515E+02</pdfrwt>
<pdfrwt beam="2">  1       -1 0.81385833E-02 0.82473515E+02</pdfrwt>
<totfact> 0.12525511E+05</totfact>
</mgrwt>
</event>
<event>
 8    1  0.2676873E-024  0.8043435E+02  0.7818608E-02  0.1327823E+00
          2   -1    0    0  501    0  0.00000000000E+00  0.00000000000E+00  0.40664966824E+03  0.40664966825E+03  0.25500000000E-02 0. -1.
         -1   -1    0    0    0  501 -0.00000000000E+00 -0.00000000000E+00 -0.39774297527E+01  0.39774329460E+01  0.50400000000E-02 0.  1.
         24    2    1    2    0    0  0.00000000000E+00  0.00000000000E+00  0.40267223849E+03  0.41062710120E+03  0.80434349544E+02 0.  0.
         66    2    3    3    0    0  0.20305605193E+02 -0.11379912199E+02  0.36873351616E+03  0.36947290285E+03  0.19999998057E+01 0.  0.
        -13    1    3    3    0    0 -0.20305605193E+02  0.11379912199E+02  0.33938722334E+02  0.41154198347E+02  0.10566000000E+00 0.  1.
         13    1    4    4    0    0  0.70524492393E+01 -0.39708300881E+01  0.11920383315E+03  0.11947832244E+03  0.10566000000E+00 0.  1.
        -13    1    4    4    0    0  0.40981293677E+01 -0.22232005816E+01  0.86650662462E+02  0.86776066713E+02  0.10566000000E+00 0. -1.
         14    1    4    4    0    0  0.91550265857E+01 -0.51858815297E+01  0.16287902055E+03  0.16321851370E+03  0.00000000000E+00 0. -1.
<mgrwt>
<rscale>  0 0.80434350E+02</rscale>
<asrwt>0</asrwt>
<pdfrwt beam="1">  1        2 0.62561466E-01 0.80434350E+02</pdfrwt>
<pdfrwt beam="2">  1       -1 0.61191273E-03 0.80434350E+02</pdfrwt>
<totfact> 0.28017393E+05</totfact>
</mgrwt>
</event>
<event>
 8    1  0.2676873E-024  0.7795097E+02  0.7818608E-02  0.1334969E+00
          2   -1    0    0  501    0  0.00000000000E+00  0.00000000000E+00  0.25413661508E+03  0.25413661509E+03  0.25500000000E-02 0. -1.
         -1   -1    0    0    0  501 -0.00000000000E+00 -0.00000000000E+00 -0.59774477731E+01  0.59774498979E+01  0.50400000000E-02 0.  1.
         24    2    1    2    0    0  0.00000000000E+00  0.00000000000E+00  0.24815916730E+03  0.26011406499E+03  0.77950974897E+02 0.  0.
         66    2    3    3    0    0 -0.35418559938E+02 -0.10062233191E+02  0.81773198008E+02  0.89702724792E+02  0.19999994291E+01 0.  0.
        -13    1    3    3    0    0  0.35418559938E+02  0.10062233191E+02  0.16638596929E+03  0.17041134019E+03  0.10566000000E+00 0.  1.
         13    1    4    4    0    0 -0.11305040313E+02 -0.27367993317E+01  0.26987941205E+02  0.29387993154E+02  0.10566000000E+00 0. -1.
        -13    1    4    4    0    0 -0.52958679768E+01 -0.13012483330E+01  0.12726545358E+02  0.13846139738E+02  0.10566000000E+00 0. -1.
         14    1    4    4    0    0 -0.18817651648E+02 -0.60241855262E+01  0.42058711445E+02  0.46468591900E+02  0.00000000000E+00 0. -1.
<mgrwt>
<rscale>  0 0.77950975E+02</rscale>
<asrwt>0</asrwt>
<pdfrwt beam="1">  1        2 0.39097947E-01 0.77950975E+02</pdfrwt>
<pdfrwt beam="2">  1       -1 0.91960738E-03 0.77950975E+02</pdfrwt>
<totfact> 0.25701235E+05</totfact>
</mgrwt>
</event>
<event>
 8    1  0.2676873E-024  0.7888413E+02  0.7818608E-02  0.1332248E+00
          2   -1    0    0  501    0  0.00000000000E+00  0.00000000000E+00  0.26803048460E+03  0.26803048461E+03  0.25500000000E-02 0. -1.
         -1   -1    0    0    0  501 -0.00000000000E+00 -0.00000000000E+00 -0.58041011909E+01  0.58041033791E+01  0.50400000000E-02 0.  1.
         24    2    1    2    0    0  0.35527136788E-14  0.00000000000E+00  0.26222638341E+03  0.27383458799E+03  0.78884126569E+02 0.  0.
         66    2    3    3    0    0 -0.25441601502E+02  0.15112258098E+01  0.23557546590E+03  0.23695855975E+03  0.20000041701E+01 0.  0.
        -13    1    3    3    0    0  0.25441601502E+02 -0.15112258098E+01  0.26650917513E+02  0.36876028240E+02  0.10566000000E+00 0.  1.
         13    1    4    4    0    0 -0.12792307215E+02  0.10280873387E+01  0.11412153805E+03  0.11484091910E+03  0.10566000000E+00 0. -1.
        -13    1    4    4    0    0 -0.22724651369E+00  0.74245780140E-01  0.16266218811E+01  0.16474878432E+01  0.10566000000E+00 0. -1.
         14    1    4    4    0    0 -0.12422047773E+02  0.40889269098E+00  0.11982730596E+03  0.12047015281E+03  0.00000000000E+00 0. -1.
<mgrwt>
<rscale>  0 0.78884127E+02</rscale>
<asrwt>0</asrwt>
<pdfrwt beam="1">  1        2 0.41235460E-01 0.78884127E+02</pdfrwt>
<pdfrwt beam="2">  1       -1 0.89293881E-03 0.78884127E+02</pdfrwt>
<totfact> 0.25393922E+05</totfact>
</mgrwt>
</event>
<event>
 8    1  0.2676873E-024  0.8109053E+02  0.7818608E-02  0.1325985E+00
          2   -1    0    0  501    0  0.00000000000E+00  0.00000000000E+00  0.51609190639E+02  0.51609190702E+02  0.25500000000E-02 0. -1.
         -1   -1    0    0    0  501 -0.00000000000E+00 -0.00000000000E+00 -0.31853213527E+02  0.31853213925E+02  0.50400000000E-02 0.  1.
         24    2    1    2    0    0  0.00000000000E+00  0.00000000000E+00  0.19755977112E+02  0.83462404627E+02  0.81090531842E+02 0.  0.
         66    2    3    3    0    0 -0.21862537164E+02 -0.32662101908E+02  0.20027714182E+02  0.44157590197E+02  0.20000010996E+01 0.  0.
        -13    1    3    3    0    0  0.21862537164E+02  0.32662101908E+02 -0.27173706979E+00  0.39304814430E+02  0.10566000000E+00 0.  1.
         13    1    4    4    0    0 -0.78855352893E+01 -0.10724994857E+02  0.67214284092E+01  0.14912945564E+02  0.10566000000E+00 0. -1.
        -13    1    4    4    0    0 -0.37840004008E+01 -0.70099381331E+01  0.40469745146E+01  0.89357181256E+01  0.10566000000E+00 0.  1.
        -14    1    4    4    0    0 -0.10193001474E+02 -0.14927168917E+02  0.92593112581E+01  0.20308926508E+02  0.00000000000E+00 0.  1.
<mgrwt>
<rscale>  0 0.81090532E+02</rscale>
<asrwt>0</asrwt>
<pdfrwt beam="1">  1        2 0.79398754E-02 0.81090532E+02</pdfrwt>
<pdfrwt beam="2">  1       -1 0.49004945E-02 0.81090532E+02</pdfrwt>
<totfact> 0.14499172E+05</totfact>
</mgrwt>
</event>
<event>
 8    1  0.2676873E-024  0.7980230E+02  0.7818608E-02  0.1329613E+00
         -1   -1    0    0    0  501 -0.00000000000E+00  0.00000000000E+00  0.22049332024E+01  0.22049389626E+01  0.50400000000E-02 0.  1.
          2   -1    0    0  501    0  0.00000000000E+00 -0.00000000000E+00 -0.72206263167E+03  0.72206263167E+03  0.25500000000E-02 0. -1.
         24    2    1    2    0    0  0.35527136788E-14  0.00000000000E+00 -0.71985769847E+03  0.72426757063E+03  0.79802304688E+02 0.  0.
         66    2    3    3    0    0 -0.22811804100E+02  0.10154372976E+02 -0.64232286304E+03  0.64281113096E+03  0.19999996431E+01 0.  0.
        -13    1    3    3    0    0  0.22811804100E+02 -0.10154372976E+02 -0.77534835422E+02  0.81456439677E+02  0.10566000000E+00 0.  1.
         13    1    4    4    0    0 -0.21741080738E+02  0.98717870382E+01 -0.60709071076E+03  0.60756009499E+03  0.10566000000E+00 0. -1.
        -13    1    4    4    0    0 -0.36850492660E+00  0.21521223476E+00 -0.15678713883E+02  0.15684876322E+02  0.10566000000E+00 0.  1.
         14    1    4    4    0    0 -0.70221843578E+00  0.67373703573E-01 -0.19553438397E+02  0.19566159641E+02  0.00000000000E+00 0. -1.
<mgrwt>
<rscale>  0 0.79802305E+02</rscale>
<asrwt>0</asrwt>
<pdfrwt beam="1">  1        2 0.11108637E+00 0.79802305E+02</pdfrwt>
<pdfrwt beam="2">  1       -1 0.33922151E-03 0.79802305E+02</pdfrwt>
<totfact> 0.33901241E+05</totfact>
</mgrwt>
</event>
<event>
 8    1  0.2676873E-024  0.7845378E+02  0.7818608E-02  0.1333498E+00
         -1   -1    0    0    0  501 -0.00000000000E+00  0.00000000000E+00  0.92782495598E+01  0.92782509286E+01  0.50400000000E-02 0.  1.
          2   -1    0    0  501    0  0.00000000000E+00 -0.00000000000E+00 -0.16584474785E+03  0.16584474787E+03  0.25500000000E-02 0. -1.
         24    2    1    2    0    0 -0.17763568394E-14  0.71054273576E-14 -0.15656649829E+03  0.17512299880E+03  0.78453784620E+02 0.  0.
         66    2    3    3    0    0  0.15347160328E+02 -0.35640052143E+02 -0.65906630449E+02  0.76507728947E+02  0.20000011408E+01 0.  0.
        -13    1    3    3    0    0 -0.15347160328E+02  0.35640052143E+02 -0.90659867841E+02  0.98615269852E+02  0.10566000000E+00 0.  1.
         13    1    4    4    0    0  0.34693678971E+01 -0.88340917185E+01 -0.15369585100E+02  0.18064135747E+02  0.10566000000E+00 0. -1.
        -13    1    4    4    0    0  0.36825012338E+01 -0.67883866532E+01 -0.13194922292E+02  0.15289216691E+02  0.10566000000E+00 0.  1.
         14    1    4    4    0    0  0.81952911971E+01 -0.20017573771E+02 -0.37342123057E+02  0.43154376509E+02  0.00000000000E+00 0. -1.
<mgrwt>
<rscale>  0 0.78453785E+02</rscale>
<asrwt>0</asrwt>
<pdfrwt beam="1">  1        2 0.25514574E-01 0.78453785E+02</pdfrwt>
<pdfrwt beam="2">  1       -1 0.14274232E-02 0.78453785E+02</pdfrwt>
<totfact> 0.21795050E+05</totfact>
</mgrwt>
</event>
<event>
 8    1  0.2676873E-024  0.8088552E+02  0.7818608E-02  0.1326557E+00
          2   -1    0    0  501    0  0.00000000000E+00  0.00000000000E+00  0.69860502177E+03  0.69860502177E+03  0.25500000000E-02 0. -1.
         -1   -1    0    0    0  501 -0.00000000000E+00 -0.00000000000E+00 -0.23412585851E+01  0.23412640098E+01  0.50400000000E-02 0.  1.
         24    2    1    2    0    0  0.35527136788E-14  0.00000000000E+00  0.69626376318E+03  0.70094628578E+03  0.80885521761E+02 0.  0.
         66    2    3    3    0    0 -0.24821693623E+02 -0.22182118174E+02  0.54698987864E+03  0.54800555671E+03  0.20000002001E+01 0.  0.
        -13    1    3    3    0    0  0.24821693623E+02  0.22182118174E+02  0.14927388454E+03  0.15294072908E+03  0.10566000000E+00 0.  1.
         13    1    4    4    0    0 -0.88453617667E+01 -0.73387858006E+01  0.18960996295E+03  0.18995801487E+03  0.10566000000E+00 0. -1.
        -13    1    4    4    0    0 -0.21962936232E+01 -0.23039574735E+01  0.60165238224E+02  0.60249472863E+02  0.10566000000E+00 0.  1.
        -14    1    4    4    0    0 -0.13780038233E+02 -0.12539374900E+02  0.29721467747E+03  0.29779806897E+03  0.00000000000E+00 0.  1.
<mgrwt>
<rscale>  0 0.80885522E+02</rscale>
<asrwt>0</asrwt>
<pdfrwt beam="1">  1        2 0.10747764E+00 0.80885522E+02</pdfrwt>
<pdfrwt beam="2">  1       -1 0.36019424E-03 0.80885522E+02</pdfrwt>
<totfact> 0.32492634E+05</totfact>
</mgrwt>
</event>
<event>
 8    1  0.2676873E-024  0.7860222E+02  0.7818608E-02  0.1333066E+00
         -1   -1    0    0    0  501 -0.00000000000E+00  0.00000000000E+00  0.14512156618E+01  0.14512244136E+01  0.50400000000E-02 0.  1.
          2   -1    0    0  501    0  0.00000000000E+00 -0.00000000000E+00 -0.10643300769E+04  0.10643300769E+04  0.25500000000E-02 0. -1.
         24    2    1    2    0    0  0.00000000000E+00  0.22204460493E-15 -0.10628788612E+04  0.10657813013E+04  0.78602217331E+02 0.  0.
         66    2    3    3    0    0 -0.27690207487E+02  0.13799515639E+01 -0.90899100421E+03  0.90941591012E+03  0.20000003836E+01 0.  0.
        -13    1    3    3    0    0  0.27690207487E+02 -0.13799515639E+01 -0.15388785704E+03  0.15636539120E+03  0.10566000000E+00 0.  1.
         13    1    4    4    0    0 -0.12635810207E+02  0.14186014479E+00 -0.41556373391E+03  0.41575583210E+03  0.10566000000E+00 0. -1.
        -13    1    4    4    0    0 -0.73096376712E+00  0.19946379905E+00 -0.33139346302E+02  0.33148175383E+02  0.10566000000E+00 0.  1.
         14    1    4    4    0    0 -0.14323433513E+02  0.10386276200E+01 -0.46028792399E+03  0.46051190264E+03  0.00000000000E+00 0. -1.
<mgrwt>
<rscale>  0 0.78602217E+02</rscale>
<asrwt>0</asrwt>
<pdfrwt beam="1">  1        2 0.16374246E+00 0.78602217E+02</pdfrwt>
<pdfrwt beam="2">  1       -1 0.22326547E-03 0.78602217E+02</pdfrwt>
<totfact> 0.36923001E+05</totfact>
</mgrwt>
</event>
<event>
 8    1  0.2676873E-024  0.7986180E+02  0.7818608E-02  0.1329444E+00
          2   -1    0    0  501    0  0.00000000000E+00  0.00000000000E+00  0.17928718054E+03  0.17928718056E+03  0.25500000000E-02 0. -1.
         -1   -1    0    0    0  501 -0.00000000000E+00 -0.00000000000E+00 -0.88934223941E+01  0.88934238222E+01  0.50400000000E-02 0.  1.
         24    2    1    2    0    0  0.00000000000E+00  0.00000000000E+00  0.17039375815E+03  0.18818060438E+03  0.79861799691E+02 0.  0.
         66    2    3    3    0    0  0.13732569917E+01 -0.37553306945E+02  0.11689303536E+03  0.12280113360E+03  0.19999999818E+01 0.  0.
        -13    1    3    3    0    0 -0.13732569917E+01  0.37553306945E+02  0.53500722790E+02  0.65379470786E+02  0.10566000000E+00 0.  1.
         13    1    4    4    0    0  0.17046941634E+01 -0.24991211941E+02  0.78934162352E+02  0.82813524298E+02  0.10566000000E+00 0.  1.
        -13    1    4    4    0    0 -0.15838539366E-02 -0.71016542992E+01  0.21066898921E+02  0.22231934025E+02  0.10566000000E+00 0. -1.
        -14    1    4    4    0    0 -0.32985331776E+00 -0.54604407046E+01  0.16891974085E+02  0.17755675273E+02  0.00000000000E+00 0.  1.
<mgrwt>
<rscale>  0 0.79861800E+02</rscale>
<asrwt>0</asrwt>
<pdfrwt beam="1">  1        2 0.27582640E-01 0.79861800E+02</pdfrwt>
<pdfrwt beam="2">  1       -1 0.13682191E-02 0.79861800E+02</pdfrwt>
<totfact> 0.21343137E+05</totfact>
</mgrwt>
</event>
<event>
 8    1  0.2676873E-024  0.8060450E+02  0.7818608E-02  0.1327345E+00
          2   -1    0    0  501    0  0.00000000000E+00  0.00000000000E+00  0.47242251180E+03  0.47242251181E+03  0.25500000000E-02 0. -1.
         -1   -1    0    0    0  501 -0.00000000000E+00 -0.00000000000E+00 -0.34381735334E+01  0.34381772274E+01  0.50400000000E-02 0.  1.
         24    2    1    2    0    0  0.00000000000E+00  0.00000000000E+00  0.46898433827E+03  0.47586068903E+03  0.80604502534E+02 0.  0.
         66    2    3    3    0    0  0.37133034094E+01  0.25094299788E+02  0.41933205253E+03  0.42010341914E+03  0.19999956595E+01 0.  0.
        -13    1    3    3    0    0 -0.37133034094E+01 -0.25094299788E+02  0.49652285732E+02  0.55757269899E+02  0.10566000000E+00 0.  1.
         13    1    4    4    0    0  0.10568684280E+01  0.10220290312E+02  0.15630946214E+03  0.15664683343E+03  0.10566000000E+00 0. -1.
        -13    1    4    4    0    0  0.40203588616E+00  0.24900909130E+01  0.41758749880E+02  0.41834991827E+02  0.10566000000E+00 0. -1.
         14    1    4    4    0    0  0.22543990953E+01  0.12383918564E+02  0.22126384051E+03  0.22162159388E+03  0.00000000000E+00 0. -1.
<mgrwt>
<rscale>  0 0.80604503E+02</rscale>
<asrwt>0</asrwt>
<pdfrwt beam="1">  1        2 0.72680399E-01 0.80604503E+02</pdfrwt>
<pdfrwt beam="2">  1       -1 0.52894997E-03 0.80604503E+02</pdfrwt>
<totfact> 0.29316003E+05</totfact>
</mgrwt>
</event>
<event>
 8    1  0.2676873E-024  0.8384101E+02  0.7818608E-02  0.1318492E+00
          2   -1    0    0  501    0  0.00000000000E+00  0.00000000000E+00  0.18603946712E+03  0.18603946714E+03  0.25500000000E-02 0. -1.
         -1   -1    0    0    0  501 -0.00000000000E+00 -0.00000000000E+00 -0.94459994622E+01  0.94460008068E+01  0.50400000000E-02 0.  1.
         24    2    1    2    0    0  0.00000000000E+00  0.71054273576E-14  0.17659346766E+03  0.19548546795E+03  0.83841012387E+02 0.  0.
         66    2    3    3    0    0 -0.15620800180E+02 -0.33166186418E+02  0.13563441833E+03  0.14051583809E+03  0.20000002452E+01 0.  0.
        -13    1    3    3    0    0  0.15620800180E+02  0.33166186418E+02  0.40959049337E+02  0.54969629855E+02  0.10566000000E+00 0.  1.
         13    1    4    4    0    0 -0.32137294422E+01 -0.57897380537E+01  0.26519846613E+02  0.27334274310E+02  0.10566000000E+00 0.  1.
        -13    1    4    4    0    0 -0.62136502028E+01 -0.13254297327E+02  0.54478239165E+02  0.56410775150E+02  0.10566000000E+00 0. -1.
        -14    1    4    4    0    0 -0.61934205345E+01 -0.14122151037E+02  0.54636332548E+02  0.56770788634E+02  0.00000000000E+00 0.  1.
<mgrwt>
<rscale>  0 0.83841012E+02</rscale>
<asrwt>0</asrwt>
<pdfrwt beam="1">  1        2 0.28621455E-01 0.83841012E+02</pdfrwt>
<pdfrwt beam="2">  1       -1 0.14532309E-02 0.83841012E+02</pdfrwt>
<totfact> 0.19001918E+05</totfact>
</mgrwt>
</event>
<event>
 8    1  0.2676873E-024  0.7875154E+02  0.7818608E-02  0.1332632E+00
          2   -1    0    0  501    0  0.00000000000E+00  0.00000000000E+00  0.45324277699E+03  0.45324277700E+03  0.25500000000E-02 0. -1.
         -1   -1    0    0    0  501 -0.00000000000E+00 -0.00000000000E+00 -0.34207948204E+01  0.34207985332E+01  0.50400000000E-02 0.  1.
         24    2    1    2    0    0  0.35527136788E-14  0.17763568394E-14  0.44982198217E+03  0.45666357553E+03  0.78751543307E+02 0.  0.
         66    2    3    3    0    0  0.31526506762E+02  0.12901680896E+02  0.33928920672E+03  0.34100079150E+03  0.20000009839E+01 0.  0.
        -13    1    3    3    0    0 -0.31526506762E+02 -0.12901680896E+02  0.11053277545E+03  0.11566278404E+03  0.10566000000E+00 0.  1.
         13    1    4    4    0    0  0.46279978056E+01  0.24477589772E+01  0.51249414206E+02  0.51516245091E+02  0.10566000000E+00 0. -1.
        -13    1    4    4    0    0  0.11715912840E+02  0.41174133729E+01  0.12854199729E+03  0.12914051238E+03  0.10566000000E+00 0.  1.
         14    1    4    4    0    0  0.15182596116E+02  0.63365085460E+01  0.15949779522E+03  0.16034403402E+03  0.00000000000E+00 0. -1.
<mgrwt>
<rscale>  0 0.78751543E+02</rscale>
<asrwt>0</asrwt>
<pdfrwt beam="1">  1        2 0.69729672E-01 0.78751543E+02</pdfrwt>
<pdfrwt beam="2">  1       -1 0.52627631E-03 0.78751543E+02</pdfrwt>
<totfact> 0.30723572E+05</totfact>
</mgrwt>
</event>
<event>
 8    1  0.2676873E-024  0.7873277E+02  0.7818608E-02  0.1332687E+00
          2   -1    0    0  501    0  0.00000000000E+00  0.00000000000E+00  0.30241269863E+02  0.30241269970E+02  0.25500000000E-02 0. -1.
         -1   -1    0    0    0  501 -0.00000000000E+00 -0.00000000000E+00 -0.51244945263E+02  0.51244945511E+02  0.50400000000E-02 0.  1.
         24    2    1    2    0    0  0.00000000000E+00  0.00000000000E+00 -0.21003675400E+02  0.81486215481E+02  0.78732769119E+02 0.  0.
         66    2    3    3    0    0 -0.69590615598E+01  0.13765669018E+02  0.26948029881E+02  0.31114602596E+02  0.19999997392E+01 0.  0.
        -13    1    3    3    0    0  0.69590615598E+01 -0.13765669018E+02 -0.47951705281E+02  0.50371612885E+02  0.10566000000E+00 0.  1.
         13    1    4    4    0    0 -0.39674700790E+01  0.72742797619E+01  0.13079303348E+02  0.15483388033E+02  0.10566000000E+00 0. -1.
        -13    1    4    4    0    0 -0.29312027693E+01  0.65080330542E+01  0.13807417132E+02  0.15543563806E+02  0.10566000000E+00 0.  1.
        -14    1    4    4    0    0 -0.60388711426E-01 -0.16643798530E-01  0.61309401387E-01  0.87650756960E-01  0.00000000000E+00 0.  1.
<mgrwt>
<rscale>  0 0.78732769E+02</rscale>
<asrwt>0</asrwt>
<pdfrwt beam="1">  1        2 0.46525031E-02 0.78732769E+02</pdfrwt>
<pdfrwt beam="2">  1       -1 0.78838378E-02 0.78732769E+02</pdfrwt>
<totfact> 0.14092227E+05</totfact>
</mgrwt>
</event>
<event>
 8    1  0.2676873E-024  0.7973059E+02  0.7818608E-02  0.1329818E+00
         -1   -1    0    0    0  501 -0.00000000000E+00  0.00000000000E+00  0.28082085800E+01  0.28082131027E+01  0.50400000000E-02 0.  1.
          2   -1    0    0  501    0  0.00000000000E+00 -0.00000000000E+00 -0.56592679824E+03  0.56592679825E+03  0.25500000000E-02 0. -1.
         24    2    1    2    0    0 -0.35527136788E-14  0.00000000000E+00 -0.56311858966E+03  0.56873501135E+03  0.79730590822E+02 0.  0.
         66    2    3    3    0    0  0.31333492109E+02 -0.22443542516E+02 -0.35368473243E+03  0.35578419063E+03  0.20000040923E+01 0.  0.
        -13    1    3    3    0    0 -0.31333492109E+02  0.22443542516E+02 -0.20943385723E+03  0.21295082072E+03  0.10566000000E+00 0.  1.
         13    1    4    4    0    0  0.22030450779E+02 -0.16593267555E+02 -0.25527298843E+03  0.25675861636E+03  0.10566000000E+00 0. -1.
        -13    1    4    4    0    0  0.25008210864E+01 -0.12647212643E+01 -0.25608624327E+02  0.25761724125E+02  0.10566000000E+00 0.  1.
         14    1    4    4    0    0  0.68022202442E+01 -0.45855536968E+01 -0.72803119674E+02  0.73263850139E+02  0.00000000000E+00 0. -1.
<mgrwt>
<rscale>  0 0.79730591E+02</rscale>
<asrwt>0</asrwt>
<pdfrwt beam="1">  1        2 0.87065570E-01 0.79730591E+02</pdfrwt>
<pdfrwt beam="2">  1       -1 0.43203289E-03 0.79730591E+02</pdfrwt>
<totfact> 0.31909000E+05</totfact>
</mgrwt>
</event>
<event>
 8    1  0.2676873E-024  0.7882181E+02  0.7818608E-02  0.1332429E+00
         -1   -1    0    0    0  501 -0.00000000000E+00  0.00000000000E+00  0.13614574997E+03  0.13614575006E+03  0.50400000000E-02 0.  1.
          2   -1    0    0  501    0  0.00000000000E+00 -0.00000000000E+00 -0.11408505493E+02  0.11408505778E+02  0.25500000000E-02 0. -1.
         24    2    1    2    0    0  0.00000000000E+00  0.35527136788E-14  0.12473724448E+03  0.14755425584E+03  0.78821813334E+02 0.  0.
         66    2    3    3    0    0 -0.30480009672E+02 -0.19805296392E+02  0.34022491724E+02  0.49827809647E+02  0.19999790891E+01 0.  0.
        -13    1    3    3    0    0  0.30480009672E+02  0.19805296392E+02  0.90714752752E+02  0.97726446193E+02  0.10566000000E+00 0.  1.
         13    1    4    4    0    0 -0.10577967812E+02 -0.76544664915E+01  0.12651229148E+02  0.18181007213E+02  0.10566000000E+00 0. -1.
        -13    1    4    4    0    0 -0.15706415793E+02 -0.97613603449E+01  0.17460417541E+02  0.25433304889E+02  0.10566000000E+00 0.  1.
        -14    1    4    4    0    0 -0.41956260667E+01 -0.23894695554E+01  0.39108450352E+01  0.62134975446E+01  0.00000000000E+00 0.  1.
<mgrwt>
<rscale>  0 0.78821813E+02</rscale>
<asrwt>0</asrwt>
<pdfrwt beam="1">  1        2 0.17551547E-02 0.78821813E+02</pdfrwt>
<pdfrwt beam="2">  1       -1 0.20945501E-01 0.78821813E+02</pdfrwt>
<totfact> 0.11471408E+05</totfact>
</mgrwt>
</event>
<event>
 8    1  0.2676873E-024  0.8025770E+02  0.7818608E-02  0.1328322E+00
          2   -1    0    0  501    0  0.00000000000E+00  0.00000000000E+00  0.60725863923E+03  0.60725863924E+03  0.25500000000E-02 0. -1.
         -1   -1    0    0    0  501 -0.00000000000E+00 -0.00000000000E+00 -0.26517913234E+01  0.26517961129E+01  0.50400000000E-02 0.  1.
         24    2    1    2    0    0 -0.17763568394E-14  0.00000000000E+00  0.60460684791E+03  0.60991043535E+03  0.80257701258E+02 0.  0.
         66    2    3    3    0    0  0.11614080193E+02  0.28633563374E+02  0.49676673009E+03  0.49773080269E+03  0.20000012139E+01 0.  0.
        -13    1    3    3    0    0 -0.11614080193E+02 -0.28633563374E+02  0.10784011782E+03  0.11217963267E+03  0.10566000000E+00 0.  1.
         13    1    4    4    0    0  0.19731039888E+01  0.62421757443E+01  0.10369857222E+03  0.10390506697E+03  0.10566000000E+00 0. -1.
        -13    1    4    4    0    0  0.14826819378E+01  0.24526972835E+01  0.48722046914E+02  0.48806383694E+02  0.10566000000E+00 0.  1.
        -14    1    4    4    0    0  0.81582942660E+01  0.19938690346E+02  0.34434611096E+03  0.34501935202E+03  0.00000000000E+00 0.  1.
<mgrwt>
<rscale>  0 0.80257701E+02</rscale>
<asrwt>0</asrwt>
<pdfrwt beam="1">  1        2 0.93424402E-01 0.80257701E+02</pdfrwt>
<pdfrwt beam="2">  1       -1 0.40796828E-03 0.80257701E+02</pdfrwt>
<totfact> 0.32001737E+05</totfact>
</mgrwt>
</event>
<event>
 8    1  0.2676873E-024  0.8061011E+02  0.7818608E-02  0.1327329E+00
          2   -1    0    0  501    0  0.00000000000E+00  0.00000000000E+00  0.18941125858E+02  0.18941126030E+02  0.25500000000E-02 0. -1.
         -1   -1    0    0    0  501 -0.00000000000E+00 -0.00000000000E+00 -0.85765624589E+02  0.85765624737E+02  0.50400000000E-02 0.  1.
         24    2    1    2    0    0  0.35527136788E-14  0.00000000000E+00 -0.66824498730E+02  0.10470675077E+03  0.80610111187E+02 0.  0.
         66    2    3    3    0    0  0.18411012643E+02 -0.12300466536E+02  0.10274307028E+02  0.24491391409E+02  0.20000011705E+01 0.  0.
        -13    1    3    3    0    0 -0.18411012643E+02  0.12300466536E+02 -0.77098805759E+02  0.80215359358E+02  0.10566000000E+00 0.  1.
         13    1    4    4    0    0  0.42132130157E+01 -0.25802209952E+01  0.18732855834E+01  0.52847958534E+01  0.10566000000E+00 0.  1.
        -13    1    4    4    0    0  0.11370504546E+01 -0.12207914371E+01  0.10760263393E+01  0.19880171497E+01  0.10566000000E+00 0. -1.
         14    1    4    4    0    0  0.13060749173E+02 -0.84994541037E+01  0.73249951055E+01  0.17218578405E+02  0.00000000000E+00 0. -1.
<mgrwt>
<rscale>  0 0.80610111E+02</rscale>
<asrwt>0</asrwt>
<pdfrwt beam="1">  1        2 0.29140194E-02 0.80610111E+02</pdfrwt>
<pdfrwt beam="2">  1       -1 0.13194711E-01 0.80610111E+02</pdfrwt>
<totfact> 0.12012798E+05</totfact>
</mgrwt>
</event>
<event>
 8    1  0.2676873E-024  0.8025703E+02  0.7818608E-02  0.1328324E+00
          2   -1    0    0  501    0  0.00000000000E+00  0.00000000000E+00  0.72296775841E+03  0.72296775841E+03  0.25500000000E-02 0. -1.
         -1   -1    0    0    0  501 -0.00000000000E+00 -0.00000000000E+00 -0.22273406287E+01  0.22273463309E+01  0.50400000000E-02 0.  1.
         24    2    1    2    0    0 -0.35527136788E-14  0.00000000000E+00  0.72074041778E+03  0.72519510475E+03  0.80257025381E+02 0.  0.
         66    2    3    3    0    0 -0.21432244431E+02 -0.28586571042E+02  0.52517579270E+03  0.52639352806E+03  0.20000000401E+01 0.  0.
        -13    1    3    3    0    0  0.21432244431E+02  0.28586571042E+02  0.19556462508E+03  0.19880157669E+03  0.10566000000E+00 0.  1.
         13    1    4    4    0    0 -0.40007126107E+01 -0.46613011360E+01  0.88626345548E+02  0.88839032632E+02  0.10566000000E+00 0. -1.
        -13    1    4    4    0    0 -0.39489857353E+01 -0.45708960457E+01  0.93878357806E+02  0.94072550765E+02  0.10566000000E+00 0.  1.
         14    1    4    4    0    0 -0.13482546085E+02 -0.19354373861E+02  0.34267108934E+03  0.34348194466E+03  0.00000000000E+00 0. -1.
<mgrwt>
<rscale>  0 0.80257025E+02</rscale>
<asrwt>0</asrwt>
<pdfrwt beam="1">  1        2 0.11122586E+00 0.80257025E+02</pdfrwt>
<pdfrwt beam="2">  1       -1 0.34266807E-03 0.80257025E+02</pdfrwt>
<totfact> 0.33413350E+05</totfact>
</mgrwt>
</event>
<event>
 8    1  0.2676873E-024  0.8061431E+02  0.7818608E-02  0.1327317E+00
         -1   -1    0    0    0  501 -0.00000000000E+00  0.00000000000E+00  0.58680781936E+02  0.58680782153E+02  0.50400000000E-02 0.  1.
          2   -1    0    0  501    0  0.00000000000E+00 -0.00000000000E+00 -0.27686520714E+02  0.27686520831E+02  0.25500000000E-02 0. -1.
         24    2    1    2    0    0  0.00000000000E+00 -0.35527136788E-14  0.30994261223E+02  0.86367302984E+02  0.80614308878E+02 0.  0.
         66    2    3    3    0    0  0.20325314873E+02 -0.23302122538E+02 -0.12153538467E+02  0.33283867511E+02  0.19999999426E+01 0.  0.
        -13    1    3    3    0    0 -0.20325314873E+02  0.23302122538E+02  0.43147799690E+02  0.53083435473E+02  0.10566000000E+00 0.  1.
         13    1    4    4    0    0  0.56055050424E+01 -0.61598920840E+01 -0.34462278637E+01  0.90140783107E+01  0.10566000000E+00 0. -1.
        -13    1    4    4    0    0  0.43628305514E+01 -0.44614580045E+01 -0.30564905186E+01  0.69492586851E+01  0.10566000000E+00 0. -1.
        -14    1    4    4    0    0  0.10356979280E+02 -0.12680772449E+02 -0.56508200843E+01  0.17320530516E+02  0.00000000000E+00 0.  1.
<mgrwt>
<rscale>  0 0.80614309E+02</rscale>
<asrwt>0</asrwt>
<pdfrwt beam="1">  1        2 0.42594648E-02 0.80614309E+02</pdfrwt>
<pdfrwt beam="2">  1       -1 0.90278126E-02 0.80614309E+02</pdfrwt>
<totfact> 0.12961806E+05</totfact>
</mgrwt>
</event>
<event>
 8    1  0.2676873E-024  0.7778747E+02  0.7818608E-02  0.1335450E+00
          2   -1    0    0  501    0  0.00000000000E+00  0.00000000000E+00  0.19142664748E+03  0.19142664750E+03  0.25500000000E-02 0. -1.
         -1   -1    0    0    0  501 -0.00000000000E+00 -0.00000000000E+00 -0.79023616997E+01  0.79023633069E+01  0.50400000000E-02 0.  1.
         24    2    1    2    0    0  0.17763568394E-14 -0.35527136788E-14  0.18352428578E+03  0.19932901081E+03  0.77787473779E+02 0.  0.
         66    2    3    3    0    0  0.11804663942E+02 -0.29308267205E+02  0.14982724668E+03  0.15313565386E+03  0.20000048395E+01 0.  0.
        -13    1    3    3    0    0 -0.11804663942E+02  0.29308267205E+02  0.33697039106E+02  0.46193356945E+02  0.10566000000E+00 0.  1.
         13    1    4    4    0    0  0.45649273013E+01 -0.13092934136E+02  0.62297878147E+02  0.63822411982E+02  0.10566000000E+00 0. -1.
        -13    1    4    4    0    0  0.19092408474E+01 -0.45740496154E+01  0.24493311548E+02  0.24990010107E+02  0.10566000000E+00 0.  1.
         14    1    4    4    0    0  0.53304957937E+01 -0.11641283454E+02  0.63036056980E+02  0.64323231771E+02  0.00000000000E+00 0. -1.
<mgrwt>
<rscale>  0 0.77787474E+02</rscale>
<asrwt>0</asrwt>
<pdfrwt beam="1">  1        2 0.29450251E-01 0.77787474E+02</pdfrwt>
<pdfrwt beam="2">  1       -1 0.12157482E-02 0.77787474E+02</pdfrwt>
<totfact> 0.23394601E+05</totfact>
</mgrwt>
</event>
<event>
 8    1  0.2676873E-024  0.8027081E+02  0.7818608E-02  0.1328285E+00
         -1   -1    0    0    0  501 -0.00000000000E+00  0.00000000000E+00  0.71911755013E+02  0.71911755190E+02  0.50400000000E-02 0.  1.
          2   -1    0    0  501    0  0.00000000000E+00 -0.00000000000E+00 -0.22400382227E+02  0.22400382372E+02  0.25500000000E-02 0. -1.
         24    2    1    2    0    0  0.00000000000E+00  0.00000000000E+00  0.49511372786E+02  0.94312137562E+02  0.80270811982E+02 0.  0.
         66    2    3    3    0    0  0.11473050330E+02  0.34189102137E+02  0.41404539604E+01  0.36354765055E+02  0.19999985979E+01 0.  0.
        -13    1    3    3    0    0 -0.11473050330E+02 -0.34189102137E+02  0.45370918826E+02  0.57957372507E+02  0.10566000000E+00 0.  1.
         13    1    4    4    0    0  0.30595270663E+01  0.80553793541E+01  0.91818975242E+00  0.86662609506E+01  0.10566000000E+00 0. -1.
        -13    1    4    4    0    0  0.54622500585E+01  0.16848374096E+02  0.13171733266E+01  0.17760911998E+02  0.10566000000E+00 0.  1.
         14    1    4    4    0    0  0.29512732056E+01  0.92853486861E+01  0.19050908814E+01  0.99275921060E+01  0.00000000000E+00 0. -1.
<mgrwt>
<rscale>  0 0.80270812E+02</rscale>
<asrwt>0</asrwt>
<pdfrwt beam="1">  1        2 0.34462127E-02 0.80270812E+02</pdfrwt>
<pdfrwt beam="2">  1       -1 0.11063347E-01 0.80270812E+02</pdfrwt>
<totfact> 0.12579339E+05</totfact>
</mgrwt>
</event>
<event>
 8    1  0.2676873E-024  0.7707999E+02  0.7818608E-02  0.1337548E+00
          2   -1    0    0  501    0  0.00000000000E+00  0.00000000000E+00  0.10539485508E+02  0.10539485816E+02  0.25500000000E-02 0. -1.
         -1   -1    0    0    0  501 -0.00000000000E+00 -0.00000000000E+00 -0.14093015407E+03  0.14093015416E+03  0.50400000000E-02 0.  1.
         24    2    1    2    0    0  0.00000000000E+00  0.00000000000E+00 -0.13039066856E+03  0.15146963998E+03  0.77079993426E+02 0.  0.
         66    2    3    3    0    0  0.20984087056E+02 -0.32240387561E+02 -0.68942640152E+02  0.78973806584E+02  0.19999988994E+01 0.  0.
        -13    1    3    3    0    0 -0.20984087056E+02  0.32240387561E+02 -0.61448028409E+02  0.72495833391E+02  0.10566000000E+00 0.  1.
         13    1    4    4    0    0  0.72058072406E+01 -0.11875590654E+02 -0.25641970801E+02  0.29162906953E+02  0.10566000000E+00 0. -1.
        -13    1    4    4    0    0  0.40447315896E+01 -0.50350458387E+01 -0.11677659970E+02  0.13345053265E+02  0.10566000000E+00 0.  1.
        -14    1    4    4    0    0  0.97335482258E+01 -0.15329751069E+02 -0.31623009381E+02  0.36465846366E+02  0.00000000000E+00 0.  1.
<mgrwt>
<rscale>  0 0.77079993E+02</rscale>
<asrwt>0</asrwt>
<pdfrwt beam="1">  1        2 0.16214594E-02 0.77079993E+02</pdfrwt>
<pdfrwt beam="2">  1       -1 0.21681561E-01 0.77079993E+02</pdfrwt>
<totfact> 0.12034587E+05</totfact>
</mgrwt>
</event>
<event>
 8    1  0.2676873E-024  0.7882151E+02  0.7818608E-02  0.1332429E+00
          2   -1    0    0  501    0  0.00000000000E+00  0.00000000000E+00  0.27129610251E+02  0.27129610371E+02  0.25500000000E-02 0. -1.
         -1   -1    0    0    0  501 -0.00000000000E+00 -0.00000000000E+00 -0.57251374483E+02  0.57251374705E+02  0.50400000000E-02 0.  1.
         24    2    1    2    0    0  0.35527136788E-14 -0.35527136788E-14 -0.30121764232E+02  0.84380985076E+02  0.78821506976E+02 0.  0.
         66    2    3    3    0    0  0.99960230812E+01 -0.26604322626E+02  0.14119712922E+02  0.31797433231E+02  0.20000018114E+01 0.  0.
        -13    1    3    3    0    0 -0.99960230812E+01  0.26604322626E+02 -0.44241477155E+02  0.52583551845E+02  0.10566000000E+00 0.  1.
         13    1    4    4    0    0  0.50633851219E+01 -0.11974330137E+02  0.65198803319E+01  0.14544499122E+02  0.10566000000E+00 0. -1.
        -13    1    4    4    0    0  0.82902646844E+00 -0.13397780957E+01  0.73256522330E+00  0.17407199870E+01  0.10566000000E+00 0. -1.
        -14    1    4    4    0    0  0.41036114909E+01 -0.13290214393E+02  0.68672673672E+01  0.15512214122E+02  0.00000000000E+00 0.  1.
<mgrwt>
<rscale>  0 0.78821507E+02</rscale>
<asrwt>0</asrwt>
<pdfrwt beam="1">  1        2 0.41737862E-02 0.78821507E+02</pdfrwt>
<pdfrwt beam="2">  1       -1 0.88079038E-02 0.78821507E+02</pdfrwt>
<totfact> 0.13753934E+05</totfact>
</mgrwt>
</event>
<event>
 8    1  0.2676873E-024  0.8013501E+02  0.7818608E-02  0.1328669E+00
         -1   -1    0    0    0  501 -0.00000000000E+00  0.00000000000E+00  0.62115374430E+02  0.62115374634E+02  0.50400000000E-02 0.  1.
          2   -1    0    0  501    0  0.00000000000E+00 -0.00000000000E+00 -0.25845534209E+02  0.25845534334E+02  0.25500000000E-02 0. -1.
         24    2    1    2    0    0  0.00000000000E+00  0.71054273576E-14  0.36269840221E+02  0.87960908969E+02  0.80135012304E+02 0.  0.
         66    2    3    3    0    0  0.80574148887E+01  0.32068954011E+02 -0.66439094959E+01  0.33785814831E+02  0.20000010869E+01 0.  0.
        -13    1    3    3    0    0 -0.80574148887E+01 -0.32068954011E+02  0.42913749717E+02  0.54175094138E+02  0.10566000000E+00 0.  1.
         13    1    4    4    0    0  0.23349299265E+01  0.10818581924E+02 -0.29705969147E+01  0.11459896276E+02  0.10566000000E+00 0. -1.
        -13    1    4    4    0    0  0.71983317656E+00  0.19271419965E+01 -0.41845058930E+00  0.21019755013E+01  0.10566000000E+00 0.  1.
         14    1    4    4    0    0  0.50026517856E+01  0.19323230091E+02 -0.32548619919E+01  0.20223943053E+02  0.00000000000E+00 0. -1.
<mgrwt>
<rscale>  0 0.80135012E+02</rscale>
<asrwt>0</asrwt>
<pdfrwt beam="1">  1        2 0.39762361E-02 0.80135012E+02</pdfrwt>
<pdfrwt beam="2">  1       -1 0.95562114E-02 0.80135012E+02</pdfrwt>
<totfact> 0.13003686E+05</totfact>
</mgrwt>
</event>
<event>
 8    1  0.2676873E-024  0.8261333E+02  0.7818608E-02  0.1321795E+00
          2   -1    0    0  501    0  0.00000000000E+00  0.00000000000E+00  0.29732420100E+03  0.29732420101E+03  0.25500000000E-02 0. -1.
         -1   -1    0    0    0  501 -0.00000000000E+00 -0.00000000000E+00 -0.57386529242E+01  0.57386551374E+01  0.50400000000E-02 0.  1.
         24    2    1    2    0    0  0.00000000000E+00  0.35527136788E-14  0.29158554807E+03  0.30306285615E+03  0.82613333851E+02 0.  0.
         66    2    3    3    0    0 -0.42054663446E+01  0.31873043059E+02  0.24088012769E+03  0.24302430485E+03  0.20000031285E+01 0.  0.
        -13    1    3    3    0    0  0.42054663446E+01 -0.31873043059E+02  0.50705420384E+02  0.60038551293E+02  0.10566000000E+00 0.  1.
         13    1    4    4    0    0 -0.14869590314E+01  0.89913092266E+01  0.69786694748E+02  0.70379319524E+02  0.10566000000E+00 0. -1.
        -13    1    4    4    0    0  0.10364450101E+00  0.11058449519E+01  0.99623867213E+01  0.10024667000E+02  0.10566000000E+00 0.  1.
         14    1    4    4    0    0 -0.28221518142E+01  0.21775888881E+02  0.16113104622E+03  0.16262031833E+03  0.00000000000E+00 0. -1.
<mgrwt>
<rscale>  0 0.82613334E+02</rscale>
<asrwt>0</asrwt>
<pdfrwt beam="1">  1        2 0.45742208E-01 0.82613334E+02</pdfrwt>
<pdfrwt beam="2">  1       -1 0.88286941E-03 0.82613334E+02</pdfrwt>
<totfact> 0.23354674E+05</totfact>
</mgrwt>
</event>
<event>
 8    1  0.2676873E-024  0.7929816E+02  0.7818608E-02  0.1331055E+00
          2   -1    0    0  501    0  0.00000000000E+00  0.00000000000E+00  0.14090224428E+02  0.14090224658E+02  0.25500000000E-02 0. -1.
         -1   -1    0    0    0  501 -0.00000000000E+00 -0.00000000000E+00 -0.11157021503E+03  0.11157021514E+03  0.50400000000E-02 0.  1.
         24    2    1    2    0    0  0.35527136788E-14  0.17763568394E-14 -0.97479990600E+02  0.12566043980E+03  0.79298156116E+02 0.  0.
         66    2    3    3    0    0  0.26988094859E+02  0.76345418978E+01 -0.93124375782E+02  0.97276887545E+02  0.19999978724E+01 0.  0.
        -13    1    3    3    0    0 -0.26988094859E+02 -0.76345418978E+01 -0.43556148173E+01  0.28383552255E+02  0.10566000000E+00 0.  1.
         13    1    4    4    0    0  0.14389224590E+02  0.42554366887E+01 -0.47542762562E+02  0.49854628288E+02  0.10566000000E+00 0. -1.
        -13    1    4    4    0    0  0.11792426054E+02  0.32353616339E+01 -0.41749484087E+02  0.43503556897E+02  0.10566000000E+00 0.  1.
        -14    1    4    4    0    0  0.80644421547E+00  0.14374357522E+00 -0.38321291338E+01  0.39187023600E+01  0.00000000000E+00 0.  1.
<mgrwt>
<rscale>  0 0.79298156E+02</rscale>
<asrwt>0</asrwt>
<pdfrwt beam="1">  1        2 0.21677269E-02 0.79298156E+02</pdfrwt>
<pdfrwt beam="2">  1       -1 0.17164648E-01 0.79298156E+02</pdfrwt>
<totfact> 0.11831270E+05</totfact>
</mgrwt>
</event>
<event>
 8    1  0.2676873E-024  0.7825668E+02  0.7818608E-02  0.1334073E+00
          2   -1    0    0  501    0  0.00000000000E+00  0.00000000000E+00  0.90049108082E+03  0.90049108083E+03  0.25500000000E-02 0. -1.
         -1   -1    0    0    0  501 -0.00000000000E+00 -0.00000000000E+00 -0.17002096108E+01  0.17002170809E+01  0.50400000000E-02 0.  1.
         24    2    1    2    0    0 -0.35527136788E-14  0.00000000000E+00  0.89879087121E+03  0.90219129791E+03  0.78256679240E+02 0.  0.
         66    2    3    3    0    0 -0.20122217479E+02 -0.52282476781E+01  0.83148973471E+03  0.83175201662E+03  0.20000025246E+01 0.  0.
        -13    1    3    3    0    0  0.20122217479E+02  0.52282476781E+01  0.67301136502E+02  0.70439281290E+02  0.10566000000E+00 0.  1.
         13    1    4    4    0    0 -0.13316212530E+02 -0.37267975029E+01  0.54086618737E+03  0.54104293206E+03  0.10566000000E+00 0. -1.
        -13    1    4    4    0    0 -0.17435645787E+01 -0.15485297316E+00  0.57719049560E+02  0.57745682462E+02  0.10566000000E+00 0.  1.
         14    1    4    4    0    0 -0.50624403698E+01 -0.13465972021E+01  0.23290449778E+03  0.23296340209E+03  0.00000000000E+00 0. -1.
<mgrwt>
<rscale>  0 0.78256679E+02</rscale>
<asrwt>0</asrwt>
<pdfrwt beam="1">  1        2 0.13853693E+00 0.78256679E+02</pdfrwt>
<pdfrwt beam="2">  1       -1 0.26157158E-03 0.78256679E+02</pdfrwt>
<totfact> 0.37003994E+05</totfact>
</mgrwt>
</event>
<event>
 8    1  0.2676873E-024  0.7953821E+02  0.7818608E-02  0.1330367E+00
         -1   -1    0    0    0  501 -0.00000000000E+00  0.00000000000E+00  0.53592754869E+02  0.53592755106E+02  0.50400000000E-02 0.  1.
          2   -1    0    0  501    0  0.00000000000E+00 -0.00000000000E+00 -0.29511113203E+02  0.29511113313E+02  0.25500000000E-02 0. -1.
         24    2    1    2    0    0 -0.17763568394E-14  0.22204460493E-15  0.24081641666E+02  0.83103868419E+02  0.79538213966E+02 0.  0.
         66    2    3    3    0    0 -0.12814975308E+02  0.19167890393E+01 -0.27208253941E+02  0.30202429612E+02  0.19999998875E+01 0.  0.
        -13    1    3    3    0    0  0.12814975308E+02 -0.19167890393E+01  0.51289895608E+02  0.52901438807E+02  0.10566000000E+00 0.  1.
         13    1    4    4    0    0 -0.59124672724E+01  0.52233198647E+00 -0.11003786902E+02  0.12502983251E+02  0.10566000000E+00 0. -1.
        -13    1    4    4    0    0 -0.58671909928E+01  0.14770730595E+01 -0.14355494213E+02  0.15578737212E+02  0.10566000000E+00 0.  1.
        -14    1    4    4    0    0 -0.10353170429E+01 -0.82616006668E-01 -0.18489728260E+01  0.21207091491E+01  0.00000000000E+00 0.  1.
<mgrwt>
<rscale>  0 0.79538214E+02</rscale>
<asrwt>0</asrwt>
<pdfrwt beam="1">  1        2 0.45401713E-02 0.79538214E+02</pdfrwt>
<pdfrwt beam="2">  1       -1 0.82450391E-02 0.79538214E+02</pdfrwt>
<totfact> 0.13631147E+05</totfact>
</mgrwt>
</event>
<event>
 8    1  0.2676873E-024  0.8006495E+02  0.7818608E-02  0.1328867E+00
          2   -1    0    0  501    0  0.00000000000E+00  0.00000000000E+00  0.65972998376E+02  0.65972998426E+02  0.25500000000E-02 0. -1.
         -1   -1    0    0    0  501 -0.00000000000E+00 -0.00000000000E+00 -0.24291738804E+02  0.24291739327E+02  0.50400000000E-02 0.  1.
         24    2    1    2    0    0 -0.17763568394E-14  0.35527136788E-14  0.41681259572E+02  0.90264737753E+02  0.80064945401E+02 0.  0.
         66    2    3    3    0    0  0.13624236836E+02  0.29163541991E+02 -0.59314873118E+01  0.32791989074E+02  0.19999987224E+01 0.  0.
        -13    1    3    3    0    0 -0.13624236836E+02 -0.29163541991E+02  0.47612746884E+02  0.57472748679E+02  0.10566000000E+00 0.  1.
         13    1    4    4    0    0  0.71412133138E+00  0.21502947310E+01 -0.10920964847E+00  0.22708649209E+01  0.10566000000E+00 0. -1.
        -13    1    4    4    0    0  0.12533145462E+01  0.22393499281E+01 -0.75272054212E+00  0.26764225568E+01  0.10566000000E+00 0.  1.
         14    1    4    4    0    0  0.11656800958E+02  0.24773897332E+02 -0.50695571212E+01  0.27844701597E+02  0.00000000000E+00 0. -1.
<mgrwt>
<rscale>  0 0.80064945E+02</rscale>
<asrwt>0</asrwt>
<pdfrwt beam="1">  1        2 0.10149692E-01 0.80064945E+02</pdfrwt>
<pdfrwt beam="2">  1       -1 0.37371907E-02 0.80064945E+02</pdfrwt>
<totfact> 0.15882075E+05</totfact>
</mgrwt>
</event>
<event>
 8    1  0.2676873E-024  0.7933943E+02  0.7818608E-02  0.1330937E+00
         -1   -1    0    0    0  501 -0.00000000000E+00  0.00000000000E+00  0.17653215880E+01  0.17653287826E+01  0.50400000000E-02 0.  1.
          2   -1    0    0  501    0  0.00000000000E+00 -0.00000000000E+00 -0.89144264548E+03  0.89144264549E+03  0.25500000000E-02 0. -1.
         24    2    1    2    0    0 -0.17763568394E-14  0.00000000000E+00 -0.88967732390E+03  0.89320797427E+03  0.79339426802E+02 0.  0.
         66    2    3    3    0    0  0.13416101780E+02 -0.26994713564E+02 -0.73499641564E+03  0.73561704532E+03  0.20000001662E+01 0.  0.
        -13    1    3    3    0    0 -0.13416101780E+02  0.26994713564E+02 -0.15468090825E+03  0.15759092895E+03  0.10566000000E+00 0.  1.
         13    1    4    4    0    0  0.17597766579E+01 -0.43958909965E+01 -0.11374286638E+03  0.11384143133E+03  0.10566000000E+00 0. -1.
        -13    1    4    4    0    0  0.40554811193E+01 -0.94801528885E+01 -0.25430386839E+03  0.25451284617E+03  0.10566000000E+00 0. -1.
         14    1    4    4    0    0  0.76008440025E+01 -0.13118669679E+02 -0.36694968088E+03  0.36726276781E+03  0.00000000000E+00 0. -1.
<mgrwt>
<rscale>  0 0.79339427E+02</rscale>
<asrwt>0</asrwt>
<pdfrwt beam="1">  1        2 0.13714466E+00 0.79339427E+02</pdfrwt>
<pdfrwt beam="2">  1       -1 0.27158920E-03 0.79339427E+02</pdfrwt>
<totfact> 0.35668343E+05</totfact>
</mgrwt>
</event>
<event>
 8    1  0.2676873E-024  0.8064620E+02  0.7818608E-02  0.1327228E+00
         -1   -1    0    0    0  501 -0.00000000000E+00  0.00000000000E+00  0.11785389776E+01  0.11785497543E+01  0.50400000000E-02 0.  1.
          2   -1    0    0  501    0  0.00000000000E+00 -0.00000000000E+00 -0.13796276662E+04  0.13796276662E+04  0.25500000000E-02 0. -1.
         24    2    1    2    0    0 -0.17763568394E-14  0.00000000000E+00 -0.13784491273E+04  0.13808062160E+04  0.80646200681E+02 0.  0.
         66    2    3    3    0    0  0.13997900737E+02 -0.13816062638E+02 -0.12918673035E+04  0.12920185581E+04  0.20000001052E+01 0.  0.
        -13    1    3    3    0    0 -0.13997900737E+02  0.13816062638E+02 -0.86581823808E+02  0.88787657868E+02  0.10566000000E+00 0.  1.
         13    1    4    4    0    0  0.41389620990E+01 -0.44238044628E+01 -0.44641976297E+03  0.44646087957E+03  0.10566000000E+00 0. -1.
        -13    1    4    4    0    0  0.96828276029E+00 -0.91210048888E+00 -0.68492909404E+02  0.68505907055E+02  0.10566000000E+00 0.  1.
         14    1    4    4    0    0  0.88906558775E+01 -0.84801576863E+01 -0.77695463109E+03  0.77705177151E+03  0.00000000000E+00 0. -1.
<mgrwt>
<rscale>  0 0.80646201E+02</rscale>
<asrwt>0</asrwt>
<pdfrwt beam="1">  1        2 0.21224912E+00 0.80646201E+02</pdfrwt>
<pdfrwt beam="2">  1       -1 0.18131562E-03 0.80646201E+02</pdfrwt>
<totfact> 0.33443709E+05</totfact>
</mgrwt>
</event>
<event>
 8    1  0.2676873E-024  0.8093332E+02  0.7818608E-02  0.1326423E+00
         -1   -1    0    0    0  501 -0.00000000000E+00  0.00000000000E+00  0.28873428292E+01  0.28873472280E+01  0.50400000000E-02 0.  1.
          2   -1    0    0  501    0  0.00000000000E+00 -0.00000000000E+00 -0.56714748849E+03  0.56714748849E+03  0.25500000000E-02 0. -1.
         24    2    1    2    0    0  0.44408920985E-15  0.17763568394E-14 -0.56426014566E+03  0.57003483572E+03  0.80933317969E+02 0.  0.
         66    2    3    3    0    0  0.38644089474E+01  0.14376097245E+02 -0.54714548672E+03  0.54735161410E+03  0.19999975785E+01 0.  0.
        -13    1    3    3    0    0 -0.38644089474E+01 -0.14376097245E+02 -0.17114658935E+02  0.22683221619E+02  0.10566000000E+00 0.  1.
         13    1    4    4    0    0  0.14123923956E+01  0.58544531769E+01 -0.20024517949E+03  0.20033574955E+03  0.10566000000E+00 0. -1.
        -13    1    4    4    0    0  0.70998280752E+00  0.40178297515E+01 -0.14186473664E+03  0.14192343604E+03  0.10566000000E+00 0.  1.
        -14    1    4    4    0    0  0.17420337442E+01  0.45038143168E+01 -0.20503557059E+03  0.20509242851E+03  0.00000000000E+00 0.  1.
<mgrwt>
<rscale>  0 0.80933318E+02</rscale>
<asrwt>0</asrwt>
<pdfrwt beam="1">  1        2 0.87253372E-01 0.80933318E+02</pdfrwt>
<pdfrwt beam="2">  1       -1 0.44420738E-03 0.80933318E+02</pdfrwt>
<totfact> 0.30708117E+05</totfact>
</mgrwt>
</event>
<event>
 8    1  0.3211466E-024  0.7722571E+02  0.7818608E-02  0.1337114E+00
          2   -1    0    0  501    0  0.00000000000E+00  0.00000000000E+00  0.65400528905E+02  0.65400528955E+02  0.25500000000E-02 0. -1.
         -1   -1    0    0    0  501 -0.00000000000E+00 -0.00000000000E+00 -0.22797255197E+02  0.22797255754E+02  0.50400000000E-02 0.  1.
         24    2    1    2    0    0  0.88817841970E-15  0.17763568394E-14  0.42603273708E+02  0.88197784709E+02  0.77225710078E+02 0.  0.
         66    2    3    3    0    0 -0.63906627483E+01 -0.13196859011E+02  0.62079430447E+02  0.63818910587E+02  0.20000014457E+01 0.  0.
        -13    1    3    3    0    0  0.63906627483E+01  0.13196859011E+02 -0.19476156739E+02  0.24378874122E+02  0.10566000000E+00 0.  1.
         13    1    4    4    0    0 -0.26943219405E+01 -0.56900742259E+01  0.25630122136E+02  0.26392245834E+02  0.10566000000E+00 0. -1.
        -13    1    4    4    0    0 -0.26611672088E+01 -0.40864799835E+01  0.19085535834E+02  0.19698984027E+02  0.10566000000E+00 0.  1.
        -14    1    4    4    0    0 -0.10351735990E+01 -0.34203048013E+01  0.17363772477E+02  0.17727680727E+02  0.00000000000E+00 0.  1.
<mgrwt>
<rscale>  0 0.77225710E+02</rscale>
<asrwt>0</asrwt>
<pdfrwt beam="1">  1        2 0.10061620E-01 0.77225710E+02</pdfrwt>
<pdfrwt beam="2">  1       -1 0.35072701E-02 0.77225710E+02</pdfrwt>
<totfact> 0.17476153E+05</totfact>
</mgrwt>
</event>
<event>
 8    1  0.2676873E-024  0.8730616E+02  0.7818608E-02  0.1309510E+00
         -1   -1    0    0    0  501 -0.00000000000E+00  0.00000000000E+00  0.95824073391E+00  0.95825398811E+00  0.50400000000E-02 0.  1.
          2   -1    0    0  501    0  0.00000000000E+00 -0.00000000000E+00 -0.19886214068E+04  0.19886214068E+04  0.25500000000E-02 0. -1.
         24    2    1    2    0    0  0.00000000000E+00  0.00000000000E+00 -0.19876631661E+04  0.19895796608E+04  0.87306156097E+02 0.  0.
         66    2    3    3    0    0  0.80691776881E+01  0.18458722857E+02 -0.18762857750E+04  0.18763949866E+04  0.20000008413E+01 0.  0.
        -13    1    3    3    0    0 -0.80691776881E+01 -0.18458722857E+02 -0.11137739106E+03  0.11318467423E+03  0.10566000000E+00 0.  1.
         13    1    4    4    0    0  0.37545391590E+01  0.94295066404E+01 -0.99947097927E+03  0.99952251687E+03  0.10566000000E+00 0. -1.
        -13    1    4    4    0    0  0.89124095537E+00  0.12287970779E+01 -0.15204915371E+03  0.15205676755E+03  0.10566000000E+00 0.  1.
        -14    1    4    4    0    0  0.34233975737E+01  0.78004191387E+01 -0.72476564206E+03  0.72481570216E+03  0.00000000000E+00 0.  1.
<mgrwt>
<rscale>  0 0.87306156E+02</rscale>
<asrwt>0</asrwt>
<pdfrwt beam="1">  1        2 0.30593845E+00 0.87306156E+02</pdfrwt>
<pdfrwt beam="2">  1       -1 0.14742426E-03 0.87306156E+02</pdfrwt>
<totfact> 0.22196373E+05</totfact>
</mgrwt>
</event>
<event>
 8    1  0.2676873E-024  0.7942449E+02  0.7818608E-02  0.1330693E+00
          2   -1    0    0  501    0  0.00000000000E+00  0.00000000000E+00  0.10039571855E+02  0.10039572179E+02  0.25500000000E-02 0. -1.
         -1   -1    0    0    0  501 -0.00000000000E+00 -0.00000000000E+00 -0.15708462569E+03  0.15708462577E+03  0.50400000000E-02 0.  1.
         24    2    1    2    0    0  0.17763568394E-14  0.71054273576E-14 -0.14704505384E+03  0.16712419795E+03  0.79424490450E+02 0.  0.
         66    2    3    3    0    0  0.12855646859E+02  0.37343636828E+02 -0.65353888132E+02  0.76386815435E+02  0.20000026890E+01 0.  0.
        -13    1    3    3    0    0 -0.12855646859E+02 -0.37343636828E+02 -0.81691165706E+02  0.90737382517E+02  0.10566000000E+00 0.  1.
         13    1    4    4    0    0  0.37944357056E+01  0.12552646984E+02 -0.21358650347E+02  0.25063315768E+02  0.10566000000E+00 0. -1.
        -13    1    4    4    0    0  0.14580923294E+01  0.32830522916E+01 -0.67581492961E+01  0.76542936666E+01  0.10566000000E+00 0.  1.
        -14    1    4    4    0    0  0.76031188239E+01  0.21507937552E+02 -0.37237088489E+02  0.43669206000E+02  0.00000000000E+00 0.  1.
<mgrwt>
<rscale>  0 0.79424490E+02</rscale>
<asrwt>0</asrwt>
<pdfrwt beam="1">  1        2 0.15445497E-02 0.79424490E+02</pdfrwt>
<pdfrwt beam="2">  1       -1 0.24166864E-01 0.79424490E+02</pdfrwt>
<totfact> 0.10856091E+05</totfact>
</mgrwt>
</event>
<event>
 8    1  0.2676873E-024  0.8014416E+02  0.7818608E-02  0.1328643E+00
          2   -1    0    0  501    0  0.00000000000E+00  0.00000000000E+00  0.24113938229E+02  0.24113938364E+02  0.25500000000E-02 0. -1.
         -1   -1    0    0    0  501 -0.00000000000E+00 -0.00000000000E+00 -0.66591019661E+02  0.66591019852E+02  0.50400000000E-02 0.  1.
         24    2    1    2    0    0  0.00000000000E+00 -0.35527136788E-14 -0.42477081432E+02  0.90704958216E+02  0.80144163842E+02 0.  0.
         66    2    3    3    0    0 -0.78396657672E+00  0.18654932811E+02  0.18844744525E+02  0.26603486902E+02  0.19999993357E+01 0.  0.
        -13    1    3    3    0    0  0.78396657672E+00 -0.18654932811E+02 -0.61321825957E+02  0.64101471314E+02  0.10566000000E+00 0.  1.
         13    1    4    4    0    0 -0.54898925175E+00  0.91279431664E+01  0.88339232246E+01  0.12714955730E+02  0.10566000000E+00 0. -1.
        -13    1    4    4    0    0 -0.62730253334E+00  0.75071269909E+01  0.73550051773E+01  0.10528899720E+02  0.10566000000E+00 0.  1.
        -14    1    4    4    0    0  0.39232520836E+00  0.20198626541E+01  0.26558161230E+01  0.33596314515E+01  0.00000000000E+00 0.  1.
<mgrwt>
<rscale>  0 0.80144164E+02</rscale>
<asrwt>0</asrwt>
<pdfrwt beam="1">  1        2 0.37098367E-02 0.80144164E+02</pdfrwt>
<pdfrwt beam="2">  1       -1 0.10244772E-01 0.80144164E+02</pdfrwt>
<totfact> 0.12822495E+05</totfact>
</mgrwt>
</event>
<event>
 8    1  0.2676873E-024  0.7906225E+02  0.7818608E-02  0.1331734E+00
         -1   -1    0    0    0  501 -0.00000000000E+00  0.00000000000E+00  0.21539488722E+01  0.21539547687E+01  0.50400000000E-02 0.  1.
          2   -1    0    0  501    0  0.00000000000E+00 -0.00000000000E+00 -0.72550821071E+03  0.72550821072E+03  0.25500000000E-02 0. -1.
         24    2    1    2    0    0 -0.17763568394E-14 -0.17763568394E-14 -0.72335426184E+03  0.72766216549E+03  0.79062247354E+02 0.  0.
         66    2    3    3    0    0  0.14353929129E+02  0.15392801117E+02 -0.66960922201E+03  0.66994289593E+03  0.19999996047E+01 0.  0.
        -13    1    3    3    0    0 -0.14353929129E+02 -0.15392801117E+02 -0.53745039832E+02  0.57719269557E+02  0.10566000000E+00 0.  1.
         13    1    4    4    0    0  0.68487803445E+01  0.69455985663E+01 -0.29962243680E+03  0.29978119176E+03  0.10566000000E+00 0. -1.
        -13    1    4    4    0    0  0.26277547893E+01  0.20684117956E+01 -0.11250806708E+03  0.11255780624E+03  0.10566000000E+00 0.  1.
         14    1    4    4    0    0  0.48773939949E+01  0.63787907553E+01 -0.25747871812E+03  0.25760389793E+03  0.00000000000E+00 0. -1.
<mgrwt>
<rscale>  0 0.79062247E+02</rscale>
<asrwt>0</asrwt>
<pdfrwt beam="1">  1        2 0.11161645E+00 0.79062247E+02</pdfrwt>
<pdfrwt beam="2">  1       -1 0.33137778E-03 0.79062247E+02</pdfrwt>
<totfact> 0.34767300E+05</totfact>
</mgrwt>
</event>
<event>
 8    1  0.2676873E-024  0.7948849E+02  0.7818608E-02  0.1330509E+00
         -1   -1    0    0    0  501 -0.00000000000E+00  0.00000000000E+00  0.95281859969E+01  0.95281873298E+01  0.50400000000E-02 0.  1.
          2   -1    0    0  501    0  0.00000000000E+00 -0.00000000000E+00 -0.16578234328E+03  0.16578234330E+03  0.25500000000E-02 0. -1.
         24    2    1    2    0    0  0.00000000000E+00  0.35527136788E-14 -0.15625415728E+03  0.17531053063E+03  0.79488492760E+02 0.  0.
         66    2    3    3    0    0  0.12841770872E+02 -0.27511840701E+02 -0.13465518985E+03  0.13805010905E+03  0.19999995118E+01 0.  0.
        -13    1    3    3    0    0 -0.12841770872E+02  0.27511840701E+02 -0.21598967435E+02  0.37260421578E+02  0.10566000000E+00 0.  1.
         13    1    4    4    0    0  0.89877178978E+01 -0.18620416437E+02 -0.90399453762E+02  0.92733873994E+02  0.10566000000E+00 0. -1.
        -13    1    4    4    0    0  0.18635824549E+01 -0.30670929339E+01 -0.16592939425E+02  0.16976949120E+02  0.10566000000E+00 0.  1.
        -14    1    4    4    0    0  0.19904705195E+01 -0.58243313300E+01 -0.27662796658E+02  0.28339285935E+02  0.00000000000E+00 0.  1.
<mgrwt>
<rscale>  0 0.79488493E+02</rscale>
<asrwt>0</asrwt>
<pdfrwt beam="1">  1        2 0.25504974E-01 0.79488493E+02</pdfrwt>
<pdfrwt beam="2">  1       -1 0.14658750E-02 0.79488493E+02</pdfrwt>
<totfact> 0.21050178E+05</totfact>
</mgrwt>
</event>
<event>
 8    1  0.2676873E-024  0.7913214E+02  0.7818608E-02  0.1331532E+00
          2   -1    0    0  501    0  0.00000000000E+00  0.00000000000E+00  0.27330308753E+02  0.27330308872E+02  0.25500000000E-02 0. -1.
         -1   -1    0    0    0  501 -0.00000000000E+00 -0.00000000000E+00 -0.57279770898E+02  0.57279771119E+02  0.50400000000E-02 0.  1.
         24    2    1    2    0    0  0.00000000000E+00  0.00000000000E+00 -0.29949462144E+02  0.84610079992E+02  0.79132138563E+02 0.  0.
         66    2    3    3    0    0  0.61153845470E+01 -0.30866554266E+02  0.10617518530E+02  0.33269713949E+02  0.20000165205E+01 0.  0.
        -13    1    3    3    0    0 -0.61153845470E+01  0.30866554266E+02 -0.40566980674E+02  0.51340366043E+02  0.10566000000E+00 0.  1.
         13    1    4    4    0    0  0.32082829811E+01 -0.15109163022E+02  0.44254306548E+01  0.16067840160E+02  0.10566000000E+00 0. -1.
        -13    1    4    4    0    0  0.11459238623E+01 -0.86569144462E+01  0.33478483600E+01  0.93527836446E+01  0.10566000000E+00 0.  1.
        -14    1    4    4    0    0  0.17611777037E+01 -0.71004767982E+01  0.28442395149E+01  0.78490901437E+01  0.00000000000E+00 0.  1.
<mgrwt>
<rscale>  0 0.79132139E+02</rscale>
<asrwt>0</asrwt>
<pdfrwt beam="1">  1        2 0.42046629E-02 0.79132139E+02</pdfrwt>
<pdfrwt beam="2">  1       -1 0.88122724E-02 0.79132139E+02</pdfrwt>
<totfact> 0.13622250E+05</totfact>
</mgrwt>
</event>
<event>
 8    1  0.2676873E-024  0.8118555E+02  0.7818608E-02  0.1325720E+00
          2   -1    0    0  501    0  0.00000000000E+00  0.00000000000E+00  0.36191572515E+03  0.36191572516E+03  0.25500000000E-02 0. -1.
         -1   -1    0    0    0  501 -0.00000000000E+00 -0.00000000000E+00 -0.45529182627E+01  0.45529210523E+01  0.50400000000E-02 0.  1.
         24    2    1    2    0    0 -0.71054273576E-14  0.35527136788E-14  0.35736280689E+03  0.36646864621E+03  0.81185546187E+02 0.  0.
         66    2    3    3    0    0  0.35897685636E+02 -0.13836762814E+02  0.23688978315E+03  0.24000181083E+03  0.20000003000E+01 0.  0.
        -13    1    3    3    0    0 -0.35897685636E+02  0.13836762814E+02  0.12047302374E+03  0.12646683538E+03  0.10566000000E+00 0.  1.
         13    1    4    4    0    0  0.89338864021E+01 -0.35981679473E+01  0.60305705703E+02  0.61070045383E+02  0.10566000000E+00 0. -1.
        -13    1    4    4    0    0  0.10866473001E+02 -0.39053468582E+01  0.75598587459E+02  0.76475418007E+02  0.10566000000E+00 0.  1.
        -14    1    4    4    0    0  0.16097326233E+02 -0.63332480090E+01  0.10098548999E+03  0.10245634744E+03  0.00000000000E+00 0.  1.
<mgrwt>
<rscale>  0 0.81185546E+02</rscale>
<asrwt>0</asrwt>
<pdfrwt beam="1">  1        2 0.55679357E-01 0.81185546E+02</pdfrwt>
<pdfrwt beam="2">  1       -1 0.70044899E-03 0.81185546E+02</pdfrwt>
<totfact> 0.26242714E+05</totfact>
</mgrwt>
</event>
<event>
 8    1  0.2676873E-024  0.7535790E+02  0.7818608E-02  0.1342766E+00
         -1   -1    0    0    0  501 -0.00000000000E+00  0.00000000000E+00  0.89035670076E+00  0.89037096549E+00  0.50400000000E-02 0.  1.
          2   -1    0    0  501    0  0.00000000000E+00 -0.00000000000E+00 -0.15945203687E+04  0.15945203687E+04  0.25500000000E-02 0. -1.
         24    2    1    2    0    0  0.00000000000E+00  0.00000000000E+00 -0.15936300120E+04  0.15954107396E+04  0.75357900061E+02 0.  0.
         66    2    3    3    0    0  0.92493688398E+01  0.15464326476E+02 -0.14973040952E+04  0.14974138538E+04  0.20000003851E+01 0.  0.
        -13    1    3    3    0    0 -0.92493688398E+01 -0.15464326476E+02 -0.96325916764E+02  0.97996885775E+02  0.10566000000E+00 0.  1.
         13    1    4    4    0    0  0.76309245705E+01  0.11808814924E+02 -0.11772257019E+04  0.11773096634E+04  0.10566000000E+00 0. -1.
        -13    1    4    4    0    0  0.40642114218E+00  0.36397646629E+00 -0.42006682480E+02  0.42010358175E+02  0.10566000000E+00 0.  1.
         14    1    4    4    0    0  0.12120231271E+01  0.32915350853E+01 -0.27807171078E+03  0.27809383226E+03  0.00000000000E+00 0. -1.
<mgrwt>
<rscale>  0 0.75357900E+02</rscale>
<asrwt>0</asrwt>
<pdfrwt beam="1">  1        2 0.24530854E+00 0.75357900E+02</pdfrwt>
<pdfrwt beam="2">  1       -1 0.13698033E-03 0.75357900E+02</pdfrwt>
<totfact> 0.37835734E+05</totfact>
</mgrwt>
</event>
<event>
 8    1  0.2676873E-024  0.7984134E+02  0.7818608E-02  0.1329502E+00
         -1   -1    0    0    0  501 -0.00000000000E+00  0.00000000000E+00  0.58874495507E+01  0.58874517080E+01  0.50400000000E-02 0.  1.
          2   -1    0    0  501    0  0.00000000000E+00 -0.00000000000E+00 -0.27068756686E+03  0.27068756687E+03  0.25500000000E-02 0. -1.
         24    2    1    2    0    0  0.00000000000E+00  0.00000000000E+00 -0.26480011731E+03  0.27657501858E+03  0.79841335005E+02 0.  0.
         66    2    3    3    0    0  0.31747437065E+02 -0.21509878999E+02 -0.17060015168E+03  0.17486848318E+03  0.20000002849E+01 0.  0.
        -13    1    3    3    0    0 -0.31747437065E+02  0.21509878999E+02 -0.94199965628E+02  0.10170653540E+03  0.10566000000E+00 0.  1.
         13    1    4    4    0    0  0.21300946879E+02 -0.14441074701E+02 -0.11641577972E+03  0.11922633899E+03  0.10566000000E+00 0. -1.
        -13    1    4    4    0    0  0.61829845110E+01 -0.37556251298E+01 -0.32510181861E+02  0.33305511650E+02  0.10566000000E+00 0.  1.
         14    1    4    4    0    0  0.42635056757E+01 -0.33131791679E+01 -0.21674190093E+02  0.22336632536E+02  0.00000000000E+00 0. -1.
<mgrwt>
<rscale>  0 0.79841335E+02</rscale>
<asrwt>0</asrwt>
<pdfrwt beam="1">  1        2 0.41644232E-01 0.79841335E+02</pdfrwt>
<pdfrwt beam="2">  1       -1 0.90576185E-03 0.79841335E+02</pdfrwt>
<totfact> 0.24690813E+05</totfact>
</mgrwt>
</event>
<event>
 8    1  0.2676873E-024  0.8041972E+02  0.7818608E-02  0.1327865E+00
         -1   -1    0    0    0  501 -0.00000000000E+00  0.00000000000E+00  0.24385656772E+01  0.24385708855E+01  0.50400000000E-02 0.  1.
          2   -1    0    0  501    0  0.00000000000E+00 -0.00000000000E+00 -0.66302548139E+03  0.66302548139E+03  0.25500000000E-02 0. -1.
         24    2    1    2    0    0  0.00000000000E+00 -0.35527136788E-14 -0.66058691571E+03  0.66546405228E+03  0.80419721876E+02 0.  0.
         66    2    3    3    0    0 -0.30298363616E+01  0.17015950305E+02 -0.63069488646E+03  0.63093483205E+03  0.20000019171E+01 0.  0.
        -13    1    3    3    0    0  0.30298363616E+01 -0.17015950305E+02 -0.29892029252E+02  0.34529220234E+02  0.10566000000E+00 0.  1.
         13    1    4    4    0    0 -0.37731851091E+00  0.51359157541E+01 -0.20926782313E+03  0.20933120398E+03  0.10566000000E+00 0. -1.
        -13    1    4    4    0    0 -0.25359199671E+01  0.11477200269E+02 -0.40091890137E+03  0.40109117873E+03  0.10566000000E+00 0.  1.
         14    1    4    4    0    0 -0.11659788360E+00  0.40283428222E+00 -0.20508161969E+02  0.20512449339E+02  0.00000000000E+00 0. -1.
<mgrwt>
<rscale>  0 0.80419722E+02</rscale>
<asrwt>0</asrwt>
<pdfrwt beam="1">  1        2 0.10200378E+00 0.80419722E+02</pdfrwt>
<pdfrwt beam="2">  1       -1 0.37516488E-03 0.80419722E+02</pdfrwt>
<totfact> 0.32575070E+05</totfact>
</mgrwt>
</event>
<event>
 8    1  0.2676873E-024  0.7998205E+02  0.7818608E-02  0.1329102E+00
          2   -1    0    0  501    0  0.00000000000E+00  0.00000000000E+00  0.93096788284E+03  0.93096788284E+03  0.25500000000E-02 0. -1.
         -1   -1    0    0    0  501 -0.00000000000E+00 -0.00000000000E+00 -0.17178664431E+01  0.17178738365E+01  0.50400000000E-02 0.  1.
         24    2    1    2    0    0 -0.71054273576E-14  0.00000000000E+00  0.92925001639E+03  0.93268575668E+03  0.79982046361E+02 0.  0.
         66    2    3    3    0    0  0.26027801447E+02  0.51947892300E+00  0.81853162984E+03  0.81894795034E+03  0.20000003800E+01 0.  0.
        -13    1    3    3    0    0 -0.26027801447E+02 -0.51947892300E+00  0.11071838655E+03  0.11373780634E+03  0.10566000000E+00 0.  1.
         13    1    4    4    0    0  0.67686387336E+01 -0.63807263008E+00  0.21730872805E+03  0.21741507781E+03  0.10566000000E+00 0. -1.
        -13    1    4    4    0    0  0.14633996368E+01  0.21628176247E+00  0.42736051068E+02  0.42761776638E+02  0.10566000000E+00 0.  1.
         14    1    4    4    0    0  0.17795763077E+02  0.94126979061E+00  0.55848685072E+03  0.55877109589E+03  0.00000000000E+00 0. -1.
<mgrwt>
<rscale>  0 0.79982046E+02</rscale>
<asrwt>0</asrwt>
<pdfrwt beam="1">  1        2 0.14322546E+00 0.79982046E+02</pdfrwt>
<pdfrwt beam="2">  1       -1 0.26428840E-03 0.79982046E+02</pdfrwt>
<totfact> 0.35085247E+05</totfact>
</mgrwt>
</event>
<event>
 8    1  0.2676873E-024  0.7911185E+02  0.7818608E-02  0.1331591E+00
         -1   -1    0    0    0  501 -0.00000000000E+00  0.00000000000E+00  0.67624583884E+01  0.67624602665E+01  0.50400000000E-02 0.  1.
          2   -1    0    0  501    0  0.00000000000E+00 -0.00000000000E+00 -0.23137608082E+03  0.23137608084E+03  0.25500000000E-02 0. -1.
         24    2    1    2    0    0 -0.17763568394E-14  0.00000000000E+00 -0.22461362243E+03  0.23813854110E+03  0.79111853573E+02 0.  0.
         66    2    3    3    0    0  0.13659006457E+02 -0.10411777761E+02 -0.21955379530E+03  0.22023360915E+03  0.19999985461E+01 0.  0.
        -13    1    3    3    0    0 -0.13659006457E+02  0.10411777761E+02 -0.50598271289E+01  0.17904931950E+02  0.10566000000E+00 0.  1.
         13    1    4    4    0    0  0.85130985135E+01 -0.56431966300E+01 -0.13380884720E+03  0.13419812692E+03  0.10566000000E+00 0. -1.
        -13    1    4    4    0    0  0.13080742951E+01 -0.12968417110E+01 -0.18541523030E+02  0.18633091453E+02  0.10566000000E+00 0.  1.
         14    1    4    4    0    0  0.38378336480E+01 -0.34717394196E+01 -0.67203425074E+02  0.67402390784E+02  0.00000000000E+00 0. -1.
<mgrwt>
<rscale>  0 0.79111854E+02</rscale>
<asrwt>0</asrwt>
<pdfrwt beam="1">  1        2 0.35596314E-01 0.79111854E+02</pdfrwt>
<pdfrwt beam="2">  1       -1 0.10403785E-02 0.79111854E+02</pdfrwt>
<totfact> 0.23910066E+05</totfact>
</mgrwt>
</event>
<event>
 8    1  0.2676873E-024  0.8120513E+02  0.7818608E-02  0.1325666E+00
         -1   -1    0    0    0  501 -0.00000000000E+00  0.00000000000E+00  0.26927679657E+02  0.26927680128E+02  0.50400000000E-02 0.  1.
          2   -1    0    0  501    0  0.00000000000E+00 -0.00000000000E+00 -0.61222064964E+02  0.61222065017E+02  0.25500000000E-02 0. -1.
         24    2    1    2    0    0  0.00000000000E+00  0.00000000000E+00 -0.34294385307E+02  0.88149745145E+02  0.81205127336E+02 0.  0.
         66    2    3    3    0    0 -0.28446473992E+02  0.99079432767E+01 -0.46670800138E+02  0.55583565900E+02  0.19999975373E+01 0.  0.
        -13    1    3    3    0    0  0.28446473992E+02 -0.99079432767E+01  0.12376414830E+02  0.32566179245E+02  0.10566000000E+00 0.  1.
         13    1    4    4    0    0 -0.13129143748E+02  0.41008280141E+01 -0.21151659453E+02  0.25230835651E+02  0.10566000000E+00 0. -1.
        -13    1    4    4    0    0 -0.11489464424E+02  0.48883637150E+01 -0.18933346453E+02  0.22680094015E+02  0.10566000000E+00 0.  1.
        -14    1    4    4    0    0 -0.38278658198E+01  0.91875154763E+00 -0.65857942307E+01  0.76726362347E+01  0.00000000000E+00 0.  1.
<mgrwt>
<rscale>  0 0.81205127E+02</rscale>
<asrwt>0</asrwt>
<pdfrwt beam="1">  1        2 0.94187792E-02 0.81205127E+02</pdfrwt>
<pdfrwt beam="2">  1       -1 0.41427200E-02 0.81205127E+02</pdfrwt>
<totfact> 0.15015498E+05</totfact>
</mgrwt>
</event>
<event>
 8    1  0.2676873E-024  0.7853173E+02  0.7818608E-02  0.1333271E+00
         -1   -1    0    0    0  501 -0.00000000000E+00  0.00000000000E+00  0.87613344504E+00  0.87614794134E+00  0.50400000000E-02 0.  1.
          2   -1    0    0  501    0  0.00000000000E+00 -0.00000000000E+00 -0.17597721856E+04  0.17597721856E+04  0.25500000000E-02 0. -1.
         24    2    1    2    0    0  0.00000000000E+00  0.00000000000E+00 -0.17588960521E+04  0.17606483335E+04  0.78531726850E+02 0.  0.
         66    2    3    3    0    0 -0.70570669538E+01 -0.17194560339E+02 -0.16548227269E+04  0.16549283104E+04  0.20000011533E+01 0.  0.
        -13    1    3    3    0    0  0.70570669538E+01  0.17194560339E+02 -0.10407332520E+03  0.10572002309E+03  0.10566000000E+00 0.  1.
         13    1    4    4    0    0 -0.44556244424E+01 -0.10002078555E+02 -0.10040302954E+04  0.10040900057E+04  0.10566000000E+00 0. -1.
        -13    1    4    4    0    0 -0.10968506811E+00 -0.27762441785E+00 -0.48358698434E+02  0.48359735156E+02  0.10566000000E+00 0.  1.
         14    1    4    4    0    0 -0.24917574433E+01 -0.69148573661E+01 -0.60243373306E+03  0.60247856961E+03  0.00000000000E+00 0. -1.
<mgrwt>
<rscale>  0 0.78531727E+02</rscale>
<asrwt>0</asrwt>
<pdfrwt beam="1">  1        2 0.27073135E+00 0.78531727E+02</pdfrwt>
<pdfrwt beam="2">  1       -1 0.13479229E-03 0.78531727E+02</pdfrwt>
<totfact> 0.32192580E+05</totfact>
</mgrwt>
</event>
<event>
 8    1  0.2676873E-024  0.7955592E+02  0.7818608E-02  0.1330316E+00
          2   -1    0    0  501    0  0.00000000000E+00  0.00000000000E+00  0.10741815061E+02  0.10741815364E+02  0.25500000000E-02 0. -1.
         -1   -1    0    0    0  501 -0.00000000000E+00 -0.00000000000E+00 -0.14730154443E+03  0.14730154452E+03  0.50400000000E-02 0.  1.
         24    2    1    2    0    0  0.00000000000E+00 -0.35527136788E-14 -0.13655972937E+03  0.15804335988E+03  0.79555916919E+02 0.  0.
         66    2    3    3    0    0 -0.19818583008E+02  0.21733380292E+02 -0.15196925391E+02  0.33167191598E+02  0.20000014554E+01 0.  0.
        -13    1    3    3    0    0  0.19818583008E+02 -0.21733380292E+02 -0.12136280398E+03  0.12487616828E+03  0.10566000000E+00 0.  1.
         13    1    4    4    0    0 -0.14747758929E+02  0.15340698975E+02 -0.10333819784E+02  0.23656551605E+02  0.10566000000E+00 0. -1.
        -13    1    4    4    0    0 -0.16346027854E+01  0.23972297499E+01 -0.17167769374E+01  0.33729992334E+01  0.10566000000E+00 0.  1.
         14    1    4    4    0    0 -0.34362212939E+01  0.39954515662E+01 -0.31463286697E+01  0.61376407598E+01  0.00000000000E+00 0. -1.
<mgrwt>
<rscale>  0 0.79555917E+02</rscale>
<asrwt>0</asrwt>
<pdfrwt beam="1">  1        2 0.16525871E-02 0.79555917E+02</pdfrwt>
<pdfrwt beam="2">  1       -1 0.22661775E-01 0.79555917E+02</pdfrwt>
<totfact> 0.10990514E+05</totfact>
</mgrwt>
</event>
<event>
 8    1  0.2676873E-024  0.8060611E+02  0.7818608E-02  0.1327340E+00
         -1   -1    0    0    0  501 -0.00000000000E+00  0.00000000000E+00  0.13944302619E+01  0.13944393701E+01  0.50400000000E-02 0.  1.
          2   -1    0    0  501    0  0.00000000000E+00 -0.00000000000E+00 -0.11648708222E+04  0.11648708222E+04  0.25500000000E-02 0. -1.
         24    2    1    2    0    0  0.00000000000E+00 -0.88817841970E-15 -0.11634763919E+04  0.11662652616E+04  0.80606114871E+02 0.  0.
         66    2    3    3    0    0 -0.20350110380E+02  0.31619307832E+01 -0.10829309650E+04  0.10831286165E+04  0.20000004363E+01 0.  0.
        -13    1    3    3    0    0  0.20350110380E+02 -0.31619307832E+01 -0.80545426912E+02  0.83136645105E+02  0.10566000000E+00 0.  1.
         13    1    4    4    0    0 -0.46227209525E+00 -0.15814440992E+00 -0.28894405873E+02  0.28898729382E+02  0.10566000000E+00 0. -1.
        -13    1    4    4    0    0 -0.30343973710E+01  0.84028837713E+00 -0.15749555018E+03  0.15752705527E+03  0.10566000000E+00 0.  1.
         14    1    4    4    0    0 -0.16853440914E+02  0.24797868160E+01 -0.89654100898E+03  0.89670283182E+03  0.00000000000E+00 0. -1.
<mgrwt>
<rscale>  0 0.80606115E+02</rscale>
<asrwt>0</asrwt>
<pdfrwt beam="1">  1        2 0.17921012E+00 0.80606115E+02</pdfrwt>
<pdfrwt beam="2">  1       -1 0.21452937E-03 0.80606115E+02</pdfrwt>
<totfact> 0.34456113E+05</totfact>
</mgrwt>
</event>
<event>
 8    1  0.2676873E-024  0.7295421E+02  0.7818608E-02  0.1350326E+00
          2   -1    0    0  501    0  0.00000000000E+00  0.00000000000E+00  0.82308742955E+03  0.82308742956E+03  0.25500000000E-02 0. -1.
         -1   -1    0    0    0  501 -0.00000000000E+00 -0.00000000000E+00 -0.16165670260E+01  0.16165748827E+01  0.50400000000E-02 0.  1.
         24    2    1    2    0    0  0.88817841970E-15  0.17763568394E-14  0.82147086253E+03  0.82470400444E+03  0.72954211379E+02 0.  0.
         66    2    3    3    0    0  0.50556850290E+01  0.13635605794E+02  0.78886834464E+03  0.78900491435E+03  0.20000001571E+01 0.  0.
        -13    1    3    3    0    0 -0.50556850290E+01 -0.13635605794E+02  0.32602517890E+02  0.35699090090E+02  0.10566000000E+00 0.  1.
         13    1    4    4    0    0  0.54753594432E+00  0.35529671191E+01  0.19964523772E+03  0.19967762889E+03  0.10566000000E+00 0. -1.
        -13    1    4    4    0    0  0.36762015853E+01  0.87404009105E+01  0.51642232216E+03  0.51650937558E+03  0.10566000000E+00 0.  1.
        -14    1    4    4    0    0  0.83194749932E+00  0.13422377639E+01  0.72800784752E+02  0.72817909880E+02  0.00000000000E+00 0.  1.
<mgrwt>
<rscale>  0 0.72954211E+02</rscale>
<asrwt>0</asrwt>
<pdfrwt beam="1">  1        2 0.12662843E+00 0.72954211E+02</pdfrwt>
<pdfrwt beam="2">  1       -1 0.24870402E-03 0.72954211E+02</pdfrwt>
<totfact> 0.43820191E+05</totfact>
</mgrwt>
</event>
<event>
 8    1  0.2676873E-024  0.8073850E+02  0.7818608E-02  0.1326969E+00
         -1   -1    0    0    0  501 -0.00000000000E+00  0.00000000000E+00  0.12171201747E+02  0.12171202791E+02  0.50400000000E-02 0.  1.
          2   -1    0    0  501    0  0.00000000000E+00 -0.00000000000E+00 -0.13389609469E+03  0.13389609471E+03  0.25500000000E-02 0. -1.
         24    2    1    2    0    0  0.17763568394E-14  0.00000000000E+00 -0.12172489294E+03  0.14606729750E+03  0.80738502826E+02 0.  0.
         66    2    3    3    0    0 -0.12952412286E+02 -0.24138430590E+02 -0.11448332412E+03  0.11773215504E+03  0.20000033432E+01 0.  0.
        -13    1    3    3    0    0  0.12952412286E+02  0.24138430590E+02 -0.72415688199E+01  0.28335142463E+02  0.10566000000E+00 0.  1.
         13    1    4    4    0    0 -0.16040029142E+01 -0.36432548590E+01 -0.16259416345E+02  0.16739949678E+02  0.10566000000E+00 0. -1.
        -13    1    4    4    0    0 -0.90586515527E+01 -0.17256000142E+02 -0.79701317974E+02  0.82049618888E+02  0.10566000000E+00 0.  1.
        -14    1    4    4    0    0 -0.22897578186E+01 -0.32391755896E+01 -0.18522589802E+02  0.18942586474E+02  0.00000000000E+00 0.  1.
<mgrwt>
<rscale>  0 0.80738503E+02</rscale>
<asrwt>0</asrwt>
<pdfrwt beam="1">  1        2 0.20599398E-01 0.80738503E+02</pdfrwt>
<pdfrwt beam="2">  1       -1 0.18724928E-02 0.80738503E+02</pdfrwt>
<totfact> 0.18855590E+05</totfact>
</mgrwt>
</event>
<event>
 8    1  0.2676873E-024  0.8475785E+02  0.7818608E-02  0.1316067E+00
         -1   -1    0    0    0  501 -0.00000000000E+00  0.00000000000E+00  0.59744236069E+02  0.59744236281E+02  0.50400000000E-02 0.  1.
          2   -1    0    0  501    0  0.00000000000E+00 -0.00000000000E+00 -0.30061026982E+02  0.30061027091E+02  0.25500000000E-02 0. -1.
         24    2    1    2    0    0  0.35527136788E-14  0.00000000000E+00  0.29683209086E+02  0.89805263372E+02  0.84757845817E+02 0.  0.
         66    2    3    3    0    0  0.27003560837E+02  0.26801126966E+02 -0.48724775904E+01  0.38408771757E+02  0.20000013604E+01 0.  0.
        -13    1    3    3    0    0 -0.27003560837E+02 -0.26801126966E+02  0.34555686677E+02  0.51396491615E+02  0.10566000000E+00 0.  1.
         13    1    4    4    0    0  0.12494733801E+02  0.12958471452E+02 -0.26927217055E+01  0.18201710616E+02  0.10566000000E+00 0. -1.
        -13    1    4    4    0    0  0.58559998704E+01  0.61178227055E+01 -0.13695318758E+01  0.85794679749E+01  0.10566000000E+00 0.  1.
        -14    1    4    4    0    0  0.86528271660E+01  0.77248328089E+01 -0.81022400911E+00  0.11627593166E+02  0.00000000000E+00 0.  1.
<mgrwt>
<rscale>  0 0.84757846E+02</rscale>
<asrwt>0</asrwt>
<pdfrwt beam="1">  1        2 0.46247735E-02 0.84757846E+02</pdfrwt>
<pdfrwt beam="2">  1       -1 0.91914208E-02 0.84757846E+02</pdfrwt>
<totfact> 0.11439173E+05</totfact>
</mgrwt>
</event>
<event>
 8    1  0.2676873E-024  0.7974781E+02  0.7818608E-02  0.1329769E+00
         -1   -1    0    0    0  501 -0.00000000000E+00  0.00000000000E+00  0.38169660026E+03  0.38169660030E+03  0.50400000000E-02 0.  1.
          2   -1    0    0  501    0  0.00000000000E+00 -0.00000000000E+00 -0.41654237129E+01  0.41654244934E+01  0.25500000000E-02 0. -1.
         24    2    1    2    0    0 -0.88817841970E-15 -0.71054273576E-14  0.37753117655E+03  0.38586202479E+03  0.79747808167E+02 0.  0.
         66    2    3    3    0    0 -0.58052983915E+01  0.38504810304E+02  0.22982644268E+03  0.23311052241E+03  0.19999999596E+01 0.  0.
        -13    1    3    3    0    0  0.58052983915E+01 -0.38504810304E+02  0.14770473387E+03  0.15275150238E+03  0.10566000000E+00 0.  1.
         13    1    4    4    0    0 -0.45144002824E+01  0.26122275982E+02  0.15566474518E+03  0.15790591239E+03  0.10566000000E+00 0. -1.
        -13    1    4    4    0    0 -0.12225812341E+00  0.50736604398E+01  0.30994191699E+02  0.31407133909E+02  0.10566000000E+00 0.  1.
        -14    1    4    4    0    0 -0.11686399857E+01  0.73088738824E+01  0.43167505797E+02  0.43797476110E+02  0.00000000000E+00 0.  1.
<mgrwt>
<rscale>  0 0.79747808E+02</rscale>
<asrwt>0</asrwt>
<pdfrwt beam="1">  1        2 0.64083424E-03 0.79747808E+02</pdfrwt>
<pdfrwt beam="2">  1       -1 0.58722576E-01 0.79747808E+02</pdfrwt>
<totfact> 0.78242303E+04</totfact>
</mgrwt>
</event>
<event>
 8    1  0.2676873E-024  0.7929808E+02  0.7818608E-02  0.1331055E+00
         -1   -1    0    0    0  501 -0.00000000000E+00  0.00000000000E+00  0.85328674001E+02  0.85328674150E+02  0.50400000000E-02 0.  1.
          2   -1    0    0  501    0  0.00000000000E+00 -0.00000000000E+00 -0.18423422936E+02  0.18423423113E+02  0.25500000000E-02 0. -1.
         24    2    1    2    0    0  0.00000000000E+00  0.00000000000E+00  0.66905251065E+02  0.10375209726E+03  0.79298077318E+02 0.  0.
         66    2    3    3    0    0  0.25261549825E+02 -0.16455870301E+02  0.67114754896E+02  0.73602526407E+02  0.20000004417E+01 0.  0.
        -13    1    3    3    0    0 -0.25261549825E+02  0.16455870301E+02 -0.20950383143E+00  0.30149570856E+02  0.10566000000E+00 0.  1.
         13    1    4    4    0    0  0.12588838903E+02 -0.83684860304E+01  0.35050003183E+02  0.38170987812E+02  0.10566000000E+00 0. -1.
        -13    1    4    4    0    0  0.21318876251E+01 -0.10347557799E+01  0.44163773681E+01  0.50131045734E+01  0.10566000000E+00 0.  1.
        -14    1    4    4    0    0  0.10540823296E+02 -0.70526284905E+01  0.27648374345E+02  0.30418434021E+02  0.00000000000E+00 0.  1.
<mgrwt>
<rscale>  0 0.79298077E+02</rscale>
<asrwt>0</asrwt>
<pdfrwt beam="1">  1        2 0.28343728E-02 0.79298077E+02</pdfrwt>
<pdfrwt beam="2">  1       -1 0.13127488E-01 0.79298077E+02</pdfrwt>
<totfact> 0.12523945E+05</totfact>
</mgrwt>
</event>
<event>
 8    1  0.2676873E-024  0.7923218E+02  0.7818608E-02  0.1331245E+00
          2   -1    0    0  501    0  0.00000000000E+00  0.00000000000E+00  0.50808056245E+03  0.50808056246E+03  0.25500000000E-02 0. -1.
         -1   -1    0    0    0  501 -0.00000000000E+00 -0.00000000000E+00 -0.30889460186E+01  0.30889501303E+01  0.50400000000E-02 0.  1.
         24    2    1    2    0    0  0.00000000000E+00  0.00000000000E+00  0.50499161643E+03  0.51116951259E+03  0.79232177378E+02 0.  0.
         66    2    3    3    0    0  0.11131559176E+02  0.23394020642E+02  0.44579745911E+03  0.44655410237E+03  0.19999975064E+01 0.  0.
        -13    1    3    3    0    0 -0.11131559176E+02 -0.23394020642E+02  0.59194157325E+02  0.64615410212E+02  0.10566000000E+00 0.  1.
         13    1    4    4    0    0  0.24278694897E+01  0.63447844328E+01  0.12038711072E+03  0.12057868149E+03  0.10566000000E+00 0. -1.
        -13    1    4    4    0    0  0.73096829629E+01  0.13173473868E+02  0.25662235048E+03  0.25706422118E+03  0.10566000000E+00 0.  1.
        -14    1    4    4    0    0  0.13940067232E+01  0.38757623410E+01  0.68787997907E+02  0.68911199704E+02  0.00000000000E+00 0.  1.
<mgrwt>
<rscale>  0 0.79232177E+02</rscale>
<asrwt>0</asrwt>
<pdfrwt beam="1">  1        2 0.78166271E-01 0.79232177E+02</pdfrwt>
<pdfrwt beam="2">  1       -1 0.47522260E-03 0.79232177E+02</pdfrwt>
<totfact> 0.31385124E+05</totfact>
</mgrwt>
</event>
<event>
 8    1  0.2676873E-024  0.8300654E+02  0.7818608E-02  0.1320730E+00
         -1   -1    0    0    0  501 -0.00000000000E+00  0.00000000000E+00  0.31280035522E+01  0.31280076126E+01  0.50400000000E-02 0.  1.
          2   -1    0    0  501    0  0.00000000000E+00 -0.00000000000E+00 -0.55067716833E+03  0.55067716834E+03  0.25500000000E-02 0. -1.
         24    2    1    2    0    0  0.00000000000E+00 -0.17763568394E-14 -0.54754916478E+03  0.55380517595E+03  0.83006536239E+02 0.  0.
         66    2    3    3    0    0 -0.76307326485E+01  0.13984749936E+02 -0.52944876980E+03  0.52969217584E+03  0.19999998523E+01 0.  0.
        -13    1    3    3    0    0  0.76307326485E+01 -0.13984749936E+02 -0.18100394980E+02  0.24113000103E+02  0.10566000000E+00 0.  1.
         13    1    4    4    0    0 -0.18712236055E+01  0.35562463269E+01 -0.13140530780E+03  0.13146678077E+03  0.10566000000E+00 0.  1.
        -13    1    4    4    0    0 -0.47895578798E+01  0.96034733759E+01 -0.36380690545E+03  0.36396516617E+03  0.10566000000E+00 0. -1.
        -14    1    4    4    0    0 -0.96995116320E+00  0.82503023308E+00 -0.34236556554E+02  0.34260228908E+02  0.00000000000E+00 0.  1.
<mgrwt>
<rscale>  0 0.83006536E+02</rscale>
<asrwt>0</asrwt>
<pdfrwt beam="1">  1        2 0.84719487E-01 0.83006536E+02</pdfrwt>
<pdfrwt beam="2">  1       -1 0.48123207E-03 0.83006536E+02</pdfrwt>
<totfact> 0.28495839E+05</totfact>
</mgrwt>
</event>
<event>
 8    1  0.2676873E-024  0.7871725E+02  0.7818608E-02  0.1332732E+00
         -1   -1    0    0    0  501 -0.00000000000E+00  0.00000000000E+00  0.66545555823E+01  0.66545574908E+01  0.50400000000E-02 0.  1.
          2   -1    0    0  501    0  0.00000000000E+00 -0.00000000000E+00 -0.23278806810E+03  0.23278806812E+03  0.25500000000E-02 0. -1.
         24    2    1    2    0    0  0.71054273576E-14  0.88817841970E-15 -0.22613351252E+03  0.23944262561E+03  0.78717250161E+02 0.  0.
         66    2    3    3    0    0 -0.34774406557E+02 -0.57828020081E+01 -0.60069280720E+02  0.69677963802E+02  0.20000007322E+01 0.  0.
        -13    1    3    3    0    0  0.34774406557E+02  0.57828020081E+01 -0.16606423180E+03  0.16976466180E+03  0.10566000000E+00 0.  1.
         13    1    4    4    0    0 -0.15382295702E+02 -0.17014545586E+01 -0.26857552980E+02  0.30997569014E+02  0.10566000000E+00 0. -1.
        -13    1    4    4    0    0 -0.17485399537E+02 -0.34794696418E+01 -0.29822709348E+02  0.34745518601E+02  0.10566000000E+00 0.  1.
         14    1    4    4    0    0 -0.19067113185E+01 -0.60187780773E+00 -0.33890183915E+01  0.39348761868E+01  0.00000000000E+00 0. -1.
<mgrwt>
<rscale>  0 0.78717250E+02</rscale>
<asrwt>0</asrwt>
<pdfrwt beam="1">  1        2 0.35813543E-01 0.78717250E+02</pdfrwt>
<pdfrwt beam="2">  1       -1 0.10237781E-02 0.78717250E+02</pdfrwt>
<totfact> 0.24278751E+05</totfact>
</mgrwt>
</event>
<event>
 8    1  0.2676873E-024  0.7212330E+02  0.7818608E-02  0.1353018E+00
          2   -1    0    0  501    0  0.00000000000E+00  0.00000000000E+00  0.83591061009E+02  0.83591061048E+02  0.25500000000E-02 0. -1.
         -1   -1    0    0    0  501 -0.00000000000E+00 -0.00000000000E+00 -0.15557197042E+02  0.15557197858E+02  0.50400000000E-02 0.  1.
         24    2    1    2    0    0  0.88817841970E-15  0.00000000000E+00  0.68033863967E+02  0.99148258906E+02  0.72123301351E+02 0.  0.
         66    2    3    3    0    0  0.33775583546E+01  0.29560672334E+02  0.61986970768E+02  0.68786814100E+02  0.19999999364E+01 0.  0.
        -13    1    3    3    0    0 -0.33775583546E+01 -0.29560672334E+02  0.60468931986E+01  0.30361444806E+02  0.10566000000E+00 0.  1.
         13    1    4    4    0    0  0.13028523259E+01  0.10156353951E+02  0.22496022972E+02  0.24717021733E+02  0.10566000000E+00 0. -1.
        -13    1    4    4    0    0  0.80437992589E+00  0.96796915795E+01  0.21052261663E+02  0.23185175033E+02  0.10566000000E+00 0.  1.
        -14    1    4    4    0    0  0.12703261029E+01  0.97246268042E+01  0.18438686133E+02  0.20884617334E+02  0.00000000000E+00 0.  1.
<mgrwt>
<rscale>  0 0.72123301E+02</rscale>
<asrwt>0</asrwt>
<pdfrwt beam="1">  1        2 0.12860163E-01 0.72123301E+02</pdfrwt>
<pdfrwt beam="2">  1       -1 0.23934150E-02 0.72123301E+02</pdfrwt>
<totfact> 0.22276368E+05</totfact>
</mgrwt>
</event>
<event>
 8    1  0.2676873E-024  0.8027929E+02  0.7818608E-02  0.1328261E+00
         -1   -1    0    0    0  501 -0.00000000000E+00  0.00000000000E+00  0.30803178159E+02  0.30803178571E+02  0.50400000000E-02 0.  1.
          2   -1    0    0  501    0  0.00000000000E+00 -0.00000000000E+00 -0.52305997649E+02  0.52305997711E+02  0.25500000000E-02 0. -1.
         24    2    1    2    0    0  0.88817841970E-15  0.00000000000E+00 -0.21502819490E+02  0.83109176282E+02  0.80279287094E+02 0.  0.
         66    2    3    3    0    0 -0.66620219255E+01  0.11988464075E+02 -0.49784129394E+02  0.51677512933E+02  0.19999990854E+01 0.  0.
        -13    1    3    3    0    0  0.66620219255E+01 -0.11988464075E+02  0.28281309904E+02  0.31431663350E+02  0.10566000000E+00 0.  1.
         13    1    4    4    0    0 -0.34797294760E+01  0.56514891371E+01 -0.24920487762E+02  0.25789333474E+02  0.10566000000E+00 0. -1.
        -13    1    4    4    0    0 -0.25119935642E+01  0.42882082057E+01 -0.15411192229E+02  0.16193049473E+02  0.10566000000E+00 0.  1.
        -14    1    4    4    0    0 -0.67029888520E+00  0.20487667319E+01 -0.94524494033E+01  0.96951299857E+01  0.00000000000E+00 0.  1.
<mgrwt>
<rscale>  0 0.80279287E+02</rscale>
<asrwt>0</asrwt>
<pdfrwt beam="1">  1        2 0.80470766E-02 0.80279287E+02</pdfrwt>
<pdfrwt beam="2">  1       -1 0.47389505E-02 0.80279287E+02</pdfrwt>
<totfact> 0.14948225E+05</totfact>
</mgrwt>
</event>
<event>
 8    1  0.2676873E-024  0.8029515E+02  0.7818608E-02  0.1328216E+00
          2   -1    0    0  501    0  0.00000000000E+00  0.00000000000E+00  0.34098448339E+03  0.34098448340E+03  0.25500000000E-02 0. -1.
         -1   -1    0    0    0  501 -0.00000000000E+00 -0.00000000000E+00 -0.47269816298E+01  0.47269843167E+01  0.50400000000E-02 0.  1.
         24    2    1    2    0    0  0.00000000000E+00  0.00000000000E+00  0.33625750176E+03  0.34571146771E+03  0.80295151911E+02 0.  0.
         66    2    3    3    0    0  0.38733742672E+02  0.46737587124E+01  0.12791793108E+03  0.13375030449E+03  0.20000042327E+01 0.  0.
        -13    1    3    3    0    0 -0.38733742672E+02 -0.46737587124E+01  0.20833957068E+03  0.21196116323E+03  0.10566000000E+00 0.  1.
         13    1    4    4    0    0  0.16743839435E+02  0.25945394218E+01  0.55337364396E+02  0.57873334586E+02  0.10566000000E+00 0. -1.
        -13    1    4    4    0    0  0.51058352789E+01  0.51368358799E+00  0.18663790556E+02  0.19356695655E+02  0.10566000000E+00 0.  1.
         14    1    4    4    0    0  0.16884067958E+02  0.15655357026E+01  0.53916776127E+02  0.56520274246E+02  0.00000000000E+00 0. -1.
<mgrwt>
<rscale>  0 0.80295152E+02</rscale>
<asrwt>0</asrwt>
<pdfrwt beam="1">  1        2 0.52459149E-01 0.80295152E+02</pdfrwt>
<pdfrwt beam="2">  1       -1 0.72722818E-03 0.80295152E+02</pdfrwt>
<totfact> 0.26443027E+05</totfact>
</mgrwt>
</event>
<event>
 8    1  0.2676873E-024  0.7508003E+02  0.7818608E-02  0.1343623E+00
         -1   -1    0    0    0  501 -0.00000000000E+00  0.00000000000E+00  0.87155289739E+02  0.87155289885E+02  0.50400000000E-02 0.  1.
          2   -1    0    0  501    0  0.00000000000E+00 -0.00000000000E+00 -0.16169446695E+02  0.16169446897E+02  0.25500000000E-02 0. -1.
         24    2    1    2    0    0 -0.35527136788E-14 -0.17763568394E-14  0.70985843044E+02  0.10332473678E+03  0.75080032754E+02 0.  0.
         66    2    3    3    0    0  0.19307300342E+02  0.65173459670E+01 -0.78266388396E+01  0.21920399614E+02  0.19999996955E+01 0.  0.
        -13    1    3    3    0    0 -0.19307300342E+02 -0.65173459670E+01  0.78812481884E+02  0.81404337167E+02  0.10566000000E+00 0.  1.
         13    1    4    4    0    0  0.54581796169E+01  0.16863759524E+01 -0.20442394823E+01  0.60684155823E+01  0.10566000000E+00 0. -1.
        -13    1    4    4    0    0  0.88182788274E+01  0.26359192015E+01 -0.28887454428E+01  0.96470786139E+01  0.10566000000E+00 0.  1.
         14    1    4    4    0    0  0.50308418977E+01  0.21950508131E+01 -0.28936539146E+01  0.62049054182E+01  0.00000000000E+00 0. -1.
<mgrwt>
<rscale>  0 0.75080033E+02</rscale>
<asrwt>0</asrwt>
<pdfrwt beam="1">  1        2 0.24876072E-02 0.75080033E+02</pdfrwt>
<pdfrwt beam="2">  1       -1 0.13408506E-01 0.75080033E+02</pdfrwt>
<totfact> 0.14278481E+05</totfact>
</mgrwt>
</event>
<event>
 8    1  0.2676873E-024  0.8128691E+02  0.7818608E-02  0.1325439E+00
         -1   -1    0    0    0  501 -0.00000000000E+00  0.00000000000E+00  0.61832518472E+01  0.61832539013E+01  0.50400000000E-02 0.  1.
          2   -1    0    0  501    0  0.00000000000E+00 -0.00000000000E+00 -0.26715557973E+03  0.26715557974E+03  0.25500000000E-02 0. -1.
         24    2    1    2    0    0 -0.88817841970E-15  0.71054273576E-14 -0.26097232788E+03  0.27333883364E+03  0.81286911965E+02 0.  0.
         66    2    3    3    0    0  0.50655104605E+01 -0.39917937763E+02 -0.14922211139E+03  0.15456500150E+03  0.20000024658E+01 0.  0.
        -13    1    3    3    0    0 -0.50655104605E+01  0.39917937763E+02 -0.11175021649E+03  0.11877383214E+03  0.10566000000E+00 0.  1.
         13    1    4    4    0    0  0.22320171785E+01 -0.12260572066E+02 -0.47340938306E+02  0.48953846957E+02  0.10566000000E+00 0. -1.
        -13    1    4    4    0    0  0.15909746584E-01 -0.74961953981E+00 -0.23936693469E+01  0.25105775336E+01  0.10566000000E+00 0.  1.
        -14    1    4    4    0    0  0.28175835353E+01 -0.26907746157E+02 -0.99487503737E+02  0.10310057701E+03  0.00000000000E+00 0.  1.
<mgrwt>
<rscale>  0 0.81286912E+02</rscale>
<asrwt>0</asrwt>
<pdfrwt beam="1">  1        2 0.41100850E-01 0.81286912E+02</pdfrwt>
<pdfrwt beam="2">  1       -1 0.95126988E-03 0.81286912E+02</pdfrwt>
<totfact> 0.23441879E+05</totfact>
</mgrwt>
</event>
<event>
 8    1  0.2676873E-024  0.7891538E+02  0.7818608E-02  0.1332158E+00
          2   -1    0    0  501    0  0.00000000000E+00  0.00000000000E+00  0.14622955002E+03  0.14622955005E+03  0.25500000000E-02 0. -1.
         -1   -1    0    0    0  501 -0.00000000000E+00 -0.00000000000E+00 -0.10647023087E+02  0.10647024280E+02  0.50400000000E-02 0.  1.
         24    2    1    2    0    0  0.00000000000E+00  0.00000000000E+00  0.13558252694E+03  0.15687657433E+03  0.78915384822E+02 0.  0.
         66    2    3    3    0    0 -0.18677036947E+02 -0.33527780128E+02  0.85831658442E+02  0.94042635810E+02  0.20000024228E+01 0.  0.
        -13    1    3    3    0    0  0.18677036947E+02  0.33527780128E+02  0.49750868496E+02  0.62833938517E+02  0.10566000000E+00 0.  1.
         13    1    4    4    0    0 -0.10433205590E+02 -0.17310770702E+02  0.44805186256E+02  0.49153132562E+02  0.10566000000E+00 0. -1.
        -13    1    4    4    0    0 -0.43947699510E+01 -0.94312477689E+01  0.24220855166E+02  0.26361400312E+02  0.10566000000E+00 0.  1.
        -14    1    4    4    0    0 -0.38490614062E+01 -0.67857616578E+01  0.16805617020E+02  0.18528102936E+02  0.00000000000E+00 0.  1.
<mgrwt>
<rscale>  0 0.78915385E+02</rscale>
<asrwt>0</asrwt>
<pdfrwt beam="1">  1        2 0.22496852E-01 0.78915385E+02</pdfrwt>
<pdfrwt beam="2">  1       -1 0.16380038E-02 0.78915385E+02</pdfrwt>
<totfact> 0.20599630E+05</totfact>
</mgrwt>
</event>
<event>
 8    1  0.2676873E-024  0.7853077E+02  0.7818608E-02  0.1333273E+00
         -1   -1    0    0    0  501 -0.00000000000E+00  0.00000000000E+00  0.53967483512E+01  0.53967507046E+01  0.50400000000E-02 0.  1.
          2   -1    0    0  501    0  0.00000000000E+00 -0.00000000000E+00 -0.28568503569E+03  0.28568503570E+03  0.25500000000E-02 0. -1.
         24    2    1    2    0    0  0.00000000000E+00  0.00000000000E+00 -0.28028828734E+03  0.29108178640E+03  0.78530773318E+02 0.  0.
         66    2    3    3    0    0  0.90068831101E+01 -0.19981388539E+02 -0.26087781799E+03  0.26180453729E+03  0.19999990262E+01 0.  0.
        -13    1    3    3    0    0 -0.90068831101E+01  0.19981388539E+02 -0.19410469349E+02  0.29277249114E+02  0.10566000000E+00 0.  1.
         13    1    4    4    0    0  0.50562978778E+01 -0.10419182509E+02 -0.12746021722E+03  0.12798532592E+03  0.10566000000E+00 0. -1.
        -13    1    4    4    0    0  0.23670554137E+01 -0.63689960320E+01 -0.87339831366E+02  0.87603791978E+02  0.10566000000E+00 0.  1.
         14    1    4    4    0    0  0.15835298186E+01 -0.31932099984E+01 -0.46077769400E+02  0.46215419393E+02  0.00000000000E+00 0. -1.
<mgrwt>
<rscale>  0 0.78530773E+02</rscale>
<asrwt>0</asrwt>
<pdfrwt beam="1">  1        2 0.43951532E-01 0.78530773E+02</pdfrwt>
<pdfrwt beam="2">  1       -1 0.83026938E-03 0.78530773E+02</pdfrwt>
<totfact> 0.26293901E+05</totfact>
</mgrwt>
</event>
<event>
 8    1  0.2676873E-024  0.7679862E+02  0.7818608E-02  0.1338390E+00
         -1   -1    0    0    0  501 -0.00000000000E+00  0.00000000000E+00  0.15550444672E+01  0.15550526346E+01  0.50400000000E-02 0.  1.
          2   -1    0    0  501    0  0.00000000000E+00 -0.00000000000E+00 -0.94820648701E+03  0.94820648702E+03  0.25500000000E-02 0. -1.
         24    2    1    2    0    0  0.17763568394E-14  0.35527136788E-14 -0.94665144255E+03  0.94976153965E+03  0.76798623206E+02 0.  0.
         66    2    3    3    0    0 -0.10601251785E+02 -0.16578931940E+02 -0.88105142016E+03  0.88127342663E+03  0.20000001334E+01 0.  0.
        -13    1    3    3    0    0  0.10601251785E+02  0.16578931940E+02 -0.65600022387E+02  0.68488113018E+02  0.10566000000E+00 0.  1.
         13    1    4    4    0    0 -0.29685805366E+00 -0.43647107025E+00 -0.36608441720E+02  0.36612399551E+02  0.10566000000E+00 0.  1.
        -13    1    4    4    0    0 -0.20296004788E+01 -0.25178757178E+01 -0.15543864479E+03  0.15547232048E+03  0.10566000000E+00 0. -1.
         14    1    4    4    0    0 -0.82747932521E+01 -0.13624585152E+02 -0.68900433365E+03  0.68918870660E+03  0.00000000000E+00 0. -1.
<mgrwt>
<rscale>  0 0.76798623E+02</rscale>
<asrwt>0</asrwt>
<pdfrwt beam="1">  1        2 0.14587746E+00 0.76798623E+02</pdfrwt>
<pdfrwt beam="2">  1       -1 0.23923900E-03 0.76798623E+02</pdfrwt>
<totfact> 0.39038415E+05</totfact>
</mgrwt>
</event>
<event>
 8    1  0.2676873E-024  0.7947309E+02  0.7818608E-02  0.1330553E+00
          2   -1    0    0  501    0  0.00000000000E+00  0.00000000000E+00  0.57991720011E+03  0.57991720011E+03  0.25500000000E-02 0. -1.
         -1   -1    0    0    0  501 -0.00000000000E+00 -0.00000000000E+00 -0.27227880961E+01  0.27227927607E+01  0.50400000000E-02 0.  1.
         24    2    1    2    0    0  0.17763568394E-14  0.00000000000E+00  0.57719441201E+03  0.58263999287E+03  0.79473090029E+02 0.  0.
         66    2    3    3    0    0  0.13668973004E+02 -0.33388063993E+01  0.56102594265E+03  0.56120593080E+03  0.19999992545E+01 0.  0.
        -13    1    3    3    0    0 -0.13668973004E+02  0.33388063993E+01  0.16168469367E+02  0.21434062071E+02  0.10566000000E+00 0.  1.
         13    1    4    4    0    0  0.56813224463E+01 -0.16112155038E+01  0.21081566776E+03  0.21089838875E+03  0.10566000000E+00 0. -1.
        -13    1    4    4    0    0  0.31846557334E+01 -0.11970250565E+01  0.13333061097E+03  0.13337405252E+03  0.10566000000E+00 0.  1.
         14    1    4    4    0    0  0.48029948243E+01 -0.53056583891E+00  0.21687966393E+03  0.21693348954E+03  0.00000000000E+00 0. -1.
<mgrwt>
<rscale>  0 0.79473090E+02</rscale>
<asrwt>0</asrwt>
<pdfrwt beam="1">  1        2 0.89218183E-01 0.79473090E+02</pdfrwt>
<pdfrwt beam="2">  1       -1 0.41889012E-03 0.79473090E+02</pdfrwt>
<totfact> 0.32407722E+05</totfact>
</mgrwt>
</event>
<event>
 8    1  0.2676873E-024  0.8236418E+02  0.7818608E-02  0.1322473E+00
         -1   -1    0    0    0  501 -0.00000000000E+00  0.00000000000E+00  0.49254863747E+02  0.49254864005E+02  0.50400000000E-02 0.  1.
          2   -1    0    0  501    0  0.00000000000E+00 -0.00000000000E+00 -0.34432431294E+02  0.34432431389E+02  0.25500000000E-02 0. -1.
         24    2    1    2    0    0  0.00000000000E+00 -0.71054273576E-14  0.14822432453E+02  0.83687295394E+02  0.82364184610E+02 0.  0.
         66    2    3    3    0    0  0.17706936261E+02 -0.24416676176E+02 -0.21038759245E+02  0.36828508584E+02  0.19999966738E+01 0.  0.
        -13    1    3    3    0    0 -0.17706936261E+02  0.24416676176E+02  0.35861191698E+02  0.46858786810E+02  0.10566000000E+00 0.  1.
         13    1    4    4    0    0  0.23079443388E+01 -0.27094332473E+01 -0.19312433143E+01  0.40507407183E+01  0.10566000000E+00 0. -1.
        -13    1    4    4    0    0  0.29332176445E+01 -0.48021332362E+01 -0.40077255156E+01  0.69092168306E+01  0.10566000000E+00 0. -1.
         14    1    4    4    0    0  0.12465774277E+02 -0.16905109693E+02 -0.15099790416E+02  0.25868551035E+02  0.00000000000E+00 0. -1.
<mgrwt>
<rscale>  0 0.82364185E+02</rscale>
<asrwt>0</asrwt>
<pdfrwt beam="1">  1        2 0.52972971E-02 0.82364185E+02</pdfrwt>
<pdfrwt beam="2">  1       -1 0.75776714E-02 0.82364185E+02</pdfrwt>
<totfact> 0.12749286E+05</totfact>
</mgrwt>
</event>
<event>
 8    1  0.2676873E-024  0.8278425E+02  0.7818608E-02  0.1321331E+00
         -1   -1    0    0    0  501 -0.00000000000E+00  0.00000000000E+00  0.19993058810E+02  0.19993059446E+02  0.50400000000E-02 0.  1.
          2   -1    0    0  501    0  0.00000000000E+00 -0.00000000000E+00 -0.85695131820E+02  0.85695131858E+02  0.25500000000E-02 0. -1.
         24    2    1    2    0    0  0.00000000000E+00  0.00000000000E+00 -0.65702073009E+02  0.10568819130E+03  0.82784245984E+02 0.  0.
         66    2    3    3    0    0 -0.60610411068E+01  0.25751223103E+02 -0.73472311001E+02  0.78115569500E+02  0.20000009811E+01 0.  0.
        -13    1    3    3    0    0  0.60610411068E+01 -0.25751223103E+02  0.77702379918E+01  0.27572621803E+02  0.10566000000E+00 0.  1.
         13    1    4    4    0    0 -0.16126878025E+01  0.78524122176E+01 -0.21592910976E+02  0.23033152368E+02  0.10566000000E+00 0. -1.
        -13    1    4    4    0    0  0.88657219291E-01  0.39657918450E+00 -0.94600199328E+00  0.10349970816E+01  0.10566000000E+00 0.  1.
         14    1    4    4    0    0 -0.45370105236E+01  0.17502231701E+02 -0.50933398032E+02  0.54047420050E+02  0.00000000000E+00 0. -1.
<mgrwt>
<rscale>  0 0.82784246E+02</rscale>
<asrwt>0</asrwt>
<pdfrwt beam="1">  1        2 0.13183866E-01 0.82784246E+02</pdfrwt>
<pdfrwt beam="2">  1       -1 0.30758553E-02 0.82784246E+02</pdfrwt>
<totfact> 0.15499635E+05</totfact>
</mgrwt>
</event>
<event>
 8    1  0.2676873E-024  0.8192459E+02  0.7818608E-02  0.1323677E+00
          2   -1    0    0  501    0  0.00000000000E+00  0.00000000000E+00  0.19551431530E+02  0.19551431696E+02  0.25500000000E-02 0. -1.
         -1   -1    0    0    0  501 -0.00000000000E+00 -0.00000000000E+00 -0.85820299825E+02  0.85820299973E+02  0.50400000000E-02 0.  1.
         24    2    1    2    0    0  0.00000000000E+00  0.00000000000E+00 -0.66268868295E+02  0.10537173167E+03  0.81924592949E+02 0.  0.
         66    2    3    3    0    0 -0.83209674836E+01 -0.39663403293E+02 -0.40596423188E+02  0.57397679699E+02  0.19999996471E+01 0.  0.
        -13    1    3    3    0    0  0.83209674836E+01  0.39663403293E+02 -0.25672445107E+02  0.47974051970E+02  0.10566000000E+00 0.  1.
         13    1    4    4    0    0 -0.50392161332E+01 -0.24308950476E+02 -0.25581069532E+02  0.35647174572E+02  0.10566000000E+00 0. -1.
        -13    1    4    4    0    0 -0.62487146371E+00 -0.52201382373E+01 -0.51212337573E+01  0.73401980079E+01  0.10566000000E+00 0.  1.
         14    1    4    4    0    0 -0.26568798866E+01 -0.10134314579E+02 -0.98941198981E+01  0.14410307119E+02  0.00000000000E+00 0. -1.
<mgrwt>
<rscale>  0 0.81924593E+02</rscale>
<asrwt>0</asrwt>
<pdfrwt beam="1">  1        2 0.30079126E-02 0.81924593E+02</pdfrwt>
<pdfrwt beam="2">  1       -1 0.13203123E-01 0.81924593E+02</pdfrwt>
<totfact> 0.11539808E+05</totfact>
</mgrwt>
</event>
<event>
 8    1  0.2676873E-024  0.7893685E+02  0.7818608E-02  0.1332096E+00
         -1   -1    0    0    0  501 -0.00000000000E+00  0.00000000000E+00  0.13843020250E+02  0.13843021168E+02  0.50400000000E-02 0.  1.
          2   -1    0    0  501    0  0.00000000000E+00 -0.00000000000E+00 -0.11253010091E+03  0.11253010094E+03  0.25500000000E-02 0. -1.
         24    2    1    2    0    0 -0.71054273576E-14  0.00000000000E+00 -0.98687080662E+02  0.12637312211E+03  0.78936848822E+02 0.  0.
         66    2    3    3    0    0 -0.38318740456E+02  0.55676610796E+00 -0.34432629954E+02  0.51558140598E+02  0.19999994372E+01 0.  0.
        -13    1    3    3    0    0  0.38318740456E+02 -0.55676610796E+00 -0.64254450708E+02  0.74814981510E+02  0.10566000000E+00 0.  1.
         13    1    4    4    0    0 -0.14776614467E+02 -0.10860929121E+00 -0.14308122532E+02  0.20569240761E+02  0.10566000000E+00 0. -1.
        -13    1    4    4    0    0 -0.12634145191E+02  0.71626698806E+00 -0.11017888747E+02  0.16779144781E+02  0.10566000000E+00 0.  1.
        -14    1    4    4    0    0 -0.10907980798E+02 -0.50891588887E-01 -0.91066186755E+01  0.14209755056E+02  0.00000000000E+00 0.  1.
<mgrwt>
<rscale>  0 0.78936849E+02</rscale>
<asrwt>0</asrwt>
<pdfrwt beam="1">  1        2 0.17312323E-01 0.78936849E+02</pdfrwt>
<pdfrwt beam="2">  1       -1 0.21296956E-02 0.78936849E+02</pdfrwt>
<totfact> 0.19001246E+05</totfact>
</mgrwt>
</event>
<event>
 8    1  0.2676873E-024  0.8283927E+02  0.7818608E-02  0.1321182E+00
          2   -1    0    0  501    0  0.00000000000E+00  0.00000000000E+00  0.16903882953E+02  0.16903883145E+02  0.25500000000E-02 0. -1.
         -1   -1    0    0    0  501 -0.00000000000E+00 -0.00000000000E+00 -0.10149065756E+03  0.10149065769E+03  0.50400000000E-02 0.  1.
         24    2    1    2    0    0  0.00000000000E+00 -0.35527136788E-14 -0.84586774612E+02  0.11839454083E+03  0.82839271244E+02 0.  0.
         66    2    3    3    0    0  0.34802567025E+02  0.21683584835E+02 -0.34209852535E+02  0.53438848515E+02  0.19999993143E+01 0.  0.
        -13    1    3    3    0    0 -0.34802567025E+02 -0.21683584835E+02 -0.50376922076E+02  0.64955692320E+02  0.10566000000E+00 0.  1.
         13    1    4    4    0    0  0.13371436969E+02  0.78824688706E+01 -0.12648467104E+02  0.20023074845E+02  0.10566000000E+00 0. -1.
        -13    1    4    4    0    0  0.18231086424E+02  0.12211245177E+02 -0.18897735120E+02  0.28958980950E+02  0.10566000000E+00 0.  1.
        -14    1    4    4    0    0  0.32000436325E+01  0.15898707880E+01 -0.26636503105E+01  0.44567927199E+01  0.00000000000E+00 0.  1.
<mgrwt>
<rscale>  0 0.82839271E+02</rscale>
<asrwt>0</asrwt>
<pdfrwt beam="1">  1        2 0.26005975E-02 0.82839271E+02</pdfrwt>
<pdfrwt beam="2">  1       -1 0.15613947E-01 0.82839271E+02</pdfrwt>
<totfact> 0.10831188E+05</totfact>
</mgrwt>
</event>
<event>
 8    1  0.2676873E-024  0.8084301E+02  0.7818608E-02  0.1326676E+00
         -1   -1    0    0    0  501 -0.00000000000E+00  0.00000000000E+00  0.15998615368E+02  0.15998616162E+02  0.50400000000E-02 0.  1.
          2   -1    0    0  501    0  0.00000000000E+00 -0.00000000000E+00 -0.10212745664E+03  0.10212745667E+03  0.25500000000E-02 0. -1.
         24    2    1    2    0    0 -0.35527136788E-14  0.00000000000E+00 -0.86128841271E+02  0.11812607283E+03  0.80843007022E+02 0.  0.
         66    2    3    3    0    0  0.21704383128E+02  0.27790507724E+02 -0.71891138844E+02  0.80098242222E+02  0.19999990600E+01 0.  0.
        -13    1    3    3    0    0 -0.21704383128E+02 -0.27790507724E+02 -0.14237702427E+02  0.38027830611E+02  0.10566000000E+00 0.  1.
         13    1    4    4    0    0  0.82232004620E+01  0.11048832356E+02 -0.27997449270E+02  0.31202019997E+02  0.10566000000E+00 0. -1.
        -13    1    4    4    0    0  0.62802934374E+01  0.81444777462E+01 -0.19420203902E+02  0.21975670344E+02  0.10566000000E+00 0.  1.
        -14    1    4    4    0    0  0.72008892289E+01  0.85971976224E+01 -0.24473485672E+02  0.26920551882E+02  0.00000000000E+00 0.  1.
<mgrwt>
<rscale>  0 0.80843007E+02</rscale>
<asrwt>0</asrwt>
<pdfrwt beam="1">  1        2 0.15711916E-01 0.80843007E+02</pdfrwt>
<pdfrwt beam="2">  1       -1 0.24613256E-02 0.80843007E+02</pdfrwt>
<totfact> 0.17337231E+05</totfact>
</mgrwt>
</event>
<event>
 8    1  0.2676873E-024  0.8066726E+02  0.7818608E-02  0.1327168E+00
         -1   -1    0    0    0  501 -0.00000000000E+00  0.00000000000E+00  0.35926866332E+02  0.35926866686E+02  0.50400000000E-02 0.  1.
          2   -1    0    0  501    0  0.00000000000E+00 -0.00000000000E+00 -0.45280924172E+02  0.45280924244E+02  0.25500000000E-02 0. -1.
         24    2    1    2    0    0  0.00000000000E+00 -0.71054273576E-14 -0.93540578398E+01  0.81207790930E+02  0.80667260457E+02 0.  0.
         66    2    3    3    0    0 -0.34537943576E+01  0.32654058698E+02 -0.28215614357E+02  0.43339786979E+02  0.19999992222E+01 0.  0.
        -13    1    3    3    0    0  0.34537943576E+01 -0.32654058698E+02  0.18861556517E+02  0.37868003951E+02  0.10566000000E+00 0.  1.
         13    1    4    4    0    0 -0.74309529989E+00  0.38280056008E+01 -0.34174276201E+01  0.51861154131E+01  0.10566000000E+00 0. -1.
        -13    1    4    4    0    0 -0.14174881396E+01  0.77503376167E+01 -0.66152861214E+01  0.10288351681E+02  0.10566000000E+00 0.  1.
         14    1    4    4    0    0 -0.12932109181E+01  0.21075715481E+02 -0.18182900616E+02  0.27865319885E+02  0.00000000000E+00 0. -1.
<mgrwt>
<rscale>  0 0.80667260E+02</rscale>
<asrwt>0</asrwt>
<pdfrwt beam="1">  1        2 0.69662961E-02 0.80667260E+02</pdfrwt>
<pdfrwt beam="2">  1       -1 0.55272102E-02 0.80667260E+02</pdfrwt>
<totfact> 0.14297923E+05</totfact>
</mgrwt>
</event>
<event>
 8    1  0.2676873E-024  0.8894233E+02  0.7818608E-02  0.1305433E+00
          2   -1    0    0  501    0  0.00000000000E+00  0.00000000000E+00  0.25783852757E+03  0.25783852758E+03  0.25500000000E-02 0. -1.
         -1   -1    0    0    0  501 -0.00000000000E+00 -0.00000000000E+00 -0.76702440192E+01  0.76702456750E+01  0.50400000000E-02 0.  1.
         24    2    1    2    0    0 -0.71054273576E-14  0.00000000000E+00  0.25016828355E+03  0.26550877325E+03  0.88942332901E+02 0.  0.
         66    2    3    3    0    0 -0.28597777787E+02 -0.33579723237E+02  0.10872904025E+03  0.11735175717E+03  0.20000024351E+01 0.  0.
        -13    1    3    3    0    0  0.28597777787E+02  0.33579723237E+02  0.14143924330E+03  0.14815701609E+03  0.10566000000E+00 0.  1.
         13    1    4    4    0    0 -0.52356385486E+00 -0.85955459414E+00  0.26705411359E+01  0.28558548991E+01  0.10566000000E+00 0.  1.
        -13    1    4    4    0    0 -0.53623396060E+01 -0.62251428076E+01  0.21752093675E+02  0.23252351113E+02  0.10566000000E+00 0.  1.
         14    1    4    4    0    0 -0.22711874326E+02 -0.26495025835E+02  0.84306405440E+02  0.91243551157E+02  0.00000000000E+00 0. -1.
<mgrwt>
<rscale>  0 0.88942333E+02</rscale>
<asrwt>0</asrwt>
<pdfrwt beam="1">  1        2 0.39667456E-01 0.88942333E+02</pdfrwt>
<pdfrwt beam="2">  1       -1 0.11800380E-02 0.88942333E+02</pdfrwt>
<totfact> 0.18241711E+05</totfact>
</mgrwt>
</event>
<event>
 8    1  0.2676873E-024  0.8176063E+02  0.7818608E-02  0.1324128E+00
         -1   -1    0    0    0  501 -0.00000000000E+00  0.00000000000E+00  0.51655031091E+01  0.51655055679E+01  0.50400000000E-02 0.  1.
          2   -1    0    0  501    0  0.00000000000E+00 -0.00000000000E+00 -0.32353090876E+03  0.32353090877E+03  0.25500000000E-02 0. -1.
         24    2    1    2    0    0  0.00000000000E+00  0.00000000000E+00 -0.31836540565E+03  0.32869641434E+03  0.81760634069E+02 0.  0.
         66    2    3    3    0    0  0.87089431623E+01  0.18064292233E+02 -0.30237923627E+03  0.30305010621E+03  0.20000011756E+01 0.  0.
        -13    1    3    3    0    0 -0.87089431623E+01 -0.18064292233E+02 -0.15986169384E+02  0.25646308126E+02  0.10566000000E+00 0.  1.
         13    1    4    4    0    0  0.44286058909E+01  0.95327769812E+01 -0.16289664677E+03  0.16323545902E+03  0.10566000000E+00 0. -1.
        -13    1    4    4    0    0  0.24797225734E+01  0.35652364857E+01 -0.64847236351E+02  0.64992577742E+02  0.10566000000E+00 0.  1.
        -14    1    4    4    0    0  0.18006146980E+01  0.49662787664E+01 -0.74635353147E+02  0.74822069454E+02  0.00000000000E+00 0.  1.
<mgrwt>
<rscale>  0 0.81760634E+02</rscale>
<asrwt>0</asrwt>
<pdfrwt beam="1">  1        2 0.49773970E-01 0.81760634E+02</pdfrwt>
<pdfrwt beam="2">  1       -1 0.79469323E-03 0.81760634E+02</pdfrwt>
<totfact> 0.24746147E+05</totfact>
</mgrwt>
</event>
<event>
 8    1  0.2676873E-024  0.7798174E+02  0.7818608E-02  0.1334879E+00
          2   -1    0    0  501    0  0.00000000000E+00  0.00000000000E+00  0.32042121295E+03  0.32042121296E+03  0.25500000000E-02 0. -1.
         -1   -1    0    0    0  501 -0.00000000000E+00 -0.00000000000E+00 -0.47446526558E+01  0.47446553327E+01  0.50400000000E-02 0.  1.
         24    2    1    2    0    0  0.00000000000E+00  0.00000000000E+00  0.31567656029E+03  0.32516586829E+03  0.77981736217E+02 0.  0.
         66    2    3    3    0    0  0.38478639009E+02  0.11924242455E+00  0.13235186221E+03  0.13784641930E+03  0.20000012534E+01 0.  0.
        -13    1    3    3    0    0 -0.38478639009E+02 -0.11924242455E+00  0.18332469808E+03  0.18731944898E+03  0.10566000000E+00 0.  1.
         13    1    4    4    0    0  0.15632172342E+02  0.60521047984E+00  0.54566089140E+02  0.56764428474E+02  0.10566000000E+00 0. -1.
        -13    1    4    4    0    0  0.31384682965E+01 -0.44481472689E+00  0.11319436238E+02  0.11755366612E+02  0.10566000000E+00 0.  1.
         14    1    4    4    0    0  0.19707998371E+02 -0.41153328400E-01  0.66466336833E+02  0.69326624218E+02  0.00000000000E+00 0. -1.
<mgrwt>
<rscale>  0 0.77981736E+02</rscale>
<asrwt>0</asrwt>
<pdfrwt beam="1">  1        2 0.49295576E-01 0.77981736E+02</pdfrwt>
<pdfrwt beam="2">  1       -1 0.72994670E-03 0.77981736E+02</pdfrwt>
<totfact> 0.27913589E+05</totfact>
</mgrwt>
</event>
<event>
 8    1  0.2676873E-024  0.7890857E+02  0.7818608E-02  0.1332178E+00
         -1   -1    0    0    0  501 -0.00000000000E+00  0.00000000000E+00  0.12306583837E+01  0.12306687040E+01  0.50400000000E-02 0.  1.
          2   -1    0    0  501    0  0.00000000000E+00 -0.00000000000E+00 -0.12648792344E+04  0.12648792344E+04  0.25500000000E-02 0. -1.
         24    2    1    2    0    0  0.00000000000E+00 -0.17763568394E-14 -0.12636485761E+04  0.12661099032E+04  0.78908574164E+02 0.  0.
         66    2    3    3    0    0 -0.19590314353E+02  0.13741237540E+02 -0.11350465949E+04  0.11353005658E+04  0.19999998402E+01 0.  0.
        -13    1    3    3    0    0  0.19590314353E+02 -0.13741237540E+02 -0.12860198113E+03  0.13080933736E+03  0.10566000000E+00 0.  1.
         13    1    4    4    0    0 -0.26353034445E+00  0.88922081925E-01 -0.11835451683E+02  0.11839190680E+02  0.10566000000E+00 0. -1.
        -13    1    4    4    0    0 -0.61083084684E+01  0.35108682638E+01 -0.34297575688E+03  0.34304812869E+03  0.10566000000E+00 0.  1.
         14    1    4    4    0    0 -0.13218475540E+02  0.10141447195E+02 -0.78023538637E+03  0.78041324642E+03  0.00000000000E+00 0. -1.
<mgrwt>
<rscale>  0 0.78908574E+02</rscale>
<asrwt>0</asrwt>
<pdfrwt beam="1">  1        2 0.19459577E+00 0.78908574E+02</pdfrwt>
<pdfrwt beam="2">  1       -1 0.18933387E-03 0.78908574E+02</pdfrwt>
<totfact> 0.36049173E+05</totfact>
</mgrwt>
</event>
<event>
 8    1  0.2676873E-024  0.8023913E+02  0.7818608E-02  0.1328374E+00
         -1   -1    0    0    0  501 -0.00000000000E+00  0.00000000000E+00  0.34157645844E+01  0.34157683027E+01  0.50400000000E-02 0.  1.
          2   -1    0    0  501    0  0.00000000000E+00 -0.00000000000E+00 -0.47122058082E+03  0.47122058083E+03  0.25500000000E-02 0. -1.
         24    2    1    2    0    0  0.00000000000E+00  0.00000000000E+00 -0.46780481624E+03  0.47463634913E+03  0.80239128994E+02 0.  0.
         66    2    3    3    0    0 -0.62102870062E+00 -0.37825345733E+02 -0.31261854592E+03  0.31490553772E+03  0.19999935784E+01 0.  0.
        -13    1    3    3    0    0  0.62102870062E+00  0.37825345733E+02 -0.15518627031E+03  0.15973081141E+03  0.10566000000E+00 0.  1.
         13    1    4    4    0    0 -0.17034394541E+00 -0.29052177464E+01 -0.24348316122E+02  0.24521846775E+02  0.10566000000E+00 0. -1.
        -13    1    4    4    0    0 -0.93064735317E+00 -0.10110137784E+02 -0.82039126825E+02  0.82665049959E+02  0.10566000000E+00 0.  1.
        -14    1    4    4    0    0  0.47996259795E+00 -0.24809990203E+02 -0.20623110298E+03  0.20771864098E+03  0.00000000000E+00 0.  1.
<mgrwt>
<rscale>  0 0.80239129E+02</rscale>
<asrwt>0</asrwt>
<pdfrwt beam="1">  1        2 0.72495423E-01 0.80239129E+02</pdfrwt>
<pdfrwt beam="2">  1       -1 0.52550290E-03 0.80239129E+02</pdfrwt>
<totfact> 0.29640726E+05</totfact>
</mgrwt>
</event>
<event>
 8    1  0.2676873E-024  0.7810662E+02  0.7818608E-02  0.1334512E+00
         -1   -1    0    0    0  501 -0.00000000000E+00  0.00000000000E+00  0.25871849855E+02  0.25871850346E+02  0.50400000000E-02 0.  1.
          2   -1    0    0  501    0  0.00000000000E+00 -0.00000000000E+00 -0.58950590838E+02  0.58950590893E+02  0.25500000000E-02 0. -1.
         24    2    1    2    0    0 -0.35527136788E-14  0.00000000000E+00 -0.33078740983E+02  0.84822441239E+02  0.78106615807E+02 0.  0.
         66    2    3    3    0    0  0.25818571077E+02 -0.20689183669E+02 -0.39030684150E+02  0.51205812544E+02  0.19999999569E+01 0.  0.
        -13    1    3    3    0    0 -0.25818571077E+02  0.20689183669E+02  0.59519431663E+01  0.33616628695E+02  0.10566000000E+00 0.  1.
         13    1    4    4    0    0  0.62173759468E+01 -0.46550436159E+01 -0.90345525255E+01  0.11914675745E+02  0.10566000000E+00 0. -1.
        -13    1    4    4    0    0  0.97792792228E+01 -0.90301554928E+01 -0.16037476876E+02  0.20842020989E+02  0.10566000000E+00 0.  1.
         14    1    4    4    0    0  0.98219159072E+01 -0.70039845601E+01 -0.13958654748E+02  0.18449115810E+02  0.00000000000E+00 0. -1.
<mgrwt>
<rscale>  0 0.78106616E+02</rscale>
<asrwt>0</asrwt>
<pdfrwt beam="1">  1        2 0.90693216E-02 0.78106616E+02</pdfrwt>
<pdfrwt beam="2">  1       -1 0.39802847E-02 0.78106616E+02</pdfrwt>
<totfact> 0.16545898E+05</totfact>
</mgrwt>
</event>
<event>
 8    1  0.2676873E-024  0.8110288E+02  0.7818608E-02  0.1325950E+00
          2   -1    0    0  501    0  0.00000000000E+00  0.00000000000E+00  0.36572795414E+02  0.36572795503E+02  0.25500000000E-02 0. -1.
         -1   -1    0    0    0  501 -0.00000000000E+00 -0.00000000000E+00 -0.44962908793E+02  0.44962909075E+02  0.50400000000E-02 0.  1.
         24    2    1    2    0    0  0.35527136788E-14  0.00000000000E+00 -0.83901133788E+01  0.81535704578E+02  0.81102879841E+02 0.  0.
         66    2    3    3    0    0 -0.26872437174E+02  0.52256692849E+01  0.25844626682E+02  0.37701196594E+02  0.19999992755E+01 0.  0.
        -13    1    3    3    0    0  0.26872437174E+02 -0.52256692849E+01 -0.34234740061E+02  0.43834507984E+02  0.10566000000E+00 0.  1.
         13    1    4    4    0    0 -0.35394509770E+01  0.11096177334E+00  0.35350137840E+01  0.50047489669E+01  0.10566000000E+00 0. -1.
        -13    1    4    4    0    0 -0.28034254568E+01  0.84036074862E+00  0.29405427331E+01  0.41501031410E+01  0.10566000000E+00 0.  1.
         14    1    4    4    0    0 -0.20529560740E+02  0.42743467629E+01  0.19369070165E+02  0.28546344486E+02  0.00000000000E+00 0. -1.
<mgrwt>
<rscale>  0 0.81102880E+02</rscale>
<asrwt>0</asrwt>
<pdfrwt beam="1">  1        2 0.56265839E-02 0.81102880E+02</pdfrwt>
<pdfrwt beam="2">  1       -1 0.69173706E-02 0.81102880E+02</pdfrwt>
<totfact> 0.13474814E+05</totfact>
</mgrwt>
</event>
<event>
 8    1  0.2676873E-024  0.7994707E+02  0.7818608E-02  0.1329202E+00
          2   -1    0    0  501    0  0.00000000000E+00  0.00000000000E+00  0.94490035031E+03  0.94490035031E+03  0.25500000000E-02 0. -1.
         -1   -1    0    0    0  501 -0.00000000000E+00 -0.00000000000E+00 -0.16910566592E+01  0.16910641698E+01  0.50400000000E-02 0.  1.
         24    2    1    2    0    0  0.00000000000E+00  0.00000000000E+00  0.94320929365E+03  0.94659141448E+03  0.79947072142E+02 0.  0.
         66    2    3    3    0    0  0.29528100291E+02  0.27382157385E+01  0.78882625648E+03  0.78938600789E+03  0.20000017274E+01 0.  0.
        -13    1    3    3    0    0 -0.29528100291E+02 -0.27382157385E+01  0.15438303717E+03  0.15720540659E+03  0.10566000000E+00 0.  1.
         13    1    4    4    0    0  0.33755096746E+01 -0.32047597046E-01  0.96181002822E+02  0.96240280343E+02  0.10566000000E+00 0. -1.
        -13    1    4    4    0    0  0.72093612007E+01  0.86083402826E+00  0.20757737944E+03  0.20770434648E+03  0.10566000000E+00 0.  1.
         14    1    4    4    0    0  0.18943229416E+02  0.19094293073E+01  0.48506787422E+03  0.48544138107E+03  0.00000000000E+00 0. -1.
<mgrwt>
<rscale>  0 0.79947072E+02</rscale>
<asrwt>0</asrwt>
<pdfrwt beam="1">  1        2 0.14536910E+00 0.79947072E+02</pdfrwt>
<pdfrwt beam="2">  1       -1 0.26016347E-03 0.79947072E+02</pdfrwt>
<totfact> 0.35169393E+05</totfact>
</mgrwt>
</event>
<event>
 8    1  0.2676873E-024  0.7921015E+02  0.7818608E-02  0.1331308E+00
         -1   -1    0    0    0  501 -0.00000000000E+00  0.00000000000E+00  0.59268478993E+01  0.59268500422E+01  0.50400000000E-02 0.  1.
          2   -1    0    0  501    0  0.00000000000E+00 -0.00000000000E+00 -0.26465359972E+03  0.26465359974E+03  0.25500000000E-02 0. -1.
         24    2    1    2    0    0  0.17763568394E-14  0.35527136788E-14 -0.25872675183E+03  0.27058044978E+03  0.79210148924E+02 0.  0.
         66    2    3    3    0    0  0.81974673576E+01  0.22210759924E+02 -0.23779422946E+03  0.23897826656E+03  0.19999991879E+01 0.  0.
        -13    1    3    3    0    0 -0.81974673576E+01 -0.22210759924E+02 -0.20932522365E+02  0.31602183217E+02  0.10566000000E+00 0.  1.
         13    1    4    4    0    0  0.25983131779E+01  0.64622009957E+01 -0.66583537382E+02  0.66946918432E+02  0.10566000000E+00 0. -1.
        -13    1    4    4    0    0  0.38503460287E+01  0.87376201028E+01 -0.10019620334E+03  0.10065019373E+03  0.10566000000E+00 0.  1.
        -14    1    4    4    0    0  0.17488081511E+01  0.70109388258E+01 -0.71014488738E+02  0.71381154403E+02  0.00000000000E+00 0.  1.
<mgrwt>
<rscale>  0 0.79210149E+02</rscale>
<asrwt>0</asrwt>
<pdfrwt beam="1">  1        2 0.40715929E-01 0.79210149E+02</pdfrwt>
<pdfrwt beam="2">  1       -1 0.91182313E-03 0.79210149E+02</pdfrwt>
<totfact> 0.25005882E+05</totfact>
</mgrwt>
</event>
<event>
 8    1  0.2676873E-024  0.7852209E+02  0.7818608E-02  0.1333299E+00
          2   -1    0    0  501    0  0.00000000000E+00  0.00000000000E+00  0.14824538932E+03  0.14824538934E+03  0.25500000000E-02 0. -1.
         -1   -1    0    0    0  501 -0.00000000000E+00 -0.00000000000E+00 -0.10397825670E+02  0.10397826891E+02  0.50400000000E-02 0.  1.
         24    2    1    2    0    0  0.88817841970E-15  0.00000000000E+00  0.13784756365E+03  0.15864321623E+03  0.78522094040E+02 0.  0.
         66    2    3    3    0    0  0.79919222122E+01  0.14715388079E+02  0.14065604133E+03  0.14166345835E+03  0.19999999602E+01 0.  0.
        -13    1    3    3    0    0 -0.79919222122E+01 -0.14715388079E+02 -0.28084776837E+01  0.16979757887E+02  0.10566000000E+00 0.  1.
         13    1    4    4    0    0  0.33113613116E+01  0.57483356255E+01  0.56461582153E+02  0.56850065079E+02  0.10566000000E+00 0. -1.
        -13    1    4    4    0    0  0.28603903177E+01  0.68328302961E+01  0.63034253407E+02  0.63468083863E+02  0.10566000000E+00 0.  1.
        -14    1    4    4    0    0  0.18201705828E+01  0.21342221576E+01  0.21160205773E+02  0.21345309403E+02  0.00000000000E+00 0.  1.
<mgrwt>
<rscale>  0 0.78522094E+02</rscale>
<asrwt>0</asrwt>
<pdfrwt beam="1">  1        2 0.22806981E-01 0.78522094E+02</pdfrwt>
<pdfrwt beam="2">  1       -1 0.15996657E-02 0.78522094E+02</pdfrwt>
<totfact> 0.20965689E+05</totfact>
</mgrwt>
</event>
<event>
 8    1  0.2676873E-024  0.8052918E+02  0.7818608E-02  0.1327556E+00
         -1   -1    0    0    0  501 -0.00000000000E+00  0.00000000000E+00  0.10151314681E+03  0.10151314694E+03  0.50400000000E-02 0.  1.
          2   -1    0    0  501    0  0.00000000000E+00 -0.00000000000E+00 -0.15970712161E+02  0.15970712364E+02  0.25500000000E-02 0. -1.
         24    2    1    2    0    0  0.00000000000E+00  0.00000000000E+00  0.85542434654E+02  0.11748385930E+03  0.80529181484E+02 0.  0.
         66    2    3    3    0    0 -0.22725766329E+02  0.33197131002E+02  0.41557602467E+02  0.57875247606E+02  0.20000001701E+01 0.  0.
        -13    1    3    3    0    0  0.22725766329E+02 -0.33197131002E+02  0.43984832187E+02  0.59608611698E+02  0.10566000000E+00 0.  1.
         13    1    4    4    0    0 -0.14195962507E+02  0.21028789235E+02  0.25711465246E+02  0.36122374470E+02  0.10566000000E+00 0. -1.
        -13    1    4    4    0    0 -0.29990421498E+01  0.39852649858E+01  0.46072574988E+01  0.67907714230E+01  0.10566000000E+00 0.  1.
        -14    1    4    4    0    0 -0.55307616725E+01  0.81830767808E+01  0.11238879722E+02  0.14962101713E+02  0.00000000000E+00 0.  1.
<mgrwt>
<rscale>  0 0.80529181E+02</rscale>
<asrwt>0</asrwt>
<pdfrwt beam="1">  1        2 0.24570327E-02 0.80529181E+02</pdfrwt>
<pdfrwt beam="2">  1       -1 0.15617407E-01 0.80529181E+02</pdfrwt>
<totfact> 0.11622139E+05</totfact>
</mgrwt>
</event>
<event>
 8    1  0.2676873E-024  0.7945045E+02  0.7818608E-02  0.1330618E+00
          2   -1    0    0  501    0  0.00000000000E+00  0.00000000000E+00  0.44806526141E+03  0.44806526141E+03  0.25500000000E-02 0. -1.
         -1   -1    0    0    0  501 -0.00000000000E+00 -0.00000000000E+00 -0.35220156607E+01  0.35220192668E+01  0.50400000000E-02 0.  1.
         24    2    1    2    0    0  0.00000000000E+00 -0.17763568394E-14  0.44454324574E+03  0.45158728068E+03  0.79450454588E+02 0.  0.
         66    2    3    3    0    0  0.37811149288E+02 -0.11143826040E+02  0.24920535079E+03  0.25231166191E+03  0.20000001684E+01 0.  0.
        -13    1    3    3    0    0 -0.37811149288E+02  0.11143826040E+02  0.19533789495E+03  0.19927561877E+03  0.10566000000E+00 0.  1.
         13    1    4    4    0    0  0.29857048162E+02 -0.92472558680E+01  0.19574412022E+03  0.19822393103E+03  0.10566000000E+00 0. -1.
        -13    1    4    4    0    0  0.87562111314E+00 -0.84157980871E-01  0.69027192256E+01  0.69593456332E+01  0.10566000000E+00 0.  1.
        -14    1    4    4    0    0  0.70784800125E+01 -0.18124121911E+01  0.46558511344E+02  0.47128385245E+02  0.00000000000E+00 0.  1.
<mgrwt>
<rscale>  0 0.79450455E+02</rscale>
<asrwt>0</asrwt>
<pdfrwt beam="1">  1        2 0.68933069E-01 0.79450455E+02</pdfrwt>
<pdfrwt beam="2">  1       -1 0.54184922E-03 0.79450455E+02</pdfrwt>
<totfact> 0.29908835E+05</totfact>
</mgrwt>
</event>
<event>
 8    1  0.2676873E-024  0.8215983E+02  0.7818608E-02  0.1323032E+00
          2   -1    0    0  501    0  0.00000000000E+00  0.00000000000E+00  0.55304634448E+03  0.55304634449E+03  0.25500000000E-02 0. -1.
         -1   -1    0    0    0  501 -0.00000000000E+00 -0.00000000000E+00 -0.30513864242E+01  0.30513905865E+01  0.50400000000E-02 0.  1.
         24    2    1    2    0    0 -0.71054273576E-14 -0.35527136788E-14  0.54999495806E+03  0.55609773508E+03  0.82159826350E+02 0.  0.
         66    2    3    3    0    0  0.34758933949E+02  0.20720998307E+02  0.32205881636E+03  0.32459732662E+03  0.19999977856E+01 0.  0.
        -13    1    3    3    0    0 -0.34758933949E+02 -0.20720998307E+02  0.22793614170E+03  0.23150040846E+03  0.10566000000E+00 0.  1.
         13    1    4    4    0    0  0.13249960486E+02  0.77564940809E+01  0.12921845653E+03  0.13012741958E+03  0.10566000000E+00 0. -1.
        -13    1    4    4    0    0  0.10868287437E+02  0.63017970617E+01  0.94632347859E+02  0.95462687702E+02  0.10566000000E+00 0.  1.
         14    1    4    4    0    0  0.10640686027E+02  0.66627071641E+01  0.98208011970E+02  0.99007219338E+02  0.00000000000E+00 0. -1.
<mgrwt>
<rscale>  0 0.82159826E+02</rscale>
<asrwt>0</asrwt>
<pdfrwt beam="1">  1        2 0.85084057E-01 0.82159826E+02</pdfrwt>
<pdfrwt beam="2">  1       -1 0.46944436E-03 0.82159826E+02</pdfrwt>
<totfact> 0.29307069E+05</totfact>
</mgrwt>
</event>
<event>
 8    1  0.2676873E-024  0.8242804E+02  0.7818608E-02  0.1322299E+00
          2   -1    0    0  501    0  0.00000000000E+00  0.00000000000E+00  0.23932923133E+03  0.23932923134E+03  0.25500000000E-02 0. -1.
         -1   -1    0    0    0  501 -0.00000000000E+00 -0.00000000000E+00 -0.70973160724E+01  0.70973178619E+01  0.50400000000E-02 0.  1.
         24    2    1    2    0    0 -0.22204460493E-15  0.00000000000E+00  0.23223191526E+03  0.24642654920E+03  0.82428039459E+02 0.  0.
         66    2    3    3    0    0 -0.16519201732E+01  0.22903176680E+02  0.21841371935E+03  0.21962658569E+03  0.19999998278E+01 0.  0.
        -13    1    3    3    0    0  0.16519201732E+01 -0.22903176680E+02  0.13818195909E+02  0.26799963517E+02  0.10566000000E+00 0.  1.
         13    1    4    4    0    0 -0.10460862550E+01  0.16573182498E+02  0.15164774772E+03  0.15255430255E+03  0.10566000000E+00 0. -1.
        -13    1    4    4    0    0 -0.13805242542E-01  0.17616896347E+01  0.15667012510E+02  0.15766108777E+02  0.10566000000E+00 0.  1.
        -14    1    4    4    0    0 -0.59202867563E+00  0.45683045474E+01  0.51098959116E+02  0.51306174357E+02  0.00000000000E+00 0.  1.
<mgrwt>
<rscale>  0 0.82428039E+02</rscale>
<asrwt>0</asrwt>
<pdfrwt beam="1">  1        2 0.36819879E-01 0.82428039E+02</pdfrwt>
<pdfrwt beam="2">  1       -1 0.10918950E-02 0.82428039E+02</pdfrwt>
<totfact> 0.21718926E+05</totfact>
</mgrwt>
</event>
<event>
 8    1  0.2676873E-024  0.7744833E+02  0.7818608E-02  0.1336453E+00
          2   -1    0    0  501    0  0.00000000000E+00  0.00000000000E+00  0.75575210775E+02  0.75575210818E+02  0.25500000000E-02 0. -1.
         -1   -1    0    0    0  501 -0.00000000000E+00 -0.00000000000E+00 -0.19841965910E+02  0.19841966550E+02  0.50400000000E-02 0.  1.
         24    2    1    2    0    0  0.71054273576E-14  0.35527136788E-14  0.55733244865E+02  0.95417177369E+02  0.77448325701E+02 0.  0.
         66    2    3    3    0    0  0.26310342779E+02  0.16418999138E+02  0.56401300369E+02  0.64396617541E+02  0.19999993971E+01 0.  0.
        -13    1    3    3    0    0 -0.26310342779E+02 -0.16418999138E+02 -0.66805550373E+00  0.31020559828E+02  0.10566000000E+00 0.  1.
         13    1    4    4    0    0  0.80092519357E+01  0.52173418070E+01  0.16303155024E+02  0.18899015844E+02  0.10566000000E+00 0. -1.
        -13    1    4    4    0    0  0.54785641833E+01  0.36437139148E+01  0.11146498742E+02  0.12943991457E+02  0.10566000000E+00 0.  1.
         14    1    4    4    0    0  0.12822526660E+02  0.75579434165E+01  0.28951646603E+02  0.32553610240E+02  0.00000000000E+00 0. -1.
<mgrwt>
<rscale>  0 0.77448326E+02</rscale>
<asrwt>0</asrwt>
<pdfrwt beam="1">  1        2 0.11626955E-01 0.77448326E+02</pdfrwt>
<pdfrwt beam="2">  1       -1 0.30526103E-02 0.77448326E+02</pdfrwt>
<totfact> 0.17958221E+05</totfact>
</mgrwt>
</event>
<event>
 8    1  0.2676873E-024  0.8040809E+02  0.7818608E-02  0.1327897E+00
         -1   -1    0    0    0  501 -0.00000000000E+00  0.00000000000E+00  0.46721647804E+01  0.46721674988E+01  0.50400000000E-02 0.  1.
          2   -1    0    0  501    0  0.00000000000E+00 -0.00000000000E+00 -0.34595629118E+03  0.34595629119E+03  0.25500000000E-02 0. -1.
         24    2    1    2    0    0 -0.35527136788E-14  0.00000000000E+00 -0.34128412640E+03  0.35062845869E+03  0.80408091071E+02 0.  0.
         66    2    3    3    0    0 -0.24714853394E+02  0.48594295256E+01 -0.30725066390E+03  0.30828786625E+03  0.19999954639E+01 0.  0.
        -13    1    3    3    0    0  0.24714853394E+02 -0.48594295256E+01 -0.34033462504E+02  0.42340592434E+02  0.10566000000E+00 0.  1.
         13    1    4    4    0    0 -0.37233587637E+01  0.23282297582E+00 -0.46227299703E+02  0.46377710259E+02  0.10566000000E+00 0. -1.
        -13    1    4    4    0    0 -0.14937738503E+02  0.38881508926E+01 -0.18703859363E+03  0.18767445330E+03  0.10566000000E+00 0.  1.
        -14    1    4    4    0    0 -0.60537561277E+01  0.73845565715E+00 -0.73984770558E+02  0.74235702695E+02  0.00000000000E+00 0.  1.
<mgrwt>
<rscale>  0 0.80408091E+02</rscale>
<asrwt>0</asrwt>
<pdfrwt beam="1">  1        2 0.53224025E-01 0.80408091E+02</pdfrwt>
<pdfrwt beam="2">  1       -1 0.71879506E-03 0.80408091E+02</pdfrwt>
<totfact> 0.26482831E+05</totfact>
</mgrwt>
</event>
<event>
 8    1  0.2676873E-024  0.8194372E+02  0.7818608E-02  0.1323624E+00
          2   -1    0    0  501    0  0.00000000000E+00  0.00000000000E+00  0.16512334963E+03  0.16512334965E+03  0.25500000000E-02 0. -1.
         -1   -1    0    0    0  501 -0.00000000000E+00 -0.00000000000E+00 -0.10166297997E+02  0.10166299246E+02  0.50400000000E-02 0.  1.
         24    2    1    2    0    0 -0.71054273576E-14  0.17763568394E-14  0.15495705164E+03  0.17528964890E+03  0.81943719461E+02 0.  0.
         66    2    3    3    0    0 -0.34955329951E+02 -0.96371681724E+01  0.11822112104E+03  0.12367288938E+03  0.20000013814E+01 0.  0.
        -13    1    3    3    0    0  0.34955329951E+02  0.96371681724E+01  0.36735930600E+02  0.51616759521E+02  0.10566000000E+00 0.  1.
         13    1    4    4    0    0 -0.63166172637E+01 -0.19346642779E+01  0.22314302264E+02  0.23271910731E+02  0.10566000000E+00 0. -1.
        -13    1    4    4    0    0 -0.10857033460E+01 -0.57445099277E+00  0.35015183654E+01  0.37122150527E+01  0.10566000000E+00 0.  1.
         14    1    4    4    0    0 -0.27553009341E+02 -0.71280529017E+01  0.92405300407E+02  0.96688763593E+02  0.00000000000E+00 0. -1.
<mgrwt>
<rscale>  0 0.81943719E+02</rscale>
<asrwt>0</asrwt>
<pdfrwt beam="1">  1        2 0.25403593E-01 0.81943719E+02</pdfrwt>
<pdfrwt beam="2">  1       -1 0.15640459E-02 0.81943719E+02</pdfrwt>
<totfact> 0.19393760E+05</totfact>
</mgrwt>
</event>
<event>
 8    1  0.2676873E-024  0.7933339E+02  0.7818608E-02  0.1330954E+00
          2   -1    0    0  501    0  0.00000000000E+00  0.00000000000E+00  0.52616259661E+03  0.52616259662E+03  0.25500000000E-02 0. -1.
         -1   -1    0    0    0  501 -0.00000000000E+00 -0.00000000000E+00 -0.29904168678E+01  0.29904211150E+01  0.50400000000E-02 0.  1.
         24    2    1    2    0    0  0.00000000000E+00  0.00000000000E+00  0.52317217975E+03  0.52915301773E+03  0.79333388418E+02 0.  0.
         66    2    3    3    0    0  0.31415322598E+02  0.13713060188E+02  0.39456196769E+03  0.39605317430E+03  0.20000027076E+01 0.  0.
        -13    1    3    3    0    0 -0.31415322598E+02 -0.13713060188E+02  0.12861021205E+03  0.13309984343E+03  0.10566000000E+00 0.  1.
         13    1    4    4    0    0  0.44474998903E+01  0.16121449571E+01  0.56865799091E+02  0.57062330279E+02  0.10566000000E+00 0. -1.
        -13    1    4    4    0    0  0.79582953869E+01  0.28441428587E+01  0.98760644104E+02  0.99121640432E+02  0.10566000000E+00 0.  1.
        -14    1    4    4    0    0  0.19009527321E+02  0.92567723719E+01  0.23893552450E+03  0.23986920359E+03  0.00000000000E+00 0.  1.
<mgrwt>
<rscale>  0 0.79333388E+02</rscale>
<asrwt>0</asrwt>
<pdfrwt beam="1">  1        2 0.80948154E-01 0.79333388E+02</pdfrwt>
<pdfrwt beam="2">  1       -1 0.46006411E-03 0.79333388E+02</pdfrwt>
<totfact> 0.31624252E+05</totfact>
</mgrwt>
</event>
<event>
 8    1  0.2676873E-024  0.8119855E+02  0.7818608E-02  0.1325684E+00
          2   -1    0    0  501    0  0.00000000000E+00  0.00000000000E+00  0.60135613223E+03  0.60135613223E+03  0.25500000000E-02 0. -1.
         -1   -1    0    0    0  501 -0.00000000000E+00 -0.00000000000E+00 -0.27409709958E+01  0.27409756295E+01  0.50400000000E-02 0.  1.
         24    2    1    2    0    0  0.00000000000E+00  0.00000000000E+00  0.59861516123E+03  0.60409710786E+03  0.81198549687E+02 0.  0.
         66    2    3    3    0    0  0.38501530849E+02  0.56847142491E+01  0.38483928350E+03  0.38680739131E+03  0.19999990692E+01 0.  0.
        -13    1    3    3    0    0 -0.38501530849E+02 -0.56847142491E+01  0.21377587773E+03  0.21728971655E+03  0.10566000000E+00 0.  1.
         13    1    4    4    0    0  0.46075063472E+01  0.53955667935E+00  0.41704001068E+02  0.41961352519E+02  0.10566000000E+00 0. -1.
        -13    1    4    4    0    0  0.85079914542E+01  0.74631601684E+00  0.84125365433E+02  0.84557856994E+02  0.10566000000E+00 0.  1.
         14    1    4    4    0    0  0.25386033048E+02  0.43988415529E+01  0.25900991700E+03  0.26028818180E+03  0.00000000000E+00 0. -1.
<mgrwt>
<rscale>  0 0.81198550E+02</rscale>
<asrwt>0</asrwt>
<pdfrwt beam="1">  1        2 0.92516340E-01 0.81198550E+02</pdfrwt>
<pdfrwt beam="2">  1       -1 0.42168815E-03 0.81198550E+02</pdfrwt>
<totfact> 0.30961265E+05</totfact>
</mgrwt>
</event>
<event>
 8    1  0.2676873E-024  0.8000862E+02  0.7818608E-02  0.1329027E+00
         -1   -1    0    0    0  501 -0.00000000000E+00  0.00000000000E+00  0.64298683075E+01  0.64298702828E+01  0.50400000000E-02 0.  1.
          2   -1    0    0  501    0  0.00000000000E+00 -0.00000000000E+00 -0.24889229207E+03  0.24889229208E+03  0.25500000000E-02 0. -1.
         24    2    1    2    0    0  0.00000000000E+00 -0.11102230246E-15 -0.24246242376E+03  0.25532216236E+03  0.80008622400E+02 0.  0.
         66    2    3    3    0    0 -0.11882673000E+02  0.33977944025E+00 -0.24311745916E+03  0.24341613015E+03  0.20000255688E+01 0.  0.
        -13    1    3    3    0    0  0.11882673000E+02 -0.33977944025E+00  0.65503539635E+00  0.11906032215E+02  0.10566000000E+00 0.  1.
         13    1    4    4    0    0 -0.55110905007E+01  0.79845067624E-01 -0.11672450991E+03  0.11685461425E+03  0.10566000000E+00 0. -1.
        -13    1    4    4    0    0 -0.58708782928E+01 -0.14480989367E+00 -0.11137414472E+03  0.11152891759E+03  0.10566000000E+00 0.  1.
         14    1    4    4    0    0 -0.50070420627E+00  0.40474426629E+00 -0.15018804525E+02  0.15032598312E+02  0.00000000000E+00 0. -1.
<mgrwt>
<rscale>  0 0.80008622E+02</rscale>
<asrwt>0</asrwt>
<pdfrwt beam="1">  1        2 0.38291115E-01 0.80008622E+02</pdfrwt>
<pdfrwt beam="2">  1       -1 0.98921086E-03 0.80008622E+02</pdfrwt>
<totfact> 0.23823687E+05</totfact>
</mgrwt>
</event>
<event>
 8    1  0.2676873E-024  0.7663760E+02  0.7818608E-02  0.1338874E+00
          2   -1    0    0  501    0  0.00000000000E+00  0.00000000000E+00  0.10537894757E+03  0.10537894760E+03  0.25500000000E-02 0. -1.
         -1   -1    0    0    0  501 -0.00000000000E+00 -0.00000000000E+00 -0.13933810124E+02  0.13933811036E+02  0.50400000000E-02 0.  1.
         24    2    1    2    0    0  0.71054273576E-14 -0.22204460493E-15  0.91445137444E+02  0.11931275863E+03  0.76637596589E+02 0.  0.
         66    2    3    3    0    0 -0.36541976470E+02  0.10418490384E+01  0.63499174280E+02  0.73297657690E+02  0.19999987143E+01 0.  0.
        -13    1    3    3    0    0  0.36541976470E+02 -0.10418490384E+01  0.27945963164E+02  0.46015100945E+02  0.10566000000E+00 0.  1.
         13    1    4    4    0    0 -0.55709232866E+01  0.40246601124E+00  0.98473812411E+01  0.11321627379E+02  0.10566000000E+00 0. -1.
        -13    1    4    4    0    0 -0.56166199928E+01  0.31196900613E-01  0.84919866680E+01  0.10181964201E+02  0.10566000000E+00 0.  1.
        -14    1    4    4    0    0 -0.25354433191E+02  0.60818612658E+00  0.45159806371E+02  0.51794066110E+02  0.00000000000E+00 0.  1.
<mgrwt>
<rscale>  0 0.76637597E+02</rscale>
<asrwt>0</asrwt>
<pdfrwt beam="1">  1        2 0.16212145E-01 0.76637597E+02</pdfrwt>
<pdfrwt beam="2">  1       -1 0.21436632E-02 0.76637597E+02</pdfrwt>
<totfact> 0.20174511E+05</totfact>
</mgrwt>
</event>
<event>
 8    1  0.2676873E-024  0.7911847E+02  0.7818608E-02  0.1331572E+00
          2   -1    0    0  501    0  0.00000000000E+00  0.00000000000E+00  0.89924293421E+01  0.89924297036E+01  0.25500000000E-02 0. -1.
         -1   -1    0    0    0  501 -0.00000000000E+00 -0.00000000000E+00 -0.17402782652E+03  0.17402782660E+03  0.50400000000E-02 0.  1.
         24    2    1    2    0    0  0.00000000000E+00 -0.71054273576E-14 -0.16503539718E+03  0.18302025630E+03  0.79118467461E+02 0.  0.
         66    2    3    3    0    0 -0.72006308538E+01  0.38567659290E+02 -0.93811452141E+02  0.10170497521E+03  0.20000004266E+01 0.  0.
        -13    1    3    3    0    0  0.72006308538E+01 -0.38567659290E+02 -0.71223945042E+02  0.81315281093E+02  0.10566000000E+00 0.  1.
         13    1    4    4    0    0 -0.37510741896E+01  0.20461549414E+02 -0.51536445282E+02  0.55576631045E+02  0.10566000000E+00 0. -1.
        -13    1    4    4    0    0 -0.32193054410E+01  0.17365985315E+02 -0.40883338497E+02  0.44535378119E+02  0.10566000000E+00 0.  1.
        -14    1    4    4    0    0 -0.23025122319E+00  0.74012456086E+00 -0.13916683615E+01  0.15929660448E+01  0.00000000000E+00 0.  1.
<mgrwt>
<rscale>  0 0.79118467E+02</rscale>
<asrwt>0</asrwt>
<pdfrwt beam="1">  1        2 0.13834508E-02 0.79118467E+02</pdfrwt>
<pdfrwt beam="2">  1       -1 0.26773509E-01 0.79118467E+02</pdfrwt>
<totfact> 0.10665581E+05</totfact>
</mgrwt>
</event>
<event>
 8    1  0.2676873E-024  0.7910701E+02  0.7818608E-02  0.1331605E+00
         -1   -1    0    0    0  501 -0.00000000000E+00  0.00000000000E+00  0.22584415101E+02  0.22584415663E+02  0.50400000000E-02 0.  1.
          2   -1    0    0  501    0  0.00000000000E+00 -0.00000000000E+00 -0.69272537457E+02  0.69272537504E+02  0.25500000000E-02 0. -1.
         24    2    1    2    0    0  0.88817841970E-15  0.71054273576E-14 -0.46688122356E+02  0.91856953167E+02  0.79107010283E+02 0.  0.
         66    2    3    3    0    0  0.41681922940E+01  0.37470648549E+02 -0.37149628004E+02  0.52967142570E+02  0.20000003782E+01 0.  0.
        -13    1    3    3    0    0 -0.41681922940E+01 -0.37470648549E+02 -0.95384943525E+01  0.38889810597E+02  0.10566000000E+00 0.  1.
         13    1    4    4    0    0 -0.43746757179E-01  0.16328414118E+01 -0.17805090326E+01  0.24185659605E+01  0.10566000000E+00 0.  1.
        -13    1    4    4    0    0  0.23612073782E+01  0.21922992458E+02 -0.22542265618E+02  0.31533439423E+02  0.10566000000E+00 0. -1.
         14    1    4    4    0    0  0.18507316730E+01  0.13914814679E+02 -0.12826853354E+02  0.19015137187E+02  0.00000000000E+00 0. -1.
<mgrwt>
<rscale>  0 0.79107010E+02</rscale>
<asrwt>0</asrwt>
<pdfrwt beam="1">  1        2 0.10657313E-01 0.79107010E+02</pdfrwt>
<pdfrwt beam="2">  1       -1 0.34745255E-02 0.79107010E+02</pdfrwt>
<totfact> 0.16602119E+05</totfact>
</mgrwt>
</event>
<event>
 8    1  0.2676873E-024  0.8037333E+02  0.7818608E-02  0.1327995E+00
          2   -1    0    0  501    0  0.00000000000E+00  0.00000000000E+00  0.23052633648E+03  0.23052633649E+03  0.25500000000E-02 0. -1.
         -1   -1    0    0    0  501 -0.00000000000E+00 -0.00000000000E+00 -0.70055676570E+01  0.70055694700E+01  0.50400000000E-02 0.  1.
         24    2    1    2    0    0  0.00000000000E+00  0.00000000000E+00  0.22352076882E+03  0.23753190596E+03  0.80373330500E+02 0.  0.
         66    2    3    3    0    0  0.27035088628E+02  0.86566363209E+01  0.19579117858E+03  0.19784847481E+03  0.20000006929E+01 0.  0.
        -13    1    3    3    0    0 -0.27035088628E+02 -0.86566363209E+01  0.27729590239E+02  0.39683431156E+02  0.10566000000E+00 0.  1.
         13    1    4    4    0    0  0.56790961678E+01  0.20969175309E+01  0.37680225102E+02  0.38163591605E+02  0.10566000000E+00 0. -1.
        -13    1    4    4    0    0  0.47876719437E+01  0.13095440396E+01  0.38013294035E+02  0.38336123900E+02  0.10566000000E+00 0.  1.
         14    1    4    4    0    0  0.16568320516E+02  0.52501747504E+01  0.12009765944E+03  0.12134875930E+03  0.00000000000E+00 0. -1.
<mgrwt>
<rscale>  0 0.80373330E+02</rscale>
<asrwt>0</asrwt>
<pdfrwt beam="1">  1        2 0.35465594E-01 0.80373330E+02</pdfrwt>
<pdfrwt beam="2">  1       -1 0.10777797E-02 0.80373330E+02</pdfrwt>
<totfact> 0.22905223E+05</totfact>
</mgrwt>
</event>
<event>
 8    1  0.2676873E-024  0.8348870E+02  0.7818608E-02  0.1319433E+00
         -1   -1    0    0    0  501 -0.00000000000E+00  0.00000000000E+00  0.21373939325E+02  0.21373939919E+02  0.50400000000E-02 0.  1.
          2   -1    0    0  501    0  0.00000000000E+00 -0.00000000000E+00 -0.81528748972E+02  0.81528749012E+02  0.25500000000E-02 0. -1.
         24    2    1    2    0    0  0.00000000000E+00 -0.44408920985E-15 -0.60154809647E+02  0.10290268893E+03  0.83488695436E+02 0.  0.
         66    2    3    3    0    0  0.23953035218E+02 -0.25746820981E+01 -0.72077001320E+02  0.76022832116E+02  0.19999999059E+01 0.  0.
        -13    1    3    3    0    0 -0.23953035218E+02  0.25746820981E+01  0.11922191673E+02  0.26879856815E+02  0.10566000000E+00 0.  1.
         13    1    4    4    0    0  0.16281808141E+02 -0.11618054879E+01 -0.46866246964E+02  0.49627646901E+02  0.10566000000E+00 0. -1.
        -13    1    4    4    0    0  0.65899978187E+00 -0.13290475882E-01 -0.21200262301E+01  0.22226409069E+01  0.10566000000E+00 0.  1.
        -14    1    4    4    0    0  0.70122272952E+01 -0.13995861343E+01 -0.23090728126E+02  0.24172544309E+02  0.00000000000E+00 0.  1.
<mgrwt>
<rscale>  0 0.83488695E+02</rscale>
<asrwt>0</asrwt>
<pdfrwt beam="1">  1        2 0.12542884E-01 0.83488695E+02</pdfrwt>
<pdfrwt beam="2">  1       -1 0.32882984E-02 0.83488695E+02</pdfrwt>
<totfact> 0.14950004E+05</totfact>
</mgrwt>
</event>
<event>
 8    1  0.2676873E-024  0.8071221E+02  0.7818608E-02  0.1327042E+00
         -1   -1    0    0    0  501 -0.00000000000E+00  0.00000000000E+00  0.76378296750E+01  0.76378313379E+01  0.50400000000E-02 0.  1.
          2   -1    0    0  501    0  0.00000000000E+00 -0.00000000000E+00 -0.21323009560E+03  0.21323009561E+03  0.25500000000E-02 0. -1.
         24    2    1    2    0    0  0.44408920985E-15  0.00000000000E+00 -0.20559226592E+03  0.22086792695E+03  0.80712213130E+02 0.  0.
         66    2    3    3    0    0 -0.34702968617E+01 -0.22089776863E+02 -0.19470926122E+03  0.19599922860E+03  0.20000011564E+01 0.  0.
        -13    1    3    3    0    0  0.34702968617E+01  0.22089776863E+02 -0.10883004698E+02  0.24868698347E+02  0.10566000000E+00 0.  1.
         13    1    4    4    0    0 -0.19590245602E+01 -0.11556318470E+02 -0.10710358798E+03  0.10774310185E+03  0.10566000000E+00 0. -1.
        -13    1    4    4    0    0 -0.49535356289E-01 -0.20351883157E+01 -0.14161468819E+02  0.14307438918E+02  0.10566000000E+00 0.  1.
        -14    1    4    4    0    0 -0.14617369452E+01 -0.84982700772E+01 -0.73444204426E+02  0.73948687838E+02  0.00000000000E+00 0.  1.
<mgrwt>
<rscale>  0 0.80712213E+02</rscale>
<asrwt>0</asrwt>
<pdfrwt beam="1">  1        2 0.32804626E-01 0.80712213E+02</pdfrwt>
<pdfrwt beam="2">  1       -1 0.11750510E-02 0.80712213E+02</pdfrwt>
<totfact> 0.22036530E+05</totfact>
</mgrwt>
</event>
<event>
 8    1  0.2676873E-024  0.7908101E+02  0.7818608E-02  0.1331680E+00
          2   -1    0    0  501    0  0.00000000000E+00  0.00000000000E+00  0.81893203694E+03  0.81893203694E+03  0.25500000000E-02 0. -1.
         -1   -1    0    0    0  501 -0.00000000000E+00 -0.00000000000E+00 -0.19091314698E+01  0.19091381224E+01  0.50400000000E-02 0.  1.
         24    2    1    2    0    0 -0.35527136788E-14  0.00000000000E+00  0.81702290547E+03  0.82084117507E+03  0.79081013027E+02 0.  0.
         66    2    3    3    0    0  0.28337240241E+02 -0.21873910660E+01  0.69372647405E+03  0.69431131682E+03  0.19999987919E+01 0.  0.
        -13    1    3    3    0    0 -0.28337240241E+02  0.21873910660E+01  0.12329643142E+03  0.12652985825E+03  0.10566000000E+00 0.  1.
         13    1    4    4    0    0  0.16650354404E+02 -0.35289730788E+00  0.40742775815E+03  0.40776800771E+03  0.10566000000E+00 0. -1.
        -13    1    4    4    0    0  0.80770508553E+00 -0.12496232774E+00  0.20304833054E+02  0.20321550445E+02  0.10566000000E+00 0.  1.
         14    1    4    4    0    0  0.10879180751E+02 -0.17095314304E+01  0.26599388285E+03  0.26622175866E+03  0.00000000000E+00 0. -1.
<mgrwt>
<rscale>  0 0.79081013E+02</rscale>
<asrwt>0</asrwt>
<pdfrwt beam="1">  1        2 0.12598996E+00 0.79081013E+02</pdfrwt>
<pdfrwt beam="2">  1       -1 0.29371207E-03 0.79081013E+02</pdfrwt>
<totfact> 0.35550407E+05</totfact>
</mgrwt>
</event>
<event>
 8    1  0.2676873E-024  0.8160177E+02  0.7818608E-02  0.1324566E+00
          2   -1    0    0  501    0  0.00000000000E+00  0.00000000000E+00  0.14453726089E+04  0.14453726089E+04  0.25500000000E-02 0. -1.
         -1   -1    0    0    0  501 -0.00000000000E+00 -0.00000000000E+00 -0.11517475849E+01  0.11517586123E+01  0.50400000000E-02 0.  1.
         24    2    1    2    0    0  0.00000000000E+00  0.88817841970E-15  0.14442208613E+04  0.14465243675E+04  0.81601774219E+02 0.  0.
         66    2    3    3    0    0  0.22149396130E+02 -0.61443628242E+01  0.13195800821E+04  0.13197817782E+04  0.20000003454E+01 0.  0.
        -13    1    3    3    0    0 -0.22149396130E+02  0.61443628242E+01  0.12464077921E+03  0.12674258932E+03  0.10566000000E+00 0.  1.
         13    1    4    4    0    0  0.16900764480E+01 -0.17562136281E+00  0.78507575562E+02  0.78526032536E+02  0.10566000000E+00 0. -1.
        -13    1    4    4    0    0  0.11663999572E+02 -0.31650619125E+01  0.72220969604E+03  0.72231082141E+03  0.10566000000E+00 0.  1.
         14    1    4    4    0    0  0.87953201096E+01 -0.28036795489E+01  0.51886281050E+03  0.51894492424E+03  0.00000000000E+00 0. -1.
<mgrwt>
<rscale>  0 0.81601774E+02</rscale>
<asrwt>0</asrwt>
<pdfrwt beam="1">  1        2 0.22236492E+00 0.81601774E+02</pdfrwt>
<pdfrwt beam="2">  1       -1 0.17719287E-03 0.81601774E+02</pdfrwt>
<totfact> 0.31993238E+05</totfact>
</mgrwt>
</event>
<event>
 8    1  0.2676873E-024  0.7870396E+02  0.7818608E-02  0.1332770E+00
          2   -1    0    0  501    0  0.00000000000E+00  0.00000000000E+00  0.10836232336E+03  0.10836232339E+03  0.25500000000E-02 0. -1.
         -1   -1    0    0    0  501 -0.00000000000E+00 -0.00000000000E+00 -0.14290742979E+02  0.14290743867E+02  0.50400000000E-02 0.  1.
         24    2    1    2    0    0  0.11102230246E-15  0.00000000000E+00  0.94071580380E+02  0.12265306726E+03  0.78703955886E+02 0.  0.
         66    2    3    3    0    0 -0.70944662045E+00 -0.11501950996E+02  0.10566262348E+03  0.10630798740E+03  0.19999981184E+01 0.  0.
        -13    1    3    3    0    0  0.70944662045E+00  0.11501950996E+02 -0.11591043104E+02  0.16345079856E+02  0.10566000000E+00 0.  1.
         13    1    4    4    0    0 -0.91503862953E+00 -0.48015594678E+01  0.42568094725E+02  0.42847941859E+02  0.10566000000E+00 0. -1.
        -13    1    4    4    0    0 -0.51932805552E-02 -0.23012689875E+01  0.16952925795E+02  0.17108732360E+02  0.10566000000E+00 0.  1.
         14    1    4    4    0    0  0.21078528964E+00 -0.43991225405E+01  0.46141602964E+02  0.46351313182E+02  0.00000000000E+00 0. -1.
<mgrwt>
<rscale>  0 0.78703956E+02</rscale>
<asrwt>0</asrwt>
<pdfrwt beam="1">  1        2 0.16671126E-01 0.78703956E+02</pdfrwt>
<pdfrwt beam="2">  1       -1 0.21985759E-02 0.78703956E+02</pdfrwt>
<totfact> 0.18943595E+05</totfact>
</mgrwt>
</event>
<event>
 8    1  0.2676873E-024  0.7648002E+02  0.7818608E-02  0.1339348E+00
         -1   -1    0    0    0  501 -0.00000000000E+00  0.00000000000E+00  0.49895061344E+01  0.49895086799E+01  0.50400000000E-02 0.  1.
          2   -1    0    0  501    0  0.00000000000E+00 -0.00000000000E+00 -0.29307467972E+03  0.29307467974E+03  0.25500000000E-02 0. -1.
         24    2    1    2    0    0 -0.71054273576E-14  0.17763568394E-14 -0.28808517359E+03  0.29806418842E+03  0.76480018131E+02 0.  0.
         66    2    3    3    0    0 -0.35720403930E+02  0.75240317562E+01 -0.18818787443E+03  0.19170611465E+03  0.20000005679E+01 0.  0.
        -13    1    3    3    0    0  0.35720403930E+02 -0.75240317562E+01 -0.99897299159E+02  0.10635807376E+03  0.10566000000E+00 0.  1.
         13    1    4    4    0    0 -0.26393664775E+01  0.71222528891E+00 -0.13487241055E+02  0.13761916857E+02  0.10566000000E+00 0. -1.
        -13    1    4    4    0    0 -0.20472120767E+02  0.40551587218E+01 -0.11228126459E+03  0.11420440264E+03  0.10566000000E+00 0.  1.
        -14    1    4    4    0    0 -0.12608916686E+02  0.27566477455E+01 -0.62419368786E+02  0.63739795155E+02  0.00000000000E+00 0.  1.
<mgrwt>
<rscale>  0 0.76480018E+02</rscale>
<asrwt>0</asrwt>
<pdfrwt beam="1">  1        2 0.45088399E-01 0.76480018E+02</pdfrwt>
<pdfrwt beam="2">  1       -1 0.76761676E-03 0.76480018E+02</pdfrwt>
<totfact> 0.28438683E+05</totfact>
</mgrwt>
</event>
<event>
 8    1  0.2676873E-024  0.7572563E+02  0.7818608E-02  0.1341639E+00
          2   -1    0    0  501    0  0.00000000000E+00  0.00000000000E+00  0.33422970436E+03  0.33422970437E+03  0.25500000000E-02 0. -1.
         -1   -1    0    0    0  501 -0.00000000000E+00 -0.00000000000E+00 -0.42892425805E+01  0.42892455416E+01  0.50400000000E-02 0.  1.
         24    2    1    2    0    0  0.00000000000E+00  0.00000000000E+00  0.32994046178E+03  0.33851894991E+03  0.75725630600E+02 0.  0.
         66    2    3    3    0    0  0.37424540523E+02 -0.41187718374E+00  0.18990320525E+03  0.19356650855E+03  0.19999980009E+01 0.  0.
        -13    1    3    3    0    0 -0.37424540523E+02  0.41187718374E+00  0.14003725653E+03  0.14495244137E+03  0.10566000000E+00 0.  1.
         13    1    4    4    0    0  0.15270491198E+02  0.33266225194E-01  0.76263330559E+02  0.77777218773E+02  0.10566000000E+00 0. -1.
        -13    1    4    4    0    0  0.74384335743E+00 -0.25375529348E+00  0.37387093403E+01  0.38218851704E+01  0.10566000000E+00 0.  1.
        -14    1    4    4    0    0  0.21410205967E+02 -0.19138811545E+00  0.10990116535E+03  0.11196740460E+03  0.00000000000E+00 0.  1.
<mgrwt>
<rscale>  0 0.75725631E+02</rscale>
<asrwt>0</asrwt>
<pdfrwt beam="1">  1        2 0.51419952E-01 0.75725631E+02</pdfrwt>
<pdfrwt beam="2">  1       -1 0.65988374E-03 0.75725631E+02</pdfrwt>
<totfact> 0.30594442E+05</totfact>
</mgrwt>
</event>
<event>
 8    1  0.2676873E-024  0.7924814E+02  0.7818608E-02  0.1331199E+00
         -1   -1    0    0    0  501 -0.00000000000E+00  0.00000000000E+00  0.11163567958E+01  0.11163681727E+01  0.50400000000E-02 0.  1.
          2   -1    0    0  501    0  0.00000000000E+00 -0.00000000000E+00 -0.14064131510E+04  0.14064131510E+04  0.25500000000E-02 0. -1.
         24    2    1    2    0    0 -0.17763568394E-14  0.35527136788E-14 -0.14052967942E+04  0.14075295192E+04  0.79248139086E+02 0.  0.
         66    2    3    3    0    0 -0.95009483232E+01  0.12342337678E+02 -0.13497187261E+04  0.13498100759E+04  0.19999978782E+01 0.  0.
        -13    1    3    3    0    0  0.95009483232E+01 -0.12342337678E+02 -0.55578068128E+02  0.57719443338E+02  0.10566000000E+00 0.  1.
         13    1    4    4    0    0 -0.42442397193E+01  0.59747255544E+01 -0.67952202821E+03  0.67956155638E+03  0.10566000000E+00 0. -1.
        -13    1    4    4    0    0 -0.27110520561E+01  0.41505922781E+01 -0.39704353928E+03  0.39707450241E+03  0.10566000000E+00 0.  1.
        -14    1    4    4    0    0 -0.25456565478E+01  0.22170198453E+01 -0.27315315862E+03  0.27317401708E+03  0.00000000000E+00 0.  1.
<mgrwt>
<rscale>  0 0.79248139E+02</rscale>
<asrwt>0</asrwt>
<pdfrwt beam="1">  1        2 0.21636984E+00 0.79248139E+02</pdfrwt>
<pdfrwt beam="2">  1       -1 0.17174920E-03 0.79248139E+02</pdfrwt>
<totfact> 0.34812787E+05</totfact>
</mgrwt>
</event>
<event>
 8    1  0.2676873E-024  0.8133958E+02  0.7818608E-02  0.1325292E+00
         -1   -1    0    0    0  501 -0.00000000000E+00  0.00000000000E+00  0.82311650620E+01  0.82311666050E+01  0.50400000000E-02 0.  1.
          2   -1    0    0  501    0  0.00000000000E+00 -0.00000000000E+00 -0.20094747671E+03  0.20094747672E+03  0.25500000000E-02 0. -1.
         24    2    1    2    0    0  0.00000000000E+00  0.00000000000E+00 -0.19271631164E+03  0.20917864333E+03  0.81339584770E+02 0.  0.
         66    2    3    3    0    0  0.34549878969E+02  0.21111448737E+02 -0.10555912383E+03  0.11307570915E+03  0.19999932520E+01 0.  0.
        -13    1    3    3    0    0 -0.34549878969E+02 -0.21111448737E+02 -0.87157187817E+02  0.96102934174E+02  0.10566000000E+00 0.  1.
         13    1    4    4    0    0  0.17970127645E+02  0.99628563127E+01 -0.53145192431E+02  0.56979001712E+02  0.10566000000E+00 0.  1.
        -13    1    4    4    0    0  0.10958416009E+02  0.76477345171E+01 -0.34478458300E+02  0.36977695648E+02  0.10566000000E+00 0. -1.
        -14    1    4    4    0    0  0.56213353150E+01  0.35008579068E+01 -0.17935473096E+02  0.19119011794E+02  0.00000000000E+00 0.  1.
<mgrwt>
<rscale>  0 0.81339585E+02</rscale>
<asrwt>0</asrwt>
<pdfrwt beam="1">  1        2 0.30914993E-01 0.81339585E+02</pdfrwt>
<pdfrwt beam="2">  1       -1 0.12663334E-02 0.81339585E+02</pdfrwt>
<totfact> 0.21146839E+05</totfact>
</mgrwt>
</event>
<event>
 8    1  0.2676873E-024  0.7835201E+02  0.7818608E-02  0.1333794E+00
         -1   -1    0    0    0  501 -0.00000000000E+00  0.00000000000E+00  0.12887547818E+02  0.12887548803E+02  0.50400000000E-02 0.  1.
          2   -1    0    0  501    0  0.00000000000E+00 -0.00000000000E+00 -0.11908855698E+03  0.11908855701E+03  0.25500000000E-02 0. -1.
         24    2    1    2    0    0 -0.22204460493E-15  0.71054273576E-14 -0.10620100916E+03  0.13197610581E+03  0.78352014383E+02 0.  0.
         66    2    3    3    0    0  0.45616503714E+00 -0.36690543505E+02 -0.76128791697E+02  0.84533999022E+02  0.19999990632E+01 0.  0.
        -13    1    3    3    0    0 -0.45616503714E+00  0.36690543505E+02 -0.30072217466E+02  0.47442106789E+02  0.10566000000E+00 0.  1.
         13    1    4    4    0    0 -0.44645995868E-01 -0.53456535499E+00 -0.94104362816E+00  0.10883384260E+01  0.10566000000E+00 0. -1.
        -13    1    4    4    0    0  0.94665176342E+00 -0.22265715523E+02 -0.47266245960E+02  0.52256745100E+02  0.10566000000E+00 0. -1.
         14    1    4    4    0    0 -0.44584073041E+00 -0.13890262627E+02 -0.27921502109E+02  0.31188915496E+02  0.00000000000E+00 0. -1.
<mgrwt>
<rscale>  0 0.78352014E+02</rscale>
<asrwt>0</asrwt>
<pdfrwt beam="1">  1        2 0.18321316E-01 0.78352014E+02</pdfrwt>
<pdfrwt beam="2">  1       -1 0.19826998E-02 0.78352014E+02</pdfrwt>
<totfact> 0.19707106E+05</totfact>
</mgrwt>
</event>
<event>
 8    1  0.2676873E-024  0.8142968E+02  0.7818608E-02  0.1325042E+00
          2   -1    0    0  501    0  0.00000000000E+00  0.00000000000E+00  0.59731747354E+02  0.59731747408E+02  0.25500000000E-02 0. -1.
         -1   -1    0    0    0  501 -0.00000000000E+00 -0.00000000000E+00 -0.27752379597E+02  0.27752380055E+02  0.50400000000E-02 0.  1.
         24    2    1    2    0    0  0.00000000000E+00  0.00000000000E+00  0.31979367757E+02  0.87484127463E+02  0.81429678839E+02 0.  0.
         66    2    3    3    0    0 -0.29363165930E+02  0.74958902865E+01  0.45171651375E+02  0.54432177510E+02  0.19999940083E+01 0.  0.
        -13    1    3    3    0    0  0.29363165930E+02 -0.74958902865E+01 -0.13192283618E+02  0.33051949953E+02  0.10566000000E+00 0.  1.
         13    1    4    4    0    0 -0.15823149774E+02  0.36856858281E+01  0.22950220059E+02  0.28119034720E+02  0.10566000000E+00 0. -1.
        -13    1    4    4    0    0 -0.71176373111E+00  0.17035737364E+00  0.14918943734E+01  0.16650952227E+01  0.10566000000E+00 0.  1.
         14    1    4    4    0    0 -0.12828252425E+02  0.36398470848E+01  0.20729536942E+02  0.24648047568E+02  0.00000000000E+00 0. -1.
<mgrwt>
<rscale>  0 0.81429679E+02</rscale>
<asrwt>0</asrwt>
<pdfrwt beam="1">  1        2 0.91894995E-02 0.81429679E+02</pdfrwt>
<pdfrwt beam="2">  1       -1 0.42695970E-02 0.81429679E+02</pdfrwt>
<totfact> 0.14817485E+05</totfact>
</mgrwt>
</event>
<event>
 8    1  0.2676873E-024  0.7897636E+02  0.7818608E-02  0.1331982E+00
          2   -1    0    0  501    0  0.00000000000E+00  0.00000000000E+00  0.74263940707E+03  0.74263940708E+03  0.25500000000E-02 0. -1.
         -1   -1    0    0    0  501 -0.00000000000E+00 -0.00000000000E+00 -0.20996921255E+01  0.20996981744E+01  0.50400000000E-02 0.  1.
         24    2    1    2    0    0  0.00000000000E+00  0.00000000000E+00  0.74053971495E+03  0.74473910525E+03  0.78976360239E+02 0.  0.
         66    2    3    3    0    0 -0.18408589602E+02 -0.99024000709E+00  0.69953509665E+03  0.69978082868E+03  0.19999996667E+01 0.  0.
        -13    1    3    3    0    0  0.18408589602E+02  0.99024000709E+00  0.41004618298E+02  0.44958276571E+02  0.10566000000E+00 0.  1.
         13    1    4    4    0    0 -0.16270361162E+02 -0.12703563779E+01  0.61020119728E+03  0.61041940564E+03  0.10566000000E+00 0. -1.
        -13    1    4    4    0    0 -0.19918561127E+01  0.17947238019E+00  0.76164549051E+02  0.76190874763E+02  0.10566000000E+00 0.  1.
        -14    1    4    4    0    0 -0.14637232758E+00  0.10064399061E+00  0.13169350321E+02  0.13170548279E+02  0.00000000000E+00 0.  1.
<mgrwt>
<rscale>  0 0.78976360E+02</rscale>
<asrwt>0</asrwt>
<pdfrwt beam="1">  1        2 0.11425212E+00 0.78976360E+02</pdfrwt>
<pdfrwt beam="2">  1       -1 0.32303030E-03 0.78976360E+02</pdfrwt>
<totfact> 0.35037048E+05</totfact>
</mgrwt>
</event>
<event>
 8    1  0.2676873E-024  0.8075018E+02  0.7818608E-02  0.1326936E+00
          2   -1    0    0  501    0  0.00000000000E+00  0.00000000000E+00  0.11225341128E+03  0.11225341130E+03  0.25500000000E-02 0. -1.
         -1   -1    0    0    0  501 -0.00000000000E+00 -0.00000000000E+00 -0.14522032264E+02  0.14522033138E+02  0.50400000000E-02 0.  1.
         24    2    1    2    0    0  0.00000000000E+00  0.00000000000E+00  0.97731379012E+02  0.12677544444E+03  0.80750175667E+02 0.  0.
         66    2    3    3    0    0 -0.36054275651E+02  0.58486679298E+01  0.75816125459E+02  0.84179585353E+02  0.20000003469E+01 0.  0.
        -13    1    3    3    0    0  0.36054275651E+02 -0.58486679298E+01  0.21915253554E+02  0.42595859090E+02  0.10566000000E+00 0.  1.
         13    1    4    4    0    0 -0.13908809048E+02  0.17243965327E+01  0.29712204263E+02  0.32852013009E+02  0.10566000000E+00 0. -1.
        -13    1    4    4    0    0 -0.90310633327E+01  0.15277094743E+01  0.20076638958E+02  0.22067546240E+02  0.10566000000E+00 0.  1.
         14    1    4    4    0    0 -0.13114403271E+02  0.25965619228E+01  0.26027282237E+02  0.29260026104E+02  0.00000000000E+00 0. -1.
<mgrwt>
<rscale>  0 0.80750176E+02</rscale>
<asrwt>0</asrwt>
<pdfrwt beam="1">  1        2 0.17269756E-01 0.80750176E+02</pdfrwt>
<pdfrwt beam="2">  1       -1 0.22341589E-02 0.80750176E+02</pdfrwt>
<totfact> 0.17870207E+05</totfact>
</mgrwt>
</event>
<event>
 8    1  0.2676873E-024  0.8824097E+02  0.7818608E-02  0.1307168E+00
          2   -1    0    0  501    0  0.00000000000E+00  0.00000000000E+00  0.78773004580E+01  0.78773008708E+01  0.25500000000E-02 0. -1.
         -1   -1    0    0    0  501 -0.00000000000E+00 -0.00000000000E+00 -0.24711728080E+03  0.24711728085E+03  0.50400000000E-02 0.  1.
         24    2    1    2    0    0  0.00000000000E+00  0.00000000000E+00 -0.23923998034E+03  0.25499458172E+03  0.88240968453E+02 0.  0.
         66    2    3    3    0    0  0.18681936104E+02  0.39942947236E+02 -0.11853157279E+03  0.12648394174E+03  0.19999999713E+01 0.  0.
        -13    1    3    3    0    0 -0.18681936104E+02 -0.39942947236E+02 -0.12070840755E+03  0.12851063998E+03  0.10566000000E+00 0.  1.
         13    1    4    4    0    0  0.13760862437E+02  0.29148941308E+02 -0.87871555469E+02  0.93597241086E+02  0.10566000000E+00 0. -1.
        -13    1    4    4    0    0  0.37912573374E+01  0.86855835847E+01 -0.25309341828E+02  0.27025671910E+02  0.10566000000E+00 0.  1.
         14    1    4    4    0    0  0.11298163299E+01  0.21084223429E+01 -0.53506754959E+01  0.58610287474E+01  0.00000000000E+00 0. -1.
<mgrwt>
<rscale>  0 0.88240968E+02</rscale>
<asrwt>0</asrwt>
<pdfrwt beam="1">  1        2 0.12118926E-02 0.88240968E+02</pdfrwt>
<pdfrwt beam="2">  1       -1 0.38018037E-01 0.88240968E+02</pdfrwt>
<totfact> 0.72335674E+04</totfact>
</mgrwt>
</event>
<event>
 8    1  0.2676873E-024  0.7926691E+02  0.7818608E-02  0.1331145E+00
          2   -1    0    0  501    0  0.00000000000E+00  0.00000000000E+00  0.98860816273E+01  0.98860819561E+01  0.25500000000E-02 0. -1.
         -1   -1    0    0    0  501 -0.00000000000E+00 -0.00000000000E+00 -0.15889115026E+03  0.15889115034E+03  0.50400000000E-02 0.  1.
         24    2    1    2    0    0 -0.15265566589E-15  0.00000000000E+00 -0.14900506863E+03  0.16877723229E+03  0.79266914051E+02 0.  0.
         66    2    3    3    0    0 -0.10039603534E+00  0.24039181196E+02 -0.75243694843E+01  0.25268724857E+02  0.20000019533E+01 0.  0.
        -13    1    3    3    0    0  0.10039603534E+00 -0.24039181196E+02 -0.14148069914E+03  0.14350850743E+03  0.10566000000E+00 0.  1.
         13    1    4    4    0    0  0.48526664715E+00  0.94819924051E+01 -0.33714473269E+01  0.10075787056E+02  0.10566000000E+00 0. -1.
        -13    1    4    4    0    0 -0.44113617286E+00  0.91239174381E+01 -0.31700957924E+01  0.96695988495E+01  0.10566000000E+00 0.  1.
         14    1    4    4    0    0 -0.14452650963E+00  0.54332713526E+01 -0.98282636507E+00  0.55233389509E+01  0.00000000000E+00 0. -1.
<mgrwt>
<rscale>  0 0.79266914E+02</rscale>
<asrwt>0</asrwt>
<pdfrwt beam="1">  1        2 0.15209358E-02 0.79266914E+02</pdfrwt>
<pdfrwt beam="2">  1       -1 0.24444791E-01 0.79266914E+02</pdfrwt>
<totfact> 0.10878206E+05</totfact>
</mgrwt>
</event>
<event>
 8    1  0.2676873E-024  0.8129863E+02  0.7818608E-02  0.1325406E+00
          2   -1    0    0  501    0  0.00000000000E+00  0.00000000000E+00  0.39839748101E+02  0.39839748182E+02  0.25500000000E-02 0. -1.
         -1   -1    0    0    0  501 -0.00000000000E+00 -0.00000000000E+00 -0.41475331165E+02  0.41475331471E+02  0.50400000000E-02 0.  1.
         24    2    1    2    0    0  0.00000000000E+00  0.00000000000E+00 -0.16355830645E+01  0.81315079654E+02  0.81298628815E+02 0.  0.
         66    2    3    3    0    0  0.14129887156E+02 -0.32645098356E+02  0.18807245506E+02  0.40287326100E+02  0.20000007587E+01 0.  0.
        -13    1    3    3    0    0 -0.14129887156E+02  0.32645098356E+02 -0.20442828570E+02  0.41027753554E+02  0.10566000000E+00 0.  1.
         13    1    4    4    0    0  0.55083182004E+01 -0.12057955878E+02  0.75697569775E+01  0.15265918056E+02  0.10566000000E+00 0. -1.
        -13    1    4    4    0    0  0.35127231949E+01 -0.91905221341E+01  0.43417049929E+01  0.10754835546E+02  0.10566000000E+00 0.  1.
        -14    1    4    4    0    0  0.51088457609E+01 -0.11396620344E+02  0.68957835354E+01  0.14266572498E+02  0.00000000000E+00 0.  1.
<mgrwt>
<rscale>  0 0.81298629E+02</rscale>
<asrwt>0</asrwt>
<pdfrwt beam="1">  1        2 0.61291921E-02 0.81298629E+02</pdfrwt>
<pdfrwt beam="2">  1       -1 0.63808202E-02 0.81298629E+02</pdfrwt>
<totfact> 0.13622445E+05</totfact>
</mgrwt>
</event>
<event>
 8    1  0.2676873E-024  0.8110403E+02  0.7818608E-02  0.1325947E+00
         -1   -1    0    0    0  501 -0.00000000000E+00  0.00000000000E+00  0.32309509552E+02  0.32309509945E+02  0.50400000000E-02 0.  1.
          2   -1    0    0  501    0  0.00000000000E+00 -0.00000000000E+00 -0.50897268224E+02  0.50897268288E+02  0.25500000000E-02 0. -1.
         24    2    1    2    0    0  0.00000000000E+00  0.17763568394E-14 -0.18587758672E+02  0.83206778232E+02  0.81104026850E+02 0.  0.
         66    2    3    3    0    0  0.11261800905E+02 -0.14384026507E+02 -0.46413853524E+02  0.49919677173E+02  0.19999979709E+01 0.  0.
        -13    1    3    3    0    0 -0.11261800905E+02  0.14384026507E+02  0.27826094852E+02  0.33287101059E+02  0.10566000000E+00 0.  1.
         13    1    4    4    0    0  0.77610444603E+00 -0.73794099125E+00 -0.40350281921E+01  0.41760641236E+01  0.10566000000E+00 0. -1.
        -13    1    4    4    0    0  0.16614847173E+01 -0.23046069690E+01 -0.65417457592E+01  0.71328357867E+01  0.10566000000E+00 0.  1.
         14    1    4    4    0    0  0.88242117420E+01 -0.11341478547E+02 -0.35837079573E+02  0.38610777263E+02  0.00000000000E+00 0. -1.
<mgrwt>
<rscale>  0 0.81104027E+02</rscale>
<asrwt>0</asrwt>
<pdfrwt beam="1">  1        2 0.78303490E-02 0.81104027E+02</pdfrwt>
<pdfrwt beam="2">  1       -1 0.49706938E-02 0.81104027E+02</pdfrwt>
<totfact> 0.14448190E+05</totfact>
</mgrwt>
</event>
<event>
 8    1  0.2676873E-024  0.8073432E+02  0.7818608E-02  0.1326980E+00
         -1   -1    0    0    0  501 -0.00000000000E+00  0.00000000000E+00  0.16225308587E+01  0.16225386865E+01  0.50400000000E-02 0.  1.
          2   -1    0    0  501    0  0.00000000000E+00 -0.00000000000E+00 -0.10042974287E+04  0.10042974287E+04  0.25500000000E-02 0. -1.
         24    2    1    2    0    0  0.17763568394E-14 -0.17763568394E-14 -0.10026748978E+04  0.10059199674E+04  0.80734317561E+02 0.  0.
         66    2    3    3    0    0  0.13169130256E+02 -0.11735494758E+02 -0.95369970865E+03  0.95386491817E+03  0.20000008594E+01 0.  0.
        -13    1    3    3    0    0 -0.13169130256E+02  0.11735494758E+02 -0.48975189158E+02  0.52055049189E+02  0.10566000000E+00 0.  1.
         13    1    4    4    0    0  0.91672006516E+01 -0.88353858606E+01 -0.69987381685E+03  0.69998962299E+03  0.10566000000E+00 0. -1.
        -13    1    4    4    0    0  0.11615002700E+01 -0.12443718056E+01 -0.77641884904E+02  0.77660614211E+02  0.10566000000E+00 0.  1.
        -14    1    4    4    0    0  0.28404293343E+01 -0.16557370922E+01 -0.17618400690E+03  0.17621468097E+03  0.00000000000E+00 0.  1.
<mgrwt>
<rscale>  0 0.80734318E+02</rscale>
<asrwt>0</asrwt>
<pdfrwt beam="1">  1        2 0.15450680E+00 0.80734318E+02</pdfrwt>
<pdfrwt beam="2">  1       -1 0.24962154E-03 0.80734318E+02</pdfrwt>
<totfact> 0.34410841E+05</totfact>
</mgrwt>
</event>
<event>
 8    1  0.2676873E-024  0.7585515E+02  0.7818608E-02  0.1341243E+00
          2   -1    0    0  501    0  0.00000000000E+00  0.00000000000E+00  0.22534349569E+03  0.22534349570E+03  0.25500000000E-02 0. -1.
         -1   -1    0    0    0  501 -0.00000000000E+00 -0.00000000000E+00 -0.63835914186E+01  0.63835934082E+01  0.50400000000E-02 0.  1.
         24    2    1    2    0    0  0.00000000000E+00  0.17763568394E-14  0.21895990427E+03  0.23172708911E+03  0.75855152429E+02 0.  0.
         66    2    3    3    0    0 -0.34036112641E+02  0.12155672457E+02  0.74687720510E+02  0.82996824849E+02  0.20000008454E+01 0.  0.
        -13    1    3    3    0    0  0.34036112641E+02 -0.12155672457E+02  0.14427218376E+03  0.14873026426E+03  0.10566000000E+00 0.  1.
         13    1    4    4    0    0 -0.19469372053E+02  0.64427976327E+01  0.42334214244E+02  0.47040014341E+02  0.10566000000E+00 0. -1.
        -13    1    4    4    0    0 -0.95053976249E+00  0.48529887973E+00  0.16953312691E+01  0.20060790090E+01  0.10566000000E+00 0. -1.
        -14    1    4    4    0    0 -0.13616200826E+02  0.52275759450E+01  0.30658174997E+02  0.33950731499E+02  0.00000000000E+00 0.  1.
<mgrwt>
<rscale>  0 0.75855152E+02</rscale>
<asrwt>0</asrwt>
<pdfrwt beam="1">  1        2 0.34668233E-01 0.75855152E+02</pdfrwt>
<pdfrwt beam="2">  1       -1 0.98209105E-03 0.75855152E+02</pdfrwt>
<totfact> 0.26450533E+05</totfact>
</mgrwt>
</event>
<event>
 8    1  0.2676873E-024  0.7832806E+02  0.7818608E-02  0.1333864E+00
         -1   -1    0    0    0  501 -0.00000000000E+00  0.00000000000E+00  0.36956970943E+02  0.36956971287E+02  0.50400000000E-02 0.  1.
          2   -1    0    0  501    0  0.00000000000E+00 -0.00000000000E+00 -0.41502894794E+02  0.41502894872E+02  0.25500000000E-02 0. -1.
         24    2    1    2    0    0  0.00000000000E+00  0.00000000000E+00 -0.45459238508E+01  0.78459866159E+02  0.78328061217E+02 0.  0.
         66    2    3    3    0    0  0.25238500664E+02  0.19816564784E+02 -0.24720587480E+02  0.40555956437E+02  0.20000004008E+01 0.  0.
        -13    1    3    3    0    0 -0.25238500664E+02 -0.19816564784E+02  0.20174663629E+02  0.37903909722E+02  0.10566000000E+00 0.  1.
         13    1    4    4    0    0  0.18176587388E+01  0.17414197982E+01 -0.20797351433E+01  0.32669387056E+01  0.10566000000E+00 0. -1.
        -13    1    4    4    0    0  0.55427885752E+01  0.51149957583E+01 -0.60432377898E+01  0.96652767067E+01  0.10566000000E+00 0.  1.
         14    1    4    4    0    0  0.17878053350E+02  0.12960149228E+02 -0.16597614547E+02  0.27623741025E+02  0.00000000000E+00 0. -1.
<mgrwt>
<rscale>  0 0.78328061E+02</rscale>
<asrwt>0</asrwt>
<pdfrwt beam="1">  1        2 0.63850608E-02 0.78328061E+02</pdfrwt>
<pdfrwt beam="2">  1       -1 0.56856879E-02 0.78328061E+02</pdfrwt>
<totfact> 0.15224898E+05</totfact>
</mgrwt>
</event>
<event>
 8    1  0.2676873E-024  0.7735703E+02  0.7818608E-02  0.1336724E+00
         -1   -1    0    0    0  501 -0.00000000000E+00  0.00000000000E+00  0.44465198403E+01  0.44465226966E+01  0.50400000000E-02 0.  1.
          2   -1    0    0  501    0  0.00000000000E+00 -0.00000000000E+00 -0.33644893064E+03  0.33644893065E+03  0.25500000000E-02 0. -1.
         24    2    1    2    0    0 -0.35527136788E-14  0.88817841970E-15 -0.33200241080E+03  0.34089545335E+03  0.77357025120E+02 0.  0.
         66    2    3    3    0    0 -0.16698715455E+02  0.74752398549E+01 -0.31615585858E+03  0.31669110064E+03  0.20000003884E+01 0.  0.
        -13    1    3    3    0    0  0.16698715455E+02 -0.74752398549E+01 -0.15846552225E+02  0.24204352711E+02  0.10566000000E+00 0.  1.
         13    1    4    4    0    0 -0.10040343453E+02  0.45820091245E+01 -0.18888247453E+03  0.18920466076E+03  0.10566000000E+00 0. -1.
        -13    1    4    4    0    0 -0.69906919221E+00  0.33721144182E+00 -0.21680584977E+02  0.21694730657E+02  0.10566000000E+00 0.  1.
         14    1    4    4    0    0 -0.59593028096E+01  0.25560192885E+01 -0.10559279907E+03  0.10579170922E+03  0.00000000000E+00 0. -1.
<mgrwt>
<rscale>  0 0.77357025E+02</rscale>
<asrwt>0</asrwt>
<pdfrwt beam="1">  1        2 0.51761354E-01 0.77357025E+02</pdfrwt>
<pdfrwt beam="2">  1       -1 0.68408046E-03 0.77357025E+02</pdfrwt>
<totfact> 0.29009687E+05</totfact>
</mgrwt>
</event>
<event>
 8    1  0.2676873E-024  0.8085254E+02  0.7818608E-02  0.1326649E+00
          2   -1    0    0  501    0  0.00000000000E+00  0.00000000000E+00  0.57598492656E+03  0.57598492656E+03  0.25500000000E-02 0. -1.
         -1   -1    0    0    0  501 -0.00000000000E+00 -0.00000000000E+00 -0.28373692794E+01  0.28373737557E+01  0.50400000000E-02 0.  1.
         24    2    1    2    0    0 -0.17763568394E-14  0.00000000000E+00  0.57314755728E+03  0.57882230032E+03  0.80852538195E+02 0.  0.
         66    2    3    3    0    0 -0.10731629722E+02 -0.38167496235E+02  0.34236462636E+03  0.34465847303E+03  0.20000001040E+01 0.  0.
        -13    1    3    3    0    0  0.10731629722E+02  0.38167496235E+02  0.23078293092E+03  0.23416382729E+03  0.10566000000E+00 0.  1.
         13    1    4    4    0    0 -0.36119797640E+01 -0.13768258861E+02  0.12308535129E+03  0.12390571503E+03  0.10566000000E+00 0. -1.
        -13    1    4    4    0    0 -0.25291067478E+01 -0.10173557222E+02  0.95848892683E+02  0.96420532254E+02  0.10566000000E+00 0.  1.
        -14    1    4    4    0    0 -0.45905432106E+01 -0.14225680152E+02  0.12343038238E+03  0.12433222574E+03  0.00000000000E+00 0.  1.
<mgrwt>
<rscale>  0 0.80852538E+02</rscale>
<asrwt>0</asrwt>
<pdfrwt beam="1">  1        2 0.88613083E-01 0.80852538E+02</pdfrwt>
<pdfrwt beam="2">  1       -1 0.43651861E-03 0.80852538E+02</pdfrwt>
<totfact> 0.30927133E+05</totfact>
</mgrwt>
</event>
<event>
 8    1  0.2676873E-024  0.8230055E+02  0.7818608E-02  0.1322647E+00
          2   -1    0    0  501    0  0.00000000000E+00  0.00000000000E+00  0.86939013670E+02  0.86939013708E+02  0.25500000000E-02 0. -1.
         -1   -1    0    0    0  501 -0.00000000000E+00 -0.00000000000E+00 -0.19477390085E+02  0.19477390737E+02  0.50400000000E-02 0.  1.
         24    2    1    2    0    0  0.00000000000E+00  0.00000000000E+00  0.67461623585E+02  0.10641640445E+03  0.82300549684E+02 0.  0.
         66    2    3    3    0    0  0.37537406919E+02  0.16448502460E+02  0.29322199282E+02  0.50432147715E+02  0.20000002656E+01 0.  0.
        -13    1    3    3    0    0 -0.37537406919E+02 -0.16448502460E+02  0.38139424303E+02  0.55984256730E+02  0.10566000000E+00 0.  1.
         13    1    4    4    0    0  0.26312986926E+02  0.10640265078E+02  0.20060573469E+02  0.34756672652E+02  0.10566000000E+00 0. -1.
        -13    1    4    4    0    0  0.32388111710E+01  0.16789142489E+01  0.24375283427E+01  0.43887765167E+01  0.10566000000E+00 0.  1.
         14    1    4    4    0    0  0.79856088218E+01  0.41293231335E+01  0.68240974708E+01  0.11286698547E+02  0.00000000000E+00 0. -1.
<mgrwt>
<rscale>  0 0.82300550E+02</rscale>
<asrwt>0</asrwt>
<pdfrwt beam="1">  1        2 0.13375233E-01 0.82300550E+02</pdfrwt>
<pdfrwt beam="2">  1       -1 0.29965217E-02 0.82300550E+02</pdfrwt>
<totfact> 0.15807636E+05</totfact>
</mgrwt>
</event>
<event>
 8    1  0.2676873E-024  0.8680070E+02  0.7818608E-02  0.1310790E+00
          2   -1    0    0  501    0  0.00000000000E+00  0.00000000000E+00  0.13107674795E+04  0.13107674795E+04  0.25500000000E-02 0. -1.
         -1   -1    0    0    0  501 -0.00000000000E+00 -0.00000000000E+00 -0.14370090803E+01  0.14370179187E+01  0.50400000000E-02 0.  1.
         24    2    1    2    0    0 -0.35527136788E-14  0.35527136788E-14  0.13093304704E+04  0.13122044974E+04  0.86800704391E+02 0.  0.
         66    2    3    3    0    0  0.15466478206E+02 -0.24380754105E+02  0.11443950205E+04  0.11447609341E+04  0.20000005159E+01 0.  0.
        -13    1    3    3    0    0 -0.15466478206E+02  0.24380754105E+02  0.16493544987E+03  0.16744356335E+03  0.10566000000E+00 0.  1.
         13    1    4    4    0    0  0.13696386135E+02 -0.21731746063E+02  0.10185153958E+04  0.10188392819E+04  0.10566000000E+00 0. -1.
        -13    1    4    4    0    0  0.61365044295E+00 -0.67565185712E+00  0.46522443714E+02  0.46531516260E+02  0.10566000000E+00 0.  1.
        -14    1    4    4    0    0  0.11564416284E+01 -0.19733561855E+01  0.79357181059E+02  0.79390135895E+02  0.00000000000E+00 0.  1.
<mgrwt>
<rscale>  0 0.86800704E+02</rscale>
<asrwt>0</asrwt>
<pdfrwt beam="1">  1        2 0.20165769E+00 0.86800704E+02</pdfrwt>
<pdfrwt beam="2">  1       -1 0.22107774E-03 0.86800704E+02</pdfrwt>
<totfact> 0.27935985E+05</totfact>
</mgrwt>
</event>
<event>
 8    1  0.2676873E-024  0.8071750E+02  0.7818608E-02  0.1327028E+00
          2   -1    0    0  501    0  0.00000000000E+00  0.00000000000E+00  0.96055009180E+02  0.96055009214E+02  0.25500000000E-02 0. -1.
         -1   -1    0    0    0  501 -0.00000000000E+00 -0.00000000000E+00 -0.16957249165E+02  0.16957249914E+02  0.50400000000E-02 0.  1.
         24    2    1    2    0    0  0.00000000000E+00 -0.35527136788E-14  0.79097760014E+02  0.11301225913E+03  0.80717501658E+02 0.  0.
         66    2    3    3    0    0 -0.31115288871E+02 -0.20673514875E+02  0.18281116227E+02  0.41638379141E+02  0.19999970581E+01 0.  0.
        -13    1    3    3    0    0  0.31115288871E+02  0.20673514875E+02  0.60816643787E+02  0.71373879987E+02  0.10566000000E+00 0.  1.
         13    1    4    4    0    0 -0.16822316829E+02 -0.11554678841E+02  0.10537158087E+02  0.22968321906E+02  0.10566000000E+00 0. -1.
        -13    1    4    4    0    0 -0.44080679751E+00 -0.20729439427E+00  0.38471532480E+00  0.62964395921E+00  0.10566000000E+00 0. -1.
         14    1    4    4    0    0 -0.13852165244E+02 -0.89115416392E+01  0.73592428155E+01  0.18040413276E+02  0.00000000000E+00 0. -1.
<mgrwt>
<rscale>  0 0.80717502E+02</rscale>
<asrwt>0</asrwt>
<pdfrwt beam="1">  1        2 0.14777693E-01 0.80717502E+02</pdfrwt>
<pdfrwt beam="2">  1       -1 0.26088077E-02 0.80717502E+02</pdfrwt>
<totfact> 0.17113820E+05</totfact>
</mgrwt>
</event>
<event>
 8    1  0.2676873E-024  0.8134500E+02  0.7818608E-02  0.1325277E+00
          2   -1    0    0  501    0  0.00000000000E+00  0.00000000000E+00  0.60430660782E+03  0.60430660783E+03  0.25500000000E-02 0. -1.
         -1   -1    0    0    0  501 -0.00000000000E+00 -0.00000000000E+00 -0.27374365280E+01  0.27374411676E+01  0.50400000000E-02 0.  1.
         24    2    1    2    0    0  0.22204460493E-15  0.35527136788E-14  0.60156917129E+03  0.60704404899E+03  0.81345003343E+02 0.  0.
         66    2    3    3    0    0 -0.11116428650E+01 -0.16693162390E+02  0.57741919568E+03  0.57766497640E+03  0.19999993058E+01 0.  0.
        -13    1    3    3    0    0  0.11116428650E+01  0.16693162390E+02  0.24149975615E+02  0.29379072597E+02  0.10566000000E+00 0.  1.
         13    1    4    4    0    0 -0.12129789837E+01 -0.80341889609E+01  0.29960956227E+03  0.29971973655E+03  0.10566000000E+00 0. -1.
        -13    1    4    4    0    0  0.52831355220E-01 -0.42685982476E+01  0.12747011987E+03  0.12754162594E+03  0.10566000000E+00 0.  1.
         14    1    4    4    0    0  0.48504763520E-01 -0.43903751817E+01  0.15033951354E+03  0.15040361391E+03  0.00000000000E+00 0. -1.
<mgrwt>
<rscale>  0 0.81345003E+02</rscale>
<asrwt>0</asrwt>
<pdfrwt beam="1">  1        2 0.92970355E-01 0.81345003E+02</pdfrwt>
<pdfrwt beam="2">  1       -1 0.42114395E-03 0.81345003E+02</pdfrwt>
<totfact> 0.30858063E+05</totfact>
</mgrwt>
</event>
<event>
 8    1  0.2676873E-024  0.7577043E+02  0.7818608E-02  0.1341502E+00
          2   -1    0    0  501    0  0.00000000000E+00  0.00000000000E+00  0.14054081656E+02  0.14054081888E+02  0.25500000000E-02 0. -1.
         -1   -1    0    0    0  501 -0.00000000000E+00 -0.00000000000E+00 -0.10212617068E+03  0.10212617081E+03  0.50400000000E-02 0.  1.
         24    2    1    2    0    0  0.35527136788E-14  0.00000000000E+00 -0.88072089025E+02  0.11618025269E+03  0.75770431242E+02 0.  0.
         66    2    3    3    0    0  0.19742737757E+02  0.23652719004E+02 -0.10331602369E+02  0.32557162342E+02  0.20000004573E+01 0.  0.
        -13    1    3    3    0    0 -0.19742737757E+02 -0.23652719004E+02 -0.77740486657E+02  0.83623090352E+02  0.10566000000E+00 0.  1.
         13    1    4    4    0    0  0.45308201420E+01  0.61074358645E+01 -0.22865840877E+01  0.79415826397E+01  0.10566000000E+00 0. -1.
        -13    1    4    4    0    0  0.28531093271E+01  0.25721287222E+01 -0.15410542230E+01  0.41403008525E+01  0.10566000000E+00 0.  1.
        -14    1    4    4    0    0  0.12358808288E+02  0.14973154417E+02 -0.65039640582E+01  0.20475278849E+02  0.00000000000E+00 0.  1.
<mgrwt>
<rscale>  0 0.75770431E+02</rscale>
<asrwt>0</asrwt>
<pdfrwt beam="1">  1        2 0.21621665E-02 0.75770431E+02</pdfrwt>
<pdfrwt beam="2">  1       -1 0.15711718E-01 0.75770431E+02</pdfrwt>
<totfact> 0.13511893E+05</totfact>
</mgrwt>
</event>
<event>
 8    1  0.2676873E-024  0.7904427E+02  0.7818608E-02  0.1331786E+00
          2   -1    0    0  501    0  0.00000000000E+00  0.00000000000E+00  0.18142388414E+03  0.18142388416E+03  0.25500000000E-02 0. -1.
         -1   -1    0    0    0  501 -0.00000000000E+00 -0.00000000000E+00 -0.86096663755E+01  0.86096678506E+01  0.50400000000E-02 0.  1.
         24    2    1    2    0    0  0.00000000000E+00  0.00000000000E+00  0.17281421776E+03  0.19003355201E+03  0.79044272578E+02 0.  0.
         66    2    3    3    0    0 -0.20297177993E+02 -0.86644113558E+01  0.16521198653E+03  0.16669147535E+03  0.20000013461E+01 0.  0.
        -13    1    3    3    0    0  0.20297177993E+02  0.86644113558E+01  0.76022312369E+01  0.23342076652E+02  0.10566000000E+00 0.  1.
         13    1    4    4    0    0 -0.24444438798E+01 -0.13359377368E+01  0.22639231035E+02  0.22810216601E+02  0.10566000000E+00 0. -1.
        -13    1    4    4    0    0 -0.11505477009E+02 -0.50015527459E+01  0.87403373541E+02  0.88299220842E+02  0.10566000000E+00 0.  1.
         14    1    4    4    0    0 -0.63472571042E+01 -0.23269208732E+01  0.55169381950E+02  0.55582037910E+02  0.00000000000E+00 0. -1.
<mgrwt>
<rscale>  0 0.79044273E+02</rscale>
<asrwt>0</asrwt>
<pdfrwt beam="1">  1        2 0.27911364E-01 0.79044273E+02</pdfrwt>
<pdfrwt beam="2">  1       -1 0.13245643E-02 0.79044273E+02</pdfrwt>
<totfact> 0.22019588E+05</totfact>
</mgrwt>
</event>
<event>
 8    1  0.2676873E-024  0.7831000E+02  0.7818608E-02  0.1333917E+00
         -1   -1    0    0    0  501 -0.00000000000E+00  0.00000000000E+00  0.21304566851E+01  0.21304626466E+01  0.50400000000E-02 0.  1.
          2   -1    0    0  501    0  0.00000000000E+00 -0.00000000000E+00 -0.71961650814E+03  0.71961650815E+03  0.25500000000E-02 0. -1.
         24    2    1    2    0    0  0.00000000000E+00  0.00000000000E+00 -0.71748605146E+03  0.72174697079E+03  0.78309998172E+02 0.  0.
         66    2    3    3    0    0  0.19681532116E+02 -0.42961372152E+01 -0.66814818196E+03  0.66845479471E+03  0.20000024828E+01 0.  0.
        -13    1    3    3    0    0 -0.19681532116E+02  0.42961372152E+01 -0.49337869500E+02  0.53292176088E+02  0.10566000000E+00 0.  1.
         13    1    4    4    0    0  0.83515884133E+01 -0.13150225853E+01 -0.27087987257E+03  0.27101179834E+03  0.10566000000E+00 0. -1.
        -13    1    4    4    0    0  0.10107385822E+02 -0.24176432958E+01 -0.33969624883E+03  0.33985519987E+03  0.10566000000E+00 0.  1.
        -14    1    4    4    0    0  0.12225578804E+01 -0.56347133407E+00 -0.57572060560E+02  0.57587796493E+02  0.00000000000E+00 0.  1.
<mgrwt>
<rscale>  0 0.78309998E+02</rscale>
<asrwt>0</asrwt>
<pdfrwt beam="1">  1        2 0.11071004E+00 0.78309998E+02</pdfrwt>
<pdfrwt beam="2">  1       -1 0.32776360E-03 0.78309998E+02</pdfrwt>
<totfact> 0.35577663E+05</totfact>
</mgrwt>
</event>
<event>
 8    1  0.2676873E-024  0.8026677E+02  0.7818608E-02  0.1328296E+00
         -1   -1    0    0    0  501 -0.00000000000E+00  0.00000000000E+00  0.82815188462E+01  0.82815203798E+01  0.50400000000E-02 0.  1.
          2   -1    0    0  501    0  0.00000000000E+00 -0.00000000000E+00 -0.19449190417E+03  0.19449190419E+03  0.25500000000E-02 0. -1.
         24    2    1    2    0    0  0.00000000000E+00  0.17763568394E-14 -0.18621038532E+03  0.20277342457E+03  0.80266768391E+02 0.  0.
         66    2    3    3    0    0  0.12292720499E+02  0.13437536416E+02 -0.18343868681E+03  0.18435137694E+03  0.19999997115E+01 0.  0.
        -13    1    3    3    0    0 -0.12292720499E+02 -0.13437536416E+02 -0.27716985172E+01  0.18422047630E+02  0.10566000000E+00 0.  1.
         13    1    4    4    0    0  0.96940110103E+00  0.10752310830E+01 -0.14941768830E+02  0.15012111117E+02  0.10566000000E+00 0.  1.
        -13    1    4    4    0    0  0.29779416349E+01  0.33654231542E+01 -0.53932687888E+02  0.54119684000E+02  0.10566000000E+00 0.  1.
         14    1    4    4    0    0  0.83453777629E+01  0.89968821784E+01 -0.11456423009E+03  0.11521958182E+03  0.00000000000E+00 0. -1.
<mgrwt>
<rscale>  0 0.80266768E+02</rscale>
<asrwt>0</asrwt>
<pdfrwt beam="1">  1        2 0.29921828E-01 0.80266768E+02</pdfrwt>
<pdfrwt beam="2">  1       -1 0.12740801E-02 0.80266768E+02</pdfrwt>
<totfact> 0.21655049E+05</totfact>
</mgrwt>
</event>
<event>
 8    1  0.2676873E-024  0.7910406E+02  0.7818608E-02  0.1331613E+00
         -1   -1    0    0    0  501 -0.00000000000E+00  0.00000000000E+00  0.11462603490E+02  0.11462604598E+02  0.50400000000E-02 0.  1.
          2   -1    0    0  501    0  0.00000000000E+00 -0.00000000000E+00 -0.13647536257E+03  0.13647536259E+03  0.25500000000E-02 0. -1.
         24    2    1    2    0    0  0.17763568394E-14 -0.71054273576E-14 -0.12501275908E+03  0.14793796719E+03  0.79104059338E+02 0.  0.
         66    2    3    3    0    0  0.11899580865E+02 -0.36032861895E+02 -0.41856461389E+02  0.56532561602E+02  0.20000000563E+01 0.  0.
        -13    1    3    3    0    0 -0.11899580865E+02  0.36032861895E+02 -0.83156297687E+02  0.91405405585E+02  0.10566000000E+00 0.  1.
         13    1    4    4    0    0  0.77529208172E+01 -0.25092263082E+02 -0.29946924386E+02  0.39831631802E+02  0.10566000000E+00 0. -1.
        -13    1    4    4    0    0  0.24795148632E+01 -0.70426862963E+01 -0.74613341544E+01  0.10556045454E+02  0.10566000000E+00 0.  1.
         14    1    4    4    0    0  0.16671451843E+01 -0.38979125169E+01 -0.44482028485E+01  0.61448843468E+01  0.00000000000E+00 0. -1.
<mgrwt>
<rscale>  0 0.79104059E+02</rscale>
<asrwt>0</asrwt>
<pdfrwt beam="1">  1        2 0.20996208E-01 0.79104059E+02</pdfrwt>
<pdfrwt beam="2">  1       -1 0.17634777E-02 0.79104059E+02</pdfrwt>
<totfact> 0.20028228E+05</totfact>
</mgrwt>
</event>
<event>
 8    1  0.2676873E-024  0.7166561E+02  0.7818608E-02  0.1354519E+00
         -1   -1    0    0    0  501 -0.00000000000E+00  0.00000000000E+00  0.80935760977E+01  0.80935776670E+01  0.50400000000E-02 0.  1.
          2   -1    0    0  501    0  0.00000000000E+00 -0.00000000000E+00 -0.15864305084E+03  0.15864305086E+03  0.25500000000E-02 0. -1.
         24    2    1    2    0    0  0.00000000000E+00  0.00000000000E+00 -0.15054947474E+03  0.16673662853E+03  0.71665605053E+02 0.  0.
         66    2    3    3    0    0 -0.21148684904E+02  0.26634218509E+02 -0.10138027330E+03  0.10695142966E+03  0.20000059883E+01 0.  0.
        -13    1    3    3    0    0  0.21148684904E+02 -0.26634218509E+02 -0.49169201446E+02  0.59785198868E+02  0.10566000000E+00 0.  1.
         13    1    4    4    0    0 -0.51282136401E+01  0.76995016873E+01 -0.26978846957E+02  0.28521049219E+02  0.10566000000E+00 0.  1.
        -13    1    4    4    0    0 -0.98711718461E+01  0.11660010878E+02 -0.44674847402E+02  0.47214923930E+02  0.10566000000E+00 0. -1.
         14    1    4    4    0    0 -0.61492994179E+01  0.72747059432E+01 -0.29726578938E+02  0.31215456512E+02  0.00000000000E+00 0. -1.
<mgrwt>
<rscale>  0 0.71665605E+02</rscale>
<asrwt>0</asrwt>
<pdfrwt beam="1">  1        2 0.24406621E-01 0.71665605E+02</pdfrwt>
<pdfrwt beam="2">  1       -1 0.12451658E-02 0.71665605E+02</pdfrwt>
<totfact> 0.27249897E+05</totfact>
</mgrwt>
</event>
<event>
 8    1  0.2676873E-024  0.8231665E+02  0.7818608E-02  0.1322603E+00
          2   -1    0    0  501    0  0.00000000000E+00  0.00000000000E+00  0.29832694143E+03  0.29832694144E+03  0.25500000000E-02 0. -1.
         -1   -1    0    0    0  501 -0.00000000000E+00 -0.00000000000E+00 -0.56783592048E+01  0.56783614415E+01  0.50400000000E-02 0.  1.
         24    2    1    2    0    0  0.00000000000E+00  0.00000000000E+00  0.29264858222E+03  0.30400530288E+03  0.82316653857E+02 0.  0.
         66    2    3    3    0    0 -0.99053814544E+01 -0.27103547751E+02  0.25466887963E+03  0.25630637358E+03  0.20000020421E+01 0.  0.
        -13    1    3    3    0    0  0.99053814544E+01  0.27103547751E+02  0.37979702596E+02  0.47698929294E+02  0.10566000000E+00 0.  1.
         13    1    4    4    0    0 -0.20732205170E+01 -0.65702474407E+01  0.65917638808E+02  0.66276788281E+02  0.10566000000E+00 0. -1.
        -13    1    4    4    0    0 -0.30531303603E+01 -0.70263471017E+01  0.69215824477E+02  0.69638586148E+02  0.10566000000E+00 0.  1.
        -14    1    4    4    0    0 -0.47790305772E+01 -0.13506953209E+02  0.11953541634E+03  0.12039099916E+03  0.00000000000E+00 0.  1.
<mgrwt>
<rscale>  0 0.82316654E+02</rscale>
<asrwt>0</asrwt>
<pdfrwt beam="1">  1        2 0.45896453E-01 0.82316654E+02</pdfrwt>
<pdfrwt beam="2">  1       -1 0.87359389E-03 0.82316654E+02</pdfrwt>
<totfact> 0.23605545E+05</totfact>
</mgrwt>
</event>
<event>
 8    1  0.2676873E-024  0.7869549E+02  0.7818608E-02  0.1332795E+00
         -1   -1    0    0    0  501 -0.00000000000E+00  0.00000000000E+00  0.20545884194E+02  0.20545884812E+02  0.50400000000E-02 0.  1.
          2   -1    0    0  501    0  0.00000000000E+00 -0.00000000000E+00 -0.75355481995E+02  0.75355482038E+02  0.25500000000E-02 0. -1.
         24    2    1    2    0    0  0.71054273576E-14  0.00000000000E+00 -0.54809597801E+02  0.95901366851E+02  0.78695490041E+02 0.  0.
         66    2    3    3    0    0  0.32993370165E+02 -0.10406897550E+02 -0.50200697736E+02  0.60999803629E+02  0.19999995039E+01 0.  0.
        -13    1    3    3    0    0 -0.32993370165E+02  0.10406897550E+02 -0.46089000643E+01  0.34901563222E+02  0.10566000000E+00 0.  1.
         13    1    4    4    0    0  0.57247843186E+01 -0.25709141303E+01 -0.88126014355E+01  0.10819235789E+02  0.10566000000E+00 0. -1.
        -13    1    4    4    0    0  0.13946613896E+02 -0.38514719973E+01 -0.21243173708E+02  0.25702635447E+02  0.10566000000E+00 0.  1.
         14    1    4    4    0    0  0.13321971951E+02 -0.39845114226E+01 -0.20144922593E+02  0.24477932392E+02  0.00000000000E+00 0. -1.
<mgrwt>
<rscale>  0 0.78695490E+02</rscale>
<asrwt>0</asrwt>
<pdfrwt beam="1">  1        2 0.11593151E-01 0.78695490E+02</pdfrwt>
<pdfrwt beam="2">  1       -1 0.31609054E-02 0.78695490E+02</pdfrwt>
<totfact> 0.17189763E+05</totfact>
</mgrwt>
</event>
<event>
 8    1  0.2676873E-024  0.7261597E+02  0.7818608E-02  0.1351417E+00
          2   -1    0    0  501    0  0.00000000000E+00  0.00000000000E+00  0.14442273536E+02  0.14442273761E+02  0.25500000000E-02 0. -1.
         -1   -1    0    0    0  501 -0.00000000000E+00 -0.00000000000E+00 -0.91278557795E+02  0.91278557934E+02  0.50400000000E-02 0.  1.
         24    2    1    2    0    0  0.17763568394E-14  0.35527136788E-14 -0.76836284259E+02  0.10572083170E+03  0.72615973971E+02 0.  0.
         66    2    3    3    0    0  0.93826256796E+01  0.12279107818E+02  0.93417985264E+01  0.18168086050E+02  0.19999993906E+01 0.  0.
        -13    1    3    3    0    0 -0.93826256796E+01 -0.12279107818E+02 -0.86178082785E+02  0.87552745645E+02  0.10566000000E+00 0.  1.
         13    1    4    4    0    0  0.28465295692E+00  0.36097456916E+00  0.53364772878E-01  0.47470178012E+00  0.10566000000E+00 0. -1.
        -13    1    4    4    0    0  0.30206587372E+00  0.29665355159E+00  0.54089520028E+00  0.69496674383E+00  0.10566000000E+00 0.  1.
         14    1    4    4    0    0  0.87959068490E+01  0.11621479698E+02  0.87475385533E+01  0.16998417526E+02  0.00000000000E+00 0. -1.
<mgrwt>
<rscale>  0 0.72615974E+02</rscale>
<asrwt>0</asrwt>
<pdfrwt beam="1">  1        2 0.22218883E-02 0.72615974E+02</pdfrwt>
<pdfrwt beam="2">  1       -1 0.14042855E-01 0.72615974E+02</pdfrwt>
<totfact> 0.15366127E+05</totfact>
</mgrwt>
</event>
<event>
 8    1  0.2676873E-024  0.8222111E+02  0.7818608E-02  0.1322864E+00
         -1   -1    0    0    0  501 -0.00000000000E+00  0.00000000000E+00  0.59548995206E+01  0.59549016534E+01  0.50400000000E-02 0.  1.
          2   -1    0    0  501    0  0.00000000000E+00 -0.00000000000E+00 -0.28381294770E+03  0.28381294771E+03  0.25500000000E-02 0. -1.
         24    2    1    2    0    0  0.00000000000E+00  0.00000000000E+00 -0.27785804818E+03  0.28976784937E+03  0.82221114001E+02 0.  0.
         66    2    3    3    0    0  0.50307688177E+01  0.36654680097E+02 -0.20197573494E+03  0.20534622397E+03  0.19999965091E+01 0.  0.
        -13    1    3    3    0    0 -0.50307688177E+01 -0.36654680097E+02 -0.75882313244E+02  0.84421625400E+02  0.10566000000E+00 0.  1.
         13    1    4    4    0    0  0.24627839972E+00  0.48050398316E+01 -0.25383982370E+02  0.25836152690E+02  0.10566000000E+00 0. -1.
        -13    1    4    4    0    0  0.22193814215E+01  0.13241446078E+02 -0.70066847712E+02  0.71341683892E+02  0.10566000000E+00 0.  1.
        -14    1    4    4    0    0  0.25651089964E+01  0.18608194187E+02 -0.10652490486E+03  0.10816838739E+03  0.00000000000E+00 0.  1.
<mgrwt>
<rscale>  0 0.82221114E+02</rscale>
<asrwt>0</asrwt>
<pdfrwt beam="1">  1        2 0.43663520E-01 0.82221114E+02</pdfrwt>
<pdfrwt beam="2">  1       -1 0.91613878E-03 0.82221114E+02</pdfrwt>
<totfact> 0.23252577E+05</totfact>
</mgrwt>
</event>
<event>
 8    1  0.2676873E-024  0.7738161E+02  0.7818608E-02  0.1336651E+00
         -1   -1    0    0    0  501 -0.00000000000E+00  0.00000000000E+00  0.30899458979E+01  0.30899500082E+01  0.50400000000E-02 0.  1.
          2   -1    0    0  501    0  0.00000000000E+00 -0.00000000000E+00 -0.48446721511E+03  0.48446721512E+03  0.25500000000E-02 0. -1.
         24    2    1    2    0    0  0.00000000000E+00  0.00000000000E+00 -0.48137726921E+03  0.48755716513E+03  0.77381612484E+02 0.  0.
         66    2    3    3    0    0  0.12372314505E+02  0.20523752182E+02 -0.43202830232E+03  0.43269706790E+03  0.19999991271E+01 0.  0.
        -13    1    3    3    0    0 -0.12372314505E+02 -0.20523752182E+02 -0.49348966892E+02  0.54860097222E+02  0.10566000000E+00 0.  1.
         13    1    4    4    0    0  0.82663601321E+01  0.12512879466E+02 -0.28020235640E+03  0.28060341509E+03  0.10566000000E+00 0. -1.
        -13    1    4    4    0    0  0.11653834947E+01  0.19189597900E+01 -0.35166595429E+02  0.35238347343E+02  0.10566000000E+00 0.  1.
         14    1    4    4    0    0  0.29405708784E+01  0.60919129260E+01 -0.11665935049E+03  0.11685530547E+03  0.00000000000E+00 0. -1.
<mgrwt>
<rscale>  0 0.77381612E+02</rscale>
<asrwt>0</asrwt>
<pdfrwt beam="1">  1        2 0.74533357E-01 0.77381612E+02</pdfrwt>
<pdfrwt beam="2">  1       -1 0.47537700E-03 0.77381612E+02</pdfrwt>
<totfact> 0.32871202E+05</totfact>
</mgrwt>
</event>
<event>
 8    1  0.2676873E-024  0.7969174E+02  0.7818608E-02  0.1329929E+00
          2   -1    0    0  501    0  0.00000000000E+00  0.00000000000E+00  0.14688202542E+03  0.14688202544E+03  0.25500000000E-02 0. -1.
         -1   -1    0    0    0  501 -0.00000000000E+00 -0.00000000000E+00 -0.10809309123E+02  0.10809310298E+02  0.50400000000E-02 0.  1.
         24    2    1    2    0    0  0.00000000000E+00 -0.17763568394E-14  0.13607271630E+03  0.15769133574E+03  0.79691738887E+02 0.  0.
         66    2    3    3    0    0 -0.19500563660E+02 -0.13572344546E+02  0.13131322822E+03  0.13346027282E+03  0.19999985882E+01 0.  0.
        -13    1    3    3    0    0  0.19500563660E+02  0.13572344546E+02  0.47594880722E+01  0.24231062921E+02  0.10566000000E+00 0.  1.
         13    1    4    4    0    0 -0.13991041110E+01 -0.93352708374E+00  0.72831446891E+01  0.74755819658E+01  0.10566000000E+00 0. -1.
        -13    1    4    4    0    0 -0.22193043873E+01 -0.19947423954E+01  0.17200670976E+02  0.17457908101E+02  0.10566000000E+00 0.  1.
         14    1    4    4    0    0 -0.15882155162E+02 -0.10644075067E+02  0.10682941256E+03  0.10852678275E+03  0.00000000000E+00 0. -1.
<mgrwt>
<rscale>  0 0.79691739E+02</rscale>
<asrwt>0</asrwt>
<pdfrwt beam="1">  1        2 0.22597234E-01 0.79691739E+02</pdfrwt>
<pdfrwt beam="2">  1       -1 0.16629708E-02 0.79691739E+02</pdfrwt>
<totfact> 0.20100227E+05</totfact>
</mgrwt>
</event>
<event>
 8    1  0.2676873E-024  0.7930221E+02  0.7818608E-02  0.1331043E+00
         -1   -1    0    0    0  501 -0.00000000000E+00  0.00000000000E+00  0.18063525918E+03  0.18063525925E+03  0.50400000000E-02 0.  1.
          2   -1    0    0  501    0  0.00000000000E+00 -0.00000000000E+00 -0.87037825587E+01  0.87037829322E+01  0.25500000000E-02 0. -1.
         24    2    1    2    0    0  0.00000000000E+00  0.00000000000E+00  0.17193147662E+03  0.18933904219E+03  0.79302208302E+02 0.  0.
         66    2    3    3    0    0 -0.57316014058E+01  0.38601482752E+02  0.69603377071E+02  0.79822025939E+02  0.19999999969E+01 0.  0.
        -13    1    3    3    0    0  0.57316014058E+01 -0.38601482752E+02  0.10232809955E+03  0.10951701625E+03  0.10566000000E+00 0.  1.
         13    1    4    4    0    0 -0.11088707739E+01  0.70590590831E+01  0.11370715712E+02  0.13429975777E+02  0.10566000000E+00 0. -1.
        -13    1    4    4    0    0 -0.11737582967E+01  0.66971918780E+01  0.11958076869E+02  0.13756338685E+02  0.10566000000E+00 0. -1.
         14    1    4    4    0    0 -0.34489723352E+01  0.24845231791E+02  0.46274584491E+02  0.52635711477E+02  0.00000000000E+00 0. -1.
<mgrwt>
<rscale>  0 0.79302208E+02</rscale>
<asrwt>0</asrwt>
<pdfrwt beam="1">  1        2 0.13390435E-02 0.79302208E+02</pdfrwt>
<pdfrwt beam="2">  1       -1 0.27790039E-01 0.79302208E+02</pdfrwt>
<totfact> 0.10492961E+05</totfact>
</mgrwt>
</event>
<event>
 8    1  0.2676873E-024  0.7963261E+02  0.7818608E-02  0.1330097E+00
          2   -1    0    0  501    0  0.00000000000E+00  0.00000000000E+00  0.44654565271E+02  0.44654565344E+02  0.25500000000E-02 0. -1.
         -1   -1    0    0    0  501 -0.00000000000E+00 -0.00000000000E+00 -0.35502259062E+02  0.35502259420E+02  0.50400000000E-02 0.  1.
         24    2    1    2    0    0  0.00000000000E+00  0.00000000000E+00  0.91523062089E+01  0.80156824763E+02  0.79632605428E+02 0.  0.
         66    2    3    3    0    0  0.49272504882E+01 -0.10242588043E+02  0.42963309744E+02  0.44486339327E+02  0.19999988557E+01 0.  0.
        -13    1    3    3    0    0 -0.49272504882E+01  0.10242588043E+02 -0.33811003535E+02  0.35670485436E+02  0.10566000000E+00 0.  1.
         13    1    4    4    0    0  0.86177833603E+00 -0.97477797078E+00  0.57516160551E+01  0.58978899001E+01  0.10566000000E+00 0. -1.
        -13    1    4    4    0    0  0.22968211424E+01 -0.38304121071E+01  0.17808382119E+02  0.18360203757E+02  0.10566000000E+00 0.  1.
         14    1    4    4    0    0  0.17686510097E+01 -0.54373979646E+01  0.19403311569E+02  0.20228245670E+02  0.00000000000E+00 0. -1.
<mgrwt>
<rscale>  0 0.79632605E+02</rscale>
<asrwt>0</asrwt>
<pdfrwt beam="1">  1        2 0.68699331E-02 0.79632605E+02</pdfrwt>
<pdfrwt beam="2">  1       -1 0.54618861E-02 0.79632605E+02</pdfrwt>
<totfact> 0.14771330E+05</totfact>
</mgrwt>
</event>
<event>
 8    1  0.2676873E-024  0.7855697E+02  0.7818608E-02  0.1333197E+00
         -1   -1    0    0    0  501 -0.00000000000E+00  0.00000000000E+00  0.40723663970E+01  0.40723695157E+01  0.50400000000E-02 0.  1.
          2   -1    0    0  501    0  0.00000000000E+00 -0.00000000000E+00 -0.37884581759E+03  0.37884581759E+03  0.25500000000E-02 0. -1.
         24    2    1    2    0    0  0.00000000000E+00  0.00000000000E+00 -0.37477345119E+03  0.38291818711E+03  0.78556974889E+02 0.  0.
         66    2    3    3    0    0  0.26215060940E+02 -0.22736253446E+02 -0.27694054852E+03  0.27911329970E+03  0.20000040405E+01 0.  0.
        -13    1    3    3    0    0 -0.26215060940E+02  0.22736253446E+02 -0.97832902672E+02  0.10380488741E+03  0.10566000000E+00 0.  1.
         13    1    4    4    0    0  0.17618973258E+01 -0.16763127557E+01 -0.20415631695E+02  0.20560240470E+02  0.10566000000E+00 0. -1.
        -13    1    4    4    0    0  0.17990985363E+02 -0.15328462726E+02 -0.18147761369E+03  0.18301030779E+03  0.10566000000E+00 0.  1.
        -14    1    4    4    0    0  0.64621782511E+01 -0.57314779637E+01 -0.75047303131E+02  0.75542751437E+02  0.00000000000E+00 0.  1.
<mgrwt>
<rscale>  0 0.78556975E+02</rscale>
<asrwt>0</asrwt>
<pdfrwt beam="1">  1        2 0.58283944E-01 0.78556975E+02</pdfrwt>
<pdfrwt beam="2">  1       -1 0.62651845E-03 0.78556975E+02</pdfrwt>
<totfact> 0.29067871E+05</totfact>
</mgrwt>
</event>
<event>
 8    1  0.2676873E-024  0.7879043E+02  0.7818608E-02  0.1332519E+00
          2   -1    0    0  501    0  0.00000000000E+00  0.00000000000E+00  0.89154669382E+02  0.89154669419E+02  0.25500000000E-02 0. -1.
         -1   -1    0    0    0  501 -0.00000000000E+00 -0.00000000000E+00 -0.17407759337E+02  0.17407760067E+02  0.50400000000E-02 0.  1.
         24    2    1    2    0    0 -0.35527136788E-14 -0.44408920985E-15  0.71746910045E+02  0.10656242949E+03  0.78790432648E+02 0.  0.
         66    2    3    3    0    0  0.30921363116E+02  0.24710655043E+01  0.68685169409E+02  0.75391573202E+02  0.19999878759E+01 0.  0.
        -13    1    3    3    0    0 -0.30921363116E+02 -0.24710655043E+01  0.30617406364E+01  0.31170856283E+02  0.10566000000E+00 0.  1.
         13    1    4    4    0    0  0.15080599621E+02  0.17025505257E+01  0.32367107607E+02  0.35748622101E+02  0.10566000000E+00 0. -1.
        -13    1    4    4    0    0  0.22434907776E+01 -0.22702303785E+00  0.49976196647E+01  0.54838085924E+01  0.10566000000E+00 0.  1.
         14    1    4    4    0    0  0.13597272717E+02  0.99553801642E+00  0.31320442136E+02  0.34159142508E+02  0.00000000000E+00 0. -1.
<mgrwt>
<rscale>  0 0.78790433E+02</rscale>
<asrwt>0</asrwt>
<pdfrwt beam="1">  1        2 0.13716103E-01 0.78790433E+02</pdfrwt>
<pdfrwt beam="2">  1       -1 0.26781168E-02 0.78790433E+02</pdfrwt>
<totfact> 0.17894248E+05</totfact>
</mgrwt>
</event>
<event>
 8    1  0.2676873E-024  0.7921144E+02  0.7818608E-02  0.1331304E+00
         -1   -1    0    0    0  501 -0.00000000000E+00  0.00000000000E+00  0.10390592885E+03  0.10390592898E+03  0.50400000000E-02 0.  1.
          2   -1    0    0  501    0  0.00000000000E+00 -0.00000000000E+00 -0.15096472166E+02  0.15096472382E+02  0.25500000000E-02 0. -1.
         24    2    1    2    0    0  0.00000000000E+00 -0.35527136788E-14  0.88809456687E+02  0.11900240136E+03  0.79211438137E+02 0.  0.
         66    2    3    3    0    0  0.12127174001E+02  0.21132067951E+02 -0.24288196798E+01  0.24566884291E+02  0.19999983953E+01 0.  0.
        -13    1    3    3    0    0 -0.12127174001E+02 -0.21132067951E+02  0.91238276367E+02  0.94435517066E+02  0.10566000000E+00 0.  1.
         13    1    4    4    0    0  0.10451304254E+01  0.21582102926E+01 -0.27030008542E+00  0.24154493257E+01  0.10566000000E+00 0. -1.
        -13    1    4    4    0    0  0.79103638901E+01  0.14620654470E+02 -0.10826908297E+01  0.16658954873E+02  0.10566000000E+00 0.  1.
        -14    1    4    4    0    0  0.31716796856E+01  0.43532031889E+01 -0.10758287646E+01  0.54924800922E+01  0.00000000000E+00 0.  1.
<mgrwt>
<rscale>  0 0.79211438E+02</rscale>
<asrwt>0</asrwt>
<pdfrwt beam="1">  1        2 0.23225342E-02 0.79211438E+02</pdfrwt>
<pdfrwt beam="2">  1       -1 0.15985528E-01 0.79211438E+02</pdfrwt>
<totfact> 0.12049825E+05</totfact>
</mgrwt>
</event>
<event>
 8    1  0.2676873E-024  0.7993999E+02  0.7818608E-02  0.1329222E+00
         -1   -1    0    0    0  501 -0.00000000000E+00  0.00000000000E+00  0.11612138505E+01  0.11612247880E+01  0.50400000000E-02 0.  1.
          2   -1    0    0  501    0  0.00000000000E+00 -0.00000000000E+00 -0.13757957590E+04  0.13757957590E+04  0.25500000000E-02 0. -1.
         24    2    1    2    0    0  0.00000000000E+00 -0.17763568394E-14 -0.13746345451E+04  0.13769569838E+04  0.79939993061E+02 0.  0.
         66    2    3    3    0    0  0.19521049136E+02  0.85236662712E+01 -0.12698024209E+04  0.12699826425E+04  0.19999991646E+01 0.  0.
        -13    1    3    3    0    0 -0.19521049136E+02 -0.85236662712E+01 -0.10483212423E+03  0.10697434123E+03  0.10566000000E+00 0.  1.
         13    1    4    4    0    0  0.11543058708E+02  0.56533700841E+01 -0.78193384614E+03  0.78203948347E+03  0.10566000000E+00 0. -1.
        -13    1    4    4    0    0  0.42578222186E+01  0.12165572982E+01 -0.27472996404E+03  0.27476566992E+03  0.10566000000E+00 0.  1.
         14    1    4    4    0    0  0.37201682094E+01  0.16537388890E+01 -0.21313861070E+03  0.21317748914E+03  0.00000000000E+00 0. -1.
<mgrwt>
<rscale>  0 0.79939993E+02</rscale>
<asrwt>0</asrwt>
<pdfrwt beam="1">  1        2 0.21165958E+00 0.79939993E+02</pdfrwt>
<pdfrwt beam="2">  1       -1 0.17865023E-03 0.79939993E+02</pdfrwt>
<totfact> 0.34241917E+05</totfact>
</mgrwt>
</event>
<event>
 8    1  0.2676873E-024  0.8602680E+02  0.7818608E-02  0.1312769E+00
          2   -1    0    0  501    0  0.00000000000E+00  0.00000000000E+00  0.65698274713E+03  0.65698274713E+03  0.25500000000E-02 0. -1.
         -1   -1    0    0    0  501 -0.00000000000E+00 -0.00000000000E+00 -0.28161334719E+01  0.28161379819E+01  0.50400000000E-02 0.  1.
         24    2    1    2    0    0 -0.71054273576E-14  0.00000000000E+00  0.65416661365E+03  0.65979888511E+03  0.86026800339E+02 0.  0.
         66    2    3    3    0    0 -0.30212302179E+02  0.23525482694E+02  0.47714583238E+03  0.47868400525E+03  0.19999976781E+01 0.  0.
        -13    1    3    3    0    0  0.30212302179E+02 -0.23525482694E+02  0.17702078128E+03  0.18111487986E+03  0.10566000000E+00 0.  1.
         13    1    4    4    0    0 -0.17339075476E+02  0.12712874529E+02  0.26798168912E+03  0.26884281203E+03  0.10566000000E+00 0. -1.
        -13    1    4    4    0    0 -0.11850080632E+01  0.13469383137E+01  0.24037093844E+02  0.24104180787E+02  0.10566000000E+00 0.  1.
        -14    1    4    4    0    0 -0.11688218639E+02  0.94656698516E+01  0.18512704942E+03  0.18573701243E+03  0.00000000000E+00 0.  1.
<mgrwt>
<rscale>  0 0.86026800E+02</rscale>
<asrwt>0</asrwt>
<pdfrwt beam="1">  1        2 0.10107436E+00 0.86026800E+02</pdfrwt>
<pdfrwt beam="2">  1       -1 0.43325124E-03 0.86026800E+02</pdfrwt>
<totfact> 0.27257186E+05</totfact>
</mgrwt>
</event>
<event>
 8    1  0.2676873E-024  0.8006278E+02  0.7818608E-02  0.1328873E+00
          2   -1    0    0  501    0  0.00000000000E+00  0.00000000000E+00  0.40842156743E+02  0.40842156822E+02  0.25500000000E-02 0. -1.
         -1   -1    0    0    0  501 -0.00000000000E+00 -0.00000000000E+00 -0.39236720190E+02  0.39236720514E+02  0.50400000000E-02 0.  1.
         24    2    1    2    0    0  0.00000000000E+00 -0.35527136788E-14  0.16054365525E+01  0.80078877336E+02  0.80062782671E+02 0.  0.
         66    2    3    3    0    0 -0.82043755119E+01 -0.25237467132E+02  0.30746934875E+02  0.40664671607E+02  0.19999969704E+01 0.  0.
        -13    1    3    3    0    0  0.82043755119E+01  0.25237467132E+02 -0.29141498323E+02  0.39414205730E+02  0.10566000000E+00 0.  1.
         13    1    4    4    0    0 -0.29276951513E+01 -0.91933145436E+01  0.11552159221E+02  0.15051643694E+02  0.10566000000E+00 0. -1.
        -13    1    4    4    0    0 -0.45223419791E+01 -0.11618846502E+02  0.14229439732E+02  0.18919230697E+02  0.10566000000E+00 0.  1.
         14    1    4    4    0    0 -0.75433838146E+00 -0.44253060858E+01  0.49653359220E+01  0.66937972157E+01  0.00000000000E+00 0. -1.
<mgrwt>
<rscale>  0 0.80062783E+02</rscale>
<asrwt>0</asrwt>
<pdfrwt beam="1">  1        2 0.62834087E-02 0.80062783E+02</pdfrwt>
<pdfrwt beam="2">  1       -1 0.60364186E-02 0.80062783E+02</pdfrwt>
<totfact> 0.14285559E+05</totfact>
</mgrwt>
</event>
<event>
 8    1  0.2676873E-024  0.8098014E+02  0.7818608E-02  0.1326293E+00
          2   -1    0    0  501    0  0.00000000000E+00  0.00000000000E+00  0.12915292628E+04  0.12915292628E+04  0.25500000000E-02 0. -1.
         -1   -1    0    0    0  501 -0.00000000000E+00 -0.00000000000E+00 -0.12693784198E+01  0.12693884253E+01  0.50400000000E-02 0.  1.
         24    2    1    2    0    0  0.00000000000E+00 -0.88817841970E-15  0.12902598844E+04  0.12927986512E+04  0.80980141860E+02 0.  0.
         66    2    3    3    0    0  0.21582374894E+02  0.49562212640E+01  0.11862129256E+04  0.11864212861E+04  0.19999997140E+01 0.  0.
        -13    1    3    3    0    0 -0.21582374894E+02 -0.49562212640E+01  0.10404695873E+03  0.10637736517E+03  0.10566000000E+00 0.  1.
         13    1    4    4    0    0  0.77308851158E+01  0.22831141815E+01  0.45603204594E+03  0.45610329673E+03  0.10566000000E+00 0. -1.
        -13    1    4    4    0    0  0.36348325430E+01  0.49069139649E+00  0.16830002677E+03  0.16834002186E+03  0.10566000000E+00 0.  1.
        -14    1    4    4    0    0  0.10216657235E+02  0.21824156859E+01  0.56188085292E+03  0.56197796746E+03  0.00000000000E+00 0.  1.
<mgrwt>
<rscale>  0 0.80980142E+02</rscale>
<asrwt>0</asrwt>
<pdfrwt beam="1">  1        2 0.19869725E+00 0.80980142E+02</pdfrwt>
<pdfrwt beam="2">  1       -1 0.19528932E-03 0.80980142E+02</pdfrwt>
<totfact> 0.33580417E+05</totfact>
</mgrwt>
</event>
<event>
 8    1  0.2676873E-024  0.7775561E+02  0.7818608E-02  0.1335544E+00
          2   -1    0    0  501    0  0.00000000000E+00  0.00000000000E+00  0.12972078143E+03  0.12972078146E+03  0.25500000000E-02 0. -1.
         -1   -1    0    0    0  501 -0.00000000000E+00 -0.00000000000E+00 -0.11651822714E+02  0.11651823804E+02  0.50400000000E-02 0.  1.
         24    2    1    2    0    0 -0.88817841970E-15 -0.35527136788E-14  0.11806895872E+03  0.14137260526E+03  0.77755607549E+02 0.  0.
         66    2    3    3    0    0 -0.65868837341E+01 -0.19747310384E+02  0.11871746037E+03  0.12054533892E+03  0.20000084208E+01 0.  0.
        -13    1    3    3    0    0  0.65868837341E+01  0.19747310384E+02 -0.64850165360E+00  0.20827266339E+02  0.10566000000E+00 0.  1.
         13    1    4    4    0    0 -0.34496177192E+01 -0.10908313692E+02  0.63732050456E+02  0.64750880993E+02  0.10566000000E+00 0. -1.
        -13    1    4    4    0    0 -0.26991131709E+01 -0.65973698540E+01  0.38922475209E+02  0.39569947452E+02  0.10566000000E+00 0.  1.
        -14    1    4    4    0    0 -0.43815284401E+00 -0.22416268388E+01  0.16062934705E+02  0.16224510475E+02  0.00000000000E+00 0.  1.
<mgrwt>
<rscale>  0 0.77755608E+02</rscale>
<asrwt>0</asrwt>
<pdfrwt beam="1">  1        2 0.19957044E-01 0.77755608E+02</pdfrwt>
<pdfrwt beam="2">  1       -1 0.17925881E-02 0.77755608E+02</pdfrwt>
<totfact> 0.20636932E+05</totfact>
</mgrwt>
</event>
<event>
 8    1  0.2676873E-024  0.8026913E+02  0.7818608E-02  0.1328289E+00
          2   -1    0    0  501    0  0.00000000000E+00  0.00000000000E+00  0.16271950369E+02  0.16271950569E+02  0.25500000000E-02 0. -1.
         -1   -1    0    0    0  501 -0.00000000000E+00 -0.00000000000E+00 -0.98991413819E+02  0.98991413947E+02  0.50400000000E-02 0.  1.
         24    2    1    2    0    0  0.00000000000E+00  0.00000000000E+00 -0.82719463450E+02  0.11526336452E+03  0.80269132087E+02 0.  0.
         66    2    3    3    0    0  0.20672008645E+02 -0.33891035178E+02 -0.33155860465E+02  0.51761426658E+02  0.19999999056E+01 0.  0.
        -13    1    3    3    0    0 -0.20672008645E+02  0.33891035178E+02 -0.49563602985E+02  0.63501937858E+02  0.10566000000E+00 0.  1.
         13    1    4    4    0    0  0.87766784319E+01 -0.15216196208E+02 -0.14606577890E+02  0.22845699661E+02  0.10566000000E+00 0. -1.
        -13    1    4    4    0    0  0.43684467079E+01 -0.70151604195E+01 -0.61012973824E+01  0.10272915659E+02  0.10566000000E+00 0.  1.
        -14    1    4    4    0    0  0.75268835055E+01 -0.11659678551E+02 -0.12447985193E+02  0.18642811338E+02  0.00000000000E+00 0.  1.
<mgrwt>
<rscale>  0 0.80269132E+02</rscale>
<asrwt>0</asrwt>
<pdfrwt beam="1">  1        2 0.25033771E-02 0.80269132E+02</pdfrwt>
<pdfrwt beam="2">  1       -1 0.15229448E-01 0.80269132E+02</pdfrwt>
<totfact> 0.11779752E+05</totfact>
</mgrwt>
</event>
<event>
 8    1  0.2676873E-024  0.7923486E+02  0.7818608E-02  0.1331237E+00
         -1   -1    0    0    0  501 -0.00000000000E+00  0.00000000000E+00  0.11039116180E+02  0.11039117331E+02  0.50400000000E-02 0.  1.
          2   -1    0    0  501    0  0.00000000000E+00 -0.00000000000E+00 -0.14217992450E+03  0.14217992453E+03  0.25500000000E-02 0. -1.
         24    2    1    2    0    0  0.88817841970E-15  0.00000000000E+00 -0.13114080832E+03  0.15321904186E+03  0.79234860888E+02 0.  0.
         66    2    3    3    0    0  0.68067860123E+01  0.18752787147E+02 -0.13174279633E+03  0.13325976043E+03  0.20000008080E+01 0.  0.
        -13    1    3    3    0    0 -0.68067860123E+01 -0.18752787147E+02  0.60198800505E+00  0.19959281429E+02  0.10566000000E+00 0.  1.
         13    1    4    4    0    0  0.50609323012E+01  0.13541621705E+02 -0.97867454937E+02  0.98929462012E+02  0.10566000000E+00 0. -1.
        -13    1    4    4    0    0  0.55387235664E-02  0.11109464438E+01 -0.69242220758E+01  0.70135759830E+01  0.10566000000E+00 0.  1.
        -14    1    4    4    0    0  0.17403149876E+01  0.41002189977E+01 -0.26951119317E+02  0.27316722434E+02  0.00000000000E+00 0.  1.
<mgrwt>
<rscale>  0 0.79234861E+02</rscale>
<asrwt>0</asrwt>
<pdfrwt beam="1">  1        2 0.21873833E-01 0.79234861E+02</pdfrwt>
<pdfrwt beam="2">  1       -1 0.16983258E-02 0.79234861E+02</pdfrwt>
<totfact> 0.20198998E+05</totfact>
</mgrwt>
</event>
<event>
 8    1  0.2676873E-024  0.7834568E+02  0.7818608E-02  0.1333813E+00
         -1   -1    0    0    0  501 -0.00000000000E+00  0.00000000000E+00  0.52283421814E+01  0.52283446107E+01  0.50400000000E-02 0.  1.
          2   -1    0    0  501    0  0.00000000000E+00 -0.00000000000E+00 -0.29349858626E+03  0.29349858627E+03  0.25500000000E-02 0. -1.
         24    2    1    2    0    0  0.00000000000E+00  0.00000000000E+00 -0.28827024407E+03  0.29872693088E+03  0.78345680243E+02 0.  0.
         66    2    3    3    0    0 -0.23859630740E+02 -0.14858537314E+02 -0.24812326243E+03  0.24971826420E+03  0.20000017384E+01 0.  0.
        -13    1    3    3    0    0  0.23859630740E+02  0.14858537314E+02 -0.40146981644E+02  0.49008666675E+02  0.10566000000E+00 0.  1.
         13    1    4    4    0    0 -0.10665501203E+02 -0.64310235958E+01 -0.11369438579E+03  0.11437454045E+03  0.10566000000E+00 0. -1.
        -13    1    4    4    0    0 -0.75638598452E+01 -0.54912081170E+01 -0.77390207050E+02  0.77952682145E+02  0.10566000000E+00 0.  1.
        -14    1    4    4    0    0 -0.56302696916E+01 -0.29363056008E+01 -0.57038669594E+02  0.57391041604E+02  0.00000000000E+00 0.  1.
<mgrwt>
<rscale>  0 0.78345680E+02</rscale>
<asrwt>0</asrwt>
<pdfrwt beam="1">  1        2 0.45153616E-01 0.78345680E+02</pdfrwt>
<pdfrwt beam="2">  1       -1 0.80436076E-03 0.78345680E+02</pdfrwt>
<totfact> 0.26716234E+05</totfact>
</mgrwt>
</event>
<event>
 8    1  0.2676873E-024  0.8128401E+02  0.7818608E-02  0.1325447E+00
         -1   -1    0    0    0  501 -0.00000000000E+00  0.00000000000E+00  0.31175637756E+01  0.31175678496E+01  0.50400000000E-02 0.  1.
          2   -1    0    0  501    0  0.00000000000E+00 -0.00000000000E+00 -0.52982765416E+03  0.52982765417E+03  0.25500000000E-02 0. -1.
         24    2    1    2    0    0  0.35527136788E-14  0.71054273576E-14 -0.52671009038E+03  0.53294522202E+03  0.81284010461E+02 0.  0.
         66    2    3    3    0    0 -0.12339074773E+02 -0.37831818852E+02 -0.31688812370E+03  0.31938312765E+03  0.19999998342E+01 0.  0.
        -13    1    3    3    0    0  0.12339074773E+02  0.37831818852E+02 -0.20982196668E+03  0.21356209437E+03  0.10566000000E+00 0.  1.
         13    1    4    4    0    0 -0.59205963747E+01 -0.16409429371E+02 -0.14312878709E+03  0.14418801508E+03  0.10566000000E+00 0. -1.
        -13    1    4    4    0    0 -0.62639199010E+01 -0.21183496445E+02 -0.17203010538E+03  0.17344262895E+03  0.10566000000E+00 0.  1.
         14    1    4    4    0    0 -0.15455849734E+00 -0.23889303595E+00 -0.17292312285E+01  0.17524836243E+01  0.00000000000E+00 0. -1.
<mgrwt>
<rscale>  0 0.81284010E+02</rscale>
<asrwt>0</asrwt>
<pdfrwt beam="1">  1        2 0.81511875E-01 0.81284010E+02</pdfrwt>
<pdfrwt beam="2">  1       -1 0.47962593E-03 0.81284010E+02</pdfrwt>
<totfact> 0.29748094E+05</totfact>
</mgrwt>
</event>
<event>
 8    1  0.2676873E-024  0.7928645E+02  0.7818608E-02  0.1331089E+00
          2   -1    0    0  501    0  0.00000000000E+00  0.00000000000E+00  0.35343499521E+03  0.35343499522E+03  0.25500000000E-02 0. -1.
         -1   -1    0    0    0  501 -0.00000000000E+00 -0.00000000000E+00 -0.44466022204E+01  0.44466050767E+01  0.50400000000E-02 0.  1.
         24    2    1    2    0    0  0.00000000000E+00  0.00000000000E+00  0.34898839299E+03  0.35788160030E+03  0.79286451484E+02 0.  0.
         66    2    3    3    0    0 -0.19141740672E+02 -0.24027039982E+01  0.33079743636E+03  0.33136554309E+03  0.20000064107E+01 0.  0.
        -13    1    3    3    0    0  0.19141740672E+02  0.24027039982E+01  0.18190956634E+02  0.26516057206E+02  0.10566000000E+00 0.  1.
         13    1    4    4    0    0 -0.83315839760E+01 -0.17277853683E+01  0.15787294706E+03  0.15810211608E+03  0.10566000000E+00 0. -1.
        -13    1    4    4    0    0 -0.83254331925E+01 -0.49869818244E+00  0.13272362280E+03  0.13298546068E+03  0.10566000000E+00 0. -1.
         14    1    4    4    0    0 -0.24847235031E+01 -0.17622044743E+00  0.40200866498E+02  0.40277966331E+02  0.00000000000E+00 0. -1.
<mgrwt>
<rscale>  0 0.79286451E+02</rscale>
<asrwt>0</asrwt>
<pdfrwt beam="1">  1        2 0.54374620E-01 0.79286451E+02</pdfrwt>
<pdfrwt beam="2">  1       -1 0.68409280E-03 0.79286451E+02</pdfrwt>
<totfact> 0.27684747E+05</totfact>
</mgrwt>
</event>
<event>
 8    1  0.2676873E-024  0.8043449E+02  0.7818608E-02  0.1327823E+00
          2   -1    0    0  501    0  0.00000000000E+00  0.00000000000E+00  0.56838710097E+02  0.56838710154E+02  0.25500000000E-02 0. -1.
         -1   -1    0    0    0  501 -0.00000000000E+00 -0.00000000000E+00 -0.28456427187E+02  0.28456427633E+02  0.50400000000E-02 0.  1.
         24    2    1    2    0    0  0.00000000000E+00  0.00000000000E+00  0.28382282911E+02  0.85295137787E+02  0.80434486055E+02 0.  0.
         66    2    3    3    0    0 -0.20723975958E+01  0.13087905111E+02  0.54438052813E+02  0.56063264751E+02  0.19999921251E+01 0.  0.
        -13    1    3    3    0    0  0.20723975958E+01 -0.13087905111E+02 -0.26055769902E+02  0.29231873036E+02  0.10566000000E+00 0.  1.
         13    1    4    4    0    0 -0.17807519433E+01  0.94354089864E+01  0.36523676113E+02  0.37764905681E+02  0.10566000000E+00 0. -1.
        -13    1    4    4    0    0 -0.40241173114E+00  0.13631280182E+01  0.61773382001E+01  0.63396154828E+01  0.10566000000E+00 0.  1.
        -14    1    4    4    0    0  0.11076607859E+00  0.22893681068E+01  0.11737038499E+02  0.11958743587E+02  0.00000000000E+00 0.  1.
<mgrwt>
<rscale>  0 0.80434486E+02</rscale>
<asrwt>0</asrwt>
<pdfrwt beam="1">  1        2 0.87444169E-02 0.80434486E+02</pdfrwt>
<pdfrwt beam="2">  1       -1 0.43779119E-02 0.80434486E+02</pdfrwt>
<totfact> 0.15149121E+05</totfact>
</mgrwt>
</event>
<event>
 8    1  0.2676873E-024  0.7999560E+02  0.7818608E-02  0.1329064E+00
         -1   -1    0    0    0  501 -0.00000000000E+00  0.00000000000E+00  0.35225270785E+03  0.35225270789E+03  0.50400000000E-02 0.  1.
          2   -1    0    0  501    0  0.00000000000E+00 -0.00000000000E+00 -0.45416940520E+01  0.45416947678E+01  0.25500000000E-02 0. -1.
         24    2    1    2    0    0  0.00000000000E+00  0.35527136788E-14  0.34771101380E+03  0.35679440266E+03  0.79995603934E+02 0.  0.
         66    2    3    3    0    0  0.56394518915E+01  0.30803584317E+02  0.28476623992E+03  0.28648992238E+03  0.20000002393E+01 0.  0.
        -13    1    3    3    0    0 -0.56394518915E+01 -0.30803584317E+02  0.62944773879E+02  0.70304480278E+02  0.10566000000E+00 0.  1.
         13    1    4    4    0    0  0.28288731715E+01  0.15336359000E+02  0.14085637044E+03  0.14171709385E+03  0.10566000000E+00 0. -1.
        -13    1    4    4    0    0  0.19655043453E+01  0.12224468207E+02  0.10824372379E+03  0.10894960181E+03  0.10566000000E+00 0.  1.
        -14    1    4    4    0    0  0.84507437465E+00  0.32427571104E+01  0.35666145688E+02  0.35823226720E+02  0.00000000000E+00 0.  1.
<mgrwt>
<rscale>  0 0.79995604E+02</rscale>
<asrwt>0</asrwt>
<pdfrwt beam="1">  1        2 0.69872209E-03 0.79995604E+02</pdfrwt>
<pdfrwt beam="2">  1       -1 0.54192734E-01 0.79995604E+02</pdfrwt>
<totfact> 0.80649371E+04</totfact>
</mgrwt>
</event>
<event>
 8    1  0.2676873E-024  0.8045077E+02  0.7818608E-02  0.1327777E+00
         -1   -1    0    0    0  501 -0.00000000000E+00  0.00000000000E+00  0.35828325927E+01  0.35828361376E+01  0.50400000000E-02 0.  1.
          2   -1    0    0  501    0  0.00000000000E+00 -0.00000000000E+00 -0.45162052440E+03  0.45162052441E+03  0.25500000000E-02 0. -1.
         24    2    1    2    0    0  0.00000000000E+00  0.35527136788E-14 -0.44803769181E+03  0.45520336055E+03  0.80450768619E+02 0.  0.
         66    2    3    3    0    0 -0.95857771169E+01 -0.21296032252E+02 -0.40929797572E+03  0.40996858544E+03  0.20000008692E+01 0.  0.
        -13    1    3    3    0    0  0.95857771169E+01  0.21296032252E+02 -0.38739716090E+02  0.45234775112E+02  0.10566000000E+00 0.  1.
         13    1    4    4    0    0 -0.27310759248E+01 -0.49073345584E+01 -0.90786477517E+02  0.90960081201E+02  0.10566000000E+00 0. -1.
        -13    1    4    4    0    0 -0.23239419682E+01 -0.42764665309E+01 -0.86522862485E+02  0.86659712490E+02  0.10566000000E+00 0.  1.
         14    1    4    4    0    0 -0.45307592239E+01 -0.12112231162E+02 -0.23198863572E+03  0.23234879175E+03  0.00000000000E+00 0. -1.
<mgrwt>
<rscale>  0 0.80450769E+02</rscale>
<asrwt>0</asrwt>
<pdfrwt beam="1">  1        2 0.69480036E-01 0.80450769E+02</pdfrwt>
<pdfrwt beam="2">  1       -1 0.55120565E-03 0.80450769E+02</pdfrwt>
<totfact> 0.29025264E+05</totfact>
</mgrwt>
</event>
<event>
 8    1  0.2676873E-024  0.8051451E+02  0.7818608E-02  0.1327598E+00
          2   -1    0    0  501    0  0.00000000000E+00  0.00000000000E+00  0.15897805451E+03  0.15897805453E+03  0.25500000000E-02 0. -1.
         -1   -1    0    0    0  501 -0.00000000000E+00 -0.00000000000E+00 -0.10194153095E+02  0.10194154341E+02  0.50400000000E-02 0.  1.
         24    2    1    2    0    0  0.35527136788E-14 -0.35527136788E-14  0.14878390142E+03  0.16917220887E+03  0.80514513812E+02 0.  0.
         66    2    3    3    0    0 -0.27189909743E+02  0.27555892973E+02  0.97456790750E+02  0.10488300385E+03  0.20000008704E+01 0.  0.
        -13    1    3    3    0    0  0.27189909743E+02 -0.27555892973E+02  0.51327110665E+02  0.64289205024E+02  0.10566000000E+00 0.  1.
         13    1    4    4    0    0 -0.63496697011E+01  0.59030074096E+01  0.20571134952E+02  0.22323677095E+02  0.10566000000E+00 0. -1.
        -13    1    4    4    0    0 -0.31070892308E+00  0.51197452063E+00  0.14918677280E+01  0.16110528539E+01  0.10566000000E+00 0.  1.
         14    1    4    4    0    0 -0.20529531119E+02  0.21140911043E+02  0.75393788070E+02  0.80948273899E+02  0.00000000000E+00 0. -1.
<mgrwt>
<rscale>  0 0.80514514E+02</rscale>
<asrwt>0</asrwt>
<pdfrwt beam="1">  1        2 0.24458161E-01 0.80514514E+02</pdfrwt>
<pdfrwt beam="2">  1       -1 0.15683314E-02 0.80514514E+02</pdfrwt>
<totfact> 0.20067933E+05</totfact>
</mgrwt>
</event>
<event>
 8    1  0.2676873E-024  0.7838214E+02  0.7818608E-02  0.1333706E+00
          2   -1    0    0  501    0  0.00000000000E+00  0.00000000000E+00  0.17581848099E+03  0.17581848101E+03  0.25500000000E-02 0. -1.
         -1   -1    0    0    0  501 -0.00000000000E+00 -0.00000000000E+00 -0.87359406688E+01  0.87359421226E+01  0.50400000000E-02 0.  1.
         24    2    1    2    0    0  0.00000000000E+00  0.00000000000E+00  0.16708254032E+03  0.18455442313E+03  0.78382139656E+02 0.  0.
         66    2    3    3    0    0  0.36164873333E+01  0.37294032225E+02  0.11044263091E+03  0.11664261030E+03  0.19999986223E+01 0.  0.
        -13    1    3    3    0    0 -0.36164873333E+01 -0.37294032225E+02  0.56639909412E+02  0.67911812834E+02  0.10566000000E+00 0.  1.
         13    1    4    4    0    0  0.13826001316E+01  0.72821727305E+01  0.21476726322E+02  0.22720091557E+02  0.10566000000E+00 0. -1.
        -13    1    4    4    0    0  0.10463774422E+00  0.59712622553E+01  0.17853563111E+02  0.18826252994E+02  0.10566000000E+00 0.  1.
         14    1    4    4    0    0  0.21292494575E+01  0.24040597239E+02  0.71112341474E+02  0.75096265744E+02  0.00000000000E+00 0. -1.
<mgrwt>
<rscale>  0 0.78382140E+02</rscale>
<asrwt>0</asrwt>
<pdfrwt beam="1">  1        2 0.27048997E-01 0.78382140E+02</pdfrwt>
<pdfrwt beam="2">  1       -1 0.13439910E-02 0.78382140E+02</pdfrwt>
<totfact> 0.22276506E+05</totfact>
</mgrwt>
</event>
<event>
 8    1  0.2676873E-024  0.8071822E+02  0.7818608E-02  0.1327026E+00
         -1   -1    0    0    0  501 -0.00000000000E+00  0.00000000000E+00  0.10777908961E+02  0.10777910139E+02  0.50400000000E-02 0.  1.
          2   -1    0    0  501    0  0.00000000000E+00 -0.00000000000E+00 -0.15112926520E+03  0.15112926523E+03  0.25500000000E-02 0. -1.
         24    2    1    2    0    0 -0.71054273576E-14  0.00000000000E+00 -0.14035135624E+03  0.16190717537E+03  0.80718215015E+02 0.  0.
         66    2    3    3    0    0 -0.37026967080E+02  0.68261531258E+01 -0.99234643432E+02  0.10615605077E+03  0.19999998659E+01 0.  0.
        -13    1    3    3    0    0  0.37026967080E+02 -0.68261531258E+01 -0.41116712813E+02  0.55751124600E+02  0.10566000000E+00 0.  1.
         13    1    4    4    0    0 -0.12583778115E+02  0.25365446486E+01 -0.33190487251E+02  0.35586586495E+02  0.10566000000E+00 0. -1.
        -13    1    4    4    0    0 -0.80277501373E+01  0.86979860039E+00 -0.22835896948E+02  0.24221698440E+02  0.10566000000E+00 0.  1.
        -14    1    4    4    0    0 -0.16415438827E+02  0.34198098768E+01 -0.43208259233E+02  0.46347765830E+02  0.00000000000E+00 0.  1.
<mgrwt>
<rscale>  0 0.80718215E+02</rscale>
<asrwt>0</asrwt>
<pdfrwt beam="1">  1        2 0.23250655E-01 0.80718215E+02</pdfrwt>
<pdfrwt beam="2">  1       -1 0.16581400E-02 0.80718215E+02</pdfrwt>
<totfact> 0.19607800E+05</totfact>
</mgrwt>
</event>
<event>
 8    1  0.2676873E-024  0.7881408E+02  0.7818608E-02  0.1332451E+00
         -1   -1    0    0    0  501 -0.00000000000E+00  0.00000000000E+00  0.30720964142E+03  0.30720964146E+03  0.50400000000E-02 0.  1.
          2   -1    0    0  501    0  0.00000000000E+00 -0.00000000000E+00 -0.50549019117E+01  0.50549025549E+01  0.25500000000E-02 0. -1.
         24    2    1    2    0    0 -0.35527136788E-14 -0.35527136788E-14  0.30215473951E+03  0.31226454402E+03  0.78814077691E+02 0.  0.
         66    2    3    3    0    0  0.24558378582E+02  0.30680154128E+02  0.16129424520E+03  0.16602475519E+03  0.19999961286E+01 0.  0.
        -13    1    3    3    0    0 -0.24558378582E+02 -0.30680154128E+02  0.14086049431E+03  0.14623978883E+03  0.10566000000E+00 0.  1.
         13    1    4    4    0    0  0.54067007675E+00  0.36548930261E+00  0.23976073191E+01  0.24870849311E+01  0.10566000000E+00 0. -1.
        -13    1    4    4    0    0  0.23895118253E+01  0.29872781051E+01  0.16619179158E+02  0.17054086817E+02  0.10566000000E+00 0.  1.
         14    1    4    4    0    0  0.21628196680E+02  0.27327386720E+02  0.14227745872E+03  0.14648358344E+03  0.00000000000E+00 0. -1.
<mgrwt>
<rscale>  0 0.78814078E+02</rscale>
<asrwt>0</asrwt>
<pdfrwt beam="1">  1        2 0.77767712E-03 0.78814078E+02</pdfrwt>
<pdfrwt beam="2">  1       -1 0.47263031E-01 0.78814078E+02</pdfrwt>
<totfact> 0.88937589E+04</totfact>
</mgrwt>
</event>
<event>
 8    1  0.2676873E-024  0.8002902E+02  0.7818608E-02  0.1328969E+00
          2   -1    0    0  501    0  0.00000000000E+00  0.00000000000E+00  0.46181560708E+03  0.46181560708E+03  0.25500000000E-02 0. -1.
         -1   -1    0    0    0  501 -0.00000000000E+00 -0.00000000000E+00 -0.34670984339E+01  0.34671020972E+01  0.50400000000E-02 0.  1.
         24    2    1    2    0    0  0.00000000000E+00  0.00000000000E+00  0.45834850864E+03  0.46528270918E+03  0.80029020284E+02 0.  0.
         66    2    3    3    0    0 -0.21646714223E+02 -0.22168787200E+02  0.37629786892E+03  0.37757664322E+03  0.19999981685E+01 0.  0.
        -13    1    3    3    0    0  0.21646714223E+02  0.22168787200E+02  0.82050639725E+02  0.87706065958E+02  0.10566000000E+00 0.  1.
         13    1    4    4    0    0 -0.10178990304E+02 -0.10545419613E+02  0.17631246632E+03  0.17692064510E+03  0.10566000000E+00 0. -1.
        -13    1    4    4    0    0 -0.71889731630E+01 -0.82086673686E+01  0.13089587471E+03  0.13134993238E+03  0.10566000000E+00 0.  1.
        -14    1    4    4    0    0 -0.42787507553E+01 -0.34147002179E+01  0.69089527885E+02  0.69306065745E+02  0.00000000000E+00 0.  1.
<mgrwt>
<rscale>  0 0.80029020E+02</rscale>
<asrwt>0</asrwt>
<pdfrwt beam="1">  1        2 0.71048468E-01 0.80029020E+02</pdfrwt>
<pdfrwt beam="2">  1       -1 0.53340070E-03 0.80029020E+02</pdfrwt>
<totfact> 0.29646022E+05</totfact>
</mgrwt>
</event>
<event>
 8    1  0.2676873E-024  0.7618153E+02  0.7818608E-02  0.1340251E+00
         -1   -1    0    0    0  501 -0.00000000000E+00  0.00000000000E+00  0.23907602360E+01  0.23907655485E+01  0.50400000000E-02 0.  1.
          2   -1    0    0  501    0  0.00000000000E+00 -0.00000000000E+00 -0.60688008856E+03  0.60688008857E+03  0.25500000000E-02 0. -1.
         24    2    1    2    0    0  0.71054273576E-14  0.00000000000E+00 -0.60448932833E+03  0.60927085412E+03  0.76181530669E+02 0.  0.
         66    2    3    3    0    0 -0.36153915749E+02  0.11759565486E+01 -0.39722098383E+03  0.39886965095E+03  0.19999898965E+01 0.  0.
        -13    1    3    3    0    0  0.36153915749E+02 -0.11759565486E+01 -0.20726834450E+03  0.21040120316E+03  0.10566000000E+00 0.  1.
         13    1    4    4    0    0 -0.10207838989E+02  0.66018669831E+00 -0.11970526436E+03  0.12014157192E+03  0.10566000000E+00 0. -1.
        -13    1    4    4    0    0 -0.20186100276E+02  0.30039818945E+00 -0.21984942890E+03  0.22077443564E+03  0.10566000000E+00 0.  1.
        -14    1    4    4    0    0 -0.57599764840E+01  0.21537166084E+00 -0.57666290574E+02  0.57953643394E+02  0.00000000000E+00 0.  1.
<mgrwt>
<rscale>  0 0.76181531E+02</rscale>
<asrwt>0</asrwt>
<pdfrwt beam="1">  1        2 0.93366045E-01 0.76181531E+02</pdfrwt>
<pdfrwt beam="2">  1       -1 0.36781016E-03 0.76181531E+02</pdfrwt>
<totfact> 0.36632371E+05</totfact>
</mgrwt>
</event>
<event>
 8    1  0.2676873E-024  0.8109054E+02  0.7818608E-02  0.1325985E+00
         -1   -1    0    0    0  501 -0.00000000000E+00  0.00000000000E+00  0.14805735931E+02  0.14805736789E+02  0.50400000000E-02 0.  1.
          2   -1    0    0  501    0  0.00000000000E+00 -0.00000000000E+00 -0.11103257397E+03  0.11103257400E+03  0.25500000000E-02 0. -1.
         24    2    1    2    0    0  0.00000000000E+00  0.00000000000E+00 -0.96226838035E+02  0.12583831078E+03  0.81090542623E+02 0.  0.
         66    2    3    3    0    0 -0.33321320090E+02 -0.18757133586E+02 -0.68949421835E+02  0.78868011323E+02  0.20000014554E+01 0.  0.
        -13    1    3    3    0    0  0.33321320090E+02  0.18757133586E+02 -0.27277416201E+02  0.46970299462E+02  0.10566000000E+00 0.  1.
         13    1    4    4    0    0 -0.34313573709E+01 -0.15357008223E+01 -0.69932644579E+01  0.79403716686E+01  0.10566000000E+00 0. -1.
        -13    1    4    4    0    0 -0.10637619875E+02 -0.69443104777E+01 -0.22813656063E+02  0.26112381577E+02  0.10566000000E+00 0.  1.
         14    1    4    4    0    0 -0.19252342844E+02 -0.10277122286E+02 -0.39142501313E+02  0.44815258077E+02  0.00000000000E+00 0. -1.
<mgrwt>
<rscale>  0 0.81090543E+02</rscale>
<asrwt>0</asrwt>
<pdfrwt beam="1">  1        2 0.17081934E-01 0.81090543E+02</pdfrwt>
<pdfrwt beam="2">  1       -1 0.22778057E-02 0.81090543E+02</pdfrwt>
<totfact> 0.17613886E+05</totfact>
</mgrwt>
</event>
<event>
 8    1  0.2676873E-024  0.8039919E+02  0.7818608E-02  0.1327922E+00
         -1   -1    0    0    0  501 -0.00000000000E+00  0.00000000000E+00  0.10062377177E+02  0.10062378439E+02  0.50400000000E-02 0.  1.
          2   -1    0    0  501    0  0.00000000000E+00 -0.00000000000E+00 -0.16059896009E+03  0.16059896012E+03  0.25500000000E-02 0. -1.
         24    2    1    2    0    0 -0.71054273576E-14  0.00000000000E+00 -0.15053658292E+03  0.17066133855E+03  0.80399189551E+02 0.  0.
         66    2    3    3    0    0  0.38537923534E+02 -0.10302701372E+02 -0.65204643470E+02  0.76465434928E+02  0.20000006979E+01 0.  0.
        -13    1    3    3    0    0 -0.38537923534E+02  0.10302701372E+02 -0.85331939448E+02  0.94195903626E+02  0.10566000000E+00 0.  1.
         13    1    4    4    0    0  0.20876629264E+02 -0.52170184867E+01 -0.33533917170E+02  0.39844519022E+02  0.10566000000E+00 0. -1.
        -13    1    4    4    0    0  0.56095413700E+01 -0.14782035303E+01 -0.10363901932E+02  0.11877443637E+02  0.10566000000E+00 0.  1.
         14    1    4    4    0    0  0.12051752901E+02 -0.36074793549E+01 -0.21306824367E+02  0.24743472268E+02  0.00000000000E+00 0. -1.
<mgrwt>
<rscale>  0 0.80399190E+02</rscale>
<asrwt>0</asrwt>
<pdfrwt beam="1">  1        2 0.24707530E-01 0.80399190E+02</pdfrwt>
<pdfrwt beam="2">  1       -1 0.15480582E-02 0.80399190E+02</pdfrwt>
<totfact> 0.20211566E+05</totfact>
</mgrwt>
</event>
<event>
 8    1  0.2676873E-024  0.7986486E+02  0.7818608E-02  0.1329435E+00
         -1   -1    0    0    0  501 -0.00000000000E+00  0.00000000000E+00  0.51217508756E+01  0.51217533554E+01  0.50400000000E-02 0.  1.
          2   -1    0    0  501    0  0.00000000000E+00 -0.00000000000E+00 -0.31133853358E+03  0.31133853359E+03  0.25500000000E-02 0. -1.
         24    2    1    2    0    0 -0.35527136788E-14  0.35527136788E-14 -0.30621678271E+03  0.31646028695E+03  0.79864855876E+02 0.  0.
         66    2    3    3    0    0  0.23397586070E+02 -0.26985454699E+02 -0.22374594671E+03  0.22658753383E+03  0.20000046061E+01 0.  0.
        -13    1    3    3    0    0 -0.23397586070E+02  0.26985454699E+02 -0.82470836001E+02  0.89872753123E+02  0.10566000000E+00 0.  1.
         13    1    4    4    0    0  0.36874401546E+01 -0.41891715326E+01 -0.32311655715E+02  0.32790252089E+02  0.10566000000E+00 0. -1.
        -13    1    4    4    0    0  0.14368112738E+01 -0.22788005318E+01 -0.17174019124E+02  0.17384345125E+02  0.10566000000E+00 0.  1.
         14    1    4    4    0    0  0.18273334642E+02 -0.20517482634E+02 -0.17426027187E+03  0.17641293661E+03  0.00000000000E+00 0. -1.
<mgrwt>
<rscale>  0 0.79864856E+02</rscale>
<asrwt>0</asrwt>
<pdfrwt beam="1">  1        2 0.47898221E-01 0.79864856E+02</pdfrwt>
<pdfrwt beam="2">  1       -1 0.78796211E-03 0.79864856E+02</pdfrwt>
<totfact> 0.25953673E+05</totfact>
</mgrwt>
</event>
<event>
 8    1  0.2676873E-024  0.7917753E+02  0.7818608E-02  0.1331402E+00
          2   -1    0    0  501    0  0.00000000000E+00  0.00000000000E+00  0.93079950819E+02  0.93079950854E+02  0.25500000000E-02 0. -1.
         -1   -1    0    0    0  501 -0.00000000000E+00 -0.00000000000E+00 -0.16837891862E+02  0.16837892617E+02  0.50400000000E-02 0.  1.
         24    2    1    2    0    0  0.00000000000E+00  0.71054273576E-14  0.76242058957E+02  0.10991784347E+03  0.79177526857E+02 0.  0.
         66    2    3    3    0    0 -0.32547113051E+02  0.18116804147E+02  0.56652845426E+02  0.67831246896E+02  0.20000000497E+01 0.  0.
        -13    1    3    3    0    0  0.32547113051E+02 -0.18116804147E+02  0.19589213531E+02  0.42086596575E+02  0.10566000000E+00 0.  1.
         13    1    4    4    0    0 -0.13752037777E+02  0.80836304120E+01  0.24462534381E+02  0.29204286946E+02  0.10566000000E+00 0. -1.
        -13    1    4    4    0    0 -0.29749456200E+00  0.32228937260E+00  0.83637700449E+00  0.95029678698E+00  0.10566000000E+00 0. -1.
        -14    1    4    4    0    0 -0.18497580712E+02  0.97108843623E+01  0.31353934041E+02  0.37676663163E+02  0.00000000000E+00 0.  1.
<mgrwt>
<rscale>  0 0.79177527E+02</rscale>
<asrwt>0</asrwt>
<pdfrwt beam="1">  1        2 0.14319993E-01 0.79177527E+02</pdfrwt>
<pdfrwt beam="2">  1       -1 0.25904449E-02 0.79177527E+02</pdfrwt>
<totfact> 0.17866721E+05</totfact>
</mgrwt>
</event>
<event>
 8    1  0.2676873E-024  0.8009706E+02  0.7818608E-02  0.1328776E+00
         -1   -1    0    0    0  501 -0.00000000000E+00  0.00000000000E+00  0.12456462622E+02  0.12456463641E+02  0.50400000000E-02 0.  1.
          2   -1    0    0  501    0  0.00000000000E+00 -0.00000000000E+00 -0.12875923687E+03  0.12875923690E+03  0.25500000000E-02 0. -1.
         24    2    1    2    0    0  0.00000000000E+00  0.00000000000E+00 -0.11630277425E+03  0.14121570054E+03  0.80097058500E+02 0.  0.
         66    2    3    3    0    0 -0.13805380251E+02 -0.12161169334E+02 -0.12085417635E+03  0.12226289103E+03  0.20000040663E+01 0.  0.
        -13    1    3    3    0    0  0.13805380251E+02  0.12161169334E+02  0.45514021004E+01  0.18952809516E+02  0.10566000000E+00 0.  1.
         13    1    4    4    0    0 -0.39022387434E+01 -0.34798685394E+01 -0.38170488362E+02  0.38527059297E+02  0.10566000000E+00 0.  1.
        -13    1    4    4    0    0 -0.54469787330E+01 -0.49354159975E+01 -0.42147697398E+02  0.42783962748E+02  0.10566000000E+00 0. -1.
         14    1    4    4    0    0 -0.44561627742E+01 -0.37458847972E+01 -0.40535990593E+02  0.40951868980E+02  0.00000000000E+00 0. -1.
<mgrwt>
<rscale>  0 0.80097059E+02</rscale>
<asrwt>0</asrwt>
<pdfrwt beam="1">  1        2 0.19809112E-01 0.80097059E+02</pdfrwt>
<pdfrwt beam="2">  1       -1 0.19163790E-02 0.80097059E+02</pdfrwt>
<totfact> 0.19028617E+05</totfact>
</mgrwt>
</event>
<event>
 8    1  0.2676873E-024  0.7869711E+02  0.7818608E-02  0.1332790E+00
          2   -1    0    0  501    0  0.00000000000E+00  0.00000000000E+00  0.88246256753E+02  0.88246256789E+02  0.25500000000E-02 0. -1.
         -1   -1    0    0    0  501 -0.00000000000E+00 -0.00000000000E+00 -0.17545319994E+02  0.17545320718E+02  0.50400000000E-02 0.  1.
         24    2    1    2    0    0 -0.35527136788E-14  0.35527136788E-14  0.70700936758E+02  0.10579157751E+03  0.78697111847E+02 0.  0.
         66    2    3    3    0    0 -0.24079621624E+02  0.19237453093E+02  0.68202392497E+02  0.74869713616E+02  0.19999738932E+01 0.  0.
        -13    1    3    3    0    0  0.24079621624E+02 -0.19237453093E+02  0.24985442618E+01  0.30921863892E+02  0.10566000000E+00 0.  1.
         13    1    4    4    0    0 -0.89917449020E+00  0.78988705270E+00  0.21615654395E+01  0.24730478169E+01  0.10566000000E+00 0. -1.
        -13    1    4    4    0    0 -0.11378090110E+02  0.82646532309E+01  0.30316291727E+02  0.33419367673E+02  0.10566000000E+00 0.  1.
        -14    1    4    4    0    0 -0.11802357024E+02  0.10182912810E+02  0.35724535330E+02  0.38977298125E+02  0.00000000000E+00 0.  1.
<mgrwt>
<rscale>  0 0.78697112E+02</rscale>
<asrwt>0</asrwt>
<pdfrwt beam="1">  1        2 0.13576347E-01 0.78697112E+02</pdfrwt>
<pdfrwt beam="2">  1       -1 0.26992801E-02 0.78697112E+02</pdfrwt>
<totfact> 0.17902333E+05</totfact>
</mgrwt>
</event>
<event>
 8    1  0.2676873E-024  0.8023528E+02  0.7818608E-02  0.1328385E+00
          2   -1    0    0  501    0  0.00000000000E+00  0.00000000000E+00  0.10301584093E+03  0.10301584096E+03  0.25500000000E-02 0. -1.
         -1   -1    0    0    0  501 -0.00000000000E+00 -0.00000000000E+00 -0.15623083212E+02  0.15623084025E+02  0.50400000000E-02 0.  1.
         24    2    1    2    0    0  0.00000000000E+00 -0.17763568394E-14  0.87392757720E+02  0.11863892499E+03  0.80235281643E+02 0.  0.
         66    2    3    3    0    0 -0.20979273818E+02 -0.10044153767E+02  0.92009643994E+02  0.94925178812E+02  0.20000074461E+01 0.  0.
        -13    1    3    3    0    0  0.20979273818E+02  0.10044153767E+02 -0.46168862739E+01  0.23713746176E+02  0.10566000000E+00 0.  1.
         13    1    4    4    0    0 -0.61609193113E+01 -0.33550469681E+01  0.29119555174E+02  0.29952845015E+02  0.10566000000E+00 0. -1.
        -13    1    4    4    0    0 -0.34863144275E+01 -0.20287018055E+01  0.13964717663E+02  0.14535973402E+02  0.10566000000E+00 0.  1.
        -14    1    4    4    0    0 -0.11332040079E+02 -0.46604049929E+01  0.48925371156E+02  0.50436360394E+02  0.00000000000E+00 0.  1.
<mgrwt>
<rscale>  0 0.80235282E+02</rscale>
<asrwt>0</asrwt>
<pdfrwt beam="1">  1        2 0.15848591E-01 0.80235282E+02</pdfrwt>
<pdfrwt beam="2">  1       -1 0.24035513E-02 0.80235282E+02</pdfrwt>
<totfact> 0.17734722E+05</totfact>
</mgrwt>
</event>
<event>
 8    1  0.2676873E-024  0.7885723E+02  0.7818608E-02  0.1332326E+00
         -1   -1    0    0    0  501 -0.00000000000E+00  0.00000000000E+00  0.13089800214E+02  0.13089801184E+02  0.50400000000E-02 0.  1.
          2   -1    0    0  501    0  0.00000000000E+00 -0.00000000000E+00 -0.11876541421E+03  0.11876541423E+03  0.25500000000E-02 0. -1.
         24    2    1    2    0    0  0.17763568394E-14  0.00000000000E+00 -0.10567561399E+03  0.13185521542E+03  0.78857228205E+02 0.  0.
         66    2    3    3    0    0 -0.14512714349E+02 -0.25105331355E+02 -0.97479273192E+02  0.10172072178E+03  0.19999993538E+01 0.  0.
        -13    1    3    3    0    0  0.14512714349E+02  0.25105331355E+02 -0.81963408007E+01  0.30134493637E+02  0.10566000000E+00 0.  1.
         13    1    4    4    0    0 -0.44086039885E+01 -0.75544381711E+01 -0.28160116398E+02  0.29487431980E+02  0.10566000000E+00 0.  1.
        -13    1    4    4    0    0 -0.58867972660E+01 -0.97418154406E+01 -0.36359010660E+02  0.38099162331E+02  0.10566000000E+00 0. -1.
        -14    1    4    4    0    0 -0.42173130941E+01 -0.78090777433E+01 -0.32960146134E+02  0.34134127470E+02  0.00000000000E+00 0.  1.
<mgrwt>
<rscale>  0 0.78857228E+02</rscale>
<asrwt>0</asrwt>
<pdfrwt beam="1">  1        2 0.18271601E-01 0.78857228E+02</pdfrwt>
<pdfrwt beam="2">  1       -1 0.20138156E-02 0.78857228E+02</pdfrwt>
<totfact> 0.19357200E+05</totfact>
</mgrwt>
</event>
<event>
 8    1  0.2676873E-024  0.8149450E+02  0.7818608E-02  0.1324863E+00
          2   -1    0    0  501    0  0.00000000000E+00  0.00000000000E+00  0.86113967284E+02  0.86113967322E+02  0.25500000000E-02 0. -1.
         -1   -1    0    0    0  501 -0.00000000000E+00 -0.00000000000E+00 -0.19280708059E+02  0.19280708718E+02  0.50400000000E-02 0.  1.
         24    2    1    2    0    0  0.35527136788E-14  0.00000000000E+00  0.66833259225E+02  0.10539467604E+03  0.81494497967E+02 0.  0.
         66    2    3    3    0    0  0.26538540514E+02  0.23170262108E+02  0.59851732706E+02  0.69479386046E+02  0.19999996749E+01 0.  0.
        -13    1    3    3    0    0 -0.26538540514E+02 -0.23170262108E+02  0.69815265197E+01  0.35915289994E+02  0.10566000000E+00 0.  1.
         13    1    4    4    0    0  0.83910247902E+01  0.64960404443E+01  0.18708186083E+02  0.21508492021E+02  0.10566000000E+00 0. -1.
        -13    1    4    4    0    0  0.34839127780E+01  0.26871348702E+01  0.74242486988E+01  0.86306995564E+01  0.10566000000E+00 0. -1.
         14    1    4    4    0    0  0.14663602946E+02  0.13987086794E+02  0.33719297924E+02  0.39340194468E+02  0.00000000000E+00 0. -1.
<mgrwt>
<rscale>  0 0.81494498E+02</rscale>
<asrwt>0</asrwt>
<pdfrwt beam="1">  1        2 0.13248303E-01 0.81494498E+02</pdfrwt>
<pdfrwt beam="2">  1       -1 0.29662628E-02 0.81494498E+02</pdfrwt>
<totfact> 0.16191686E+05</totfact>
</mgrwt>
</event>
<event>
 8    1  0.2676873E-024  0.8130889E+02  0.7818608E-02  0.1325378E+00
         -1   -1    0    0    0  501 -0.00000000000E+00  0.00000000000E+00  0.81194948714E+02  0.81194948871E+02  0.50400000000E-02 0.  1.
          2   -1    0    0  501    0  0.00000000000E+00 -0.00000000000E+00 -0.20355746257E+02  0.20355746417E+02  0.25500000000E-02 0. -1.
         24    2    1    2    0    0  0.71054273576E-14 -0.35527136788E-14  0.60839202457E+02  0.10155069529E+03  0.81308887324E+02 0.  0.
         66    2    3    3    0    0  0.31121356921E+02 -0.26112561172E+02  0.29674048829E+02  0.50348325496E+02  0.19999997065E+01 0.  0.
        -13    1    3    3    0    0 -0.31121356921E+02  0.26112561172E+02  0.31165153628E+02  0.51202369792E+02  0.10566000000E+00 0.  1.
         13    1    4    4    0    0  0.16390268152E+02 -0.14815693376E+02  0.15739760469E+02  0.27127419412E+02  0.10566000000E+00 0. -1.
        -13    1    4    4    0    0  0.10174141442E+02 -0.78300153368E+01  0.92666957561E+01  0.15833670090E+02  0.10566000000E+00 0.  1.
        -14    1    4    4    0    0  0.45569473274E+01 -0.34668524586E+01  0.46675926039E+01  0.73872359939E+01  0.00000000000E+00 0.  1.
<mgrwt>
<rscale>  0 0.81308887E+02</rscale>
<asrwt>0</asrwt>
<pdfrwt beam="1">  1        2 0.31316533E-02 0.81308887E+02</pdfrwt>
<pdfrwt beam="2">  1       -1 0.12491531E-01 0.81308887E+02</pdfrwt>
<totfact> 0.11892317E+05</totfact>
</mgrwt>
</event>
<event>
 8    1  0.2676873E-024  0.8046038E+02  0.7818608E-02  0.1327750E+00
          2   -1    0    0  501    0  0.00000000000E+00  0.00000000000E+00  0.32332075025E+03  0.32332075026E+03  0.25500000000E-02 0. -1.
         -1   -1    0    0    0  501 -0.00000000000E+00 -0.00000000000E+00 -0.50057658390E+01  0.50057683762E+01  0.50400000000E-02 0.  1.
         24    2    1    2    0    0  0.00000000000E+00  0.00000000000E+00  0.31831498441E+03  0.32832651863E+03  0.80460384906E+02 0.  0.
         66    2    3    3    0    0  0.24867574877E+02  0.19194240814E+02  0.26164916690E+03  0.26353576930E+03  0.20000007178E+01 0.  0.
        -13    1    3    3    0    0 -0.24867574877E+02 -0.19194240814E+02  0.56665817511E+02  0.64790749331E+02  0.10566000000E+00 0.  1.
         13    1    4    4    0    0  0.77688982035E+01  0.69376280224E+01  0.87647962367E+02  0.88264732102E+02  0.10566000000E+00 0. -1.
        -13    1    4    4    0    0  0.13950939952E+02  0.98011224558E+01  0.13808283484E+03  0.13913148878E+03  0.10566000000E+00 0.  1.
         14    1    4    4    0    0  0.31477367217E+01  0.24554903357E+01  0.35918369688E+02  0.36139548424E+02  0.00000000000E+00 0. -1.
<mgrwt>
<rscale>  0 0.80460385E+02</rscale>
<asrwt>0</asrwt>
<pdfrwt beam="1">  1        2 0.49741657E-01 0.80460385E+02</pdfrwt>
<pdfrwt beam="2">  1       -1 0.77011796E-03 0.80460385E+02</pdfrwt>
<totfact> 0.25802721E+05</totfact>
</mgrwt>
</event>
<event>
 8    1  0.2676873E-024  0.8047812E+02  0.7818608E-02  0.1327700E+00
          2   -1    0    0  501    0  0.00000000000E+00  0.00000000000E+00  0.43544496969E+02  0.43544497044E+02  0.25500000000E-02 0. -1.
         -1   -1    0    0    0  501 -0.00000000000E+00 -0.00000000000E+00 -0.37184536138E+02  0.37184536480E+02  0.50400000000E-02 0.  1.
         24    2    1    2    0    0  0.35527136788E-14  0.35527136788E-14  0.63599608305E+01  0.80729033524E+02  0.80478119709E+02 0.  0.
         66    2    3    3    0    0  0.31629657980E+02  0.19103297325E+02 -0.12735923508E+02  0.39135341750E+02  0.19999984063E+01 0.  0.
        -13    1    3    3    0    0 -0.31629657980E+02 -0.19103297325E+02  0.19095884339E+02  0.41593691774E+02  0.10566000000E+00 0.  1.
         13    1    4    4    0    0  0.30102346376E+02  0.18464482386E+02 -0.11946599717E+02  0.37280300106E+02  0.10566000000E+00 0. -1.
        -13    1    4    4    0    0  0.61241793617E+00  0.26156730069E+00 -0.44207272702E+00  0.80626640319E+00  0.10566000000E+00 0.  1.
         14    1    4    4    0    0  0.91489366815E+00  0.37724763806E+00 -0.34725106415E+00  0.10487752409E+01  0.00000000000E+00 0. -1.
<mgrwt>
<rscale>  0 0.80478120E+02</rscale>
<asrwt>0</asrwt>
<pdfrwt beam="1">  1        2 0.66991534E-02 0.80478120E+02</pdfrwt>
<pdfrwt beam="2">  1       -1 0.57206979E-02 0.80478120E+02</pdfrwt>
<totfact> 0.14272241E+05</totfact>
</mgrwt>
</event>
<event>
 8    1  0.2676873E-024  0.8394786E+02  0.7818608E-02  0.1318207E+00
         -1   -1    0    0    0  501 -0.00000000000E+00  0.00000000000E+00  0.32529863314E+02  0.32529863705E+02  0.50400000000E-02 0.  1.
          2   -1    0    0  501    0  0.00000000000E+00 -0.00000000000E+00 -0.54159792709E+02  0.54159792769E+02  0.25500000000E-02 0. -1.
         24    2    1    2    0    0  0.00000000000E+00  0.00000000000E+00 -0.21629929394E+02  0.86689656473E+02  0.83947856994E+02 0.  0.
         66    2    3    3    0    0  0.15332130755E+02  0.15838138691E+02  0.26036148271E+02  0.34173116272E+02  0.19999970602E+01 0.  0.
        -13    1    3    3    0    0 -0.15332130755E+02 -0.15838138691E+02 -0.47666077665E+02  0.52516540201E+02  0.10566000000E+00 0.  1.
         13    1    4    4    0    0  0.42429062829E+01  0.49620057069E+01  0.71116389209E+01  0.96545495254E+01  0.10566000000E+00 0. -1.
        -13    1    4    4    0    0  0.82056511488E+01  0.84521875183E+01  0.15080441841E+02  0.19136433178E+02  0.10566000000E+00 0.  1.
        -14    1    4    4    0    0  0.28835733235E+01  0.24239454660E+01  0.38440675091E+01  0.53821335685E+01  0.00000000000E+00 0.  1.
<mgrwt>
<rscale>  0 0.83947857E+02</rscale>
<asrwt>0</asrwt>
<pdfrwt beam="1">  1        2 0.83322758E-02 0.83947857E+02</pdfrwt>
<pdfrwt beam="2">  1       -1 0.50045944E-02 0.83947857E+02</pdfrwt>
<totfact> 0.13327819E+05</totfact>
</mgrwt>
</event>
<event>
 8    1  0.2676873E-024  0.8105552E+02  0.7818608E-02  0.1326082E+00
         -1   -1    0    0    0  501 -0.00000000000E+00  0.00000000000E+00  0.41600231549E+01  0.41600262080E+01  0.50400000000E-02 0.  1.
          2   -1    0    0  501    0  0.00000000000E+00 -0.00000000000E+00 -0.39482918796E+03  0.39482918797E+03  0.25500000000E-02 0. -1.
         24    2    1    2    0    0  0.00000000000E+00 -0.35527136788E-14 -0.39066916481E+03  0.39898921418E+03  0.81055516157E+02 0.  0.
         66    2    3    3    0    0  0.32379362334E+02  0.24320395947E+02 -0.19167397925E+03  0.19591533648E+03  0.19999956641E+01 0.  0.
        -13    1    3    3    0    0 -0.32379362334E+02 -0.24320395947E+02 -0.19899518556E+03  0.20307387770E+03  0.10566000000E+00 0.  1.
         13    1    4    4    0    0  0.44327199227E+01  0.31394830450E+01 -0.26673680593E+02  0.27221347508E+02  0.10566000000E+00 0. -1.
        -13    1    4    4    0    0  0.26357143888E+02  0.19606171671E+02 -0.15580718602E+03  0.15923250730E+03  0.10566000000E+00 0.  1.
        -14    1    4    4    0    0  0.15894985233E+01  0.15747412310E+01 -0.91931126382E+01  0.94614816746E+01  0.00000000000E+00 0.  1.
<mgrwt>
<rscale>  0 0.81055516E+02</rscale>
<asrwt>0</asrwt>
<pdfrwt beam="1">  1        2 0.60742922E-01 0.81055516E+02</pdfrwt>
<pdfrwt beam="2">  1       -1 0.64000411E-03 0.81055516E+02</pdfrwt>
<totfact> 0.27177743E+05</totfact>
</mgrwt>
</event>
<event>
 8    1  0.2676873E-024  0.7955780E+02  0.7818608E-02  0.1330311E+00
         -1   -1    0    0    0  501 -0.00000000000E+00  0.00000000000E+00  0.36149711737E+01  0.36149746871E+01  0.50400000000E-02 0.  1.
          2   -1    0    0  501    0  0.00000000000E+00 -0.00000000000E+00 -0.43772415149E+03  0.43772415150E+03  0.25500000000E-02 0. -1.
         24    2    1    2    0    0  0.00000000000E+00  0.00000000000E+00 -0.43410918032E+03  0.44133912619E+03  0.79557802047E+02 0.  0.
         66    2    3    3    0    0  0.32579007574E+01 -0.18961724923E+02 -0.41017362025E+03  0.41062946762E+03  0.20000000984E+01 0.  0.
        -13    1    3    3    0    0 -0.32579007574E+01  0.18961724923E+02 -0.23935560070E+02  0.30709658568E+02  0.10566000000E+00 0.  1.
         13    1    4    4    0    0  0.17608314433E+01 -0.98169233087E+01 -0.20168190960E+03  0.20192839407E+03  0.10566000000E+00 0. -1.
        -13    1    4    4    0    0  0.72908802465E+00 -0.16894721428E+01 -0.37832286547E+02  0.37877156109E+02  0.10566000000E+00 0.  1.
        -14    1    4    4    0    0  0.76798128951E+00 -0.74553294719E+01 -0.17065942411E+03  0.17082391744E+03  0.00000000000E+00 0.  1.
<mgrwt>
<rscale>  0 0.79557802E+02</rscale>
<asrwt>0</asrwt>
<pdfrwt beam="1">  1        2 0.67342135E-01 0.79557802E+02</pdfrwt>
<pdfrwt beam="2">  1       -1 0.55615003E-03 0.79557802E+02</pdfrwt>
<totfact> 0.29569656E+05</totfact>
</mgrwt>
</event>
<event>
 8    1  0.2676873E-024  0.8047757E+02  0.7818608E-02  0.1327702E+00
         -1   -1    0    0    0  501 -0.00000000000E+00  0.00000000000E+00  0.41279610017E+01  0.41279640784E+01  0.50400000000E-02 0.  1.
          2   -1    0    0  501    0  0.00000000000E+00 -0.00000000000E+00 -0.39224192861E+03  0.39224192862E+03  0.25500000000E-02 0. -1.
         24    2    1    2    0    0  0.17763568394E-14  0.00000000000E+00 -0.38811396761E+03  0.39636989270E+03  0.80477574416E+02 0.  0.
         66    2    3    3    0    0 -0.91896159501E+01  0.17257120358E+02 -0.36725426790E+03  0.36777976363E+03  0.19999994517E+01 0.  0.
        -13    1    3    3    0    0  0.91896159501E+01 -0.17257120358E+02 -0.20859699711E+02  0.28590129074E+02  0.10566000000E+00 0.  1.
         13    1    4    4    0    0 -0.15305935549E+01  0.29558610793E+01 -0.54721901754E+02  0.54823147729E+02  0.10566000000E+00 0. -1.
        -13    1    4    4    0    0 -0.56469105002E+01  0.90658850227E+01 -0.20471516368E+03  0.20499362739E+03  0.10566000000E+00 0.  1.
         14    1    4    4    0    0 -0.20121118950E+01  0.52353742559E+01 -0.10781720247E+03  0.10796298850E+03  0.00000000000E+00 0. -1.
<mgrwt>
<rscale>  0 0.80477574E+02</rscale>
<asrwt>0</asrwt>
<pdfrwt beam="1">  1        2 0.60344883E-01 0.80477574E+02</pdfrwt>
<pdfrwt beam="2">  1       -1 0.63507147E-03 0.80477574E+02</pdfrwt>
<totfact> 0.27627228E+05</totfact>
</mgrwt>
</event>
<event>
 8    1  0.2676873E-024  0.8080279E+02  0.7818608E-02  0.1326789E+00
          2   -1    0    0  501    0  0.00000000000E+00  0.00000000000E+00  0.87120168713E+03  0.87120168714E+03  0.25500000000E-02 0. -1.
         -1   -1    0    0    0  501 -0.00000000000E+00 -0.00000000000E+00 -0.18735843944E+01  0.18735911733E+01  0.50400000000E-02 0.  1.
         24    2    1    2    0    0 -0.71054273576E-14  0.00000000000E+00  0.86932810274E+03  0.87307527831E+03  0.80802793176E+02 0.  0.
         66    2    3    3    0    0  0.24445209827E+02  0.21115836630E+02  0.69667445676E+03  0.69742579931E+03  0.19999995234E+01 0.  0.
        -13    1    3    3    0    0 -0.24445209827E+02 -0.21115836630E+02  0.17265364598E+03  0.17564947900E+03  0.10566000000E+00 0.  1.
         13    1    4    4    0    0  0.63460678719E+01  0.56964113105E+01  0.19812654328E+03  0.19831000982E+03  0.10566000000E+00 0. -1.
        -13    1    4    4    0    0  0.17223463972E+02  0.14954292461E+02  0.47689889182E+03  0.47744407291E+03  0.10566000000E+00 0.  1.
         14    1    4    4    0    0  0.87567798269E+00  0.46513285902E+00  0.21649021664E+02  0.21671716580E+02  0.00000000000E+00 0. -1.
<mgrwt>
<rscale>  0 0.80802793E+02</rscale>
<asrwt>0</asrwt>
<pdfrwt beam="1">  1        2 0.13403123E+00 0.80802793E+02</pdfrwt>
<pdfrwt beam="2">  1       -1 0.28824384E-03 0.80802793E+02</pdfrwt>
<totfact> 0.33919685E+05</totfact>
</mgrwt>
</event>
<event>
 8    1  0.2676873E-024  0.7890668E+02  0.7818608E-02  0.1332183E+00
         -1   -1    0    0    0  501 -0.00000000000E+00  0.00000000000E+00  0.91815933537E+01  0.91815947370E+01  0.50400000000E-02 0.  1.
          2   -1    0    0  501    0  0.00000000000E+00 -0.00000000000E+00 -0.16953115171E+03  0.16953115173E+03  0.25500000000E-02 0. -1.
         24    2    1    2    0    0  0.00000000000E+00  0.35527136788E-14 -0.16034955836E+03  0.17871274646E+03  0.78906684662E+02 0.  0.
         66    2    3    3    0    0 -0.18385858227E+02 -0.26559478980E+02 -0.13142983635E+03  0.13535600314E+03  0.19999995653E+01 0.  0.
        -13    1    3    3    0    0  0.18385858227E+02  0.26559478980E+02 -0.28919722009E+02  0.43356743322E+02  0.10566000000E+00 0.  1.
         13    1    4    4    0    0 -0.23131506323E+01 -0.36750108964E+01 -0.16222404793E+02  0.16793866506E+02  0.10566000000E+00 0. -1.
        -13    1    4    4    0    0 -0.42838585325E+01 -0.62382771108E+01 -0.28507243852E+02  0.29494773458E+02  0.10566000000E+00 0.  1.
        -14    1    4    4    0    0 -0.11788849062E+02 -0.16646190973E+02 -0.86700187701E+02  0.89067363178E+02  0.00000000000E+00 0.  1.
<mgrwt>
<rscale>  0 0.78906685E+02</rscale>
<asrwt>0</asrwt>
<pdfrwt beam="1">  1        2 0.26081713E-01 0.78906685E+02</pdfrwt>
<pdfrwt beam="2">  1       -1 0.14125531E-02 0.78906685E+02</pdfrwt>
<totfact> 0.21623000E+05</totfact>
</mgrwt>
</event>
<event>
 8    1  0.2676873E-024  0.7844820E+02  0.7818608E-02  0.1333514E+00
          2   -1    0    0  501    0  0.00000000000E+00  0.00000000000E+00  0.27942060038E+03  0.27942060039E+03  0.25500000000E-02 0. -1.
         -1   -1    0    0    0  501 -0.00000000000E+00 -0.00000000000E+00 -0.55061429833E+01  0.55061452900E+01  0.50400000000E-02 0.  1.
         24    2    1    2    0    0 -0.71054273576E-14  0.00000000000E+00  0.27391445740E+03  0.28492674568E+03  0.78448202234E+02 0.  0.
         66    2    3    3    0    0 -0.34178010052E+02  0.18443544368E+02  0.15634181398E+03  0.16110575253E+03  0.20000002662E+01 0.  0.
        -13    1    3    3    0    0  0.34178010052E+02 -0.18443544368E+02  0.11757264342E+03  0.12382099315E+03  0.10566000000E+00 0.  1.
         13    1    4    4    0    0 -0.92362450258E+01  0.46519288529E+01  0.42985368123E+02  0.44212008560E+02  0.10566000000E+00 0. -1.
        -13    1    4    4    0    0 -0.24262996670E+02  0.13638924866E+02  0.11009801476E+03  0.11356186550E+03  0.10566000000E+00 0.  1.
        -14    1    4    4    0    0 -0.67876835677E+00  0.15269064952E+00  0.32584310976E+01  0.33318784694E+01  0.00000000000E+00 0.  1.
<mgrwt>
<rscale>  0 0.78448202E+02</rscale>
<asrwt>0</asrwt>
<pdfrwt beam="1">  1        2 0.42987783E-01 0.78448202E+02</pdfrwt>
<pdfrwt beam="2">  1       -1 0.84709913E-03 0.78448202E+02</pdfrwt>
<totfact> 0.26155901E+05</totfact>
</mgrwt>
</event>
<event>
 8    1  0.2676873E-024  0.7890915E+02  0.7818608E-02  0.1332176E+00
          2   -1    0    0  501    0  0.00000000000E+00  0.00000000000E+00  0.13634764277E+03  0.13634764280E+03  0.25500000000E-02 0. -1.
         -1   -1    0    0    0  501 -0.00000000000E+00 -0.00000000000E+00 -0.11416870258E+02  0.11416871370E+02  0.50400000000E-02 0.  1.
         24    2    1    2    0    0  0.00000000000E+00  0.00000000000E+00  0.12493077252E+03  0.14776451417E+03  0.78909148556E+02 0.  0.
         66    2    3    3    0    0 -0.21091953556E+02 -0.18766815408E+02  0.11404739812E+03  0.11750690574E+03  0.20000034938E+01 0.  0.
        -13    1    3    3    0    0  0.21091953556E+02  0.18766815408E+02  0.10883374397E+02  0.30257608426E+02  0.10566000000E+00 0.  1.
         13    1    4    4    0    0 -0.14084283570E+02 -0.12958786400E+02  0.74306791835E+02  0.76732051096E+02  0.10566000000E+00 0. -1.
        -13    1    4    4    0    0 -0.54629619381E+01 -0.41868150686E+01  0.29572871169E+02  0.30363452484E+02  0.10566000000E+00 0.  1.
        -14    1    4    4    0    0 -0.15447080481E+01 -0.16212139393E+01  0.10167735116E+02  0.10411402162E+02  0.00000000000E+00 0.  1.
<mgrwt>
<rscale>  0 0.78909149E+02</rscale>
<asrwt>0</asrwt>
<pdfrwt beam="1">  1        2 0.20976562E-01 0.78909149E+02</pdfrwt>
<pdfrwt beam="2">  1       -1 0.17564416E-02 0.78909149E+02</pdfrwt>
<totfact> 0.20153958E+05</totfact>
</mgrwt>
</event>
<event>
 8    1  0.2676873E-024  0.9004160E+02  0.7818608E-02  0.1302751E+00
         -1   -1    0    0    0  501 -0.00000000000E+00  0.00000000000E+00  0.10799266131E+02  0.10799267307E+02  0.50400000000E-02 0.  1.
          2   -1    0    0  501    0  0.00000000000E+00 -0.00000000000E+00 -0.18768610069E+03  0.18768610070E+03  0.25500000000E-02 0. -1.
         24    2    1    2    0    0  0.00000000000E+00  0.17763568394E-14 -0.17688683456E+03  0.19848536801E+03  0.90041596363E+02 0.  0.
         66    2    3    3    0    0 -0.41808837984E+02  0.14254684425E+02 -0.10741019598E+03  0.11615560770E+03  0.20000093738E+01 0.  0.
        -13    1    3    3    0    0  0.41808837984E+02 -0.14254684425E+02 -0.69476638574E+02  0.82329760313E+02  0.10566000000E+00 0.  1.
         13    1    4    4    0    0 -0.29923127448E+02  0.99773466963E+01 -0.76008988502E+02  0.82294097604E+02  0.10566000000E+00 0. -1.
        -13    1    4    4    0    0 -0.10182811525E+02  0.32944915833E+01 -0.26756435159E+02  0.28817725653E+02  0.10566000000E+00 0.  1.
        -14    1    4    4    0    0 -0.17028990110E+01  0.98284614490E+00 -0.46447723205E+01  0.50437844418E+01  0.00000000000E+00 0.  1.
<mgrwt>
<rscale>  0 0.90041596E+02</rscale>
<asrwt>0</asrwt>
<pdfrwt beam="1">  1        2 0.28874782E-01 0.90041596E+02</pdfrwt>
<pdfrwt beam="2">  1       -1 0.16614258E-02 0.90041596E+02</pdfrwt>
<totfact> 0.15759392E+05</totfact>
</mgrwt>
</event>
<event>
 8    1  0.2676873E-024  0.7853688E+02  0.7818608E-02  0.1333256E+00
         -1   -1    0    0    0  501 -0.00000000000E+00  0.00000000000E+00  0.21704867292E+01  0.21704925808E+01  0.50400000000E-02 0.  1.
          2   -1    0    0  501    0  0.00000000000E+00 -0.00000000000E+00 -0.71044355344E+03  0.71044355344E+03  0.25500000000E-02 0. -1.
         24    2    1    2    0    0  0.00000000000E+00  0.00000000000E+00 -0.70827306671E+03  0.71261404602E+03  0.78536880284E+02 0.  0.
         66    2    3    3    0    0  0.27629375389E+02  0.16575204009E+01 -0.60678123493E+03  0.60741550592E+03  0.20000022699E+01 0.  0.
        -13    1    3    3    0    0 -0.27629375389E+02 -0.16575204009E+01 -0.10149183177E+03  0.10519854010E+03  0.10566000000E+00 0.  1.
         13    1    4    4    0    0  0.56921662290E+01  0.64530109050E+00 -0.11284694710E+03  0.11299230860E+03  0.10566000000E+00 0. -1.
        -13    1    4    4    0    0  0.35015703220E+01  0.16910145492E+00 -0.86926164440E+02  0.86996889705E+02  0.10566000000E+00 0.  1.
         14    1    4    4    0    0  0.18435638838E+02  0.84311785543E+00 -0.40700812340E+03  0.40742630762E+03  0.00000000000E+00 0. -1.
<mgrwt>
<rscale>  0 0.78536880E+02</rscale>
<asrwt>0</asrwt>
<pdfrwt beam="1">  1        2 0.10929882E+00 0.78536880E+02</pdfrwt>
<pdfrwt beam="2">  1       -1 0.33392205E-03 0.78536880E+02</pdfrwt>
<totfact> 0.35211910E+05</totfact>
</mgrwt>
</event>
<event>
 8    1  0.2676873E-024  0.7044708E+02  0.7818608E-02  0.1358579E+00
          2   -1    0    0  501    0  0.00000000000E+00  0.00000000000E+00  0.13008357908E+03  0.13008357911E+03  0.25500000000E-02 0. -1.
         -1   -1    0    0    0  501 -0.00000000000E+00 -0.00000000000E+00 -0.95376961902E+01  0.95376975218E+01  0.50400000000E-02 0.  1.
         24    2    1    2    0    0  0.17763568394E-14  0.00000000000E+00  0.12054588289E+03  0.13962127663E+03  0.70447079466E+02 0.  0.
         66    2    3    3    0    0  0.84708482704E+01 -0.90548488713E+01  0.12560331124E+03  0.12622970077E+03  0.20000008883E+01 0.  0.
        -13    1    3    3    0    0 -0.84708482704E+01  0.90548488713E+01 -0.50574283467E+01  0.13391575860E+02  0.10566000000E+00 0.  1.
         13    1    4    4    0    0  0.40183368027E+00 -0.80203676940E+00  0.74537498231E+01  0.75082810114E+01  0.10566000000E+00 0. -1.
        -13    1    4    4    0    0  0.45010930235E+01 -0.43417973084E+01  0.71250273446E+02  0.71524287291E+02  0.10566000000E+00 0.  1.
         14    1    4    4    0    0  0.35679215666E+01 -0.39110147935E+01  0.46899287968E+02  0.47197132465E+02  0.00000000000E+00 0. -1.
<mgrwt>
<rscale>  0 0.70447079E+02</rscale>
<asrwt>0</asrwt>
<pdfrwt beam="1">  1        2 0.20012859E-01 0.70447079E+02</pdfrwt>
<pdfrwt beam="2">  1       -1 0.14673380E-02 0.70447079E+02</pdfrwt>
<totfact> 0.26790813E+05</totfact>
</mgrwt>
</event>
<event>
 8    1  0.2676873E-024  0.8236412E+02  0.7818608E-02  0.1322473E+00
         -1   -1    0    0    0  501 -0.00000000000E+00  0.00000000000E+00  0.87075551380E+01  0.87075565966E+01  0.50400000000E-02 0.  1.
          2   -1    0    0  501    0  0.00000000000E+00 -0.00000000000E+00 -0.19476901984E+03  0.19476901986E+03  0.25500000000E-02 0. -1.
         24    2    1    2    0    0  0.44408920985E-15  0.00000000000E+00 -0.18606146471E+03  0.20347657646E+03  0.82364121547E+02 0.  0.
         66    2    3    3    0    0 -0.22731720961E+01  0.35514958087E+02 -0.42007534375E+02  0.55091854982E+02  0.19999954526E+01 0.  0.
        -13    1    3    3    0    0  0.22731720961E+01 -0.35514958087E+02 -0.14405393033E+03  0.14838472147E+03  0.10566000000E+00 0.  1.
         13    1    4    4    0    0 -0.63208635906E+00  0.57995079805E+01 -0.77748081831E+01  0.97207320867E+01  0.10566000000E+00 0. -1.
        -13    1    4    4    0    0 -0.10167594832E+01  0.24585290023E+02 -0.28076461053E+02  0.37333217310E+02  0.10566000000E+00 0.  1.
        -14    1    4    4    0    0 -0.62432625391E+00  0.51301600836E+01 -0.61562651383E+01  0.80379055859E+01  0.00000000000E+00 0.  1.
<mgrwt>
<rscale>  0 0.82364122E+02</rscale>
<asrwt>0</asrwt>
<pdfrwt beam="1">  1        2 0.29964462E-01 0.82364122E+02</pdfrwt>
<pdfrwt beam="2">  1       -1 0.13396241E-02 0.82364122E+02</pdfrwt>
<totfact> 0.20237177E+05</totfact>
</mgrwt>
</event>
<event>
 8    1  0.2676873E-024  0.8100082E+02  0.7818608E-02  0.1326235E+00
         -1   -1    0    0    0  501 -0.00000000000E+00  0.00000000000E+00  0.38863608205E+01  0.38863640886E+01  0.50400000000E-02 0.  1.
          2   -1    0    0  501    0  0.00000000000E+00 -0.00000000000E+00 -0.42206135486E+03  0.42206135487E+03  0.25500000000E-02 0. -1.
         24    2    1    2    0    0 -0.71054273576E-14  0.17763568394E-14 -0.41817499404E+03  0.42594771896E+03  0.81000824960E+02 0.  0.
         66    2    3    3    0    0 -0.35272427921E+02  0.11903349676E+02 -0.29276526232E+03  0.29512934915E+03  0.20000007992E+01 0.  0.
        -13    1    3    3    0    0  0.35272427921E+02 -0.11903349676E+02 -0.12540973173E+03  0.13081836982E+03  0.10566000000E+00 0.  1.
         13    1    4    4    0    0 -0.27310607342E+02  0.94368713745E+01 -0.22405050896E+03  0.22590609895E+03  0.10566000000E+00 0. -1.
        -13    1    4    4    0    0 -0.61679168984E+01  0.20989549957E+01 -0.51180537861E+02  0.51593676266E+02  0.10566000000E+00 0.  1.
        -14    1    4    4    0    0 -0.17939036811E+01  0.36752330624E+00 -0.17534215498E+02  0.17629573930E+02  0.00000000000E+00 0.  1.
<mgrwt>
<rscale>  0 0.81000825E+02</rscale>
<asrwt>0</asrwt>
<pdfrwt beam="1">  1        2 0.64932480E-01 0.81000825E+02</pdfrwt>
<pdfrwt beam="2">  1       -1 0.59790225E-03 0.81000825E+02</pdfrwt>
<totfact> 0.27864715E+05</totfact>
</mgrwt>
</event>
<event>
 8    1  0.2676873E-024  0.8056186E+02  0.7818608E-02  0.1327464E+00
         -1   -1    0    0    0  501 -0.00000000000E+00  0.00000000000E+00  0.57651155775E+00  0.57653358776E+00  0.50400000000E-02 0.  1.
          2   -1    0    0  501    0  0.00000000000E+00 -0.00000000000E+00 -0.28143796681E+04  0.28143796681E+04  0.25500000000E-02 0. -1.
         24    2    1    2    0    0  0.00000000000E+00  0.22204460493E-15 -0.28138031565E+04  0.28149562017E+04  0.80561862316E+02 0.  0.
         66    2    3    3    0    0  0.10913355139E+02 -0.17091534115E+01 -0.27603814838E+04  0.27604043107E+04  0.20000011947E+01 0.  0.
        -13    1    3    3    0    0 -0.10913355139E+02  0.17091534115E+01 -0.53421672743E+02  0.54551890971E+02  0.10566000000E+00 0.  1.
         13    1    4    4    0    0  0.31384808583E+01 -0.12325074576E+01 -0.83772068315E+03  0.83772747554E+03  0.10566000000E+00 0. -1.
        -13    1    4    4    0    0  0.34891606229E+01  0.27266595444E+00 -0.86332674729E+03  0.86333384756E+03  0.10566000000E+00 0.  1.
        -14    1    4    4    0    0  0.42857136577E+01 -0.74931190837E+00 -0.10593340534E+04  0.10593429876E+04  0.00000000000E+00 0.  1.
<mgrwt>
<rscale>  0 0.80561862E+02</rscale>
<asrwt>0</asrwt>
<pdfrwt beam="1">  1        2 0.43297049E+00 0.80561862E+02</pdfrwt>
<pdfrwt beam="2">  1       -1 0.88698034E-04 0.80561862E+02</pdfrwt>
<totfact> 0.16465391E+05</totfact>
</mgrwt>
</event>
<event>
 8    1  0.2676873E-024  0.7847625E+02  0.7818608E-02  0.1333432E+00
          2   -1    0    0  501    0  0.00000000000E+00  0.00000000000E+00  0.20524375699E+02  0.20524375857E+02  0.25500000000E-02 0. -1.
         -1   -1    0    0    0  501 -0.00000000000E+00 -0.00000000000E+00 -0.75014728173E+02  0.75014728342E+02  0.50400000000E-02 0.  1.
         24    2    1    2    0    0  0.00000000000E+00  0.00000000000E+00 -0.54490352474E+02  0.95539104200E+02  0.78476250666E+02 0.  0.
         66    2    3    3    0    0 -0.95544187609E+01 -0.35098820362E+02 -0.94362896672E+01  0.37633199077E+02  0.20000003538E+01 0.  0.
        -13    1    3    3    0    0  0.95544187609E+01  0.35098820362E+02 -0.45054062807E+02  0.57905905123E+02  0.10566000000E+00 0.  1.
         13    1    4    4    0    0 -0.53717231096E+01 -0.18435852403E+02 -0.52525180575E+01  0.19908193614E+02  0.10566000000E+00 0. -1.
        -13    1    4    4    0    0 -0.15307005360E+01 -0.58055777282E+01 -0.20600328764E+01  0.63484388929E+01  0.10566000000E+00 0.  1.
         14    1    4    4    0    0 -0.26519951153E+01 -0.10857390231E+02 -0.21237387333E+01  0.11376566570E+02  0.00000000000E+00 0. -1.
<mgrwt>
<rscale>  0 0.78476251E+02</rscale>
<asrwt>0</asrwt>
<pdfrwt beam="1">  1        2 0.31575963E-02 0.78476251E+02</pdfrwt>
<pdfrwt beam="2">  1       -1 0.11540727E-01 0.78476251E+02</pdfrwt>
<totfact> 0.13186836E+05</totfact>
</mgrwt>
</event>
<event>
 8    1  0.2676873E-024  0.8086432E+02  0.7818608E-02  0.1326616E+00
          2   -1    0    0  501    0  0.00000000000E+00  0.00000000000E+00  0.25235961339E+03  0.25235961341E+03  0.25500000000E-02 0. -1.
         -1   -1    0    0    0  501 -0.00000000000E+00 -0.00000000000E+00 -0.64778960638E+01  0.64778980245E+01  0.50400000000E-02 0.  1.
         24    2    1    2    0    0  0.00000000000E+00  0.00000000000E+00  0.24588171733E+03  0.25883751143E+03  0.80864320975E+02 0.  0.
         66    2    3    3    0    0 -0.78214391514E+01 -0.32358764379E+02  0.19632175019E+03  0.19913436202E+03  0.19999993003E+01 0.  0.
        -13    1    3    3    0    0  0.78214391514E+01  0.32358764379E+02  0.49559967136E+02  0.59703149407E+02  0.10566000000E+00 0.  1.
         13    1    4    4    0    0 -0.58333039040E+01 -0.25954905859E+02  0.15874301930E+03  0.16095664607E+03  0.10566000000E+00 0. -1.
        -13    1    4    4    0    0 -0.22380033413E+00 -0.15918509014E+01  0.89611989826E+01  0.91048518452E+01  0.10566000000E+00 0. -1.
        -14    1    4    4    0    0 -0.17643349133E+01 -0.48120076178E+01  0.28617531907E+02  0.29072864108E+02  0.00000000000E+00 0.  1.
<mgrwt>
<rscale>  0 0.80864321E+02</rscale>
<asrwt>0</asrwt>
<pdfrwt beam="1">  1        2 0.38824551E-01 0.80864321E+02</pdfrwt>
<pdfrwt beam="2">  1       -1 0.99659968E-03 0.80864321E+02</pdfrwt>
<totfact> 0.23281472E+05</totfact>
</mgrwt>
</event>
<event>
 8    1  0.2676873E-024  0.8163952E+02  0.7818608E-02  0.1324462E+00
          2   -1    0    0  501    0  0.00000000000E+00  0.00000000000E+00  0.44306479742E+02  0.44306479816E+02  0.25500000000E-02 0. -1.
         -1   -1    0    0    0  501 -0.00000000000E+00 -0.00000000000E+00 -0.37607428257E+02  0.37607428595E+02  0.50400000000E-02 0.  1.
         24    2    1    2    0    0 -0.71054273576E-14  0.71054273576E-14  0.66990514848E+01  0.81913908411E+02  0.81639519232E+02 0.  0.
         66    2    3    3    0    0  0.21151947503E+02 -0.34613949616E+02  0.76924342896E+01  0.41336471767E+02  0.19999904143E+01 0.  0.
        -13    1    3    3    0    0 -0.21151947503E+02  0.34613949616E+02 -0.99338280472E+00  0.40577436644E+02  0.10566000000E+00 0.  1.
         13    1    4    4    0    0  0.21563557246E+01 -0.34280276779E+01  0.25802856407E+00  0.40594318010E+01  0.10566000000E+00 0.  1.
        -13    1    4    4    0    0  0.92118490391E+01 -0.16027322880E+02  0.37207880358E+01  0.18857058866E+02  0.10566000000E+00 0.  1.
         14    1    4    4    0    0  0.97837427395E+01 -0.15158599058E+02  0.37136176897E+01  0.18419981100E+02  0.00000000000E+00 0. -1.
<mgrwt>
<rscale>  0 0.81639519E+02</rscale>
<asrwt>0</asrwt>
<pdfrwt beam="1">  1        2 0.68163815E-02 0.81639519E+02</pdfrwt>
<pdfrwt beam="2">  1       -1 0.57857582E-02 0.81639519E+02</pdfrwt>
<totfact> 0.13769515E+05</totfact>
</mgrwt>
</event>
<event>
 8    1  0.2676873E-024  0.7927779E+02  0.7818608E-02  0.1331114E+00
          2   -1    0    0  501    0  0.00000000000E+00  0.00000000000E+00  0.89838460436E+02  0.89838460472E+02  0.25500000000E-02 0. -1.
         -1   -1    0    0    0  501 -0.00000000000E+00 -0.00000000000E+00 -0.17489635637E+02  0.17489636363E+02  0.50400000000E-02 0.  1.
         24    2    1    2    0    0  0.00000000000E+00  0.88817841970E-15  0.72348824799E+02  0.10732809684E+03  0.79277789579E+02 0.  0.
         66    2    3    3    0    0  0.33303876378E+02  0.78076905969E+01  0.63244329589E+02  0.71930198433E+02  0.20000017847E+01 0.  0.
        -13    1    3    3    0    0 -0.33303876378E+02 -0.78076905969E+01  0.91044952098E+01  0.35397898403E+02  0.10566000000E+00 0.  1.
         13    1    4    4    0    0  0.92158610023E+00 -0.15732089206E-01  0.14346384357E+01  0.17084846840E+01  0.10566000000E+00 0.  1.
        -13    1    4    4    0    0  0.43865435269E+01  0.13186529552E+01  0.81647444120E+01  0.93624155578E+01  0.10566000000E+00 0. -1.
         14    1    4    4    0    0  0.27995746751E+02  0.65047697309E+01  0.53644946741E+02  0.60859298191E+02  0.00000000000E+00 0. -1.
<mgrwt>
<rscale>  0 0.79277790E+02</rscale>
<asrwt>0</asrwt>
<pdfrwt beam="1">  1        2 0.13821302E-01 0.79277790E+02</pdfrwt>
<pdfrwt beam="2">  1       -1 0.26907132E-02 0.79277790E+02</pdfrwt>
<totfact> 0.17636655E+05</totfact>
</mgrwt>
</event>
<event>
 8    1  0.2676873E-024  0.7674633E+02  0.7818608E-02  0.1338547E+00
          2   -1    0    0  501    0  0.00000000000E+00  0.00000000000E+00  0.35176988959E+03  0.35176988960E+03  0.25500000000E-02 0. -1.
         -1   -1    0    0    0  501 -0.00000000000E+00 -0.00000000000E+00 -0.41859725508E+01  0.41859755849E+01  0.50400000000E-02 0.  1.
         24    2    1    2    0    0  0.00000000000E+00  0.00000000000E+00  0.34758391704E+03  0.35595586519E+03  0.76746326132E+02 0.  0.
         66    2    3    3    0    0  0.45514781813E+01  0.37389644505E+02  0.20728879866E+03  0.21069254265E+03  0.20000016818E+01 0.  0.
        -13    1    3    3    0    0 -0.45514781813E+01 -0.37389644505E+02  0.14029511838E+03  0.14526332254E+03  0.10566000000E+00 0.  1.
         13    1    4    4    0    0  0.18570049322E+01  0.15940979883E+02  0.86809850502E+02  0.88280941404E+02  0.10566000000E+00 0. -1.
        -13    1    4    4    0    0  0.50433726852E-01  0.27558560214E+01  0.17592195434E+02  0.17807127511E+02  0.10566000000E+00 0.  1.
         14    1    4    4    0    0  0.26440395222E+01  0.18692808601E+02  0.10288675272E+03  0.10460447373E+03  0.00000000000E+00 0. -1.
<mgrwt>
<rscale>  0 0.76746326E+02</rscale>
<asrwt>0</asrwt>
<pdfrwt beam="1">  1        2 0.54118463E-01 0.76746326E+02</pdfrwt>
<pdfrwt beam="2">  1       -1 0.64399580E-03 0.76746326E+02</pdfrwt>
<totfact> 0.30089512E+05</totfact>
</mgrwt>
</event>
<event>
 8    1  0.2676873E-024  0.7964111E+02  0.7818608E-02  0.1330073E+00
         -1   -1    0    0    0  501 -0.00000000000E+00  0.00000000000E+00  0.88457692156E+02  0.88457692300E+02  0.50400000000E-02 0.  1.
          2   -1    0    0  501    0  0.00000000000E+00 -0.00000000000E+00 -0.17925817395E+02  0.17925817577E+02  0.25500000000E-02 0. -1.
         24    2    1    2    0    0  0.71054273576E-14  0.35527136788E-14  0.70531874761E+02  0.10638350988E+03  0.79641106323E+02 0.  0.
         66    2    3    3    0    0  0.33300933228E+02  0.20440328145E+02  0.25210907867E+02  0.46544054893E+02  0.20000004605E+01 0.  0.
        -13    1    3    3    0    0 -0.33300933228E+02 -0.20440328145E+02  0.45320966894E+02  0.59839454984E+02  0.10566000000E+00 0.  1.
         13    1    4    4    0    0  0.43445264324E+01  0.23765347566E+01  0.37339162870E+01  0.62029124002E+01  0.10566000000E+00 0. -1.
        -13    1    4    4    0    0  0.26321240617E+02  0.16499991306E+02  0.19924932206E+02  0.36906252968E+02  0.10566000000E+00 0.  1.
        -14    1    4    4    0    0  0.26351661788E+01  0.15638020826E+01  0.15520593737E+01  0.34348895242E+01  0.00000000000E+00 0.  1.
<mgrwt>
<rscale>  0 0.79641106E+02</rscale>
<asrwt>0</asrwt>
<pdfrwt beam="1">  1        2 0.27578181E-02 0.79641106E+02</pdfrwt>
<pdfrwt beam="2">  1       -1 0.13608876E-01 0.79641106E+02</pdfrwt>
<totfact> 0.12299383E+05</totfact>
</mgrwt>
</event>
<event>
 8    1  0.2676873E-024  0.7729394E+02  0.7818608E-02  0.1336911E+00
          2   -1    0    0  501    0  0.00000000000E+00  0.00000000000E+00  0.14030004133E+03  0.14030004136E+03  0.25500000000E-02 0. -1.
         -1   -1    0    0    0  501 -0.00000000000E+00 -0.00000000000E+00 -0.10645671504E+02  0.10645672698E+02  0.50400000000E-02 0.  1.
         24    2    1    2    0    0  0.00000000000E+00  0.00000000000E+00  0.12965436983E+03  0.15094571405E+03  0.77293938802E+02 0.  0.
         66    2    3    3    0    0  0.37888152181E+02 -0.67177303921E+01  0.71330734705E+02  0.81072274497E+02  0.20000003210E+01 0.  0.
        -13    1    3    3    0    0 -0.37888152181E+02  0.67177303921E+01  0.58323635123E+02  0.69873439556E+02  0.10566000000E+00 0.  1.
         13    1    4    4    0    0  0.55095007256E+01 -0.97501146879E+00  0.11774887256E+02  0.13037038757E+02  0.10566000000E+00 0. -1.
        -13    1    4    4    0    0  0.18961137311E+02 -0.34010833065E+01  0.35616266190E+02  0.40492242185E+02  0.10566000000E+00 0. -1.
        -14    1    4    4    0    0  0.13417514145E+02 -0.23416356168E+01  0.23939581258E+02  0.27542993555E+02  0.00000000000E+00 0.  1.
<mgrwt>
<rscale>  0 0.77293939E+02</rscale>
<asrwt>0</asrwt>
<pdfrwt beam="1">  1        2 0.21584620E-01 0.77293939E+02</pdfrwt>
<pdfrwt beam="2">  1       -1 0.16377958E-02 0.77293939E+02</pdfrwt>
<totfact> 0.21481039E+05</totfact>
</mgrwt>
</event>
<event>
 8    1  0.2676873E-024  0.7980752E+02  0.7818608E-02  0.1329599E+00
          2   -1    0    0  501    0  0.00000000000E+00  0.00000000000E+00  0.22834066448E+03  0.22834066449E+03  0.25500000000E-02 0. -1.
         -1   -1    0    0    0  501 -0.00000000000E+00 -0.00000000000E+00 -0.69733955326E+01  0.69733973539E+01  0.50400000000E-02 0.  1.
         24    2    1    2    0    0  0.00000000000E+00  0.00000000000E+00  0.22136726894E+03  0.23531406184E+03  0.79807518080E+02 0.  0.
         66    2    3    3    0    0 -0.13290170724E+02 -0.34980019285E+02  0.70102426164E+02  0.79489499556E+02  0.19999996330E+01 0.  0.
        -13    1    3    3    0    0  0.13290170724E+02  0.34980019285E+02  0.15126484278E+03  0.15582456229E+03  0.10566000000E+00 0.  1.
         13    1    4    4    0    0 -0.79174170196E+01 -0.21145789790E+02  0.41853572427E+02  0.47555889299E+02  0.10566000000E+00 0. -1.
        -13    1    4    4    0    0 -0.21760776982E+01 -0.64909764636E+01  0.11921597654E+02  0.13747863261E+02  0.10566000000E+00 0.  1.
         14    1    4    4    0    0 -0.31966760062E+01 -0.73432530315E+01  0.16327256084E+02  0.18185746996E+02  0.00000000000E+00 0. -1.
<mgrwt>
<rscale>  0 0.79807518E+02</rscale>
<asrwt>0</asrwt>
<pdfrwt beam="1">  1        2 0.35129335E-01 0.79807518E+02</pdfrwt>
<pdfrwt beam="2">  1       -1 0.10728302E-02 0.79807518E+02</pdfrwt>
<totfact> 0.23256484E+05</totfact>
</mgrwt>
</event>
<event>
 8    1  0.2676873E-024  0.7929254E+02  0.7818608E-02  0.1331071E+00
         -1   -1    0    0    0  501 -0.00000000000E+00  0.00000000000E+00  0.96150981817E+02  0.96150981949E+02  0.50400000000E-02 0.  1.
          2   -1    0    0  501    0  0.00000000000E+00 -0.00000000000E+00 -0.16347484285E+02  0.16347484484E+02  0.25500000000E-02 0. -1.
         24    2    1    2    0    0  0.00000000000E+00 -0.88817841970E-15  0.79803497532E+02  0.11249846643E+03  0.79292538940E+02 0.  0.
         66    2    3    3    0    0 -0.19991371867E+02  0.69508828430E+01 -0.75935527425E+01  0.22575025207E+02  0.19999996012E+01 0.  0.
        -13    1    3    3    0    0  0.19991371867E+02 -0.69508828430E+01  0.87397050274E+02  0.89923441227E+02  0.10566000000E+00 0.  1.
         13    1    4    4    0    0 -0.76680022929E+01  0.27132468397E+01 -0.36284935871E+01  0.89071374372E+01  0.10566000000E+00 0. -1.
        -13    1    4    4    0    0 -0.25919760600E+00  0.15659281779E+00 -0.23350732314E+00  0.39672964989E+00  0.10566000000E+00 0.  1.
         14    1    4    4    0    0 -0.12064171968E+02  0.40810431855E+01 -0.37315518322E+01  0.13271158120E+02  0.00000000000E+00 0. -1.
<mgrwt>
<rscale>  0 0.79292539E+02</rscale>
<asrwt>0</asrwt>
<pdfrwt beam="1">  1        2 0.25149977E-02 0.79292539E+02</pdfrwt>
<pdfrwt beam="2">  1       -1 0.14792458E-01 0.79292539E+02</pdfrwt>
<totfact> 0.12219660E+05</totfact>
</mgrwt>
</event>
<event>
 8    1  0.2676873E-024  0.8039799E+02  0.7818608E-02  0.1327926E+00
          2   -1    0    0  501    0  0.00000000000E+00  0.00000000000E+00  0.66099840462E+02  0.66099840512E+02  0.25500000000E-02 0. -1.
         -1   -1    0    0    0  501 -0.00000000000E+00 -0.00000000000E+00 -0.24447246220E+02  0.24447246740E+02  0.50400000000E-02 0.  1.
         24    2    1    2    0    0  0.00000000000E+00  0.35527136788E-14  0.41652594242E+02  0.90547087251E+02  0.80397987553E+02 0.  0.
         66    2    3    3    0    0  0.24792227900E+02  0.17909081400E+02 -0.84984679137E+01  0.31805875481E+02  0.19999993397E+01 0.  0.
        -13    1    3    3    0    0 -0.24792227900E+02 -0.17909081400E+02  0.50151062156E+02  0.58741211771E+02  0.10566000000E+00 0.  1.
         13    1    4    4    0    0  0.40176981931E+01  0.27953076775E+01 -0.20617433973E+01  0.53120234991E+01  0.10566000000E+00 0. -1.
        -13    1    4    4    0    0  0.13992577486E+02  0.10571896884E+02 -0.44272799183E+01  0.18087819105E+02  0.10566000000E+00 0.  1.
         14    1    4    4    0    0  0.67819522209E+01  0.45418768384E+01 -0.20094445981E+01  0.84060328774E+01  0.00000000000E+00 0. -1.
<mgrwt>
<rscale>  0 0.80397988E+02</rscale>
<asrwt>0</asrwt>
<pdfrwt beam="1">  1        2 0.10169206E-01 0.80397988E+02</pdfrwt>
<pdfrwt beam="2">  1       -1 0.37611149E-02 0.80397988E+02</pdfrwt>
<totfact> 0.15711439E+05</totfact>
</mgrwt>
</event>
<event>
 8    1  0.2676873E-024  0.7714904E+02  0.7818608E-02  0.1337342E+00
         -1   -1    0    0    0  501 -0.00000000000E+00  0.00000000000E+00  0.24523655829E+02  0.24523656347E+02  0.50400000000E-02 0.  1.
          2   -1    0    0  501    0  0.00000000000E+00 -0.00000000000E+00 -0.60675852405E+02  0.60675852459E+02  0.25500000000E-02 0. -1.
         24    2    1    2    0    0  0.00000000000E+00 -0.35527136788E-14 -0.36152196577E+02  0.85199508806E+02  0.77149043956E+02 0.  0.
         66    2    3    3    0    0  0.12377271104E+02 -0.28800136082E+02 -0.42864661164E+02  0.53141545314E+02  0.19999958105E+01 0.  0.
        -13    1    3    3    0    0 -0.12377271104E+02  0.28800136082E+02  0.67124645877E+01  0.32057963492E+02  0.10566000000E+00 0.  1.
         13    1    4    4    0    0  0.74033817605E+01 -0.18971841986E+02 -0.27279974438E+02  0.34043340306E+02  0.10566000000E+00 0. -1.
        -13    1    4    4    0    0  0.45926307719E+01 -0.87383064282E+01 -0.14212126391E+02  0.17304506847E+02  0.10566000000E+00 0.  1.
         14    1    4    4    0    0  0.38125857193E+00 -0.10899876685E+01 -0.13725603354E+01  0.17936981603E+01  0.00000000000E+00 0. -1.
<mgrwt>
<rscale>  0 0.77149044E+02</rscale>
<asrwt>0</asrwt>
<pdfrwt beam="1">  1        2 0.93347465E-02 0.77149044E+02</pdfrwt>
<pdfrwt beam="2">  1       -1 0.37728702E-02 0.77149044E+02</pdfrwt>
<totfact> 0.17221207E+05</totfact>
</mgrwt>
</event>
<event>
 8    1  0.2676873E-024  0.7851427E+02  0.7818608E-02  0.1333321E+00
          2   -1    0    0  501    0  0.00000000000E+00  0.00000000000E+00  0.60796419383E+01  0.60796424730E+01  0.25500000000E-02 0. -1.
         -1   -1    0    0    0  501 -0.00000000000E+00 -0.00000000000E+00 -0.25348902823E+03  0.25348902828E+03  0.50400000000E-02 0.  1.
         24    2    1    2    0    0  0.00000000000E+00 -0.71054273576E-14 -0.24740938630E+03  0.25956867076E+03  0.78514268839E+02 0.  0.
         66    2    3    3    0    0  0.31770716271E+01 -0.38006083101E+02 -0.93383581575E+02  0.10089127533E+03  0.19999981127E+01 0.  0.
        -13    1    3    3    0    0 -0.31770716271E+01  0.38006083101E+02 -0.15402580472E+03  0.15867739543E+03  0.10566000000E+00 0.  1.
         13    1    4    4    0    0  0.11929065550E+01 -0.18562840734E+02 -0.46061394408E+02  0.49675600661E+02  0.10566000000E+00 0. -1.
        -13    1    4    4    0    0  0.13259736770E+01 -0.16861533915E+02 -0.41397103951E+02  0.44719133620E+02  0.10566000000E+00 0.  1.
        -14    1    4    4    0    0  0.65819139508E+00 -0.25817084513E+01 -0.59250832165E+01  0.64965410460E+01  0.00000000000E+00 0.  1.
<mgrwt>
<rscale>  0 0.78514269E+02</rscale>
<asrwt>0</asrwt>
<pdfrwt beam="1">  1        2 0.93532977E-03 0.78514269E+02</pdfrwt>
<pdfrwt beam="2">  1       -1 0.38998304E-01 0.78514269E+02</pdfrwt>
<totfact> 0.96676850E+04</totfact>
</mgrwt>
</event>
<event>
 8    1  0.2676873E-024  0.7833551E+02  0.7818608E-02  0.1333842E+00
         -1   -1    0    0    0  501 -0.00000000000E+00  0.00000000000E+00  0.71617116974E+02  0.71617117151E+02  0.50400000000E-02 0.  1.
          2   -1    0    0  501    0  0.00000000000E+00 -0.00000000000E+00 -0.21421040515E+02  0.21421040667E+02  0.25500000000E-02 0. -1.
         24    2    1    2    0    0  0.35527136788E-14  0.00000000000E+00  0.50196076459E+02  0.93038157818E+02  0.78335513774E+02 0.  0.
         66    2    3    3    0    0  0.29269646607E+02 -0.13124383899E+02 -0.15265951620E+01  0.32175956175E+02  0.19999994349E+01 0.  0.
        -13    1    3    3    0    0 -0.29269646607E+02  0.13124383899E+02  0.51722671621E+02  0.60862201643E+02  0.10566000000E+00 0.  1.
         13    1    4    4    0    0  0.15766962531E+02 -0.74956551114E+01 -0.12869392634E+01  0.17505694208E+02  0.10566000000E+00 0. -1.
        -13    1    4    4    0    0  0.83058325153E+00 -0.17342755810E+00 -0.17939111062E+00  0.87366518862E+00  0.10566000000E+00 0.  1.
        -14    1    4    4    0    0  0.12672100824E+02 -0.54553012292E+01 -0.60264787961E-01  0.13796596778E+02  0.00000000000E+00 0.  1.
<mgrwt>
<rscale>  0 0.78335514E+02</rscale>
<asrwt>0</asrwt>
<pdfrwt beam="1">  1        2 0.32955447E-02 0.78335514E+02</pdfrwt>
<pdfrwt beam="2">  1       -1 0.11018018E-01 0.78335514E+02</pdfrwt>
<totfact> 0.13366618E+05</totfact>
</mgrwt>
</event>
<event>
 8    1  0.2676873E-024  0.8315145E+02  0.7818608E-02  0.1320339E+00
          2   -1    0    0  501    0  0.00000000000E+00  0.00000000000E+00  0.25988490605E+03  0.25988490606E+03  0.25500000000E-02 0. -1.
         -1   -1    0    0    0  501 -0.00000000000E+00 -0.00000000000E+00 -0.66511781617E+01  0.66511800713E+01  0.50400000000E-02 0.  1.
         24    2    1    2    0    0  0.17763568394E-14 -0.35527136788E-14  0.25323372789E+03  0.26653608614E+03  0.83151453814E+02 0.  0.
         66    2    3    3    0    0 -0.85167561439E+01  0.19422867095E+02  0.24122528467E+03  0.24216403710E+03  0.20000001114E+01 0.  0.
        -13    1    3    3    0    0  0.85167561439E+01 -0.19422867095E+02  0.12008443219E+02  0.24372049031E+02  0.10566000000E+00 0.  1.
         13    1    4    4    0    0 -0.66336091272E+01  0.14997154902E+02  0.17830723683E+03  0.17905977017E+03  0.10566000000E+00 0. -1.
        -13    1    4    4    0    0 -0.17144901690E+00  0.90518752533E+00  0.11280648990E+02  0.11318699789E+02  0.10566000000E+00 0.  1.
         14    1    4    4    0    0 -0.17116979998E+01  0.35205246675E+01  0.51637398853E+02  0.51785567142E+02  0.00000000000E+00 0. -1.
<mgrwt>
<rscale>  0 0.83151454E+02</rscale>
<asrwt>0</asrwt>
<pdfrwt beam="1">  1        2 0.39982301E-01 0.83151454E+02</pdfrwt>
<pdfrwt beam="2">  1       -1 0.10232581E-02 0.83151454E+02</pdfrwt>
<totfact> 0.21862652E+05</totfact>
</mgrwt>
</event>
<event>
 8    1  0.2676873E-024  0.7911159E+02  0.7818608E-02  0.1331592E+00
          2   -1    0    0  501    0  0.00000000000E+00  0.00000000000E+00  0.31148623162E+02  0.31148623266E+02  0.25500000000E-02 0. -1.
         -1   -1    0    0    0  501 -0.00000000000E+00 -0.00000000000E+00 -0.50232105907E+02  0.50232106160E+02  0.50400000000E-02 0.  1.
         24    2    1    2    0    0  0.35527136788E-14  0.00000000000E+00 -0.19083482745E+02  0.81380729427E+02  0.79111590859E+02 0.  0.
         66    2    3    3    0    0  0.31790529556E+02 -0.17345457579E+02  0.67545546230E+01  0.36893450266E+02  0.19999990663E+01 0.  0.
        -13    1    3    3    0    0 -0.31790529556E+02  0.17345457579E+02 -0.25838037368E+02  0.44487279161E+02  0.10566000000E+00 0.  1.
         13    1    4    4    0    0  0.13898859136E+02 -0.70492778417E+01  0.20692576688E+01  0.15721437425E+02  0.10566000000E+00 0. -1.
        -13    1    4    4    0    0  0.11808017862E+02 -0.65814903370E+01  0.30187386155E+01  0.13851687542E+02  0.10566000000E+00 0.  1.
        -14    1    4    4    0    0  0.60836525581E+01 -0.37146894001E+01  0.16665583386E+01  0.73203252990E+01  0.00000000000E+00 0.  1.
<mgrwt>
<rscale>  0 0.79111591E+02</rscale>
<asrwt>0</asrwt>
<pdfrwt beam="1">  1        2 0.47920959E-02 0.79111591E+02</pdfrwt>
<pdfrwt beam="2">  1       -1 0.77280163E-02 0.79111591E+02</pdfrwt>
<totfact> 0.13985267E+05</totfact>
</mgrwt>
</event>
<event>
 8    1  0.2676873E-024  0.7894500E+02  0.7818608E-02  0.1332072E+00
          2   -1    0    0  501    0  0.00000000000E+00  0.00000000000E+00  0.10298302827E+02  0.10298303143E+02  0.25500000000E-02 0. -1.
         -1   -1    0    0    0  501 -0.00000000000E+00 -0.00000000000E+00 -0.15129465944E+03  0.15129465952E+03  0.50400000000E-02 0.  1.
         24    2    1    2    0    0 -0.35527136788E-14  0.17763568394E-14 -0.14099635661E+03  0.16159296266E+03  0.78944999875E+02 0.  0.
         66    2    3    3    0    0 -0.23511511751E+02  0.96294955264E+01 -0.87770974068E+01  0.26954699020E+02  0.19999978629E+01 0.  0.
        -13    1    3    3    0    0  0.23511511751E+02 -0.96294955264E+01 -0.13221925920E+03  0.13463826364E+03  0.10566000000E+00 0.  1.
         13    1    4    4    0    0 -0.19035876337E+02  0.78469734765E+01 -0.71850842620E+01  0.21807709200E+02  0.10566000000E+00 0. -1.
        -13    1    4    4    0    0 -0.36422051601E+01  0.14944137936E+01 -0.16348355125E+01  0.42641273672E+01  0.10566000000E+00 0.  1.
        -14    1    4    4    0    0 -0.83343025315E+00  0.28810825631E+00  0.42822367794E-01  0.88286245215E+00  0.00000000000E+00 0.  1.
<mgrwt>
<rscale>  0 0.78945000E+02</rscale>
<asrwt>0</asrwt>
<pdfrwt beam="1">  1        2 0.15843544E-02 0.78945000E+02</pdfrwt>
<pdfrwt beam="2">  1       -1 0.23276100E-01 0.78945000E+02</pdfrwt>
<totfact> 0.11130909E+05</totfact>
</mgrwt>
</event>
<event>
 8    1  0.2676873E-024  0.8867834E+02  0.7818608E-02  0.1306084E+00
          2   -1    0    0  501    0  0.00000000000E+00  0.00000000000E+00  0.32142574574E+02  0.32142574675E+02  0.25500000000E-02 0. -1.
         -1   -1    0    0    0  501 -0.00000000000E+00 -0.00000000000E+00 -0.61163801658E+02  0.61163801866E+02  0.50400000000E-02 0.  1.
         24    2    1    2    0    0  0.00000000000E+00  0.35527136788E-14 -0.29021227084E+02  0.93306376541E+02  0.88678341673E+02 0.  0.
         66    2    3    3    0    0 -0.84776307801E+01  0.18731601556E+02  0.26789174657E+02  0.33829026003E+02  0.20000002405E+01 0.  0.
        -13    1    3    3    0    0  0.84776307801E+01 -0.18731601556E+02 -0.55810401742E+02  0.59477350539E+02  0.10566000000E+00 0.  1.
         13    1    4    4    0    0 -0.26741950216E+01  0.49839828389E+01  0.73134289279E+01  0.92460159350E+01  0.10566000000E+00 0.  1.
        -13    1    4    4    0    0 -0.49093512332E+00  0.21078072141E+01  0.22312705082E+01  0.31102412548E+01  0.10566000000E+00 0. -1.
         14    1    4    4    0    0 -0.53125006352E+01  0.11639811503E+02  0.17244475221E+02  0.21472768813E+02  0.00000000000E+00 0. -1.
<mgrwt>
<rscale>  0 0.88678342E+02</rscale>
<asrwt>0</asrwt>
<pdfrwt beam="1">  1        2 0.49450115E-02 0.88678342E+02</pdfrwt>
<pdfrwt beam="2">  1       -1 0.94098157E-02 0.88678342E+02</pdfrwt>
<totfact> 0.10204502E+05</totfact>
</mgrwt>
</event>
<event>
 8    1  0.2676873E-024  0.7729195E+02  0.7818608E-02  0.1336917E+00
         -1   -1    0    0    0  501 -0.00000000000E+00  0.00000000000E+00  0.50427800999E+02  0.50427801251E+02  0.50400000000E-02 0.  1.
          2   -1    0    0  501    0  0.00000000000E+00 -0.00000000000E+00 -0.29616822517E+02  0.29616822626E+02  0.25500000000E-02 0. -1.
         24    2    1    2    0    0  0.50306980803E-16  0.35527136788E-14  0.20810978483E+02  0.80044623878E+02  0.77291946452E+02 0.  0.
         66    2    3    3    0    0 -0.11540244870E-01  0.19578112276E+02 -0.24062836916E+02  0.31085732081E+02  0.20000012774E+01 0.  0.
        -13    1    3    3    0    0  0.11540244870E-01 -0.19578112276E+02  0.44873815399E+02  0.48958891797E+02  0.10566000000E+00 0.  1.
         13    1    4    4    0    0 -0.39726189977E+00  0.10904365195E+02 -0.13027918924E+02  0.16994141133E+02  0.10566000000E+00 0. -1.
        -13    1    4    4    0    0  0.59076356158E+00  0.31496577762E+01 -0.35033685654E+01  0.47491158159E+01  0.10566000000E+00 0.  1.
        -14    1    4    4    0    0 -0.20504190668E+00  0.55240893049E+01 -0.75315494265E+01  0.93424751322E+01  0.00000000000E+00 0.  1.
<mgrwt>
<rscale>  0 0.77291946E+02</rscale>
<asrwt>0</asrwt>
<pdfrwt beam="1">  1        2 0.45564343E-02 0.77291946E+02</pdfrwt>
<pdfrwt beam="2">  1       -1 0.77581232E-02 0.77291946E+02</pdfrwt>
<totfact> 0.14777923E+05</totfact>
</mgrwt>
</event>
<event>
 8    1  0.2676873E-024  0.7916286E+02  0.7818608E-02  0.1331444E+00
         -1   -1    0    0    0  501 -0.00000000000E+00  0.00000000000E+00  0.53126887656E+01  0.53126911563E+01  0.50400000000E-02 0.  1.
          2   -1    0    0  501    0  0.00000000000E+00 -0.00000000000E+00 -0.29489571742E+03  0.29489571743E+03  0.25500000000E-02 0. -1.
         24    2    1    2    0    0  0.00000000000E+00  0.00000000000E+00 -0.28958302866E+03  0.30020840859E+03  0.79162858096E+02 0.  0.
         66    2    3    3    0    0 -0.25346610993E+02 -0.40038808373E+01 -0.25904371014E+03  0.26031927611E+03  0.19999999987E+01 0.  0.
        -13    1    3    3    0    0  0.25346610993E+02  0.40038808373E+01 -0.30539318517E+02  0.39889132481E+02  0.10566000000E+00 0.  1.
         13    1    4    4    0    0 -0.18377795342E+02 -0.33712759674E+01 -0.19071614155E+03  0.19162924275E+03  0.10566000000E+00 0. -1.
        -13    1    4    4    0    0 -0.68977488329E+01 -0.61878682853E+00 -0.66223606867E+02  0.66584826399E+02  0.10566000000E+00 0.  1.
         14    1    4    4    0    0 -0.71066818532E-01 -0.13818041338E-01 -0.21039617215E+01  0.21052069628E+01  0.00000000000E+00 0. -1.
<mgrwt>
<rscale>  0 0.79162858E+02</rscale>
<asrwt>0</asrwt>
<pdfrwt beam="1">  1        2 0.45368559E-01 0.79162858E+02</pdfrwt>
<pdfrwt beam="2">  1       -1 0.81733715E-03 0.79162858E+02</pdfrwt>
<totfact> 0.26044834E+05</totfact>
</mgrwt>
</event>
<event>
 8    1  0.2676873E-024  0.7845558E+02  0.7818608E-02  0.1333492E+00
         -1   -1    0    0    0  501 -0.00000000000E+00  0.00000000000E+00  0.27931182287E+01  0.27931227759E+01  0.50400000000E-02 0.  1.
          2   -1    0    0  501    0  0.00000000000E+00 -0.00000000000E+00 -0.55093201211E+03  0.55093201212E+03  0.25500000000E-02 0. -1.
         24    2    1    2    0    0 -0.17763568394E-14  0.17763568394E-14 -0.54813889388E+03  0.55372513489E+03  0.78455579952E+02 0.  0.
         66    2    3    3    0    0  0.89475712064E+01 -0.13591247987E+02 -0.52596818671E+03  0.52622363542E+03  0.19999998427E+01 0.  0.
        -13    1    3    3    0    0 -0.89475712064E+01  0.13591247987E+02 -0.22170707177E+02  0.27501499470E+02  0.10566000000E+00 0.  1.
         13    1    4    4    0    0  0.40147995770E+01 -0.65707199502E+01 -0.26899074095E+03  0.26910095291E+03  0.10566000000E+00 0. -1.
        -13    1    4    4    0    0  0.23758520282E+01 -0.32872718580E+01 -0.10664644420E+03  0.10672359652E+03  0.10566000000E+00 0.  1.
        -14    1    4    4    0    0  0.25569196012E+01 -0.37332561784E+01 -0.15033100155E+03  0.15039908599E+03  0.00000000000E+00 0.  1.
<mgrwt>
<rscale>  0 0.78455580E+02</rscale>
<asrwt>0</asrwt>
<pdfrwt beam="1">  1        2 0.84758685E-01 0.78455580E+02</pdfrwt>
<pdfrwt beam="2">  1       -1 0.42971129E-03 0.78455580E+02</pdfrwt>
<totfact> 0.33011322E+05</totfact>
</mgrwt>
</event>
<event>
 8    1  0.2676873E-024  0.7335865E+02  0.7818608E-02  0.1349030E+00
          2   -1    0    0  501    0  0.00000000000E+00  0.00000000000E+00  0.74591695427E+03  0.74591695428E+03  0.25500000000E-02 0. -1.
         -1   -1    0    0    0  501 -0.00000000000E+00 -0.00000000000E+00 -0.18036460514E+01  0.18036530931E+01  0.50400000000E-02 0.  1.
         24    2    1    2    0    0  0.00000000000E+00  0.00000000000E+00  0.74411330822E+03  0.74772060737E+03  0.73358647847E+02 0.  0.
         66    2    3    3    0    0  0.14634908883E+02 -0.11744964142E+02  0.69323865660E+03  0.69349546484E+03  0.20000023406E+01 0.  0.
        -13    1    3    3    0    0 -0.14634908883E+02  0.11744964142E+02  0.50874651621E+02  0.54225142529E+02  0.10566000000E+00 0.  1.
         13    1    4    4    0    0  0.13471155206E+02 -0.10977771601E+02  0.62567506918E+03  0.62591635771E+03  0.10566000000E+00 0. -1.
        -13    1    4    4    0    0  0.10090572301E+01 -0.79762141535E+00  0.60264361338E+02  0.60278178539E+02  0.10566000000E+00 0.  1.
         14    1    4    4    0    0  0.15469644667E+00  0.30428873788E-01  0.72992260794E+01  0.73009285892E+01  0.00000000000E+00 0. -1.
<mgrwt>
<rscale>  0 0.73358648E+02</rscale>
<asrwt>0</asrwt>
<pdfrwt beam="1">  1        2 0.11475646E+00 0.73358648E+02</pdfrwt>
<pdfrwt beam="2">  1       -1 0.27748453E-03 0.73358648E+02</pdfrwt>
<totfact> 0.42438716E+05</totfact>
</mgrwt>
</event>
<event>
 8    1  0.2676873E-024  0.7916124E+02  0.7818608E-02  0.1331449E+00
         -1   -1    0    0    0  501 -0.00000000000E+00  0.00000000000E+00  0.37561550011E+01  0.37561583825E+01  0.50400000000E-02 0.  1.
          2   -1    0    0  501    0  0.00000000000E+00 -0.00000000000E+00 -0.41708206681E+03  0.41708206681E+03  0.25500000000E-02 0. -1.
         24    2    1    2    0    0 -0.88817841970E-15  0.00000000000E+00 -0.41332591180E+03  0.42083822520E+03  0.79161243150E+02 0.  0.
         66    2    3    3    0    0 -0.72905786813E+01 -0.25080160330E+02 -0.36471864830E+03  0.36565811819E+03  0.20000004098E+01 0.  0.
        -13    1    3    3    0    0  0.72905786813E+01  0.25080160330E+02 -0.48607263509E+02  0.55180107009E+02  0.10566000000E+00 0.  1.
         13    1    4    4    0    0 -0.10856327899E+01 -0.23863132905E+01 -0.37398447314E+02  0.37490373634E+02  0.10566000000E+00 0. -1.
        -13    1    4    4    0    0 -0.23705493402E+01 -0.11308999647E+02 -0.16246555935E+03  0.16287597157E+03  0.10566000000E+00 0.  1.
        -14    1    4    4    0    0 -0.38343965512E+01 -0.11384847393E+02 -0.16485464163E+03  0.16529177298E+03  0.00000000000E+00 0.  1.
<mgrwt>
<rscale>  0 0.79161243E+02</rscale>
<asrwt>0</asrwt>
<pdfrwt beam="1">  1        2 0.64166435E-01 0.79161243E+02</pdfrwt>
<pdfrwt beam="2">  1       -1 0.57787059E-03 0.79161243E+02</pdfrwt>
<totfact> 0.29466528E+05</totfact>
</mgrwt>
</event>
<event>
 8    1  0.2676873E-024  0.6992289E+02  0.7818608E-02  0.1360355E+00
          2   -1    0    0  501    0  0.00000000000E+00  0.00000000000E+00  0.10303527016E+04  0.10303527016E+04  0.25500000000E-02 0. -1.
         -1   -1    0    0    0  501 -0.00000000000E+00 -0.00000000000E+00 -0.11862898495E+01  0.11863005558E+01  0.50400000000E-02 0.  1.
         24    2    1    2    0    0 -0.35527136788E-14 -0.22204460493E-15  0.10291664117E+04  0.10315390021E+04  0.69922885378E+02 0.  0.
         66    2    3    3    0    0  0.22118868600E+02  0.18660217073E+01  0.91293065914E+03  0.91320266904E+03  0.19999931733E+01 0.  0.
        -13    1    3    3    0    0 -0.22118868600E+02 -0.18660217073E+01  0.11623575258E+03  0.11833633308E+03  0.10566000000E+00 0.  1.
         13    1    4    4    0    0  0.13510944270E+02  0.10353144504E+01  0.52350565457E+03  0.52368100885E+03  0.10566000000E+00 0. -1.
        -13    1    4    4    0    0  0.49825490324E+00 -0.55231365786E-01  0.19653350988E+02  0.19660027404E+02  0.10566000000E+00 0.  1.
         14    1    4    4    0    0  0.81096694268E+01  0.88593862264E+00  0.36977165357E+03  0.36986163279E+03  0.00000000000E+00 0. -1.
<mgrwt>
<rscale>  0 0.69922885E+02</rscale>
<asrwt>0</asrwt>
<pdfrwt beam="1">  1        2 0.15851624E+00 0.69922885E+02</pdfrwt>
<pdfrwt beam="2">  1       -1 0.18250644E-03 0.69922885E+02</pdfrwt>
<totfact> 0.49897848E+05</totfact>
</mgrwt>
</event>
<event>
 8    1  0.2676873E-024  0.7656638E+02  0.7818608E-02  0.1339088E+00
          2   -1    0    0  501    0  0.00000000000E+00  0.00000000000E+00  0.50467233883E+02  0.50467233947E+02  0.25500000000E-02 0. -1.
         -1   -1    0    0    0  501 -0.00000000000E+00 -0.00000000000E+00 -0.29040677744E+02  0.29040678182E+02  0.50400000000E-02 0.  1.
         24    2    1    2    0    0  0.14210854715E-13  0.00000000000E+00  0.21426556138E+02  0.79507912129E+02  0.76566381546E+02 0.  0.
         66    2    3    3    0    0  0.36013282818E+02 -0.54200500977E+01  0.22886658063E+02  0.43059639960E+02  0.19999984456E+01 0.  0.
        -13    1    3    3    0    0 -0.36013282818E+02  0.54200500977E+01 -0.14601019249E+01  0.36448272169E+02  0.10566000000E+00 0.  1.
         13    1    4    4    0    0  0.35633978984E+01 -0.48390200343E+00  0.24195340288E+01  0.43355823927E+01  0.10566000000E+00 0. -1.
        -13    1    4    4    0    0  0.17747075051E+00  0.58940724924E-01  0.16708569037E+00  0.27212412584E+00  0.10566000000E+00 0. -1.
        -14    1    4    4    0    0  0.32272414169E+02 -0.49950888192E+01  0.20300038344E+02  0.38451933442E+02  0.00000000000E+00 0.  1.
<mgrwt>
<rscale>  0 0.76566382E+02</rscale>
<asrwt>0</asrwt>
<pdfrwt beam="1">  1        2 0.77641898E-02 0.76566382E+02</pdfrwt>
<pdfrwt beam="2">  1       -1 0.44677967E-02 0.76566382E+02</pdfrwt>
<totfact> 0.16878195E+05</totfact>
</mgrwt>
</event>
<event>
 8    1  0.2676873E-024  0.7876612E+02  0.7818608E-02  0.1332590E+00
          2   -1    0    0  501    0  0.00000000000E+00  0.00000000000E+00  0.58200741953E+02  0.58200742009E+02  0.25500000000E-02 0. -1.
         -1   -1    0    0    0  501 -0.00000000000E+00 -0.00000000000E+00 -0.26649582451E+02  0.26649582928E+02  0.50400000000E-02 0.  1.
         24    2    1    2    0    0 -0.71054273576E-14  0.00000000000E+00  0.31551159501E+02  0.84850324936E+02  0.78766122006E+02 0.  0.
         66    2    3    3    0    0 -0.38102222911E+02  0.12383280137E+01  0.26324433533E+02  0.46371204943E+02  0.20000000016E+01 0.  0.
        -13    1    3    3    0    0  0.38102222911E+02 -0.12383280137E+01  0.52267259687E+01  0.38479119993E+02  0.10566000000E+00 0.  1.
         13    1    4    4    0    0 -0.14171326864E+02  0.81064406393E+00  0.96069947545E+01  0.17140278910E+02  0.10566000000E+00 0. -1.
        -13    1    4    4    0    0 -0.18831282519E+02  0.92723132835E+00  0.13095267772E+02  0.22955917784E+02  0.10566000000E+00 0.  1.
         14    1    4    4    0    0 -0.50996135286E+01 -0.49954737863E+00  0.36221710065E+01  0.62750082490E+01  0.00000000000E+00 0. -1.
<mgrwt>
<rscale>  0 0.78766122E+02</rscale>
<asrwt>0</asrwt>
<pdfrwt beam="1">  1        2 0.89539603E-02 0.78766122E+02</pdfrwt>
<pdfrwt beam="2">  1       -1 0.40999358E-02 0.78766122E+02</pdfrwt>
<totfact> 0.16125410E+05</totfact>
</mgrwt>
</event>
<event>
 8    1  0.2676873E-024  0.7916474E+02  0.7818608E-02  0.1331439E+00
         -1   -1    0    0    0  501 -0.00000000000E+00  0.00000000000E+00  0.54321084957E+01  0.54321108338E+01  0.50400000000E-02 0.  1.
          2   -1    0    0  501    0  0.00000000000E+00 -0.00000000000E+00 -0.28842642640E+03  0.28842642641E+03  0.25500000000E-02 0. -1.
         24    2    1    2    0    0  0.35527136788E-14  0.00000000000E+00 -0.28299431790E+03  0.29385853724E+03  0.79164739282E+02 0.  0.
         66    2    3    3    0    0  0.30375241857E+02 -0.66350637648E+01 -0.23236635344E+03  0.23444573275E+03  0.20000001154E+01 0.  0.
        -13    1    3    3    0    0 -0.30375241857E+02  0.66350637648E+01 -0.50627964455E+02  0.59412804495E+02  0.10566000000E+00 0.  1.
         13    1    4    4    0    0  0.91440540633E+01 -0.22819644113E+01 -0.64226528486E+02  0.64914399109E+02  0.10566000000E+00 0. -1.
        -13    1    4    4    0    0  0.10896078081E+02 -0.20671477788E+01 -0.85347230397E+02  0.86064850653E+02  0.10566000000E+00 0.  1.
         14    1    4    4    0    0  0.10335109713E+02 -0.22859515747E+01 -0.82792594562E+02  0.83466482984E+02  0.00000000000E+00 0. -1.
<mgrwt>
<rscale>  0 0.79164739E+02</rscale>
<asrwt>0</asrwt>
<pdfrwt beam="1">  1        2 0.44373284E-01 0.79164739E+02</pdfrwt>
<pdfrwt beam="2">  1       -1 0.83570941E-03 0.79164739E+02</pdfrwt>
<totfact> 0.25834984E+05</totfact>
</mgrwt>
</event>
<event>
 8    1  0.2676873E-024  0.7926510E+02  0.7818608E-02  0.1331150E+00
          2   -1    0    0  501    0  0.00000000000E+00  0.00000000000E+00  0.14352015371E+03  0.14352015373E+03  0.25500000000E-02 0. -1.
         -1   -1    0    0    0  501 -0.00000000000E+00 -0.00000000000E+00 -0.10944379632E+02  0.10944380792E+02  0.50400000000E-02 0.  1.
         24    2    1    2    0    0  0.00000000000E+00  0.00000000000E+00  0.13257577407E+03  0.15446453452E+03  0.79265102999E+02 0.  0.
         66    2    3    3    0    0  0.24353304919E+02  0.28018763274E+02  0.93233409015E+02  0.10037232243E+03  0.19999996297E+01 0.  0.
        -13    1    3    3    0    0 -0.24353304919E+02 -0.28018763274E+02  0.39342365060E+02  0.54092212087E+02  0.10566000000E+00 0.  1.
         13    1    4    4    0    0  0.15914451056E+02  0.19215573373E+02  0.63063949792E+02  0.67820210409E+02  0.10566000000E+00 0. -1.
        -13    1    4    4    0    0  0.32465109766E+01  0.30017223375E+01  0.10135800544E+02  0.11058742569E+02  0.10566000000E+00 0.  1.
         14    1    4    4    0    0  0.51923428865E+01  0.58014675640E+01  0.20033658679E+02  0.21493369457E+02  0.00000000000E+00 0. -1.
<mgrwt>
<rscale>  0 0.79265103E+02</rscale>
<asrwt>0</asrwt>
<pdfrwt beam="1">  1        2 0.22080023E-01 0.79265103E+02</pdfrwt>
<pdfrwt beam="2">  1       -1 0.16837509E-02 0.79265103E+02</pdfrwt>
<totfact> 0.20238655E+05</totfact>
</mgrwt>
</event>
<event>
 8    1  0.2676873E-024  0.7882867E+02  0.7818608E-02  0.1332409E+00
          2   -1    0    0  501    0  0.00000000000E+00  0.00000000000E+00  0.98909806365E+02  0.98909806398E+02  0.25500000000E-02 0. -1.
         -1   -1    0    0    0  501 -0.00000000000E+00 -0.00000000000E+00 -0.15706126558E+02  0.15706127367E+02  0.50400000000E-02 0.  1.
         24    2    1    2    0    0 -0.44408920985E-15  0.00000000000E+00  0.83203679807E+02  0.11461593377E+03  0.78828674602E+02 0.  0.
         66    2    3    3    0    0 -0.35421430796E+01  0.36832789192E+02  0.61259206155E+02  0.71595331431E+02  0.20000016838E+01 0.  0.
        -13    1    3    3    0    0  0.35421430796E+01 -0.36832789192E+02  0.21944473652E+02  0.43020602334E+02  0.10566000000E+00 0.  1.
         13    1    4    4    0    0 -0.11769354344E+01  0.16381985329E+02  0.26958165867E+02  0.31567522730E+02  0.10566000000E+00 0. -1.
        -13    1    4    4    0    0 -0.13323307618E+01  0.12718105192E+02  0.22527660733E+02  0.25904284724E+02  0.10566000000E+00 0.  1.
        -14    1    4    4    0    0 -0.10328768834E+01  0.77326986711E+01  0.11773379555E+02  0.14123523977E+02  0.00000000000E+00 0.  1.
<mgrwt>
<rscale>  0 0.78828675E+02</rscale>
<asrwt>0</asrwt>
<pdfrwt beam="1">  1        2 0.15216893E-01 0.78828675E+02</pdfrwt>
<pdfrwt beam="2">  1       -1 0.24163273E-02 0.78828675E+02</pdfrwt>
<totfact> 0.18383466E+05</totfact>
</mgrwt>
</event>
<event>
 8    1  0.2676873E-024  0.8268842E+02  0.7818608E-02  0.1321591E+00
          2   -1    0    0  501    0  0.00000000000E+00  0.00000000000E+00  0.42759332910E+03  0.42759332911E+03  0.25500000000E-02 0. -1.
         -1   -1    0    0    0  501 -0.00000000000E+00 -0.00000000000E+00 -0.39975903826E+01  0.39975935597E+01  0.50400000000E-02 0.  1.
         24    2    1    2    0    0  0.71054273576E-14 -0.88817841970E-15  0.42359573872E+03  0.43159092267E+03  0.82688419197E+02 0.  0.
         66    2    3    3    0    0  0.37517772304E+02 -0.43798807378E+01  0.29934928644E+03  0.30172961718E+03  0.20000001983E+01 0.  0.
        -13    1    3    3    0    0 -0.37517772304E+02  0.43798807378E+01  0.12424645228E+03  0.12986130549E+03  0.10566000000E+00 0.  1.
         13    1    4    4    0    0  0.61645102823E+01 -0.99085161477E+00  0.46107760521E+02  0.46528697792E+02  0.10566000000E+00 0. -1.
        -13    1    4    4    0    0  0.12933167124E+02 -0.10397420015E+01  0.99879654761E+02  0.10071893801E+03  0.10566000000E+00 0.  1.
         14    1    4    4    0    0  0.18420094898E+02 -0.23492871216E+01  0.15336187116E+03  0.15448198138E+03  0.00000000000E+00 0. -1.
<mgrwt>
<rscale>  0 0.82688419E+02</rscale>
<asrwt>0</asrwt>
<pdfrwt beam="1">  1        2 0.65783563E-01 0.82688419E+02</pdfrwt>
<pdfrwt beam="2">  1       -1 0.61501439E-03 0.82688419E+02</pdfrwt>
<totfact> 0.26519719E+05</totfact>
</mgrwt>
</event>
<event>
 8    1  0.2676873E-024  0.7900577E+02  0.7818608E-02  0.1331897E+00
         -1   -1    0    0    0  501 -0.00000000000E+00  0.00000000000E+00  0.15998431280E+02  0.15998432073E+02  0.50400000000E-02 0.  1.
          2   -1    0    0  501    0  0.00000000000E+00 -0.00000000000E+00 -0.97539431510E+02  0.97539431544E+02  0.25500000000E-02 0. -1.
         24    2    1    2    0    0  0.35527136788E-14  0.00000000000E+00 -0.81541000231E+02  0.11353786362E+03  0.79005770397E+02 0.  0.
         66    2    3    3    0    0 -0.31526609040E+02 -0.23671732792E+02 -0.43739938892E+02  0.58919099320E+02  0.19999998716E+01 0.  0.
        -13    1    3    3    0    0  0.31526609040E+02  0.23671732792E+02 -0.37801061339E+02  0.54618764297E+02  0.10566000000E+00 0.  1.
         13    1    4    4    0    0 -0.75155348301E+01 -0.57601775354E+01 -0.10553573025E+02  0.14179279835E+02  0.10566000000E+00 0. -1.
        -13    1    4    4    0    0 -0.46039466594E+01 -0.26512553170E+01 -0.61269480024E+01  0.81102487914E+01  0.10566000000E+00 0.  1.
        -14    1    4    4    0    0 -0.19407127551E+02 -0.15260299940E+02 -0.27059417865E+02  0.36629570694E+02  0.00000000000E+00 0.  1.
<mgrwt>
<rscale>  0 0.79005770E+02</rscale>
<asrwt>0</asrwt>
<pdfrwt beam="1">  1        2 0.15006066E-01 0.79005770E+02</pdfrwt>
<pdfrwt beam="2">  1       -1 0.24612973E-02 0.79005770E+02</pdfrwt>
<totfact> 0.18202909E+05</totfact>
</mgrwt>
</event>
<event>
 8    1  0.2676873E-024  0.7820147E+02  0.7818608E-02  0.1334234E+00
          2   -1    0    0  501    0  0.00000000000E+00  0.00000000000E+00  0.10601748251E+02  0.10601748558E+02  0.25500000000E-02 0. -1.
         -1   -1    0    0    0  501 -0.00000000000E+00 -0.00000000000E+00 -0.14420898986E+03  0.14420898995E+03  0.50400000000E-02 0.  1.
         24    2    1    2    0    0  0.35527136788E-14  0.35527136788E-14 -0.13360724161E+03  0.15481073851E+03  0.78201468954E+02 0.  0.
         66    2    3    3    0    0  0.31697237304E+02  0.22162981947E+02 -0.55833939040E+02  0.67951021848E+02  0.19999999732E+01 0.  0.
        -13    1    3    3    0    0 -0.31697237304E+02 -0.22162981947E+02 -0.77773302570E+02  0.86859716660E+02  0.10566000000E+00 0.  1.
         13    1    4    4    0    0  0.21468490389E+02  0.14025514270E+02 -0.36807357844E+02  0.44859824850E+02  0.10566000000E+00 0. -1.
        -13    1    4    4    0    0  0.44197638213E+01  0.35918996446E+01 -0.87778987982E+01  0.10464163925E+02  0.10566000000E+00 0.  1.
         14    1    4    4    0    0  0.58089830938E+01  0.45455680326E+01 -0.10248682398E+02  0.12627033073E+02  0.00000000000E+00 0. -1.
<mgrwt>
<rscale>  0 0.78201469E+02</rscale>
<asrwt>0</asrwt>
<pdfrwt beam="1">  1        2 0.16310383E-02 0.78201469E+02</pdfrwt>
<pdfrwt beam="2">  1       -1 0.22185997E-01 0.78201469E+02</pdfrwt>
<totfact> 0.11538526E+05</totfact>
</mgrwt>
</event>
<event>
 8    1  0.2676873E-024  0.8039376E+02  0.7818608E-02  0.1327938E+00
         -1   -1    0    0    0  501 -0.00000000000E+00  0.00000000000E+00  0.18998201994E+01  0.18998268846E+01  0.50400000000E-02 0.  1.
          2   -1    0    0  501    0  0.00000000000E+00 -0.00000000000E+00 -0.85049439680E+03  0.85049439680E+03  0.25500000000E-02 0. -1.
         24    2    1    2    0    0 -0.17763568394E-14 -0.17763568394E-14 -0.84859457660E+03  0.85239422369E+03  0.80393763076E+02 0.  0.
         66    2    3    3    0    0  0.89724685378E+01  0.15135235028E+02 -0.80746400133E+03  0.80765815416E+03  0.20000003065E+01 0.  0.
        -13    1    3    3    0    0 -0.89724685378E+01 -0.15135235028E+02 -0.41130575269E+02  0.44736069530E+02  0.10566000000E+00 0.  1.
         13    1    4    4    0    0  0.71304139493E+01  0.12429685828E+02 -0.63200205060E+03  0.63216449048E+03  0.10566000000E+00 0. -1.
        -13    1    4    4    0    0  0.11983142495E+01  0.20822953653E+01 -0.13834562204E+03  0.13836652129E+03  0.10566000000E+00 0.  1.
         14    1    4    4    0    0  0.64374033910E+00  0.62325383443E+00 -0.37116328686E+02  0.37127142391E+02  0.00000000000E+00 0. -1.
<mgrwt>
<rscale>  0 0.80393763E+02</rscale>
<asrwt>0</asrwt>
<pdfrwt beam="1">  1        2 0.13084499E+00 0.80393763E+02</pdfrwt>
<pdfrwt beam="2">  1       -1 0.29228123E-03 0.80393763E+02</pdfrwt>
<totfact> 0.34258394E+05</totfact>
</mgrwt>
</event>
<event>
 8    1  0.2676873E-024  0.8000340E+02  0.7818608E-02  0.1329042E+00
         -1   -1    0    0    0  501 -0.00000000000E+00  0.00000000000E+00  0.62354089769E+02  0.62354089973E+02  0.50400000000E-02 0.  1.
          2   -1    0    0  501    0  0.00000000000E+00 -0.00000000000E+00 -0.25662086553E+02  0.25662086680E+02  0.25500000000E-02 0. -1.
         24    2    1    2    0    0  0.35527136788E-14  0.00000000000E+00  0.36692003216E+02  0.88016176652E+02  0.80003401506E+02 0.  0.
         66    2    3    3    0    0 -0.22282965304E+02  0.16701491246E+02 -0.13197292703E+02  0.30881044169E+02  0.20000004227E+01 0.  0.
        -13    1    3    3    0    0  0.22282965304E+02 -0.16701491246E+02  0.49889295919E+02  0.57135132483E+02  0.10566000000E+00 0.  1.
         13    1    4    4    0    0 -0.29240225151E+00  0.44674655376E+00 -0.19204619908E+00  0.57717184457E+00  0.10566000000E+00 0.  1.
        -13    1    4    4    0    0 -0.49612300618E+01  0.39503706679E+01 -0.34989985928E+01  0.72438516915E+01  0.10566000000E+00 0.  1.
         14    1    4    4    0    0 -0.17029332991E+02  0.12304374024E+02 -0.95062479112E+01  0.23060020633E+02  0.00000000000E+00 0. -1.
<mgrwt>
<rscale>  0 0.80003402E+02</rscale>
<asrwt>0</asrwt>
<pdfrwt beam="1">  1        2 0.39480134E-02 0.80003402E+02</pdfrwt>
<pdfrwt beam="2">  1       -1 0.95929368E-02 0.80003402E+02</pdfrwt>
<totfact> 0.13045911E+05</totfact>
</mgrwt>
</event>
<event>
 8    1  0.2676873E-024  0.8158670E+02  0.7818608E-02  0.1324608E+00
         -1   -1    0    0    0  501 -0.00000000000E+00  0.00000000000E+00  0.10252560664E+02  0.10252561903E+02  0.50400000000E-02 0.  1.
          2   -1    0    0  501    0  0.00000000000E+00 -0.00000000000E+00 -0.16231040318E+03  0.16231040320E+03  0.25500000000E-02 0. -1.
         24    2    1    2    0    0  0.00000000000E+00 -0.88817841970E-15 -0.15205784251E+03  0.17256296510E+03  0.81586699003E+02 0.  0.
         66    2    3    3    0    0  0.38096146244E+02 -0.78087115714E+01 -0.10196162941E+03  0.10914424494E+03  0.19999992802E+01 0.  0.
        -13    1    3    3    0    0 -0.38096146244E+02  0.78087115714E+01 -0.50096213102E+02  0.63418720156E+02  0.10566000000E+00 0.  1.
         13    1    4    4    0    0  0.16949345056E+02 -0.40115693244E+01 -0.44623445504E+02  0.47902359430E+02  0.10566000000E+00 0. -1.
        -13    1    4    4    0    0  0.20391119360E+02 -0.37340970317E+01 -0.54686029586E+02  0.58483452577E+02  0.10566000000E+00 0.  1.
        -14    1    4    4    0    0  0.75568182817E+00 -0.63045215280E-01 -0.26521543222E+01  0.27584329380E+01  0.00000000000E+00 0.  1.
<mgrwt>
<rscale>  0 0.81586699E+02</rscale>
<asrwt>0</asrwt>
<pdfrwt beam="1">  1        2 0.24970830E-01 0.81586699E+02</pdfrwt>
<pdfrwt beam="2">  1       -1 0.15773172E-02 0.81586699E+02</pdfrwt>
<totfact> 0.19508499E+05</totfact>
</mgrwt>
</event>
<event>
 8    1  0.2676873E-024  0.8262624E+02  0.7818608E-02  0.1321760E+00
         -1   -1    0    0    0  501 -0.00000000000E+00  0.00000000000E+00  0.20224536322E+03  0.20224536328E+03  0.50400000000E-02 0.  1.
          2   -1    0    0  501    0  0.00000000000E+00 -0.00000000000E+00 -0.84391244908E+01  0.84391248761E+01  0.25500000000E-02 0. -1.
         24    2    1    2    0    0  0.44408920985E-15  0.35527136788E-14  0.19380623873E+03  0.21068448816E+03  0.82626239056E+02 0.  0.
         66    2    3    3    0    0 -0.38098732930E+01 -0.30337072622E+02  0.16771132157E+03  0.17048736170E+03  0.20000018940E+01 0.  0.
        -13    1    3    3    0    0  0.38098732930E+01  0.30337072622E+02  0.26094917159E+02  0.40197126456E+02  0.10566000000E+00 0.  1.
         13    1    4    4    0    0 -0.34976741714E+01 -0.26202483344E+02  0.14135819875E+03  0.14380874582E+03  0.10566000000E+00 0. -1.
        -13    1    4    4    0    0 -0.72961902530E-01 -0.18384864339E+01  0.11181485814E+02  0.11332349485E+02  0.10566000000E+00 0.  1.
         14    1    4    4    0    0 -0.23923721909E+00 -0.22961028446E+01  0.15171637014E+02  0.15346266399E+02  0.00000000000E+00 0. -1.
<mgrwt>
<rscale>  0 0.82626239E+02</rscale>
<asrwt>0</asrwt>
<pdfrwt beam="1">  1        2 0.12983269E-02 0.82626239E+02</pdfrwt>
<pdfrwt beam="2">  1       -1 0.31114671E-01 0.82626239E+02</pdfrwt>
<totfact> 0.91425653E+04</totfact>
</mgrwt>
</event>
<event>
 8    1  0.2676873E-024  0.7806816E+02  0.7818608E-02  0.1334625E+00
         -1   -1    0    0    0  501 -0.00000000000E+00  0.00000000000E+00  0.44036371343E+02  0.44036371632E+02  0.50400000000E-02 0.  1.
          2   -1    0    0  501    0  0.00000000000E+00 -0.00000000000E+00 -0.34600018315E+02  0.34600018409E+02  0.25500000000E-02 0. -1.
         24    2    1    2    0    0  0.00000000000E+00  0.00000000000E+00  0.94363530279E+01  0.78636390041E+02  0.78068156634E+02 0.  0.
         66    2    3    3    0    0 -0.35227349725E+02  0.16629392005E+02  0.26689124307E+01  0.39097646215E+02  0.19999997328E+01 0.  0.
        -13    1    3    3    0    0  0.35227349725E+02 -0.16629392005E+02  0.67674405971E+01  0.39538743826E+02  0.10566000000E+00 0.  1.
         13    1    4    4    0    0 -0.22054552308E+02  0.10431021982E+02  0.80483464088E+00  0.24410416218E+02  0.10566000000E+00 0. -1.
        -13    1    4    4    0    0 -0.89045968486E+01  0.39700642344E+01  0.10963009935E+01  0.98115388684E+01  0.10566000000E+00 0.  1.
         14    1    4    4    0    0 -0.42682005681E+01  0.22283057883E+01  0.76777679635E+00  0.48756911289E+01  0.00000000000E+00 0. -1.
<mgrwt>
<rscale>  0 0.78068157E+02</rscale>
<asrwt>0</asrwt>
<pdfrwt beam="1">  1        2 0.53230798E-02 0.78068157E+02</pdfrwt>
<pdfrwt beam="2">  1       -1 0.67748263E-02 0.78068157E+02</pdfrwt>
<totfact> 0.14814519E+05</totfact>
</mgrwt>
</event>
<event>
 8    1  0.2676873E-024  0.7974484E+02  0.7818608E-02  0.1329777E+00
         -1   -1    0    0    0  501 -0.00000000000E+00  0.00000000000E+00  0.27439973800E+02  0.27439974263E+02  0.50400000000E-02 0.  1.
          2   -1    0    0  501    0  0.00000000000E+00 -0.00000000000E+00 -0.57937733934E+02  0.57937733990E+02  0.25500000000E-02 0. -1.
         24    2    1    2    0    0  0.00000000000E+00  0.00000000000E+00 -0.30497760134E+02  0.85377708253E+02  0.79744841171E+02 0.  0.
         66    2    3    3    0    0  0.91862615462E+01 -0.32764786607E+02 -0.37456693506E+02  0.50645064238E+02  0.20000001777E+01 0.  0.
        -13    1    3    3    0    0 -0.91862615462E+01  0.32764786607E+02  0.69589333721E+01  0.34732644015E+02  0.10566000000E+00 0.  1.
         13    1    4    4    0    0  0.60544500192E+00 -0.16282350683E+01 -0.16504120188E+01  0.23984863884E+01  0.10566000000E+00 0. -1.
        -13    1    4    4    0    0  0.90664187873E+00 -0.18774728370E+01 -0.23326968760E+01  0.31304220963E+01  0.10566000000E+00 0.  1.
         14    1    4    4    0    0  0.76741746656E+01 -0.29259078701E+02 -0.33473584611E+02  0.45116155753E+02  0.00000000000E+00 0. -1.
<mgrwt>
<rscale>  0 0.79744841E+02</rscale>
<asrwt>0</asrwt>
<pdfrwt beam="1">  1        2 0.89134975E-02 0.79744841E+02</pdfrwt>
<pdfrwt beam="2">  1       -1 0.42215345E-02 0.79744841E+02</pdfrwt>
<totfact> 0.15576649E+05</totfact>
</mgrwt>
</event>
<event>
 8    1  0.2676873E-024  0.7982798E+02  0.7818608E-02  0.1329540E+00
         -1   -1    0    0    0  501 -0.00000000000E+00  0.00000000000E+00  0.28553213006E+01  0.28553257487E+01  0.50400000000E-02 0.  1.
          2   -1    0    0  501    0  0.00000000000E+00 -0.00000000000E+00 -0.55794962888E+03  0.55794962889E+03  0.25500000000E-02 0. -1.
         24    2    1    2    0    0 -0.88817841970E-15  0.00000000000E+00 -0.55509430758E+03  0.56080495464E+03  0.79827982786E+02 0.  0.
         66    2    3    3    0    0 -0.49887254048E+01 -0.35712395289E+02 -0.39753226623E+03  0.39916934409E+03  0.20000018454E+01 0.  0.
        -13    1    3    3    0    0  0.49887254048E+01  0.35712395289E+02 -0.15756204135E+03  0.16163561055E+03  0.10566000000E+00 0.  1.
         13    1    4    4    0    0 -0.29464316976E+01 -0.22934250075E+02 -0.25118790603E+03  0.25224994863E+03  0.10566000000E+00 0. -1.
        -13    1    4    4    0    0 -0.53149025871E-01 -0.31634595398E+01 -0.36818608709E+02  0.36954450508E+02  0.10566000000E+00 0.  1.
        -14    1    4    4    0    0 -0.19891446814E+01 -0.96146856750E+01 -0.10952575149E+03  0.10996494495E+03  0.00000000000E+00 0.  1.
<mgrwt>
<rscale>  0 0.79827983E+02</rscale>
<asrwt>0</asrwt>
<pdfrwt beam="1">  1        2 0.85838318E-01 0.79827983E+02</pdfrwt>
<pdfrwt beam="2">  1       -1 0.43928099E-03 0.79827983E+02</pdfrwt>
<totfact> 0.31674763E+05</totfact>
</mgrwt>
</event>
<event>
 8    1  0.2676873E-024  0.7980512E+02  0.7818608E-02  0.1329605E+00
          2   -1    0    0  501    0  0.00000000000E+00  0.00000000000E+00  0.19367737388E+02  0.19367737556E+02  0.25500000000E-02 0. -1.
         -1   -1    0    0    0  501 -0.00000000000E+00 -0.00000000000E+00 -0.82209624834E+02  0.82209624988E+02  0.50400000000E-02 0.  1.
         24    2    1    2    0    0  0.35527136788E-14  0.00000000000E+00 -0.62841887446E+02  0.10157736254E+03  0.79805123669E+02 0.  0.
         66    2    3    3    0    0 -0.28336691578E+02 -0.85171178906E+01  0.25867232816E+01  0.29769120312E+02  0.20000000150E+01 0.  0.
        -13    1    3    3    0    0  0.28336691578E+02  0.85171178906E+01 -0.65428610727E+02  0.71808242232E+02  0.10566000000E+00 0.  1.
         13    1    4    4    0    0 -0.20239561362E+02 -0.60673426433E+01  0.24851564898E+01  0.21275329790E+02  0.10566000000E+00 0. -1.
        -13    1    4    4    0    0 -0.50300964305E+01 -0.11811744634E+01 -0.95782020498E-01  0.51688858997E+01  0.10566000000E+00 0.  1.
         14    1    4    4    0    0 -0.30670337863E+01 -0.12686007839E+01  0.19734881234E+00  0.33249046225E+01  0.00000000000E+00 0. -1.
<mgrwt>
<rscale>  0 0.79805124E+02</rscale>
<asrwt>0</asrwt>
<pdfrwt beam="1">  1        2 0.29796520E-02 0.79805124E+02</pdfrwt>
<pdfrwt beam="2">  1       -1 0.12647634E-01 0.79805124E+02</pdfrwt>
<totfact> 0.12421936E+05</totfact>
</mgrwt>
</event>
<event>
 8    1  0.2676873E-024  0.7957310E+02  0.7818608E-02  0.1330267E+00
         -1   -1    0    0    0  501 -0.00000000000E+00  0.00000000000E+00  0.16502430523E+01  0.16502507486E+01  0.50400000000E-02 0.  1.
          2   -1    0    0  501    0  0.00000000000E+00 -0.00000000000E+00 -0.95923184271E+03  0.95923184272E+03  0.25500000000E-02 0. -1.
         24    2    1    2    0    0  0.00000000000E+00  0.00000000000E+00 -0.95758159966E+03  0.96088209346E+03  0.79573095534E+02 0.  0.
         66    2    3    3    0    0 -0.53859908687E+01 -0.17819231388E+02 -0.90335738740E+03  0.90355138385E+03  0.19999984044E+01 0.  0.
        -13    1    3    3    0    0  0.53859908687E+01  0.17819231388E+02 -0.54224212262E+02  0.57330709610E+02  0.10566000000E+00 0.  1.
         13    1    4    4    0    0 -0.48958301913E+01 -0.16335642276E+02 -0.84233571074E+03  0.84250832822E+03  0.10566000000E+00 0. -1.
        -13    1    4    4    0    0 -0.48983082937E+00 -0.11798118738E+01 -0.43994711460E+02  0.44013380815E+02  0.10566000000E+00 0. -1.
         14    1    4    4    0    0 -0.32984795172E-03 -0.30377723884E+00 -0.17026965197E+02  0.17029674822E+02  0.00000000000E+00 0. -1.
<mgrwt>
<rscale>  0 0.79573096E+02</rscale>
<asrwt>0</asrwt>
<pdfrwt beam="1">  1        2 0.14757368E+00 0.79573096E+02</pdfrwt>
<pdfrwt beam="2">  1       -1 0.25388491E-03 0.79573096E+02</pdfrwt>
<totfact> 0.35640337E+05</totfact>
</mgrwt>
</event>
<event>
 8    1  0.2676873E-024  0.8000649E+02  0.7818608E-02  0.1329033E+00
          2   -1    0    0  501    0  0.00000000000E+00  0.00000000000E+00  0.35167962362E+02  0.35167962455E+02  0.25500000000E-02 0. -1.
         -1   -1    0    0    0  501 -0.00000000000E+00 -0.00000000000E+00 -0.45503338696E+02  0.45503338975E+02  0.50400000000E-02 0.  1.
         24    2    1    2    0    0  0.00000000000E+00  0.00000000000E+00 -0.10335376334E+02  0.80671301430E+02  0.80006492677E+02 0.  0.
         66    2    3    3    0    0  0.35989553838E+02 -0.10822761460E+02 -0.18917779438E+02  0.42121995883E+02  0.20000018074E+01 0.  0.
        -13    1    3    3    0    0 -0.35989553838E+02  0.10822761460E+02  0.85824031037E+01  0.38549305547E+02  0.10566000000E+00 0.  1.
         13    1    4    4    0    0  0.15932204265E+02 -0.49712156952E+01 -0.77186367150E+01  0.18388491918E+02  0.10566000000E+00 0. -1.
        -13    1    4    4    0    0  0.16652756498E+02 -0.45959393666E+01 -0.88481567766E+01  0.19409739824E+02  0.10566000000E+00 0.  1.
        -14    1    4    4    0    0  0.34045930742E+01 -0.12556063984E+01 -0.23509859461E+01  0.43237641410E+01  0.00000000000E+00 0.  1.
<mgrwt>
<rscale>  0 0.80006493E+02</rscale>
<asrwt>0</asrwt>
<pdfrwt beam="1">  1        2 0.54104558E-02 0.80006493E+02</pdfrwt>
<pdfrwt beam="2">  1       -1 0.70005136E-02 0.80006493E+02</pdfrwt>
<totfact> 0.13884214E+05</totfact>
</mgrwt>
</event>
<event>
 8    1  0.2676873E-024  0.7955890E+02  0.7818608E-02  0.1330308E+00
         -1   -1    0    0    0  501 -0.00000000000E+00  0.00000000000E+00  0.87158774050E+02  0.87158774196E+02  0.50400000000E-02 0.  1.
          2   -1    0    0  501    0  0.00000000000E+00 -0.00000000000E+00 -0.18155423548E+02  0.18155423728E+02  0.25500000000E-02 0. -1.
         24    2    1    2    0    0  0.00000000000E+00 -0.35527136788E-14  0.69003350502E+02  0.10531419792E+03  0.79558895818E+02 0.  0.
         66    2    3    3    0    0 -0.73301717817E+00  0.24042635243E+02 -0.73744291724E+01  0.25238221404E+02  0.19999976032E+01 0.  0.
        -13    1    3    3    0    0  0.73301717817E+00 -0.24042635243E+02  0.76377779674E+02  0.80075976520E+02  0.10566000000E+00 0.  1.
         13    1    4    4    0    0 -0.25869943007E+00  0.15955799665E+02 -0.52580998534E+01  0.16802179813E+02  0.10566000000E+00 0. -1.
        -13    1    4    4    0    0 -0.78169962973E+00  0.65225914535E+01 -0.16288683978E+01  0.67690198606E+01  0.10566000000E+00 0.  1.
         14    1    4    4    0    0  0.30738188163E+00  0.15642441240E+01 -0.48746092122E+00  0.16670217306E+01  0.00000000000E+00 0. -1.
<mgrwt>
<rscale>  0 0.79558896E+02</rscale>
<asrwt>0</asrwt>
<pdfrwt beam="1">  1        2 0.27931421E-02 0.79558896E+02</pdfrwt>
<pdfrwt beam="2">  1       -1 0.13409042E-01 0.79558896E+02</pdfrwt>
<totfact> 0.12368573E+05</totfact>
</mgrwt>
</event>
<event>
 8    1  0.2676873E-024  0.8036383E+02  0.7818608E-02  0.1328022E+00
         -1   -1    0    0    0  501 -0.00000000000E+00  0.00000000000E+00  0.19011790047E+03  0.19011790053E+03  0.50400000000E-02 0.  1.
          2   -1    0    0  501    0  0.00000000000E+00 -0.00000000000E+00 -0.84925531951E+01  0.84925535779E+01  0.25500000000E-02 0. -1.
         24    2    1    2    0    0  0.71054273576E-14 -0.35527136788E-14  0.18162534727E+03  0.19861045411E+03  0.80363833351E+02 0.  0.
         66    2    3    3    0    0  0.22570141350E+02 -0.24112111083E+02  0.34416199346E+02  0.47741804027E+02  0.19999732020E+01 0.  0.
        -13    1    3    3    0    0 -0.22570141350E+02  0.24112111083E+02  0.14720914793E+03  0.15086865009E+03  0.10566000000E+00 0.  1.
         13    1    4    4    0    0  0.38911424597E+01 -0.41656729858E+01  0.63616807897E+01  0.85425972381E+01  0.10566000000E+00 0. -1.
        -13    1    4    4    0    0  0.82082144716E+01 -0.87025236308E+01  0.13460132796E+02  0.18008193726E+02  0.10566000000E+00 0.  1.
         14    1    4    4    0    0  0.10470784419E+02 -0.11243914467E+02  0.14594385761E+02  0.21191013062E+02  0.00000000000E+00 0. -1.
<mgrwt>
<rscale>  0 0.80363833E+02</rscale>
<asrwt>0</asrwt>
<pdfrwt beam="1">  1        2 0.13065469E-02 0.80363833E+02</pdfrwt>
<pdfrwt beam="2">  1       -1 0.29248904E-01 0.80363833E+02</pdfrwt>
<totfact> 0.99958108E+04</totfact>
</mgrwt>
</event>
<event>
 8    1  0.2676873E-024  0.8016926E+02  0.7818608E-02  0.1328572E+00
          2   -1    0    0  501    0  0.00000000000E+00  0.00000000000E+00  0.28069867634E+03  0.28069867635E+03  0.25500000000E-02 0. -1.
         -1   -1    0    0    0  501 -0.00000000000E+00 -0.00000000000E+00 -0.57242069221E+01  0.57242091409E+01  0.50400000000E-02 0.  1.
         24    2    1    2    0    0  0.00000000000E+00  0.00000000000E+00  0.27497446941E+03  0.28642288549E+03  0.80169261579E+02 0.  0.
         66    2    3    3    0    0  0.29778858241E+02 -0.88830895349E+01  0.22789142546E+03  0.23000911173E+03  0.20000005807E+01 0.  0.
        -13    1    3    3    0    0 -0.29778858241E+02  0.88830895349E+01  0.47083043955E+02  0.56413773761E+02  0.10566000000E+00 0.  1.
         13    1    4    4    0    0  0.57277783562E+01 -0.18268709871E+01  0.40095529136E+02  0.40543896251E+02  0.10566000000E+00 0. -1.
        -13    1    4    4    0    0  0.19374120613E+02 -0.58505326021E+01  0.14803259490E+03  0.14940965697E+03  0.10566000000E+00 0.  1.
        -14    1    4    4    0    0  0.46769592718E+01 -0.12056859457E+01  0.39763301426E+02  0.40055558502E+02  0.00000000000E+00 0.  1.
<mgrwt>
<rscale>  0 0.80169262E+02</rscale>
<asrwt>0</asrwt>
<pdfrwt beam="1">  1        2 0.43184421E-01 0.80169262E+02</pdfrwt>
<pdfrwt beam="2">  1       -1 0.88064721E-03 0.80169262E+02</pdfrwt>
<totfact> 0.24749974E+05</totfact>
</mgrwt>
</event>
<event>
 8    1  0.2676873E-024  0.7967009E+02  0.7818608E-02  0.1329990E+00
          2   -1    0    0  501    0  0.00000000000E+00  0.00000000000E+00  0.71656952718E+02  0.71656952763E+02  0.25500000000E-02 0. -1.
         -1   -1    0    0    0  501 -0.00000000000E+00 -0.00000000000E+00 -0.22144825337E+02  0.22144825910E+02  0.50400000000E-02 0.  1.
         24    2    1    2    0    0  0.00000000000E+00  0.00000000000E+00  0.49512127381E+02  0.93801778673E+02  0.79670088016E+02 0.  0.
         66    2    3    3    0    0  0.16014019433E+02 -0.12847895827E+01  0.67656722520E+02  0.69566742064E+02  0.19999991429E+01 0.  0.
        -13    1    3    3    0    0 -0.16014019433E+02  0.12847895827E+01 -0.18144595139E+02  0.24235036610E+02  0.10566000000E+00 0.  1.
         13    1    4    4    0    0  0.96660298283E+01 -0.66473456574E+00  0.40531064427E+02  0.41673161055E+02  0.10566000000E+00 0. -1.
        -13    1    4    4    0    0  0.12673154911E+01 -0.56737675734E+00  0.48611610527E+01  0.50566842648E+01  0.10566000000E+00 0.  1.
         14    1    4    4    0    0  0.50806741134E+01 -0.52678259655E-01  0.22264497040E+02  0.22836896744E+02  0.00000000000E+00 0. -1.
<mgrwt>
<rscale>  0 0.79670088E+02</rscale>
<asrwt>0</asrwt>
<pdfrwt beam="1">  1        2 0.11024147E-01 0.79670088E+02</pdfrwt>
<pdfrwt beam="2">  1       -1 0.34068962E-02 0.79670088E+02</pdfrwt>
<totfact> 0.16421915E+05</totfact>
</mgrwt>
</event>
<event>
 8    1  0.2676873E-024  0.8111102E+02  0.7818608E-02  0.1325928E+00
          2   -1    0    0  501    0  0.00000000000E+00  0.00000000000E+00  0.23123078387E+03  0.23123078389E+03  0.25500000000E-02 0. -1.
         -1   -1    0    0    0  501 -0.00000000000E+00 -0.00000000000E+00 -0.71130206696E+01  0.71130224551E+01  0.50400000000E-02 0.  1.
         24    2    1    2    0    0  0.00000000000E+00 -0.35527136788E-14  0.22411776320E+03  0.23834380634E+03  0.81111024148E+02 0.  0.
         66    2    3    3    0    0 -0.30142403642E+02 -0.18015214528E+02  0.17159997979E+03  0.17516753556E+03  0.19999991760E+01 0.  0.
        -13    1    3    3    0    0  0.30142403642E+02  0.18015214528E+02  0.52517783410E+02  0.63176270784E+02  0.10566000000E+00 0.  1.
         13    1    4    4    0    0 -0.26514432926E+01 -0.12209763019E+01  0.15230519886E+02  0.15508089331E+02  0.10566000000E+00 0. -1.
        -13    1    4    4    0    0 -0.14256872654E+02 -0.82512063456E+01  0.77112117740E+02  0.78851954259E+02  0.10566000000E+00 0.  1.
         14    1    4    4    0    0 -0.13234087695E+02 -0.85430318802E+01  0.79257342167E+02  0.80807491968E+02  0.00000000000E+00 0. -1.
<mgrwt>
<rscale>  0 0.81111024E+02</rscale>
<asrwt>0</asrwt>
<pdfrwt beam="1">  1        2 0.35573964E-01 0.81111024E+02</pdfrwt>
<pdfrwt beam="2">  1       -1 0.10943111E-02 0.81111024E+02</pdfrwt>
<totfact> 0.22384690E+05</totfact>
</mgrwt>
</event>
<event>
 8    1  0.2676873E-024  0.7868180E+02  0.7818608E-02  0.1332834E+00
          2   -1    0    0  501    0  0.00000000000E+00  0.00000000000E+00  0.63969931658E+02  0.63969931709E+02  0.25500000000E-02 0. -1.
         -1   -1    0    0    0  501 -0.00000000000E+00 -0.00000000000E+00 -0.24194278404E+02  0.24194278929E+02  0.50400000000E-02 0.  1.
         24    2    1    2    0    0  0.17763568394E-14  0.88817841970E-15  0.39775653254E+02  0.88164210637E+02  0.78681798693E+02 0.  0.
         66    2    3    3    0    0 -0.12612997112E+02 -0.72926644289E+01  0.60817593260E+02  0.62570362668E+02  0.19999959675E+01 0.  0.
        -13    1    3    3    0    0  0.12612997112E+02  0.72926644289E+01 -0.21041940006E+02  0.25593847969E+02  0.10566000000E+00 0.  1.
         13    1    4    4    0    0 -0.95318010856E+00 -0.59878902382E+00  0.32204761054E+01  0.34131702266E+01  0.10566000000E+00 0. -1.
        -13    1    4    4    0    0 -0.39758406628E+01 -0.27496578620E+01  0.19015812385E+02  0.19620912620E+02  0.10566000000E+00 0.  1.
         14    1    4    4    0    0 -0.76839763401E+01 -0.39442175431E+01  0.38581304770E+02  0.39536279822E+02  0.00000000000E+00 0. -1.
<mgrwt>
<rscale>  0 0.78681799E+02</rscale>
<asrwt>0</asrwt>
<pdfrwt beam="1">  1        2 0.98415279E-02 0.78681799E+02</pdfrwt>
<pdfrwt beam="2">  1       -1 0.37221968E-02 0.78681799E+02</pdfrwt>
<totfact> 0.16529100E+05</totfact>
</mgrwt>
</event>
<event>
 8    1  0.2676873E-024  0.8044078E+02  0.7818608E-02  0.1327805E+00
          2   -1    0    0  501    0  0.00000000000E+00  0.00000000000E+00  0.17236205751E+04  0.17236205751E+04  0.25500000000E-02 0. -1.
         -1   -1    0    0    0  501 -0.00000000000E+00 -0.00000000000E+00 -0.93852911550E+00  0.93854264807E+00  0.50400000000E-02 0.  1.
         24    2    1    2    0    0 -0.55511151231E-16  0.00000000000E+00  0.17226820460E+04  0.17245591178E+04  0.80440779815E+02 0.  0.
         66    2    3    3    0    0  0.14331061033E+00  0.20739773380E+02  0.16000405367E+04  0.16001762021E+04  0.19999999744E+01 0.  0.
        -13    1    3    3    0    0 -0.14331061033E+00 -0.20739773380E+02  0.12264150928E+03  0.12438291563E+03  0.10566000000E+00 0.  1.
         13    1    4    4    0    0 -0.17359653301E+00  0.10058441423E+02  0.76651191108E+03  0.76657793040E+03  0.10566000000E+00 0. -1.
        -13    1    4    4    0    0 -0.39469293760E+00  0.70899497332E+01  0.56867581156E+03  0.56872015349E+03  0.10566000000E+00 0. -1.
         14    1    4    4    0    0  0.71160008095E+00  0.35913822234E+01  0.26485281408E+03  0.26487811824E+03  0.00000000000E+00 0. -1.
<mgrwt>
<rscale>  0 0.80440780E+02</rscale>
<asrwt>0</asrwt>
<pdfrwt beam="1">  1        2 0.26516842E+00 0.80440780E+02</pdfrwt>
<pdfrwt beam="2">  1       -1 0.14439230E-03 0.80440780E+02</pdfrwt>
<totfact> 0.30638120E+05</totfact>
</mgrwt>
</event>
<event>
 8    1  0.2676873E-024  0.7987583E+02  0.7818608E-02  0.1329404E+00
          2   -1    0    0  501    0  0.00000000000E+00  0.00000000000E+00  0.20722949729E+02  0.20722949886E+02  0.25500000000E-02 0. -1.
         -1   -1    0    0    0  501 -0.00000000000E+00 -0.00000000000E+00 -0.76969602842E+02  0.76969603007E+02  0.50400000000E-02 0.  1.
         24    2    1    2    0    0  0.00000000000E+00  0.22204460493E-15 -0.56246653113E+02  0.97692552892E+02  0.79875834294E+02 0.  0.
         66    2    3    3    0    0 -0.35843638421E+02  0.10617801351E+01 -0.67064186859E+01  0.36535870645E+02  0.19999999811E+01 0.  0.
        -13    1    3    3    0    0  0.35843638421E+02 -0.10617801351E+01 -0.49540234427E+02  0.61156682247E+02  0.10566000000E+00 0.  1.
         13    1    4    4    0    0 -0.16800515322E+02  0.13517795595E+00 -0.34437573732E+01  0.17150691445E+02  0.10566000000E+00 0. -1.
        -13    1    4    4    0    0 -0.63347714600E+00 -0.14541083738E+00 -0.22480720867E+00  0.69580164041E+00  0.10566000000E+00 0.  1.
         14    1    4    4    0    0 -0.18409645953E+02  0.10720130165E+01 -0.30378541040E+01  0.18689377560E+02  0.00000000000E+00 0. -1.
<mgrwt>
<rscale>  0 0.79875834E+02</rscale>
<asrwt>0</asrwt>
<pdfrwt beam="1">  1        2 0.31881462E-02 0.79875834E+02</pdfrwt>
<pdfrwt beam="2">  1       -1 0.11841477E-01 0.79875834E+02</pdfrwt>
<totfact> 0.12560740E+05</totfact>
</mgrwt>
</event>
<event>
 8    1  0.2676873E-024  0.8833333E+02  0.7818608E-02  0.1306939E+00
         -1   -1    0    0    0  501 -0.00000000000E+00  0.00000000000E+00  0.83448883502E+01  0.83448898722E+01  0.50400000000E-02 0.  1.
          2   -1    0    0  501    0  0.00000000000E+00 -0.00000000000E+00 -0.23375917235E+03  0.23375917236E+03  0.25500000000E-02 0. -1.
         24    2    1    2    0    0  0.35527136788E-14  0.00000000000E+00 -0.22541428400E+03  0.24210406223E+03  0.88333331874E+02 0.  0.
         66    2    3    3    0    0  0.27812231753E+02 -0.17521420912E+02 -0.19352164590E+03  0.19630371339E+03  0.20000075828E+01 0.  0.
        -13    1    3    3    0    0 -0.27812231753E+02  0.17521420912E+02 -0.31892638091E+02  0.45800348845E+02  0.10566000000E+00 0.  1.
         13    1    4    4    0    0  0.19725271166E+02 -0.12255437129E+02 -0.13889308146E+03  0.14082109680E+03  0.10566000000E+00 0. -1.
        -13    1    4    4    0    0  0.66906581631E+01 -0.39272486296E+01 -0.44368420048E+02  0.45041714555E+02  0.10566000000E+00 0. -1.
         14    1    4    4    0    0  0.13963024236E+01 -0.13387351532E+01 -0.10260144397E+02  0.10440902035E+02  0.00000000000E+00 0. -1.
<mgrwt>
<rscale>  0 0.88333332E+02</rscale>
<asrwt>0</asrwt>
<pdfrwt beam="1">  1        2 0.35962945E-01 0.88333332E+02</pdfrwt>
<pdfrwt beam="2">  1       -1 0.12838293E-02 0.88333332E+02</pdfrwt>
<totfact> 0.17929943E+05</totfact>
</mgrwt>
</event>
<event>
 8    1  0.2676873E-024  0.7974856E+02  0.7818608E-02  0.1329767E+00
          2   -1    0    0  501    0  0.00000000000E+00  0.00000000000E+00  0.22220801940E+03  0.22220801941E+03  0.25500000000E-02 0. -1.
         -1   -1    0    0    0  501 -0.00000000000E+00 -0.00000000000E+00 -0.71552678242E+01  0.71552695992E+01  0.50400000000E-02 0.  1.
         24    2    1    2    0    0  0.88817841970E-15  0.35527136788E-14  0.21505275157E+03  0.22936328901E+03  0.79748557271E+02 0.  0.
         66    2    3    3    0    0 -0.74669525495E+01 -0.20302719167E+02  0.20384577305E+03  0.20500013409E+03  0.20000005288E+01 0.  0.
        -13    1    3    3    0    0  0.74669525495E+01  0.20302719167E+02  0.11206978526E+02  0.24363154921E+02  0.10566000000E+00 0.  1.
         13    1    4    4    0    0 -0.16114970446E+01 -0.70614424748E+01  0.67523198311E+02  0.67910635152E+02  0.10566000000E+00 0. -1.
        -13    1    4    4    0    0 -0.32069095383E+01 -0.70095969776E+01  0.72127851887E+02  0.72538657972E+02  0.10566000000E+00 0.  1.
         14    1    4    4    0    0 -0.26485459666E+01 -0.62316797148E+01  0.64194722851E+02  0.64550840968E+02  0.00000000000E+00 0. -1.
<mgrwt>
<rscale>  0 0.79748557E+02</rscale>
<asrwt>0</asrwt>
<pdfrwt beam="1">  1        2 0.34185848E-01 0.79748557E+02</pdfrwt>
<pdfrwt beam="2">  1       -1 0.11008106E-02 0.79748557E+02</pdfrwt>
<totfact> 0.23078328E+05</totfact>
</mgrwt>
</event>
<event>
 8    1  0.2676873E-024  0.8368550E+02  0.7818608E-02  0.1318906E+00
          2   -1    0    0  501    0  0.00000000000E+00  0.00000000000E+00  0.47383726021E+02  0.47383726090E+02  0.25500000000E-02 0. -1.
         -1   -1    0    0    0  501 -0.00000000000E+00 -0.00000000000E+00 -0.36949723206E+02  0.36949723550E+02  0.50400000000E-02 0.  1.
         24    2    1    2    0    0  0.00000000000E+00  0.00000000000E+00  0.10434002815E+02  0.84333449640E+02  0.83685496434E+02 0.  0.
         66    2    3    3    0    0 -0.15362875244E+02 -0.27557060601E+02  0.32880648108E+02  0.45613008350E+02  0.19999964845E+01 0.  0.
        -13    1    3    3    0    0  0.15362875244E+02  0.27557060601E+02 -0.22446645293E+02  0.38720441290E+02  0.10566000000E+00 0.  1.
         13    1    4    4    0    0 -0.93519117415E+01 -0.15963419503E+02  0.20078910843E+02  0.27303165386E+02  0.10566000000E+00 0. -1.
        -13    1    4    4    0    0 -0.43323527263E+01 -0.74802035653E+01  0.82681074627E+01  0.11962252738E+02  0.10566000000E+00 0.  1.
         14    1    4    4    0    0 -0.16786107766E+01 -0.41134375331E+01  0.45336298027E+01  0.63475902251E+01  0.00000000000E+00 0. -1.
<mgrwt>
<rscale>  0 0.83685496E+02</rscale>
<asrwt>0</asrwt>
<pdfrwt beam="1">  1        2 0.72898040E-02 0.83685496E+02</pdfrwt>
<pdfrwt beam="2">  1       -1 0.56845729E-02 0.83685496E+02</pdfrwt>
<totfact> 0.13047503E+05</totfact>
</mgrwt>
</event>
<event>
 8    1  0.2802100E-024  0.7922758E+02  0.7818608E-02  0.1331258E+00
          2   -1    0    0  501    0  0.00000000000E+00  0.00000000000E+00  0.41933003255E+03  0.41933003256E+03  0.25500000000E-02 0. -1.
         -1   -1    0    0    0  501 -0.00000000000E+00 -0.00000000000E+00 -0.37422832505E+01  0.37422866443E+01  0.50400000000E-02 0.  1.
         24    2    1    2    0    0 -0.17763568394E-14  0.00000000000E+00  0.41558774930E+03  0.42307231920E+03  0.79227582995E+02 0.  0.
         66    2    3    3    0    0  0.11730882772E+02 -0.47780864740E+01  0.40821394029E+03  0.40841530913E+03  0.19999899802E+01 0.  0.
        -13    1    3    3    0    0 -0.11730882772E+02  0.47780864740E+01  0.73738090046E+01  0.14657010072E+02  0.10566000000E+00 0.  1.
         13    1    4    4    0    0  0.63458296014E+01 -0.25610924724E+01  0.20566912741E+03  0.20578296791E+03  0.10566000000E+00 0. -1.
        -13    1    4    4    0    0  0.26005694936E+01 -0.13494912180E+01  0.82412398882E+02  0.82464530204E+02  0.10566000000E+00 0.  1.
        -14    1    4    4    0    0  0.27844836774E+01 -0.86750278367E+00  0.12013241401E+03  0.12016781102E+03  0.00000000000E+00 0.  1.
<mgrwt>
<rscale>  0 0.79227583E+02</rscale>
<asrwt>0</asrwt>
<pdfrwt beam="1">  1        2 0.64512268E-01 0.79227583E+02</pdfrwt>
<pdfrwt beam="2">  1       -1 0.57573655E-03 0.79227583E+02</pdfrwt>
<totfact> 0.29456729E+05</totfact>
</mgrwt>
</event>
<event>
 8    1  0.2676873E-024  0.7761564E+02  0.7818608E-02  0.1335957E+00
         -1   -1    0    0    0  501 -0.00000000000E+00  0.00000000000E+00  0.37218098846E+01  0.37218132971E+01  0.50400000000E-02 0.  1.
          2   -1    0    0  501    0  0.00000000000E+00 -0.00000000000E+00 -0.40465428043E+03  0.40465428044E+03  0.25500000000E-02 0. -1.
         24    2    1    2    0    0  0.35527136788E-14  0.00000000000E+00 -0.40093247055E+03  0.40837609374E+03  0.77615642733E+02 0.  0.
         66    2    3    3    0    0 -0.23866522678E+02  0.13985352238E+02 -0.34361561261E+03  0.34473307095E+03  0.19999984169E+01 0.  0.
        -13    1    3    3    0    0  0.23866522678E+02 -0.13985352238E+02 -0.57316857941E+02  0.63643022793E+02  0.10566000000E+00 0.  1.
         13    1    4    4    0    0 -0.11111123543E+02  0.66478080356E+01 -0.17176584979E+03  0.17225321110E+03  0.10566000000E+00 0. -1.
        -13    1    4    4    0    0 -0.97941357410E+01  0.53190277886E+01 -0.13021280045E+03  0.13068895025E+03  0.10566000000E+00 0.  1.
         14    1    4    4    0    0 -0.29612633944E+01  0.20185164138E+01 -0.41636962373E+02  0.41790909598E+02  0.00000000000E+00 0. -1.
<mgrwt>
<rscale>  0 0.77615643E+02</rscale>
<asrwt>0</asrwt>
<pdfrwt beam="1">  1        2 0.62254470E-01 0.77615643E+02</pdfrwt>
<pdfrwt beam="2">  1       -1 0.57258672E-03 0.77615643E+02</pdfrwt>
<totfact> 0.30697139E+05</totfact>
</mgrwt>
</event>
<event>
 8    1  0.2676873E-024  0.8149755E+02  0.7818608E-02  0.1324855E+00
         -1   -1    0    0    0  501 -0.00000000000E+00  0.00000000000E+00  0.37917325435E+02  0.37917325770E+02  0.50400000000E-02 0.  1.
          2   -1    0    0  501    0  0.00000000000E+00 -0.00000000000E+00 -0.43791659089E+02  0.43791659163E+02  0.25500000000E-02 0. -1.
         24    2    1    2    0    0  0.00000000000E+00  0.00000000000E+00 -0.58743336539E+01  0.81708984933E+02  0.81497548570E+02 0.  0.
         66    2    3    3    0    0  0.59024810371E+01 -0.82756717992E+01 -0.42476398349E+02  0.43721508969E+02  0.19999759382E+01 0.  0.
        -13    1    3    3    0    0 -0.59024810371E+01  0.82756717992E+01  0.36602064695E+02  0.37987475964E+02  0.10566000000E+00 0.  1.
         13    1    4    4    0    0  0.20764015866E+01 -0.24173172128E+01 -0.12623607996E+02  0.13020042585E+02  0.10566000000E+00 0. -1.
        -13    1    4    4    0    0  0.77569177180E+00 -0.11436962114E+01 -0.36630616873E+01  0.39164938031E+01  0.10566000000E+00 0.  1.
        -14    1    4    4    0    0  0.30503876787E+01 -0.47146583750E+01 -0.26189728666E+02  0.26784972581E+02  0.00000000000E+00 0.  1.
<mgrwt>
<rscale>  0 0.81497549E+02</rscale>
<asrwt>0</asrwt>
<pdfrwt beam="1">  1        2 0.67371784E-02 0.81497549E+02</pdfrwt>
<pdfrwt beam="2">  1       -1 0.58334347E-02 0.81497549E+02</pdfrwt>
<totfact> 0.13801550E+05</totfact>
</mgrwt>
</event>
<event>
 8    1  0.2676873E-024  0.7912051E+02  0.7818608E-02  0.1331566E+00
         -1   -1    0    0    0  501 -0.00000000000E+00  0.00000000000E+00  0.11231441429E+02  0.11231442559E+02  0.50400000000E-02 0.  1.
          2   -1    0    0  501    0  0.00000000000E+00 -0.00000000000E+00 -0.13934220338E+03  0.13934220340E+03  0.25500000000E-02 0. -1.
         24    2    1    2    0    0  0.00000000000E+00  0.00000000000E+00 -0.12811076195E+03  0.15057364596E+03  0.79120512706E+02 0.  0.
         66    2    3    3    0    0 -0.20631071548E+02 -0.33710723931E+02 -0.62236493920E+02  0.73752526641E+02  0.19999973337E+01 0.  0.
        -13    1    3    3    0    0  0.20631071548E+02  0.33710723931E+02 -0.65874268033E+02  0.76821119324E+02  0.10566000000E+00 0.  1.
         13    1    4    4    0    0 -0.11129132589E+02 -0.18659577389E+02 -0.33338147205E+02  0.39792972290E+02  0.10566000000E+00 0. -1.
        -13    1    4    4    0    0 -0.70314153051E+01 -0.10550725467E+02 -0.21334276358E+02  0.24817758175E+02  0.10566000000E+00 0.  1.
        -14    1    4    4    0    0 -0.24705236543E+01 -0.45004210737E+01 -0.75640703563E+01  0.91417961759E+01  0.00000000000E+00 0.  1.
<mgrwt>
<rscale>  0 0.79120513E+02</rscale>
<asrwt>0</asrwt>
<pdfrwt beam="1">  1        2 0.21437261E-01 0.79120513E+02</pdfrwt>
<pdfrwt beam="2">  1       -1 0.17279143E-02 0.79120513E+02</pdfrwt>
<totfact> 0.20148013E+05</totfact>
</mgrwt>
</event>
<event>
 8    1  0.2676873E-024  0.7983657E+02  0.7818608E-02  0.1329516E+00
          2   -1    0    0  501    0  0.00000000000E+00  0.00000000000E+00  0.57660013422E+03  0.57660013423E+03  0.25500000000E-02 0. -1.
         -1   -1    0    0    0  501 -0.00000000000E+00 -0.00000000000E+00 -0.27635582093E+01  0.27635628051E+01  0.50400000000E-02 0.  1.
         24    2    1    2    0    0  0.00000000000E+00  0.00000000000E+00  0.57383657601E+03  0.57936369703E+03  0.79836567245E+02 0.  0.
         66    2    3    3    0    0 -0.17576799498E+02  0.33968328490E+02  0.36941558736E+03  0.37139556729E+03  0.20000001626E+01 0.  0.
        -13    1    3    3    0    0  0.17576799498E+02 -0.33968328490E+02  0.20442098866E+03  0.20796812974E+03  0.10566000000E+00 0.  1.
         13    1    4    4    0    0 -0.15099720182E+01  0.37058727678E+01  0.35105334752E+02  0.35332834595E+02  0.10566000000E+00 0. -1.
        -13    1    4    4    0    0 -0.23540397321E+01  0.48192283297E+01  0.49774929520E+02  0.50063172468E+02  0.10566000000E+00 0.  1.
         14    1    4    4    0    0 -0.13712787748E+02  0.25443227392E+02  0.28453532308E+03  0.28599956023E+03  0.00000000000E+00 0. -1.
<mgrwt>
<rscale>  0 0.79836567E+02</rscale>
<asrwt>0</asrwt>
<pdfrwt beam="1">  1        2 0.88707745E-01 0.79836567E+02</pdfrwt>
<pdfrwt beam="2">  1       -1 0.42516301E-03 0.79836567E+02</pdfrwt>
<totfact> 0.31972358E+05</totfact>
</mgrwt>
</event>
<event>
 8    1  0.2676873E-024  0.7234935E+02  0.7818608E-02  0.1352281E+00
         -1   -1    0    0    0  501 -0.00000000000E+00  0.00000000000E+00  0.23176369445E+03  0.23176369451E+03  0.50400000000E-02 0.  1.
          2   -1    0    0  501    0  0.00000000000E+00 -0.00000000000E+00 -0.56462993373E+01  0.56462999131E+01  0.25500000000E-02 0. -1.
         24    2    1    2    0    0  0.35527136788E-14  0.00000000000E+00  0.22611739511E+03  0.23740999442E+03  0.72349354364E+02 0.  0.
         66    2    3    3    0    0  0.27825329534E+02  0.22508882684E+02  0.96508349378E+02  0.10295028051E+03  0.19999986166E+01 0.  0.
        -13    1    3    3    0    0 -0.27825329534E+02 -0.22508882684E+02  0.12960904574E+03  0.13445971391E+03  0.10566000000E+00 0.  1.
         13    1    4    4    0    0  0.11494883634E+02  0.86665418004E+01  0.36987998703E+02  0.39690861777E+02  0.10566000000E+00 0. -1.
        -13    1    4    4    0    0  0.53735359300E+01  0.45115542526E+01  0.18326147599E+02  0.19623655623E+02  0.10566000000E+00 0.  1.
        -14    1    4    4    0    0  0.10956909970E+02  0.93307866307E+01  0.41194203076E+02  0.43635763112E+02  0.00000000000E+00 0.  1.
<mgrwt>
<rscale>  0 0.72349354E+02</rscale>
<asrwt>0</asrwt>
<pdfrwt beam="1">  1        2 0.86866167E-03 0.72349354E+02</pdfrwt>
<pdfrwt beam="2">  1       -1 0.35655945E-01 0.72349354E+02</pdfrwt>
<totfact> 0.12275533E+05</totfact>
</mgrwt>
</event>
<event>
 8    1  0.2676873E-024  0.7341115E+02  0.7818608E-02  0.1348863E+00
         -1   -1    0    0    0  501 -0.00000000000E+00  0.00000000000E+00  0.18704884054E+02  0.18704884734E+02  0.50400000000E-02 0.  1.
          2   -1    0    0  501    0  0.00000000000E+00 -0.00000000000E+00 -0.72029273115E+02  0.72029273160E+02  0.25500000000E-02 0. -1.
         24    2    1    2    0    0  0.00000000000E+00  0.88817841970E-15 -0.53324389061E+02  0.90734157894E+02  0.73411149971E+02 0.  0.
         66    2    3    3    0    0  0.11835909946E+02 -0.63664796992E+01 -0.68862348100E+02  0.70190055013E+02  0.20000022215E+01 0.  0.
        -13    1    3    3    0    0 -0.11835909946E+02  0.63664796992E+01  0.15537959040E+02  0.20544102880E+02  0.10566000000E+00 0.  1.
         13    1    4    4    0    0  0.22764825426E+01 -0.11603447490E+01 -0.13543470571E+02  0.13782798404E+02  0.10566000000E+00 0. -1.
        -13    1    4    4    0    0  0.96356961701E+01 -0.51428489927E+01 -0.54963562541E+02  0.56038378881E+02  0.10566000000E+00 0.  1.
        -14    1    4    4    0    0 -0.76268766469E-01 -0.63285957485E-01 -0.35531498891E+00  0.36887772838E+00  0.00000000000E+00 0.  1.
<mgrwt>
<rscale>  0 0.73411150E+02</rscale>
<asrwt>0</asrwt>
<pdfrwt beam="1">  1        2 0.11081426E-01 0.73411150E+02</pdfrwt>
<pdfrwt beam="2">  1       -1 0.28776746E-02 0.73411150E+02</pdfrwt>
<totfact> 0.20485920E+05</totfact>
</mgrwt>
</event>
<event>
 8    1  0.2676873E-024  0.7800012E+02  0.7818608E-02  0.1334825E+00
         -1   -1    0    0    0  501 -0.00000000000E+00  0.00000000000E+00  0.71654059539E+02  0.71654059716E+02  0.50400000000E-02 0.  1.
          2   -1    0    0  501    0  0.00000000000E+00 -0.00000000000E+00 -0.21227056422E+02  0.21227056575E+02  0.25500000000E-02 0. -1.
         24    2    1    2    0    0  0.00000000000E+00  0.00000000000E+00  0.50427003118E+02  0.92881116291E+02  0.78000122564E+02 0.  0.
         66    2    3    3    0    0  0.34277041932E+02  0.14066188542E+02  0.10830602152E+02  0.38653269228E+02  0.20000038253E+01 0.  0.
        -13    1    3    3    0    0 -0.34277041932E+02 -0.14066188542E+02  0.39596400965E+02  0.54227847063E+02  0.10566000000E+00 0.  1.
         13    1    4    4    0    0  0.20064717580E+02  0.76149134226E+01  0.62074990991E+01  0.22341083391E+02  0.10566000000E+00 0. -1.
        -13    1    4    4    0    0  0.74456460954E+01  0.36132927645E+01  0.19556170895E+01  0.85046535859E+01  0.10566000000E+00 0.  1.
        -14    1    4    4    0    0  0.67666782566E+01  0.28379823548E+01  0.26674859638E+01  0.78075322505E+01  0.00000000000E+00 0.  1.
<mgrwt>
<rscale>  0 0.78000123E+02</rscale>
<asrwt>0</asrwt>
<pdfrwt beam="1">  1        2 0.32657009E-02 0.78000123E+02</pdfrwt>
<pdfrwt beam="2">  1       -1 0.11023702E-01 0.78000123E+02</pdfrwt>
<totfact> 0.13506793E+05</totfact>
</mgrwt>
</event>
<event>
 8    1  0.2676873E-024  0.7916973E+02  0.7818608E-02  0.1331424E+00
         -1   -1    0    0    0  501 -0.00000000000E+00  0.00000000000E+00  0.40678735076E+01  0.40678766298E+01  0.50400000000E-02 0.  1.
          2   -1    0    0  501    0  0.00000000000E+00 -0.00000000000E+00 -0.38520394288E+03  0.38520394289E+03  0.25500000000E-02 0. -1.
         24    2    1    2    0    0  0.00000000000E+00  0.44408920985E-15 -0.38113606937E+03  0.38927181952E+03  0.79169729660E+02 0.  0.
         66    2    3    3    0    0 -0.19928595629E+02  0.33381176613E+01 -0.35791289659E+03  0.35848840074E+03  0.19999924928E+01 0.  0.
        -13    1    3    3    0    0  0.19928595629E+02 -0.33381176613E+01 -0.23223172784E+02  0.30783418775E+02  0.10566000000E+00 0.  1.
         13    1    4    4    0    0 -0.78174023119E+01  0.13951139435E+01 -0.13804046602E+03  0.13826872222E+03  0.10566000000E+00 0. -1.
        -13    1    4    4    0    0 -0.37390685620E+00  0.22687520892E+00 -0.12664450107E+02  0.12672440146E+02  0.10566000000E+00 0.  1.
        -14    1    4    4    0    0 -0.11737286461E+02  0.17161285089E+01 -0.20720798047E+03  0.20754723838E+03  0.00000000000E+00 0.  1.
<mgrwt>
<rscale>  0 0.79169730E+02</rscale>
<asrwt>0</asrwt>
<pdfrwt beam="1">  1        2 0.59262116E-01 0.79169730E+02</pdfrwt>
<pdfrwt beam="2">  1       -1 0.62582724E-03 0.79169730E+02</pdfrwt>
<totfact> 0.28652248E+05</totfact>
</mgrwt>
</event>
<event>
 8    1  0.2676873E-024  0.8228553E+02  0.7818608E-02  0.1322688E+00
          2   -1    0    0  501    0  0.00000000000E+00  0.00000000000E+00  0.98836714493E+03  0.98836714494E+03  0.25500000000E-02 0. -1.
         -1   -1    0    0    0  501 -0.00000000000E+00 -0.00000000000E+00 -0.17126464989E+01  0.17126539147E+01  0.50400000000E-02 0.  1.
         24    2    1    2    0    0  0.00000000000E+00  0.00000000000E+00  0.98665449844E+03  0.99007979885E+03  0.82285532219E+02 0.  0.
         66    2    3    3    0    0  0.13603619461E+02  0.19229141381E+02  0.89914275669E+03  0.89945345363E+03  0.20000003775E+01 0.  0.
        -13    1    3    3    0    0 -0.13603619461E+02 -0.19229141381E+02  0.87511741748E+02  0.90626345223E+02  0.10566000000E+00 0.  1.
         13    1    4    4    0    0  0.10005698589E+02  0.13903150028E+02  0.64914061331E+03  0.64936658260E+03  0.10566000000E+00 0. -1.
        -13    1    4    4    0    0  0.29138845606E+01  0.39995337505E+01  0.20590124933E+03  0.20596073081E+03  0.10566000000E+00 0.  1.
         14    1    4    4    0    0  0.68403631185E+00  0.13264576016E+01  0.44100894047E+02  0.44126140225E+02  0.00000000000E+00 0. -1.
<mgrwt>
<rscale>  0 0.82285532E+02</rscale>
<asrwt>0</asrwt>
<pdfrwt beam="1">  1        2 0.15205695E+00 0.82285532E+02</pdfrwt>
<pdfrwt beam="2">  1       -1 0.26348384E-03 0.82285532E+02</pdfrwt>
<totfact> 0.32725575E+05</totfact>
</mgrwt>
</event>
<event>
 8    1  0.2676873E-024  0.7824195E+02  0.7818608E-02  0.1334116E+00
         -1   -1    0    0    0  501 -0.00000000000E+00  0.00000000000E+00  0.63917117444E+01  0.63917137314E+01  0.50400000000E-02 0.  1.
          2   -1    0    0  501    0  0.00000000000E+00 -0.00000000000E+00 -0.23944297609E+03  0.23944297610E+03  0.25500000000E-02 0. -1.
         24    2    1    2    0    0  0.00000000000E+00  0.00000000000E+00 -0.23305126435E+03  0.24583468984E+03  0.78241951108E+02 0.  0.
         66    2    3    3    0    0  0.32507633775E+02  0.33341530762E+01 -0.18403222090E+03  0.18692169793E+03  0.19999997153E+01 0.  0.
        -13    1    3    3    0    0 -0.32507633775E+02 -0.33341530762E+01 -0.49019043449E+02  0.58912991904E+02  0.10566000000E+00 0.  1.
         13    1    4    4    0    0  0.16019570554E+02  0.98817331308E+00 -0.92893544471E+02  0.94269957546E+02  0.10566000000E+00 0. -1.
        -13    1    4    4    0    0  0.32025918802E+01  0.21468688391E+00 -0.16386209389E+02  0.16697955186E+02  0.10566000000E+00 0.  1.
         14    1    4    4    0    0  0.13285471341E+02  0.21312928792E+01 -0.74752467037E+02  0.75953785200E+02  0.00000000000E+00 0. -1.
<mgrwt>
<rscale>  0 0.78241951E+02</rscale>
<asrwt>0</asrwt>
<pdfrwt beam="1">  1        2 0.36837374E-01 0.78241951E+02</pdfrwt>
<pdfrwt beam="2">  1       -1 0.98334061E-03 0.78241951E+02</pdfrwt>
<totfact> 0.24916304E+05</totfact>
</mgrwt>
</event>
<event>
 8    1  0.2676873E-024  0.7860071E+02  0.7818608E-02  0.1333070E+00
          2   -1    0    0  501    0  0.00000000000E+00  0.00000000000E+00  0.21235383001E+03  0.21235383002E+03  0.25500000000E-02 0. -1.
         -1   -1    0    0    0  501 -0.00000000000E+00 -0.00000000000E+00 -0.72733217299E+01  0.72733234761E+01  0.50400000000E-02 0.  1.
         24    2    1    2    0    0  0.00000000000E+00  0.00000000000E+00  0.20508050828E+03  0.21962715350E+03  0.78600710420E+02 0.  0.
         66    2    3    3    0    0  0.33086292992E+02  0.16887652961E+02  0.13823869383E+03  0.14315666946E+03  0.19999830964E+01 0.  0.
        -13    1    3    3    0    0 -0.33086292992E+02 -0.16887652961E+02  0.66841814443E+02  0.76470484035E+02  0.10566000000E+00 0.  1.
         13    1    4    4    0    0  0.19631485347E+02  0.10376332943E+02  0.80378875893E+02  0.83389677756E+02  0.10566000000E+00 0. -1.
        -13    1    4    4    0    0  0.19805270120E+01  0.12666780944E+01  0.98476669996E+01  0.10124952840E+02  0.10566000000E+00 0.  1.
         14    1    4    4    0    0  0.11474280632E+02  0.52446419233E+01  0.48012150940E+02  0.49642038866E+02  0.00000000000E+00 0. -1.
<mgrwt>
<rscale>  0 0.78600710E+02</rscale>
<asrwt>0</asrwt>
<pdfrwt beam="1">  1        2 0.32669819E-01 0.78600710E+02</pdfrwt>
<pdfrwt beam="2">  1       -1 0.11189728E-02 0.78600710E+02</pdfrwt>
<totfact> 0.23596527E+05</totfact>
</mgrwt>
</event>
<event>
 8    1  0.2676873E-024  0.7923019E+02  0.7818608E-02  0.1331250E+00
         -1   -1    0    0    0  501 -0.00000000000E+00  0.00000000000E+00  0.62816683214E+01  0.62816703433E+01  0.50400000000E-02 0.  1.
          2   -1    0    0  501    0  0.00000000000E+00 -0.00000000000E+00 -0.24983100145E+03  0.24983100146E+03  0.25500000000E-02 0. -1.
         24    2    1    2    0    0  0.00000000000E+00  0.17763568394E-14 -0.24354933312E+03  0.25611267180E+03  0.79230189904E+02 0.  0.
         66    2    3    3    0    0  0.33687309444E+02  0.15207487695E+02 -0.75994957134E+02  0.84530089419E+02  0.20000019857E+01 0.  0.
        -13    1    3    3    0    0 -0.33687309444E+02 -0.15207487695E+02 -0.16755437599E+03  0.17158258238E+03  0.10566000000E+00 0.  1.
         13    1    4    4    0    0  0.15846257974E+02  0.77671248742E+01 -0.36055436075E+02  0.40142717337E+02  0.10566000000E+00 0.  1.
        -13    1    4    4    0    0  0.16144254704E+02  0.69810872500E+01 -0.35701785294E+02  0.39799512263E+02  0.10566000000E+00 0. -1.
        -14    1    4    4    0    0  0.16967967654E+01  0.45927557031E+00 -0.42377357647E+01  0.45878598196E+01  0.00000000000E+00 0.  1.
<mgrwt>
<rscale>  0 0.79230190E+02</rscale>
<asrwt>0</asrwt>
<pdfrwt beam="1">  1        2 0.38435531E-01 0.79230190E+02</pdfrwt>
<pdfrwt beam="2">  1       -1 0.96641086E-03 0.79230190E+02</pdfrwt>
<totfact> 0.24476656E+05</totfact>
</mgrwt>
</event>
<event>
 8    1  0.2676873E-024  0.7258174E+02  0.7818608E-02  0.1351527E+00
          2   -1    0    0  501    0  0.00000000000E+00  0.00000000000E+00  0.10614787857E+03  0.10614787860E+03  0.25500000000E-02 0. -1.
         -1   -1    0    0    0  501 -0.00000000000E+00 -0.00000000000E+00 -0.12407476811E+02  0.12407477835E+02  0.50400000000E-02 0.  1.
         24    2    1    2    0    0  0.00000000000E+00 -0.17763568394E-14  0.93740401755E+02  0.11855535643E+03  0.72581744381E+02 0.  0.
         66    2    3    3    0    0 -0.33793376392E+02  0.13036651208E+02  0.49770446883E+02  0.61587693164E+02  0.20000008995E+01 0.  0.
        -13    1    3    3    0    0  0.33793376392E+02 -0.13036651208E+02  0.43969954872E+02  0.56967663268E+02  0.10566000000E+00 0.  1.
         13    1    4    4    0    0 -0.20123656261E+02  0.76787710041E+01  0.30331548840E+02  0.37201331758E+02  0.10566000000E+00 0.  1.
        -13    1    4    4    0    0 -0.81324350213E+01  0.26070824256E+01  0.11433687164E+02  0.14271431054E+02  0.10566000000E+00 0. -1.
        -14    1    4    4    0    0 -0.55372851100E+01  0.27507977778E+01  0.80052108794E+01  0.10114930352E+02  0.00000000000E+00 0.  1.
<mgrwt>
<rscale>  0 0.72581744E+02</rscale>
<asrwt>0</asrwt>
<pdfrwt beam="1">  1        2 0.16330443E-01 0.72581744E+02</pdfrwt>
<pdfrwt beam="2">  1       -1 0.19088427E-02 0.72581744E+02</pdfrwt>
<totfact> 0.23348314E+05</totfact>
</mgrwt>
</event>
<event>
 8    1  0.2676873E-024  0.7849955E+02  0.7818608E-02  0.1333364E+00
          2   -1    0    0  501    0  0.00000000000E+00  0.00000000000E+00  0.60872611695E+03  0.60872611696E+03  0.25500000000E-02 0. -1.
         -1   -1    0    0    0  501 -0.00000000000E+00 -0.00000000000E+00 -0.25307660721E+01  0.25307710907E+01  0.50400000000E-02 0.  1.
         24    2    1    2    0    0  0.00000000000E+00 -0.22204460493E-15  0.60619535088E+03  0.61125688805E+03  0.78499552596E+02 0.  0.
         66    2    3    3    0    0  0.36215028785E+02  0.19196843666E+01  0.41966003780E+03  0.42122886988E+03  0.19999996136E+01 0.  0.
        -13    1    3    3    0    0 -0.36215028785E+02 -0.19196843666E+01  0.18653531308E+03  0.19002801817E+03  0.10566000000E+00 0.  1.
         13    1    4    4    0    0  0.21745344997E+02  0.18786740137E+01  0.25205480321E+03  0.25299807199E+03  0.10566000000E+00 0. -1.
        -13    1    4    4    0    0  0.38262133801E+00 -0.30019104323E-02  0.57463135341E+01  0.57600079313E+01  0.10566000000E+00 0. -1.
        -14    1    4    4    0    0  0.14087062450E+02  0.44012263353E-01  0.16185892105E+03  0.16247078996E+03  0.00000000000E+00 0.  1.
<mgrwt>
<rscale>  0 0.78499553E+02</rscale>
<asrwt>0</asrwt>
<pdfrwt beam="1">  1        2 0.93650043E-01 0.78499553E+02</pdfrwt>
<pdfrwt beam="2">  1       -1 0.38934955E-03 0.78499553E+02</pdfrwt>
<totfact> 0.33921158E+05</totfact>
</mgrwt>
</event>
<event>
 8    1  0.2676873E-024  0.8056224E+02  0.7818608E-02  0.1327463E+00
         -1   -1    0    0    0  501 -0.00000000000E+00  0.00000000000E+00  0.15362189433E+01  0.15362272108E+01  0.50400000000E-02 0.  1.
          2   -1    0    0  501    0  0.00000000000E+00 -0.00000000000E+00 -0.10562062972E+04  0.10562062972E+04  0.25500000000E-02 0. -1.
         24    2    1    2    0    0  0.00000000000E+00 -0.88817841970E-15 -0.10546700783E+04  0.10577425245E+04  0.80562236709E+02 0.  0.
         66    2    3    3    0    0 -0.24223974311E+02 -0.72226337884E+01 -0.93901232639E+03  0.93935462764E+03  0.19999996745E+01 0.  0.
        -13    1    3    3    0    0  0.24223974311E+02  0.72226337884E+01 -0.11565775191E+03  0.11838789681E+03  0.10566000000E+00 0.  1.
         13    1    4    4    0    0 -0.17633672498E+02 -0.51768957230E+01 -0.67945882744E+03  0.67970733114E+03  0.10566000000E+00 0. -1.
        -13    1    4    4    0    0 -0.46304961629E+01 -0.18740424388E+01 -0.17839184472E+03  0.17846180251E+03  0.10566000000E+00 0.  1.
         14    1    4    4    0    0 -0.19598056501E+01 -0.17169562655E+00 -0.81161654234E+02  0.81185493997E+02  0.00000000000E+00 0. -1.
<mgrwt>
<rscale>  0 0.80562237E+02</rscale>
<asrwt>0</asrwt>
<pdfrwt beam="1">  1        2 0.16249270E+00 0.80562237E+02</pdfrwt>
<pdfrwt beam="2">  1       -1 0.23634286E-03 0.80562237E+02</pdfrwt>
<totfact> 0.34637620E+05</totfact>
</mgrwt>
</event>
<event>
 8    1  0.2676873E-024  0.8065354E+02  0.7818608E-02  0.1327207E+00
          2   -1    0    0  501    0  0.00000000000E+00  0.00000000000E+00  0.16882097428E+02  0.16882097621E+02  0.25500000000E-02 0. -1.
         -1   -1    0    0    0  501 -0.00000000000E+00 -0.00000000000E+00 -0.96329764254E+02  0.96329764385E+02  0.50400000000E-02 0.  1.
         24    2    1    2    0    0 -0.17763568394E-14  0.00000000000E+00 -0.79447666826E+02  0.11321186201E+03  0.80653542606E+02 0.  0.
         66    2    3    3    0    0  0.98946649994E+01 -0.35767120871E+02 -0.17685279926E+02  0.41157750879E+02  0.20000001153E+01 0.  0.
        -13    1    3    3    0    0 -0.98946649994E+01  0.35767120871E+02 -0.61762386899E+02  0.72054111127E+02  0.10566000000E+00 0.  1.
         13    1    4    4    0    0  0.81051167024E+01 -0.26522355198E+02 -0.12746056798E+02  0.30522145566E+02  0.10566000000E+00 0. -1.
        -13    1    4    4    0    0  0.75761114182E+00 -0.35539568011E+01 -0.18746227123E+01  0.40902271252E+01  0.10566000000E+00 0. -1.
         14    1    4    4    0    0  0.10319371551E+01 -0.56908088719E+01 -0.30646004162E+01  0.65453781876E+01  0.00000000000E+00 0. -1.
<mgrwt>
<rscale>  0 0.80653543E+02</rscale>
<asrwt>0</asrwt>
<pdfrwt beam="1">  1        2 0.25972458E-02 0.80653543E+02</pdfrwt>
<pdfrwt beam="2">  1       -1 0.14819963E-01 0.80653543E+02</pdfrwt>
<totfact> 0.11708336E+05</totfact>
</mgrwt>
</event>
<event>
 8    1  0.2676873E-024  0.7980685E+02  0.7818608E-02  0.1329600E+00
          2   -1    0    0  501    0  0.00000000000E+00  0.00000000000E+00  0.26251400937E+03  0.26251400939E+03  0.25500000000E-02 0. -1.
         -1   -1    0    0    0  501 -0.00000000000E+00 -0.00000000000E+00 -0.60655167927E+01  0.60655188866E+01  0.50400000000E-02 0.  1.
         24    2    1    2    0    0 -0.71054273576E-14  0.88817841970E-15  0.25644849258E+03  0.26857952827E+03  0.79806852213E+02 0.  0.
         66    2    3    3    0    0 -0.39540915563E+02  0.49007697703E+01  0.12269647668E+03  0.12901909523E+03  0.19999994648E+01 0.  0.
        -13    1    3    3    0    0  0.39540915563E+02 -0.49007697703E+01  0.13375201590E+03  0.13956043304E+03  0.10566000000E+00 0.  1.
         13    1    4    4    0    0 -0.46212011945E+01  0.39128397154E+00  0.15903715106E+02  0.16566469806E+02  0.10566000000E+00 0. -1.
        -13    1    4    4    0    0 -0.35006221291E+01  0.46371392880E+00  0.11741451944E+02  0.12261412793E+02  0.10566000000E+00 0.  1.
         14    1    4    4    0    0 -0.31419092239E+02  0.40457718700E+01  0.95051309626E+02  0.10019121263E+03  0.00000000000E+00 0. -1.
<mgrwt>
<rscale>  0 0.79806852E+02</rscale>
<asrwt>0</asrwt>
<pdfrwt beam="1">  1        2 0.40386761E-01 0.79806852E+02</pdfrwt>
<pdfrwt beam="2">  1       -1 0.93315681E-03 0.79806852E+02</pdfrwt>
<totfact> 0.24446279E+05</totfact>
</mgrwt>
</event>
<event>
 8    1  0.2676873E-024  0.8218576E+02  0.7818608E-02  0.1322961E+00
          2   -1    0    0  501    0  0.00000000000E+00  0.00000000000E+00  0.94914681070E+02  0.94914681105E+02  0.25500000000E-02 0. -1.
         -1   -1    0    0    0  501 -0.00000000000E+00 -0.00000000000E+00 -0.17790977429E+02  0.17790978143E+02  0.50400000000E-02 0.  1.
         24    2    1    2    0    0  0.00000000000E+00 -0.88817841970E-15  0.77123703641E+02  0.11270565925E+03  0.82185764966E+02 0.  0.
         66    2    3    3    0    0 -0.36870179386E+02 -0.47904545842E+01  0.62505251721E+02  0.72754828422E+02  0.19999957169E+01 0.  0.
        -13    1    3    3    0    0  0.36870179386E+02  0.47904545842E+01  0.14618451921E+02  0.39950830826E+02  0.10566000000E+00 0.  1.
         13    1    4    4    0    0 -0.85131234232E+01 -0.11979116343E+01  0.15332933435E+02  0.17578915623E+02  0.10566000000E+00 0. -1.
        -13    1    4    4    0    0 -0.48684813581E+01 -0.11480660310E+01  0.85147853552E+01  0.98758746462E+01  0.10566000000E+00 0.  1.
         14    1    4    4    0    0 -0.23488574605E+02 -0.24444769189E+01  0.38657532930E+02  0.45300038153E+02  0.00000000000E+00 0. -1.
<mgrwt>
<rscale>  0 0.82185765E+02</rscale>
<asrwt>0</asrwt>
<pdfrwt beam="1">  1        2 0.14602258E-01 0.82185765E+02</pdfrwt>
<pdfrwt beam="2">  1       -1 0.27370736E-02 0.82185765E+02</pdfrwt>
<totfact> 0.16250639E+05</totfact>
</mgrwt>
</event>
<event>
 8    1  0.2676873E-024  0.7946992E+02  0.7818608E-02  0.1330562E+00
          2   -1    0    0  501    0  0.00000000000E+00  0.00000000000E+00  0.45326555887E+02  0.45326555959E+02  0.25500000000E-02 0. -1.
         -1   -1    0    0    0  501 -0.00000000000E+00 -0.00000000000E+00 -0.34833158921E+02  0.34833159285E+02  0.50400000000E-02 0.  1.
         24    2    1    2    0    0  0.00000000000E+00  0.88817841970E-15  0.10493396967E+02  0.80159715245E+02  0.79469922412E+02 0.  0.
         66    2    3    3    0    0 -0.23634700264E+02  0.61036862009E+01  0.36842926087E+02  0.44240877697E+02  0.20000037334E+01 0.  0.
        -13    1    3    3    0    0  0.23634700264E+02 -0.61036862009E+01 -0.26349529121E+02  0.35918837547E+02  0.10566000000E+00 0.  1.
         13    1    4    4    0    0 -0.10391834050E+02  0.26614989355E+01  0.17042211566E+02  0.20137575093E+02  0.10566000000E+00 0. -1.
        -13    1    4    4    0    0 -0.19239042776E+01  0.66502170262E-01  0.29989111617E+01  0.35651735440E+01  0.10566000000E+00 0.  1.
        -14    1    4    4    0    0 -0.11318961936E+02  0.33756850951E+01  0.16801803360E+02  0.20538129061E+02  0.00000000000E+00 0.  1.
<mgrwt>
<rscale>  0 0.79469922E+02</rscale>
<asrwt>0</asrwt>
<pdfrwt beam="1">  1        2 0.69733162E-02 0.79469922E+02</pdfrwt>
<pdfrwt beam="2">  1       -1 0.53589476E-02 0.79469922E+02</pdfrwt>
<totfact> 0.14901399E+05</totfact>
</mgrwt>
</event>
<event>
 8    1  0.2676873E-024  0.7998277E+02  0.7818608E-02  0.1329100E+00
          2   -1    0    0  501    0  0.00000000000E+00  0.00000000000E+00  0.16578846793E+03  0.16578846795E+03  0.25500000000E-02 0. -1.
         -1   -1    0    0    0  501 -0.00000000000E+00 -0.00000000000E+00 -0.96466939529E+01  0.96466952695E+01  0.50400000000E-02 0.  1.
         24    2    1    2    0    0  0.00000000000E+00  0.00000000000E+00  0.15614177398E+03  0.17543516322E+03  0.79982766350E+02 0.  0.
         66    2    3    3    0    0 -0.35585851194E+02  0.10002201421E+02  0.11144997072E+03  0.11743718670E+03  0.20000017882E+01 0.  0.
        -13    1    3    3    0    0  0.35585851194E+02 -0.10002201421E+02  0.44691803259E+02  0.57997976525E+02  0.10566000000E+00 0.  1.
         13    1    4    4    0    0 -0.20947354217E+02  0.55430248898E+01  0.62799963289E+02  0.66433149307E+02  0.10566000000E+00 0. -1.
        -13    1    4    4    0    0 -0.76444262929E+01  0.22295643371E+01  0.24313307942E+02  0.25584298263E+02  0.10566000000E+00 0.  1.
        -14    1    4    4    0    0 -0.69940706839E+01  0.22296121940E+01  0.24336699487E+02  0.25419739125E+02  0.00000000000E+00 0.  1.
<mgrwt>
<rscale>  0 0.79982766E+02</rscale>
<asrwt>0</asrwt>
<pdfrwt beam="1">  1        2 0.25505916E-01 0.79982766E+02</pdfrwt>
<pdfrwt beam="2">  1       -1 0.14841070E-02 0.79982766E+02</pdfrwt>
<totfact> 0.20707820E+05</totfact>
</mgrwt>
</event>
<event>
 8    1  0.2676873E-024  0.7701389E+02  0.7818608E-02  0.1337746E+00
          2   -1    0    0  501    0  0.00000000000E+00  0.00000000000E+00  0.10921378105E+03  0.10921378108E+03  0.25500000000E-02 0. -1.
         -1   -1    0    0    0  501 -0.00000000000E+00 -0.00000000000E+00 -0.13576902121E+02  0.13576903057E+02  0.50400000000E-02 0.  1.
         24    2    1    2    0    0  0.00000000000E+00  0.17763568394E-14  0.95636878926E+02  0.12279068413E+03  0.77013891599E+02 0.  0.
         66    2    3    3    0    0  0.22526393123E+02 -0.11182886277E+02  0.94287918711E+02  0.97604851005E+02  0.19999980630E+01 0.  0.
        -13    1    3    3    0    0 -0.22526393123E+02  0.11182886277E+02  0.13489602145E+01  0.25185833128E+02  0.10566000000E+00 0.  1.
         13    1    4    4    0    0  0.58187001396E+01 -0.31200663039E+01  0.22962579743E+02  0.23893164661E+02  0.10566000000E+00 0. -1.
        -13    1    4    4    0    0  0.21751605212E+01 -0.61111674764E+00  0.95175585389E+01  0.97826311158E+01  0.10566000000E+00 0.  1.
         14    1    4    4    0    0  0.14532532463E+02 -0.74517032257E+01  0.61807780430E+02  0.63929055228E+02  0.00000000000E+00 0. -1.
<mgrwt>
<rscale>  0 0.77013892E+02</rscale>
<asrwt>0</asrwt>
<pdfrwt beam="1">  1        2 0.16802119E-01 0.77013892E+02</pdfrwt>
<pdfrwt beam="2">  1       -1 0.20887543E-02 0.77013892E+02</pdfrwt>
<totfact> 0.20116855E+05</totfact>
</mgrwt>
</event>
<event>
 8    1  0.2676873E-024  0.8014934E+02  0.7818608E-02  0.1328628E+00
          2   -1    0    0  501    0  0.00000000000E+00  0.00000000000E+00  0.40441200293E+03  0.40441200293E+03  0.25500000000E-02 0. -1.
         -1   -1    0    0    0  501 -0.00000000000E+00 -0.00000000000E+00 -0.39711444652E+01  0.39711476634E+01  0.50400000000E-02 0.  1.
         24    2    1    2    0    0  0.00000000000E+00 -0.35527136788E-14  0.40044085846E+03  0.40838315060E+03  0.80149339156E+02 0.  0.
         66    2    3    3    0    0  0.57638020948E+00 -0.21669100193E+02  0.37193477303E+03  0.37257127843E+03  0.20000017996E+01 0.  0.
        -13    1    3    3    0    0 -0.57638020948E+00  0.21669100193E+02  0.28506085435E+02  0.35811872168E+02  0.10566000000E+00 0.  1.
         13    1    4    4    0    0  0.57791413249E+00 -0.18728885331E+02  0.33013698840E+03  0.33066833445E+03  0.10566000000E+00 0. -1.
        -13    1    4    4    0    0  0.14856322196E+00 -0.23601446348E+01  0.33057504761E+02  0.33142150485E+02  0.10566000000E+00 0.  1.
        -14    1    4    4    0    0 -0.15009714497E+00 -0.58007022735E+00  0.87402798608E+01  0.87607934953E+01  0.00000000000E+00 0.  1.
<mgrwt>
<rscale>  0 0.80149339E+02</rscale>
<asrwt>0</asrwt>
<pdfrwt beam="1">  1        2 0.62217203E-01 0.80149339E+02</pdfrwt>
<pdfrwt beam="2">  1       -1 0.61094583E-03 0.80149339E+02</pdfrwt>
<totfact> 0.28224151E+05</totfact>
</mgrwt>
</event>
<event>
 8    1  0.2676873E-024  0.7983492E+02  0.7818608E-02  0.1329521E+00
          2   -1    0    0  501    0  0.00000000000E+00  0.00000000000E+00  0.58586614107E+02  0.58586614163E+02  0.25500000000E-02 0. -1.
         -1   -1    0    0    0  501 -0.00000000000E+00 -0.00000000000E+00 -0.27197397300E+02  0.27197397767E+02  0.50400000000E-02 0.  1.
         24    2    1    2    0    0  0.00000000000E+00 -0.35527136788E-14  0.31389216807E+02  0.85784011930E+02  0.79834915739E+02 0.  0.
         66    2    3    3    0    0  0.15559008208E+01  0.31050678708E+02 -0.11154917264E+02  0.33090748761E+02  0.19999997005E+01 0.  0.
        -13    1    3    3    0    0 -0.15559008208E+01 -0.31050678708E+02  0.42544134071E+02  0.52693263170E+02  0.10566000000E+00 0.  1.
         13    1    4    4    0    0  0.23396923994E+00  0.20640737073E+02 -0.74354266551E+01  0.21940635864E+02  0.10566000000E+00 0. -1.
        -13    1    4    4    0    0  0.43027005926E+00  0.40188343427E+01 -0.17262180217E+01  0.43962659715E+01  0.10566000000E+00 0.  1.
         14    1    4    4    0    0  0.89166152160E+00  0.63911072914E+01 -0.19932725874E+01  0.67538469250E+01  0.00000000000E+00 0. -1.
<mgrwt>
<rscale>  0 0.79834916E+02</rscale>
<asrwt>0</asrwt>
<pdfrwt beam="1">  1        2 0.90133253E-02 0.79834916E+02</pdfrwt>
<pdfrwt beam="2">  1       -1 0.41842150E-02 0.79834916E+02</pdfrwt>
<totfact> 0.15568394E+05</totfact>
</mgrwt>
</event>
<event>
 8    1  0.2676873E-024  0.8407363E+02  0.7818608E-02  0.1317873E+00
          2   -1    0    0  501    0  0.00000000000E+00  0.00000000000E+00  0.29794133969E+03  0.29794133970E+03  0.25500000000E-02 0. -1.
         -1   -1    0    0    0  501 -0.00000000000E+00 -0.00000000000E+00 -0.59310120672E+01  0.59310142086E+01  0.50400000000E-02 0.  1.
         24    2    1    2    0    0  0.00000000000E+00  0.00000000000E+00  0.29201032762E+03  0.30387235391E+03  0.84073634584E+02 0.  0.
         66    2    3    3    0    0 -0.32097830826E+02  0.21558028199E+01  0.24375359918E+03  0.24587544681E+03  0.19999998160E+01 0.  0.
        -13    1    3    3    0    0  0.32097830826E+02 -0.21558028199E+01  0.48256728443E+02  0.57996907103E+02  0.10566000000E+00 0.  1.
         13    1    4    4    0    0 -0.98174434475E+01  0.50260569172E+00  0.70653950536E+02  0.71334610805E+02  0.10566000000E+00 0. -1.
        -13    1    4    4    0    0 -0.10269481971E+02  0.12521038470E+00  0.81262637035E+02  0.81909128182E+02  0.10566000000E+00 0.  1.
         14    1    4    4    0    0 -0.12010905408E+02  0.15279867435E+01  0.91837011609E+02  0.92631707819E+02  0.00000000000E+00 0. -1.
<mgrwt>
<rscale>  0 0.84073635E+02</rscale>
<asrwt>0</asrwt>
<pdfrwt beam="1">  1        2 0.45837129E-01 0.84073635E+02</pdfrwt>
<pdfrwt beam="2">  1       -1 0.91246357E-03 0.84073635E+02</pdfrwt>
<totfact> 0.22318599E+05</totfact>
</mgrwt>
</event>
<event>
 8    1  0.2676873E-024  0.8061574E+02  0.7818608E-02  0.1327313E+00
         -1   -1    0    0    0  501 -0.00000000000E+00  0.00000000000E+00  0.12162254847E+02  0.12162255891E+02  0.50400000000E-02 0.  1.
          2   -1    0    0  501    0  0.00000000000E+00 -0.00000000000E+00 -0.13358742835E+03  0.13358742837E+03  0.25500000000E-02 0. -1.
         24    2    1    2    0    0  0.00000000000E+00  0.00000000000E+00 -0.12142517350E+03  0.14574968427E+03  0.80615741039E+02 0.  0.
         66    2    3    3    0    0  0.19185665079E+02  0.16393211950E+02 -0.11751770906E+03  0.12021330659E+03  0.19999989038E+01 0.  0.
        -13    1    3    3    0    0 -0.19185665079E+02 -0.16393211950E+02 -0.39074644448E+01  0.25536377679E+02  0.10566000000E+00 0.  1.
         13    1    4    4    0    0  0.99381657074E+01  0.77372667184E+01 -0.59163729351E+02  0.60489589755E+02  0.10566000000E+00 0. -1.
        -13    1    4    4    0    0  0.55338264704E+01  0.48424891025E+01 -0.31475014701E+02  0.32322757471E+02  0.10566000000E+00 0.  1.
         14    1    4    4    0    0  0.37136729008E+01  0.38134561294E+01 -0.26878965006E+02  0.27400959360E+02  0.00000000000E+00 0. -1.
<mgrwt>
<rscale>  0 0.80615741E+02</rscale>
<asrwt>0</asrwt>
<pdfrwt beam="1">  1        2 0.20551911E-01 0.80615741E+02</pdfrwt>
<pdfrwt beam="2">  1       -1 0.18711163E-02 0.80615741E+02</pdfrwt>
<totfact> 0.18918531E+05</totfact>
</mgrwt>
</event>
<event>
 8    1  0.2676873E-024  0.8805111E+02  0.7818608E-02  0.1307641E+00
         -1   -1    0    0    0  501 -0.00000000000E+00  0.00000000000E+00  0.85824791530E+01  0.85824806329E+01  0.50400000000E-02 0.  1.
          2   -1    0    0  501    0  0.00000000000E+00 -0.00000000000E+00 -0.22583794141E+03  0.22583794142E+03  0.25500000000E-02 0. -1.
         24    2    1    2    0    0  0.00000000000E+00  0.00000000000E+00 -0.21725546225E+03  0.23442042205E+03  0.88051112412E+02 0.  0.
         66    2    3    3    0    0  0.19309467918E+02  0.14499401978E+02 -0.20661786443E+03  0.20803372350E+03  0.20000007051E+01 0.  0.
        -13    1    3    3    0    0 -0.19309467918E+02 -0.14499401978E+02 -0.10637597821E+02  0.26386698551E+02  0.10566000000E+00 0.  1.
         13    1    4    4    0    0  0.40115192168E+01  0.24349647870E+01 -0.40865464928E+02  0.41134155246E+02  0.10566000000E+00 0. -1.
        -13    1    4    4    0    0  0.78901091811E+01  0.63438366068E+01 -0.92108335910E+02  0.92663125319E+02  0.10566000000E+00 0.  1.
         14    1    4    4    0    0  0.74078395198E+01  0.57206005846E+01 -0.73644063594E+02  0.74236442938E+02  0.00000000000E+00 0. -1.
<mgrwt>
<rscale>  0 0.88051112E+02</rscale>
<asrwt>0</asrwt>
<pdfrwt beam="1">  1        2 0.34744294E-01 0.88051112E+02</pdfrwt>
<pdfrwt beam="2">  1       -1 0.13203817E-02 0.88051112E+02</pdfrwt>
<totfact> 0.17860539E+05</totfact>
</mgrwt>
</event>
<event>
 8    1  0.2676873E-024  0.7855205E+02  0.7818608E-02  0.1333211E+00
          2   -1    0    0  501    0  0.00000000000E+00  0.00000000000E+00  0.78615558207E+02  0.78615558249E+02  0.25500000000E-02 0. -1.
         -1   -1    0    0    0  501 -0.00000000000E+00 -0.00000000000E+00 -0.19622150025E+02  0.19622150672E+02  0.50400000000E-02 0.  1.
         24    2    1    2    0    0  0.71054273576E-14  0.88817841970E-15  0.58993408182E+02  0.98237708921E+02  0.78552054366E+02 0.  0.
         66    2    3    3    0    0  0.38793335410E+02  0.59219487990E+01  0.30491746378E+02  0.49736696154E+02  0.19999993101E+01 0.  0.
        -13    1    3    3    0    0 -0.38793335410E+02 -0.59219487990E+01  0.28501661804E+02  0.48501012768E+02  0.10566000000E+00 0.  1.
         13    1    4    4    0    0  0.51546769826E+00 -0.47502075091E-02  0.41528499977E+00  0.67033959979E+00  0.10566000000E+00 0.  1.
        -13    1    4    4    0    0  0.95249010418E+01  0.17606776364E+01  0.83298298867E+01  0.12775795692E+02  0.10566000000E+00 0. -1.
         14    1    4    4    0    0  0.28752966670E+02  0.41660213702E+01  0.21746631492E+02  0.36290560862E+02  0.00000000000E+00 0. -1.
<mgrwt>
<rscale>  0 0.78552054E+02</rscale>
<asrwt>0</asrwt>
<pdfrwt beam="1">  1        2 0.12094701E-01 0.78552054E+02</pdfrwt>
<pdfrwt beam="2">  1       -1 0.30187924E-02 0.78552054E+02</pdfrwt>
<totfact> 0.17459577E+05</totfact>
</mgrwt>
</event>
<event>
 8    1  0.2676873E-024  0.7938951E+02  0.7818608E-02  0.1330793E+00
         -1   -1    0    0    0  501 -0.00000000000E+00  0.00000000000E+00  0.14210774146E+03  0.14210774155E+03  0.50400000000E-02 0.  1.
          2   -1    0    0  501    0  0.00000000000E+00 -0.00000000000E+00 -0.11087880946E+02  0.11087881239E+02  0.25500000000E-02 0. -1.
         24    2    1    2    0    0 -0.71054273576E-14 -0.17763568394E-14  0.13101986052E+03  0.15319562279E+03  0.79389514374E+02 0.  0.
         66    2    3    3    0    0  0.38400172968E+02  0.97091632978E+01  0.69791250925E+02  0.80272410214E+02  0.19999999920E+01 0.  0.
        -13    1    3    3    0    0 -0.38400172968E+02 -0.97091632978E+01  0.61228609591E+02  0.72923212576E+02  0.10566000000E+00 0.  1.
         13    1    4    4    0    0  0.23354689485E+02  0.61778444005E+01  0.41051428507E+02  0.47632323362E+02  0.10566000000E+00 0. -1.
        -13    1    4    4    0    0  0.41374117858E+01  0.11798510080E+01  0.85385391053E+01  0.95618010215E+01  0.10566000000E+00 0. -1.
         14    1    4    4    0    0  0.10908071698E+02  0.23514678893E+01  0.20201283312E+02  0.23078285830E+02  0.00000000000E+00 0. -1.
<mgrwt>
<rscale>  0 0.79389514E+02</rscale>
<asrwt>0</asrwt>
<pdfrwt beam="1">  1        2 0.17058279E-02 0.79389514E+02</pdfrwt>
<pdfrwt beam="2">  1       -1 0.21862729E-01 0.79389514E+02</pdfrwt>
<totfact> 0.11148258E+05</totfact>
</mgrwt>
</event>
<event>
 8    1  0.2676873E-024  0.7655868E+02  0.7818608E-02  0.1339111E+00
          2   -1    0    0  501    0  0.00000000000E+00  0.00000000000E+00  0.33411871796E+03  0.33411871797E+03  0.25500000000E-02 0. -1.
         -1   -1    0    0    0  501 -0.00000000000E+00 -0.00000000000E+00 -0.43855894130E+01  0.43855923090E+01  0.50400000000E-02 0.  1.
         24    2    1    2    0    0 -0.35527136788E-14  0.00000000000E+00  0.32973312854E+03  0.33850431028E+03  0.76558683477E+02 0.  0.
         66    2    3    3    0    0  0.30357504282E+02  0.21585108674E+01  0.26744564567E+03  0.26917914224E+03  0.19999994115E+01 0.  0.
        -13    1    3    3    0    0 -0.30357504282E+02 -0.21585108674E+01  0.62287482878E+02  0.69325168032E+02  0.10566000000E+00 0.  1.
         13    1    4    4    0    0  0.17070734454E+01  0.87572466410E-01  0.18260781902E+02  0.18340912965E+02  0.10566000000E+00 0.  1.
        -13    1    4    4    0    0  0.14496957161E+02  0.49545520432E+00  0.12831461301E+03  0.12913194151E+03  0.10566000000E+00 0. -1.
        -14    1    4    4    0    0  0.14153473676E+02  0.15754831966E+01  0.12087025076E+03  0.12170628777E+03  0.00000000000E+00 0.  1.
<mgrwt>
<rscale>  0 0.76558683E+02</rscale>
<asrwt>0</asrwt>
<pdfrwt beam="1">  1        2 0.51402890E-01 0.76558683E+02</pdfrwt>
<pdfrwt beam="2">  1       -1 0.67470615E-03 0.76558683E+02</pdfrwt>
<totfact> 0.29731195E+05</totfact>
</mgrwt>
</event>
<event>
 8    1  0.2676873E-024  0.7767717E+02  0.7818608E-02  0.1335776E+00
         -1   -1    0    0    0  501 -0.00000000000E+00  0.00000000000E+00  0.14759225803E+01  0.14759311856E+01  0.50400000000E-02 0.  1.
          2   -1    0    0  501    0  0.00000000000E+00 -0.00000000000E+00 -0.10220261055E+04  0.10220261055E+04  0.25500000000E-02 0. -1.
         24    2    1    2    0    0  0.00000000000E+00 -0.35527136788E-14 -0.10205501829E+04  0.10235020367E+04  0.77677173278E+02 0.  0.
         66    2    3    3    0    0 -0.43689505489E+01  0.16389653161E+02 -0.97060169722E+03  0.97075195756E+03  0.20000027992E+01 0.  0.
        -13    1    3    3    0    0  0.43689505489E+01 -0.16389653161E+02 -0.49948485675E+02  0.52750079098E+02  0.10566000000E+00 0.  1.
         13    1    4    4    0    0 -0.24088648577E+01  0.10047677876E+02 -0.60633954253E+03  0.60642758056E+03  0.10566000000E+00 0. -1.
        -13    1    4    4    0    0 -0.10711553782E+01  0.34442253169E+01 -0.22768390339E+03  0.22771249656E+03  0.10566000000E+00 0.  1.
        -14    1    4    4    0    0 -0.88893031302E+00  0.28977499687E+01 -0.13657825130E+03  0.13661188045E+03  0.00000000000E+00 0.  1.
<mgrwt>
<rscale>  0 0.77677173E+02</rscale>
<asrwt>0</asrwt>
<pdfrwt beam="1">  1        2 0.15723422E+00 0.77677173E+02</pdfrwt>
<pdfrwt beam="2">  1       -1 0.22706649E-03 0.77677173E+02</pdfrwt>
<totfact> 0.38055793E+05</totfact>
</mgrwt>
</event>
<event>
 8    1  0.2676873E-024  0.7980525E+02  0.7818608E-02  0.1329605E+00
          2   -1    0    0  501    0  0.00000000000E+00  0.00000000000E+00  0.17661462475E+03  0.17661462477E+03  0.25500000000E-02 0. -1.
         -1   -1    0    0    0  501 -0.00000000000E+00 -0.00000000000E+00 -0.90152190819E+01  0.90152204907E+01  0.50400000000E-02 0.  1.
         24    2    1    2    0    0  0.00000000000E+00  0.00000000000E+00  0.16759940567E+03  0.18562984526E+03  0.79805254656E+02 0.  0.
         66    2    3    3    0    0 -0.27192950044E+02  0.26277448268E+01  0.15142153790E+03  0.15387931543E+03  0.20000005573E+01 0.  0.
        -13    1    3    3    0    0  0.27192950044E+02 -0.26277448268E+01  0.16177867771E+02  0.31750529832E+02  0.10566000000E+00 0.  1.
         13    1    4    4    0    0 -0.19322989238E+01  0.54725152528E+00  0.12324757868E+02  0.12487757360E+02  0.10566000000E+00 0.  1.
        -13    1    4    4    0    0 -0.29072721901E+00  0.82327725629E-01  0.18648076705E+01  0.18920813550E+01  0.10566000000E+00 0.  1.
         14    1    4    4    0    0 -0.24969923901E+02  0.19981655758E+01  0.13723197236E+03  0.13949947671E+03  0.00000000000E+00 0. -1.
<mgrwt>
<rscale>  0 0.79805255E+02</rscale>
<asrwt>0</asrwt>
<pdfrwt beam="1">  1        2 0.27171480E-01 0.79805255E+02</pdfrwt>
<pdfrwt beam="2">  1       -1 0.13869569E-02 0.79805255E+02</pdfrwt>
<totfact> 0.21274720E+05</totfact>
</mgrwt>
</event>
<event>
 8    1  0.2676873E-024  0.7861065E+02  0.7818608E-02  0.1333041E+00
         -1   -1    0    0    0  501 -0.00000000000E+00  0.00000000000E+00  0.11315478477E+01  0.11315590719E+01  0.50400000000E-02 0.  1.
          2   -1    0    0  501    0  0.00000000000E+00 -0.00000000000E+00 -0.13652986309E+04  0.13652986309E+04  0.25500000000E-02 0. -1.
         24    2    1    2    0    0 -0.17763568394E-14  0.00000000000E+00 -0.13641670831E+04  0.13664301900E+04  0.78610645525E+02 0.  0.
         66    2    3    3    0    0 -0.13092221981E+02 -0.10967206462E+02 -0.12973785210E+04  0.12974924711E+04  0.20000010198E+01 0.  0.
        -13    1    3    3    0    0  0.13092221981E+02  0.10967206462E+02 -0.66788562092E+02  0.68937718880E+02  0.10566000000E+00 0.  1.
         13    1    4    4    0    0 -0.64337516011E+01 -0.58173044443E+01 -0.66271436964E+03  0.66277113779E+03  0.10566000000E+00 0. -1.
        -13    1    4    4    0    0 -0.39303488036E+00 -0.30593247648E+00 -0.67093817868E+02  0.67095749726E+02  0.10566000000E+00 0.  1.
        -14    1    4    4    0    0 -0.62654354995E+01 -0.48439695416E+01 -0.56757033345E+03  0.56762558358E+03  0.00000000000E+00 0.  1.
<mgrwt>
<rscale>  0 0.78610646E+02</rscale>
<asrwt>0</asrwt>
<pdfrwt beam="1">  1        2 0.21004463E+00 0.78610646E+02</pdfrwt>
<pdfrwt beam="2">  1       -1 0.17408624E-03 0.78610646E+02</pdfrwt>
<totfact> 0.35835110E+05</totfact>
</mgrwt>
</event>
<event>
 8    1  0.2676873E-024  0.7831178E+02  0.7818608E-02  0.1333912E+00
         -1   -1    0    0    0  501 -0.00000000000E+00  0.00000000000E+00  0.27185693487E+02  0.27185693954E+02  0.50400000000E-02 0.  1.
          2   -1    0    0  501    0  0.00000000000E+00 -0.00000000000E+00 -0.56396704975E+02  0.56396705033E+02  0.25500000000E-02 0. -1.
         24    2    1    2    0    0 -0.35527136788E-14  0.00000000000E+00 -0.29211011488E+02  0.83582398987E+02  0.78311775796E+02 0.  0.
         66    2    3    3    0    0  0.25230969726E+02 -0.12018391497E+02 -0.43846935447E+02  0.52034578116E+02  0.20000010345E+01 0.  0.
        -13    1    3    3    0    0 -0.25230969726E+02  0.12018391497E+02  0.14635923960E+02  0.31547820870E+02  0.10566000000E+00 0.  1.
         13    1    4    4    0    0  0.13846907205E+01 -0.78576971514E+00 -0.30646782828E+01  0.34551728537E+01  0.10566000000E+00 0. -1.
        -13    1    4    4    0    0  0.14734089358E+02 -0.66541884606E+01 -0.26148016140E+02  0.30742503564E+02  0.10566000000E+00 0.  1.
        -14    1    4    4    0    0  0.91121896467E+01 -0.45784333217E+01 -0.14634241025E+02  0.17836901699E+02  0.00000000000E+00 0.  1.
<mgrwt>
<rscale>  0 0.78311776E+02</rscale>
<asrwt>0</asrwt>
<pdfrwt beam="1">  1        2 0.86764162E-02 0.78311776E+02</pdfrwt>
<pdfrwt beam="2">  1       -1 0.41824144E-02 0.78311776E+02</pdfrwt>
<totfact> 0.16265133E+05</totfact>
</mgrwt>
</event>
<event>
 8    1  0.2676873E-024  0.8180727E+02  0.7818608E-02  0.1324000E+00
         -1   -1    0    0    0  501 -0.00000000000E+00  0.00000000000E+00  0.26765079545E+02  0.26765080019E+02  0.50400000000E-02 0.  1.
          2   -1    0    0  501    0  0.00000000000E+00 -0.00000000000E+00 -0.62510831022E+02  0.62510831074E+02  0.25500000000E-02 0. -1.
         24    2    1    2    0    0 -0.11102230246E-15  0.35527136788E-14 -0.35745751478E+02  0.89275911094E+02  0.81807270783E+02 0.  0.
         66    2    3    3    0    0 -0.98475303164E+00  0.28767113577E+02 -0.49560923672E+02  0.57348075137E+02  0.20000011294E+01 0.  0.
        -13    1    3    3    0    0  0.98475303164E+00 -0.28767113577E+02  0.13815172195E+02  0.31927835957E+02  0.10566000000E+00 0.  1.
         13    1    4    4    0    0  0.52921328867E-01  0.64440320156E+01 -0.11241797340E+02  0.12958299300E+02  0.10566000000E+00 0. -1.
        -13    1    4    4    0    0 -0.12367378975E+00  0.23534539455E+01 -0.51068840875E+01  0.56254306322E+01  0.10566000000E+00 0.  1.
         14    1    4    4    0    0 -0.91400057076E+00  0.19969627616E+02 -0.33212242245E+02  0.38764345204E+02  0.00000000000E+00 0. -1.
<mgrwt>
<rscale>  0 0.81807271E+02</rscale>
<asrwt>0</asrwt>
<pdfrwt beam="1">  1        2 0.96170509E-02 0.81807271E+02</pdfrwt>
<pdfrwt beam="2">  1       -1 0.41177046E-02 0.81807271E+02</pdfrwt>
<totfact> 0.14788549E+05</totfact>
</mgrwt>
</event>
<event>
 8    1  0.2676873E-024  0.8053827E+02  0.7818608E-02  0.1327531E+00
          2   -1    0    0  501    0  0.00000000000E+00  0.00000000000E+00  0.25570864661E+03  0.25570864663E+03  0.25500000000E-02 0. -1.
         -1   -1    0    0    0  501 -0.00000000000E+00 -0.00000000000E+00 -0.63416041947E+01  0.63416061975E+01  0.50400000000E-02 0.  1.
         24    2    1    2    0    0  0.00000000000E+00  0.00000000000E+00  0.24936704242E+03  0.26205025282E+03  0.80538271401E+02 0.  0.
         66    2    3    3    0    0 -0.17606140526E+02 -0.35933894725E+02  0.13870857250E+03  0.14437897721E+03  0.20000006553E+01 0.  0.
        -13    1    3    3    0    0  0.17606140526E+02  0.35933894725E+02  0.11065846992E+03  0.11767127561E+03  0.10566000000E+00 0.  1.
         13    1    4    4    0    0 -0.13886249384E+02 -0.27690251725E+02  0.10595533524E+03  0.11039077041E+03  0.10566000000E+00 0. -1.
        -13    1    4    4    0    0 -0.42609544083E-01 -0.32034098141E+00  0.14241213902E+01  0.14641446947E+01  0.10566000000E+00 0.  1.
         14    1    4    4    0    0 -0.36772815986E+01 -0.79233020183E+01  0.31329115867E+02  0.32524062106E+02  0.00000000000E+00 0. -1.
<mgrwt>
<rscale>  0 0.80538271E+02</rscale>
<asrwt>0</asrwt>
<pdfrwt beam="1">  1        2 0.39339797E-01 0.80538271E+02</pdfrwt>
<pdfrwt beam="2">  1       -1 0.97563144E-03 0.80538271E+02</pdfrwt>
<totfact> 0.23641877E+05</totfact>
</mgrwt>
</event>
<event>
 8    1  0.2676873E-024  0.8150985E+02  0.7818608E-02  0.1324820E+00
         -1   -1    0    0    0  501 -0.00000000000E+00  0.00000000000E+00  0.25429818214E+01  0.25429868158E+01  0.50400000000E-02 0.  1.
          2   -1    0    0  501    0  0.00000000000E+00 -0.00000000000E+00 -0.65315545010E+03  0.65315545011E+03  0.25500000000E-02 0. -1.
         24    2    1    2    0    0  0.00000000000E+00  0.35527136788E-14 -0.65061246828E+03  0.65569843693E+03  0.81509854011E+02 0.  0.
         66    2    3    3    0    0 -0.40724345317E+01  0.26670530291E+02 -0.57096237824E+03  0.57160295597E+03  0.19999999974E+01 0.  0.
        -13    1    3    3    0    0  0.40724345317E+01 -0.26670530291E+02 -0.79650090040E+02  0.84095480951E+02  0.10566000000E+00 0.  1.
         13    1    4    4    0    0 -0.55275900676E+00  0.54776185161E+01 -0.10387608210E+03  0.10402192770E+03  0.10566000000E+00 0. -1.
        -13    1    4    4    0    0 -0.14190696688E+01  0.81228492257E+01 -0.18903632766E+03  0.18921611659E+03  0.10566000000E+00 0.  1.
        -14    1    4    4    0    0 -0.21006058561E+01  0.13070062550E+02 -0.27804996848E+03  0.27836491168E+03  0.00000000000E+00 0.  1.
<mgrwt>
<rscale>  0 0.81509854E+02</rscale>
<asrwt>0</asrwt>
<pdfrwt beam="1">  1        2 0.10048532E+00 0.81509854E+02</pdfrwt>
<pdfrwt beam="2">  1       -1 0.39122888E-03 0.81509854E+02</pdfrwt>
<totfact> 0.31334922E+05</totfact>
</mgrwt>
</event>
<event>
 8    1  0.2676873E-024  0.8221954E+02  0.7818608E-02  0.1322868E+00
          2   -1    0    0  501    0  0.00000000000E+00  0.00000000000E+00  0.85614680142E+01  0.85614683939E+01  0.25500000000E-02 0. -1.
         -1   -1    0    0    0  501 -0.00000000000E+00 -0.00000000000E+00 -0.19739760595E+03  0.19739760601E+03  0.50400000000E-02 0.  1.
         24    2    1    2    0    0 -0.88817841970E-15  0.71054273576E-14 -0.18883613794E+03  0.20595907441E+03  0.82219543544E+02 0.  0.
         66    2    3    3    0    0 -0.73548071197E+01  0.38721288553E+02 -0.12353348874E+03  0.12968405536E+03  0.19999997542E+01 0.  0.
        -13    1    3    3    0    0  0.73548071197E+01 -0.38721288553E+02 -0.65302649191E+02  0.76275019045E+02  0.10566000000E+00 0.  1.
         13    1    4    4    0    0 -0.75410288662E+00  0.71460522673E+01 -0.23859400914E+02  0.24918204393E+02  0.10566000000E+00 0. -1.
        -13    1    4    4    0    0 -0.40415407905E+01  0.18511956740E+02 -0.57728616641E+02  0.60758793089E+02  0.10566000000E+00 0.  1.
         14    1    4    4    0    0 -0.25591634426E+01  0.13063279545E+02 -0.41945471190E+02  0.44007057881E+02  0.00000000000E+00 0. -1.
<mgrwt>
<rscale>  0 0.82219544E+02</rscale>
<asrwt>0</asrwt>
<pdfrwt beam="1">  1        2 0.13171491E-02 0.82219544E+02</pdfrwt>
<pdfrwt beam="2">  1       -1 0.30368859E-01 0.82219544E+02</pdfrwt>
<totfact> 0.93267966E+04</totfact>
</mgrwt>
</event>
<event>
 8    1  0.2676873E-024  0.8197088E+02  0.7818608E-02  0.1323550E+00
          2   -1    0    0  501    0  0.00000000000E+00  0.00000000000E+00  0.93737822584E+02  0.93737822619E+02  0.25500000000E-02 0. -1.
         -1   -1    0    0    0  501 -0.00000000000E+00 -0.00000000000E+00 -0.17920262808E+02  0.17920263517E+02  0.50400000000E-02 0.  1.
         24    2    1    2    0    0  0.44408920985E-15  0.00000000000E+00  0.75817559776E+02  0.11165808614E+03  0.81970884033E+02 0.  0.
         66    2    3    3    0    0 -0.72282578607E+00 -0.32599388002E+02  0.71699826635E+02  0.78791545925E+02  0.19999986506E+01 0.  0.
        -13    1    3    3    0    0  0.72282578607E+00  0.32599388002E+02  0.41177331413E+01  0.32866540211E+02  0.10566000000E+00 0.  1.
         13    1    4    4    0    0  0.48930096715E+00 -0.12644961089E+02  0.27083034271E+02  0.29893751283E+02  0.10566000000E+00 0. -1.
        -13    1    4    4    0    0 -0.17822786956E+00 -0.26397399341E+01  0.65760878861E+01  0.70891528418E+01  0.10566000000E+00 0.  1.
         14    1    4    4    0    0 -0.10338988837E+01 -0.17314686978E+02  0.38040704477E+02  0.41808641800E+02  0.00000000000E+00 0. -1.
<mgrwt>
<rscale>  0 0.81970884E+02</rscale>
<asrwt>0</asrwt>
<pdfrwt beam="1">  1        2 0.14421203E-01 0.81970884E+02</pdfrwt>
<pdfrwt beam="2">  1       -1 0.27569636E-02 0.81970884E+02</pdfrwt>
<totfact> 0.16309351E+05</totfact>
</mgrwt>
</event>
<event>
 8    1  0.2676873E-024  0.7891168E+02  0.7818608E-02  0.1332169E+00
         -1   -1    0    0    0  501 -0.00000000000E+00  0.00000000000E+00  0.28729801129E+01  0.28729845337E+01  0.50400000000E-02 0.  1.
          2   -1    0    0  501    0  0.00000000000E+00 -0.00000000000E+00 -0.54186317884E+03  0.54186317884E+03  0.25500000000E-02 0. -1.
         24    2    1    2    0    0 -0.35527136788E-14 -0.35527136788E-14 -0.53899019872E+03  0.54473616338E+03  0.78911680819E+02 0.  0.
         66    2    3    3    0    0  0.23448107844E+02 -0.30445620434E+02 -0.33063781435E+03  0.33286951474E+03  0.20000004246E+01 0.  0.
        -13    1    3    3    0    0 -0.23448107844E+02  0.30445620434E+02 -0.20835238437E+03  0.21186664863E+03  0.10566000000E+00 0.  1.
         13    1    4    4    0    0  0.96826527368E+01 -0.12018440811E+02 -0.13713497158E+03  0.13800075463E+03  0.10566000000E+00 0. -1.
        -13    1    4    4    0    0  0.13346778949E+02 -0.18151048019E+02 -0.18909204386E+03  0.19042953886E+03  0.10566000000E+00 0.  1.
         14    1    4    4    0    0  0.41867615776E+00 -0.27613160368E+00 -0.44107989056E+01  0.44392212576E+01  0.00000000000E+00 0. -1.
<mgrwt>
<rscale>  0 0.78911681E+02</rscale>
<asrwt>0</asrwt>
<pdfrwt beam="1">  1        2 0.83363485E-01 0.78911681E+02</pdfrwt>
<pdfrwt beam="2">  1       -1 0.44199771E-03 0.78911681E+02</pdfrwt>
<totfact> 0.32355283E+05</totfact>
</mgrwt>
</event>
<event>
 8    1  0.2676873E-024  0.7881091E+02  0.7818608E-02  0.1332460E+00
          2   -1    0    0  501    0  0.00000000000E+00  0.00000000000E+00  0.76325398957E+03  0.76325398958E+03  0.25500000000E-02 0. -1.
         -1   -1    0    0    0  501 -0.00000000000E+00 -0.00000000000E+00 -0.20344309477E+01  0.20344371906E+01  0.50400000000E-02 0.  1.
         24    2    1    2    0    0  0.00000000000E+00  0.00000000000E+00  0.76121955863E+03  0.76528842677E+03  0.78810911118E+02 0.  0.
         66    2    3    3    0    0 -0.25401604809E+02 -0.77269928566E+01  0.66326555900E+03  0.66379978133E+03  0.19999993725E+01 0.  0.
        -13    1    3    3    0    0  0.25401604809E+02  0.77269928566E+01  0.97953999626E+02  0.10148864544E+03  0.10566000000E+00 0.  1.
         13    1    4    4    0    0 -0.53650243415E+01 -0.10851107113E+01  0.13161311136E+03  0.13172692662E+03  0.10566000000E+00 0. -1.
        -13    1    4    4    0    0 -0.56946945133E+01 -0.13560950232E+01  0.15355190480E+03  0.15366348678E+03  0.10566000000E+00 0.  1.
         14    1    4    4    0    0 -0.14341885954E+02 -0.52857871221E+01  0.37810054284E+03  0.37840936793E+03  0.00000000000E+00 0. -1.
<mgrwt>
<rscale>  0 0.78810911E+02</rscale>
<asrwt>0</asrwt>
<pdfrwt beam="1">  1        2 0.11742376E+00 0.78810911E+02</pdfrwt>
<pdfrwt beam="2">  1       -1 0.31298967E-03 0.78810911E+02</pdfrwt>
<totfact> 0.35421418E+05</totfact>
</mgrwt>
</event>
<event>
 8    1  0.2676873E-024  0.8071726E+02  0.7818608E-02  0.1327028E+00
          2   -1    0    0  501    0  0.00000000000E+00  0.00000000000E+00  0.12076237028E+02  0.12076237297E+02  0.25500000000E-02 0. -1.
         -1   -1    0    0    0  501 -0.00000000000E+00 -0.00000000000E+00 -0.13487803323E+03  0.13487803332E+03  0.50400000000E-02 0.  1.
         24    2    1    2    0    0  0.00000000000E+00 -0.71054273576E-14 -0.12280179620E+03  0.14695427062E+03  0.80717262734E+02 0.  0.
         66    2    3    3    0    0 -0.82259824153E+01 -0.39375124525E+02 -0.66822968768E+02  0.78021640445E+02  0.20000011770E+01 0.  0.
        -13    1    3    3    0    0  0.82259824153E+01  0.39375124525E+02 -0.55978827433E+02  0.68932630175E+02  0.10566000000E+00 0.  1.
         13    1    4    4    0    0 -0.63062979634E+01 -0.27793395382E+02 -0.47389807268E+02  0.55299613180E+02  0.10566000000E+00 0. -1.
        -13    1    4    4    0    0 -0.32831414482E-01 -0.65163282172E+00 -0.14466435732E+01  0.15904857433E+01  0.10566000000E+00 0.  1.
         14    1    4    4    0    0 -0.18868530374E+01 -0.10930096321E+02 -0.17986517927E+02  0.21131541522E+02  0.00000000000E+00 0. -1.
<mgrwt>
<rscale>  0 0.80717263E+02</rscale>
<asrwt>0</asrwt>
<pdfrwt beam="1">  1        2 0.18578827E-02 0.80717263E+02</pdfrwt>
<pdfrwt beam="2">  1       -1 0.20750466E-01 0.80717263E+02</pdfrwt>
<totfact> 0.10829231E+05</totfact>
</mgrwt>
</event>
<event>
 8    1  0.2676873E-024  0.7990159E+02  0.7818608E-02  0.1329331E+00
          2   -1    0    0  501    0  0.00000000000E+00  0.00000000000E+00  0.68720565179E+03  0.68720565179E+03  0.25500000000E-02 0. -1.
         -1   -1    0    0    0  501 -0.00000000000E+00 -0.00000000000E+00 -0.23225420519E+01  0.23225475204E+01  0.50400000000E-02 0.  1.
         24    2    1    2    0    0  0.00000000000E+00 -0.17763568394E-14  0.68488310974E+03  0.68952819931E+03  0.79901587257E+02 0.  0.
         66    2    3    3    0    0  0.10129735214E+02 -0.12490567060E+02  0.65801654080E+03  0.65821606921E+03  0.20000005782E+01 0.  0.
        -13    1    3    3    0    0 -0.10129735214E+02  0.12490567060E+02  0.26866568935E+02  0.31312130099E+02  0.10566000000E+00 0.  1.
         13    1    4    4    0    0  0.53767233550E+01 -0.56718006929E+01  0.33086898745E+03  0.33096129154E+03  0.10566000000E+00 0. -1.
        -13    1    4    4    0    0  0.17871249962E+01 -0.19491102484E+01  0.91588655908E+02  0.91626884164E+02  0.10566000000E+00 0. -1.
         14    1    4    4    0    0  0.29658868624E+01 -0.48696561190E+01  0.23555889745E+03  0.23562789351E+03  0.00000000000E+00 0. -1.
<mgrwt>
<rscale>  0 0.79901587E+02</rscale>
<asrwt>0</asrwt>
<pdfrwt beam="1">  1        2 0.10572394E+00 0.79901587E+02</pdfrwt>
<pdfrwt beam="2">  1       -1 0.35731462E-03 0.79901587E+02</pdfrwt>
<totfact> 0.33415480E+05</totfact>
</mgrwt>
</event>
<event>
 8    1  0.2676873E-024  0.7734624E+02  0.7818608E-02  0.1336756E+00
         -1   -1    0    0    0  501 -0.00000000000E+00  0.00000000000E+00  0.32617680151E+01  0.32617719089E+01  0.50400000000E-02 0.  1.
          2   -1    0    0  501    0  0.00000000000E+00 -0.00000000000E+00 -0.45852717983E+03  0.45852717984E+03  0.25500000000E-02 0. -1.
         24    2    1    2    0    0  0.00000000000E+00  0.17763568394E-14 -0.45526541182E+03  0.46178895175E+03  0.77346239467E+02 0.  0.
         66    2    3    3    0    0 -0.34641586385E+02 -0.13883754916E+02 -0.28772906313E+03  0.29014619060E+03  0.19999986066E+01 0.  0.
        -13    1    3    3    0    0  0.34641586385E+02  0.13883754916E+02 -0.16753634869E+03  0.17164276115E+03  0.10566000000E+00 0.  1.
         13    1    4    4    0    0 -0.70451757051E+01 -0.21863334903E+01 -0.60720332656E+02  0.61166857993E+02  0.10566000000E+00 0.  1.
        -13    1    4    4    0    0 -0.20506606196E+02 -0.88437574115E+01 -0.16995534383E+03  0.17141634404E+03  0.10566000000E+00 0. -1.
        -14    1    4    4    0    0 -0.70898044841E+01 -0.28536640140E+01 -0.57053386643E+02  0.57562988572E+02  0.00000000000E+00 0.  1.
<mgrwt>
<rscale>  0 0.77346239E+02</rscale>
<asrwt>0</asrwt>
<pdfrwt beam="1">  1        2 0.70542592E-01 0.77346239E+02</pdfrwt>
<pdfrwt beam="2">  1       -1 0.50181113E-03 0.77346239E+02</pdfrwt>
<totfact> 0.32321942E+05</totfact>
</mgrwt>
</event>
<event>
 8    1  0.2676873E-024  0.7968238E+02  0.7818608E-02  0.1329955E+00
          2   -1    0    0  501    0  0.00000000000E+00  0.00000000000E+00  0.31320981173E+03  0.31320981174E+03  0.25500000000E-02 0. -1.
         -1   -1    0    0    0  501 -0.00000000000E+00 -0.00000000000E+00 -0.50679126937E+01  0.50679151998E+01  0.50400000000E-02 0.  1.
         24    2    1    2    0    0  0.35527136788E-14  0.00000000000E+00  0.30814189903E+03  0.31827772694E+03  0.79682379008E+02 0.  0.
         66    2    3    3    0    0  0.14184928577E+02 -0.20415006385E+01  0.30254705304E+03  0.30289288409E+03  0.20000018108E+01 0.  0.
        -13    1    3    3    0    0 -0.14184928577E+02  0.20415006385E+01  0.55948459911E+01  0.15384842842E+02  0.10566000000E+00 0.  1.
         13    1    4    4    0    0  0.11179160741E+01  0.43428555337E-01  0.29733025549E+02  0.29754253388E+02  0.10566000000E+00 0. -1.
        -13    1    4    4    0    0  0.16628942157E+01  0.60991762545E-01  0.27797212712E+02  0.27847174646E+02  0.10566000000E+00 0.  1.
         14    1    4    4    0    0  0.11404118287E+02 -0.21459209564E+01  0.24501681478E+03  0.24529145606E+03  0.00000000000E+00 0. -1.
<mgrwt>
<rscale>  0 0.79682379E+02</rscale>
<asrwt>0</asrwt>
<pdfrwt beam="1">  1        2 0.48186125E-01 0.79682379E+02</pdfrwt>
<pdfrwt beam="2">  1       -1 0.77967908E-03 0.79682379E+02</pdfrwt>
<totfact> 0.26166246E+05</totfact>
</mgrwt>
</event>
<event>
 8    1  0.2676873E-024  0.8322003E+02  0.7818608E-02  0.1320154E+00
          2   -1    0    0  501    0  0.00000000000E+00  0.00000000000E+00  0.42677866155E+03  0.42677866156E+03  0.25500000000E-02 0. -1.
         -1   -1    0    0    0  501 -0.00000000000E+00 -0.00000000000E+00 -0.40568867852E+01  0.40568899159E+01  0.50400000000E-02 0.  1.
         24    2    1    2    0    0  0.17763568394E-14  0.00000000000E+00  0.42272177477E+03  0.43083555148E+03  0.83220030961E+02 0.  0.
         66    2    3    3    0    0 -0.12795823602E+02  0.10367249175E+01  0.41626030009E+03  0.41646301798E+03  0.20000021988E+01 0.  0.
        -13    1    3    3    0    0  0.12795823602E+02 -0.10367249175E+01  0.64614746756E+01  0.14372533500E+02  0.10566000000E+00 0.  1.
         13    1    4    4    0    0 -0.57276218196E+01  0.77285243482E+00  0.20743278525E+03  0.20751331165E+03  0.10566000000E+00 0. -1.
        -13    1    4    4    0    0 -0.82443709277E+00  0.66168854387E-02  0.16817120692E+02  0.16837649857E+02  0.10566000000E+00 0.  1.
        -14    1    4    4    0    0 -0.62437646892E+01  0.25725559724E+00  0.19201039415E+03  0.19211205647E+03  0.00000000000E+00 0.  1.
<mgrwt>
<rscale>  0 0.83220031E+02</rscale>
<asrwt>0</asrwt>
<pdfrwt beam="1">  1        2 0.65658224E-01 0.83220031E+02</pdfrwt>
<pdfrwt beam="2">  1       -1 0.62413697E-03 0.83220031E+02</pdfrwt>
<totfact> 0.26061155E+05</totfact>
</mgrwt>
</event>
<event>
 8    1  0.2676873E-024  0.8078553E+02  0.7818608E-02  0.1326837E+00
          2   -1    0    0  501    0  0.00000000000E+00  0.00000000000E+00  0.66824663219E+02  0.66824663267E+02  0.25500000000E-02 0. -1.
         -1   -1    0    0    0  501 -0.00000000000E+00 -0.00000000000E+00 -0.24415770447E+02  0.24415770967E+02  0.50400000000E-02 0.  1.
         24    2    1    2    0    0  0.00000000000E+00  0.00000000000E+00  0.42408892771E+02  0.91240434235E+02  0.80785534926E+02 0.  0.
         66    2    3    3    0    0  0.35508715677E+01  0.36685223428E+02  0.39815295530E+02  0.54292467883E+02  0.20000009711E+01 0.  0.
        -13    1    3    3    0    0 -0.35508715677E+01 -0.36685223428E+02  0.25935972416E+01  0.36947966352E+02  0.10566000000E+00 0.  1.
         13    1    4    4    0    0  0.76297603250E+00  0.91529861534E+01  0.95916217552E+01  0.13280423934E+02  0.10566000000E+00 0. -1.
        -13    1    4    4    0    0  0.21776738375E+01  0.23553498723E+02  0.24992117835E+02  0.34411141849E+02  0.10566000000E+00 0. -1.
         14    1    4    4    0    0  0.61022169767E+00  0.39787385518E+01  0.52315559396E+01  0.66009020999E+01  0.00000000000E+00 0. -1.
<mgrwt>
<rscale>  0 0.80785535E+02</rscale>
<asrwt>0</asrwt>
<pdfrwt beam="1">  1        2 0.10280717E-01 0.80785535E+02</pdfrwt>
<pdfrwt beam="2">  1       -1 0.37562725E-02 0.80785535E+02</pdfrwt>
<totfact> 0.15548401E+05</totfact>
</mgrwt>
</event>
<event>
 8    1  0.2676873E-024  0.8391179E+02  0.7818608E-02  0.1318303E+00
         -1   -1    0    0    0  501 -0.00000000000E+00  0.00000000000E+00  0.74259468684E+01  0.74259485787E+01  0.50400000000E-02 0.  1.
          2   -1    0    0  501    0  0.00000000000E+00 -0.00000000000E+00 -0.23704677435E+03  0.23704677436E+03  0.25500000000E-02 0. -1.
         24    2    1    2    0    0 -0.35527136788E-14  0.44408920985E-15 -0.22962082748E+03  0.24447272294E+03  0.83911786118E+02 0.  0.
         66    2    3    3    0    0 -0.19541973223E+02 -0.26716351495E+01 -0.22268352904E+03  0.22356426471E+03  0.19999996542E+01 0.  0.
        -13    1    3    3    0    0  0.19541973223E+02  0.26716351495E+01 -0.69372984389E+01  0.20908458228E+02  0.10566000000E+00 0.  1.
         13    1    4    4    0    0 -0.16206194840E+02 -0.17932801295E+01 -0.18740568370E+03  0.18811368385E+03  0.10566000000E+00 0. -1.
        -13    1    4    4    0    0 -0.42077575974E+00  0.22381139990E-01 -0.53566700057E+01  0.53742562965E+01  0.10566000000E+00 0.  1.
         14    1    4    4    0    0 -0.29150026229E+01 -0.90073616000E+00 -0.29921175334E+02  0.30076324564E+02  0.00000000000E+00 0. -1.
<mgrwt>
<rscale>  0 0.83911786E+02</rscale>
<asrwt>0</asrwt>
<pdfrwt beam="1">  1        2 0.36468729E-01 0.83911786E+02</pdfrwt>
<pdfrwt beam="2">  1       -1 0.11424537E-02 0.83911786E+02</pdfrwt>
<totfact> 0.20648219E+05</totfact>
</mgrwt>
</event>
<event>
 8    1  0.2676873E-024  0.7954647E+02  0.7818608E-02  0.1330343E+00
         -1   -1    0    0    0  501 -0.00000000000E+00  0.00000000000E+00  0.73049064051E+01  0.73049081437E+01  0.50400000000E-02 0.  1.
          2   -1    0    0  501    0  0.00000000000E+00 -0.00000000000E+00 -0.21655444079E+03  0.21655444080E+03  0.25500000000E-02 0. -1.
         24    2    1    2    0    0 -0.17763568394E-14  0.71054273576E-14 -0.20924953438E+03  0.22385934894E+03  0.79546467372E+02 0.  0.
         66    2    3    3    0    0 -0.12633605393E+02  0.34034901195E+02 -0.59145701341E+02  0.69427634774E+02  0.19999996344E+01 0.  0.
        -13    1    3    3    0    0  0.12633605393E+02 -0.34034901195E+02 -0.15010383304E+03  0.15443171417E+03  0.10566000000E+00 0.  1.
         13    1    4    4    0    0 -0.34261772578E+01  0.10088387724E+02 -0.16314309806E+02  0.19485433687E+02  0.10566000000E+00 0. -1.
        -13    1    4    4    0    0 -0.33365547672E+01  0.72822826088E+01 -0.13840749096E+02  0.15991927254E+02  0.10566000000E+00 0.  1.
         14    1    4    4    0    0 -0.58708733683E+01  0.16664230862E+02 -0.28990642439E+02  0.33950273833E+02  0.00000000000E+00 0. -1.
<mgrwt>
<rscale>  0 0.79546467E+02</rscale>
<asrwt>0</asrwt>
<pdfrwt beam="1">  1        2 0.33316063E-01 0.79546467E+02</pdfrwt>
<pdfrwt beam="2">  1       -1 0.11238321E-02 0.79546467E+02</pdfrwt>
<totfact> 0.23022917E+05</totfact>
</mgrwt>
</event>
<event>
 8    1  0.2676873E-024  0.7905733E+02  0.7818608E-02  0.1331748E+00
         -1   -1    0    0    0  501 -0.00000000000E+00  0.00000000000E+00  0.49060508286E+02  0.49060508545E+02  0.50400000000E-02 0.  1.
          2   -1    0    0  501    0  0.00000000000E+00 -0.00000000000E+00 -0.31848741700E+02  0.31848741802E+02  0.25500000000E-02 0. -1.
         24    2    1    2    0    0 -0.35527136788E-14 -0.35527136788E-14  0.17211766586E+02  0.80909250347E+02  0.79057332883E+02 0.  0.
         66    2    3    3    0    0  0.19687836443E+02  0.20443101491E+02 -0.19509155440E+02  0.34498383291E+02  0.20000003381E+01 0.  0.
        -13    1    3    3    0    0 -0.19687836443E+02 -0.20443101491E+02  0.36720922026E+02  0.46410867055E+02  0.10566000000E+00 0.  1.
         13    1    4    4    0    0  0.27351448631E+01  0.24359677961E+01 -0.26970926651E+01  0.45497724565E+01  0.10566000000E+00 0. -1.
        -13    1    4    4    0    0  0.32718982446E+00  0.32545493449E+00 -0.10826918523E+00  0.48565455592E+00  0.10566000000E+00 0.  1.
        -14    1    4    4    0    0  0.16625501755E+02  0.17681678760E+02 -0.16703793589E+02  0.29462956279E+02  0.00000000000E+00 0.  1.
<mgrwt>
<rscale>  0 0.79057333E+02</rscale>
<asrwt>0</asrwt>
<pdfrwt beam="1">  1        2 0.48998064E-02 0.79057333E+02</pdfrwt>
<pdfrwt beam="2">  1       -1 0.75477706E-02 0.79057333E+02</pdfrwt>
<totfact> 0.14073417E+05</totfact>
</mgrwt>
</event>
<event>
 8    1  0.2676873E-024  0.7887379E+02  0.7818608E-02  0.1332278E+00
          2   -1    0    0  501    0  0.00000000000E+00  0.00000000000E+00  0.20958380006E+03  0.20958380007E+03  0.25500000000E-02 0. -1.
         -1   -1    0    0    0  501 -0.00000000000E+00 -0.00000000000E+00 -0.74207474401E+01  0.74207491517E+01  0.50400000000E-02 0.  1.
         24    2    1    2    0    0 -0.35527136788E-14  0.00000000000E+00  0.20216305262E+03  0.21700454922E+03  0.78873788679E+02 0.  0.
         66    2    3    3    0    0 -0.15442874418E+02 -0.27503849944E+02  0.16615594760E+03  0.16913528030E+03  0.19999963464E+01 0.  0.
        -13    1    3    3    0    0  0.15442874418E+02  0.27503849944E+02  0.36007105013E+02  0.47869268926E+02  0.10566000000E+00 0.  1.
         13    1    4    4    0    0 -0.11662718987E+01 -0.17437949727E+01  0.12946137310E+02  0.13115435423E+02  0.10566000000E+00 0.  1.
        -13    1    4    4    0    0 -0.65696663430E+01 -0.10841169370E+02  0.67830609114E+02  0.69005030005E+02  0.10566000000E+00 0. -1.
         14    1    4    4    0    0 -0.77069361761E+01 -0.14918885601E+02  0.85379201179E+02  0.87014814870E+02  0.00000000000E+00 0. -1.
<mgrwt>
<rscale>  0 0.78873789E+02</rscale>
<asrwt>0</asrwt>
<pdfrwt beam="1">  1        2 0.32243667E-01 0.78873789E+02</pdfrwt>
<pdfrwt beam="2">  1       -1 0.11416534E-02 0.78873789E+02</pdfrwt>
<totfact> 0.23274948E+05</totfact>
</mgrwt>
</event>
<event>
 8    1  0.2676873E-024  0.8113413E+02  0.7818608E-02  0.1325863E+00
         -1   -1    0    0    0  501 -0.00000000000E+00  0.00000000000E+00  0.42884032673E+02  0.42884032969E+02  0.50400000000E-02 0.  1.
          2   -1    0    0  501    0  0.00000000000E+00 -0.00000000000E+00 -0.38375278706E+02  0.38375278790E+02  0.25500000000E-02 0. -1.
         24    2    1    2    0    0 -0.71054273576E-14  0.00000000000E+00  0.45087539673E+01  0.81259311759E+02  0.81134128979E+02 0.  0.
         66    2    3    3    0    0 -0.33334290259E+02  0.18812958803E+02  0.15639722526E+02  0.41396898998E+02  0.19999999949E+01 0.  0.
        -13    1    3    3    0    0  0.33334290259E+02 -0.18812958803E+02 -0.11130968559E+02  0.39862412761E+02  0.10566000000E+00 0.  1.
         13    1    4    4    0    0 -0.26426895571E+02  0.14856014726E+02  0.12240010699E+02  0.32694204517E+02  0.10566000000E+00 0. -1.
        -13    1    4    4    0    0 -0.10658364793E+01  0.68676751913E+00  0.21955938275E+00  0.12911341464E+01  0.10566000000E+00 0.  1.
         14    1    4    4    0    0 -0.58415582093E+01  0.32701765584E+01  0.31801524443E+01  0.74115603353E+01  0.00000000000E+00 0. -1.
<mgrwt>
<rscale>  0 0.81134129E+02</rscale>
<asrwt>0</asrwt>
<pdfrwt beam="1">  1        2 0.59038891E-02 0.81134129E+02</pdfrwt>
<pdfrwt beam="2">  1       -1 0.65975435E-02 0.81134129E+02</pdfrwt>
<totfact> 0.13593644E+05</totfact>
</mgrwt>
</event>
<event>
 8    1  0.2676873E-024  0.7937431E+02  0.7818608E-02  0.1330836E+00
          2   -1    0    0  501    0  0.00000000000E+00  0.00000000000E+00  0.35024083084E+03  0.35024083085E+03  0.25500000000E-02 0. -1.
         -1   -1    0    0    0  501 -0.00000000000E+00 -0.00000000000E+00 -0.44971052584E+01  0.44971080826E+01  0.50400000000E-02 0.  1.
         24    2    1    2    0    0 -0.71054273576E-14  0.35527136788E-14  0.34574372558E+03  0.35473793893E+03  0.79374312838E+02 0.  0.
         66    2    3    3    0    0  0.22080645673E+02 -0.31976018293E+02  0.20846691411E+03  0.21206714728E+03  0.20000042425E+01 0.  0.
        -13    1    3    3    0    0 -0.22080645673E+02  0.31976018293E+02  0.13727681146E+03  0.14267079165E+03  0.10566000000E+00 0.  1.
         13    1    4    4    0    0  0.13292036826E+02 -0.19823494721E+02  0.12934168244E+03  0.13152540122E+03  0.10566000000E+00 0. -1.
        -13    1    4    4    0    0  0.21842986325E+01 -0.23476943297E+01  0.18052021781E+02  0.18334925241E+02  0.10566000000E+00 0.  1.
        -14    1    4    4    0    0  0.66043102147E+01 -0.98048292418E+01  0.61073209894E+02  0.62206820820E+02  0.00000000000E+00 0.  1.
<mgrwt>
<rscale>  0 0.79374313E+02</rscale>
<asrwt>0</asrwt>
<pdfrwt beam="1">  1        2 0.53883228E-01 0.79374313E+02</pdfrwt>
<pdfrwt beam="2">  1       -1 0.69186227E-03 0.79374313E+02</pdfrwt>
<totfact> 0.27515511E+05</totfact>
</mgrwt>
</event>
<event>
 8    1  0.2676873E-024  0.7820711E+02  0.7818608E-02  0.1334218E+00
          2   -1    0    0  501    0  0.00000000000E+00  0.00000000000E+00  0.10627196534E+03  0.10627196537E+03  0.25500000000E-02 0. -1.
         -1   -1    0    0    0  501 -0.00000000000E+00 -0.00000000000E+00 -0.14388439969E+02  0.14388440852E+02  0.50400000000E-02 0.  1.
         24    2    1    2    0    0  0.00000000000E+00  0.00000000000E+00  0.91883525370E+02  0.12066040622E+03  0.78207105783E+02 0.  0.
         66    2    3    3    0    0  0.30535547221E+02 -0.11287212764E+02  0.79321955084E+02  0.85765922013E+02  0.20000010525E+01 0.  0.
        -13    1    3    3    0    0 -0.30535547221E+02  0.11287212764E+02  0.12561570286E+02  0.34894484208E+02  0.10566000000E+00 0.  1.
         13    1    4    4    0    0  0.73730576244E+01 -0.26608426247E+01  0.17319190806E+02  0.19010723196E+02  0.10566000000E+00 0. -1.
        -13    1    4    4    0    0  0.10614474064E+02 -0.35501264378E+01  0.27218332244E+02  0.29429903696E+02  0.10566000000E+00 0. -1.
        -14    1    4    4    0    0  0.12548015533E+02 -0.50762437012E+01  0.34784432034E+02  0.37325295121E+02  0.00000000000E+00 0.  1.
<mgrwt>
<rscale>  0 0.78207106E+02</rscale>
<asrwt>0</asrwt>
<pdfrwt beam="1">  1        2 0.16349533E-01 0.78207106E+02</pdfrwt>
<pdfrwt beam="2">  1       -1 0.22136063E-02 0.78207106E+02</pdfrwt>
<totfact> 0.19159346E+05</totfact>
</mgrwt>
</event>
<event>
 8    1  0.2676873E-024  0.7939135E+02  0.7818608E-02  0.1330788E+00
          2   -1    0    0  501    0  0.00000000000E+00  0.00000000000E+00  0.53551149049E+03  0.53551149050E+03  0.25500000000E-02 0. -1.
         -1   -1    0    0    0  501 -0.00000000000E+00 -0.00000000000E+00 -0.29425051454E+01  0.29425094617E+01  0.50400000000E-02 0.  1.
         24    2    1    2    0    0  0.88817841970E-15  0.35527136788E-14  0.53256898535E+03  0.53845399996E+03  0.79391346629E+02 0.  0.
         66    2    3    3    0    0  0.76310967762E+01  0.28986840788E+02  0.44269706363E+03  0.44371517976E+03  0.20000052329E+01 0.  0.
        -13    1    3    3    0    0 -0.76310967762E+01 -0.28986840788E+02  0.89871921718E+02  0.94738820207E+02  0.10566000000E+00 0.  1.
         13    1    4    4    0    0  0.22700828352E+01  0.10591438793E+02  0.16661923413E+03  0.16697099208E+03  0.10566000000E+00 0. -1.
        -13    1    4    4    0    0  0.99039649933E+00  0.51304307571E+01  0.74298448999E+02  0.74482030669E+02  0.10566000000E+00 0.  1.
        -14    1    4    4    0    0  0.43706174416E+01  0.13264971238E+02  0.20177938050E+03  0.20226215700E+03  0.00000000000E+00 0.  1.
<mgrwt>
<rscale>  0 0.79391347E+02</rscale>
<asrwt>0</asrwt>
<pdfrwt beam="1">  1        2 0.82386371E-01 0.79391347E+02</pdfrwt>
<pdfrwt beam="2">  1       -1 0.45269350E-03 0.79391347E+02</pdfrwt>
<totfact> 0.31735210E+05</totfact>
</mgrwt>
</event>
<event>
 8    1  0.2676873E-024  0.7971841E+02  0.7818608E-02  0.1329852E+00
         -1   -1    0    0    0  501 -0.00000000000E+00  0.00000000000E+00  0.33485945924E+01  0.33485983853E+01  0.50400000000E-02 0.  1.
          2   -1    0    0  501    0  0.00000000000E+00 -0.00000000000E+00 -0.47445433901E+03  0.47445433902E+03  0.25500000000E-02 0. -1.
         24    2    1    2    0    0 -0.17763568394E-14  0.71054273576E-14 -0.47110574442E+03  0.47780293740E+03  0.79718407955E+02 0.  0.
         66    2    3    3    0    0  0.88498773804E+01 -0.38088256707E+02 -0.28123480957E+03  0.28394727282E+03  0.19999991307E+01 0.  0.
        -13    1    3    3    0    0 -0.88498773804E+01  0.38088256707E+02 -0.18987093485E+03  0.19385566459E+03  0.10566000000E+00 0.  1.
         13    1    4    4    0    0  0.26083889706E+01 -0.12078508453E+02 -0.89801527012E+02  0.90647777012E+02  0.10566000000E+00 0. -1.
        -13    1    4    4    0    0  0.26491298308E+01 -0.12041464650E+02 -0.82815359599E+02  0.83728189455E+02  0.10566000000E+00 0.  1.
        -14    1    4    4    0    0  0.35923585790E+01 -0.13968283604E+02 -0.10861792296E+03  0.10957130635E+03  0.00000000000E+00 0.  1.
<mgrwt>
<rscale>  0 0.79718408E+02</rscale>
<asrwt>0</asrwt>
<pdfrwt beam="1">  1        2 0.72992922E-01 0.79718408E+02</pdfrwt>
<pdfrwt beam="2">  1       -1 0.51516907E-03 0.79718408E+02</pdfrwt>
<totfact> 0.30215981E+05</totfact>
</mgrwt>
</event>
<event>
 8    1  0.2676873E-024  0.7783824E+02  0.7818608E-02  0.1335301E+00
         -1   -1    0    0    0  501 -0.00000000000E+00  0.00000000000E+00  0.15857710723E+03  0.15857710731E+03  0.50400000000E-02 0.  1.
          2   -1    0    0  501    0  0.00000000000E+00 -0.00000000000E+00 -0.95518068836E+01  0.95518072240E+01  0.25500000000E-02 0. -1.
         24    2    1    2    0    0  0.35527136788E-14  0.00000000000E+00  0.14902530035E+03  0.16812891454E+03  0.77838240982E+02 0.  0.
         66    2    3    3    0    0  0.29489982821E+02  0.19799720202E+02  0.40340872142E+02  0.53787303101E+02  0.20000007328E+01 0.  0.
        -13    1    3    3    0    0 -0.29489982821E+02 -0.19799720202E+02  0.10868442821E+03  0.11434161144E+03  0.10566000000E+00 0.  1.
         13    1    4    4    0    0  0.14954924026E+02  0.10948300798E+02  0.21644639431E+02  0.28495905374E+02  0.10566000000E+00 0. -1.
        -13    1    4    4    0    0  0.12218579153E+02  0.74446238268E+01  0.15332959189E+02  0.20972050495E+02  0.10566000000E+00 0.  1.
         14    1    4    4    0    0  0.23164796424E+01  0.14067955769E+01  0.33632735224E+01  0.43193472325E+01  0.00000000000E+00 0. -1.
<mgrwt>
<rscale>  0 0.77838241E+02</rscale>
<asrwt>0</asrwt>
<pdfrwt beam="1">  1        2 0.14695089E-02 0.77838241E+02</pdfrwt>
<pdfrwt beam="2">  1       -1 0.24396477E-01 0.77838241E+02</pdfrwt>
<totfact> 0.11396410E+05</totfact>
</mgrwt>
</event>
<event>
 8    1  0.2676873E-024  0.7433847E+02  0.7818608E-02  0.1345932E+00
          2   -1    0    0  501    0  0.00000000000E+00  0.00000000000E+00  0.44985932872E+03  0.44985932873E+03  0.25500000000E-02 0. -1.
         -1   -1    0    0    0  501 -0.00000000000E+00 -0.00000000000E+00 -0.30710731766E+01  0.30710773122E+01  0.50400000000E-02 0.  1.
         24    2    1    2    0    0  0.00000000000E+00  0.00000000000E+00  0.44678825554E+03  0.45293040604E+03  0.74338465302E+02 0.  0.
         66    2    3    3    0    0  0.13752574445E+01  0.35009487446E+02  0.29867051181E+03  0.30072517381E+03  0.19999989746E+01 0.  0.
        -13    1    3    3    0    0 -0.13752574445E+01 -0.35009487446E+02  0.14811774373E+03  0.15220523223E+03  0.10566000000E+00 0.  1.
         13    1    4    4    0    0  0.10891834092E+01  0.23693988766E+02  0.20585112771E+03  0.20721314960E+03  0.10566000000E+00 0. -1.
        -13    1    4    4    0    0 -0.27658223211E+00  0.34959210054E+01  0.26727309921E+02  0.26956598841E+02  0.10566000000E+00 0.  1.
        -14    1    4    4    0    0  0.56265626735E+00  0.78195776753E+01  0.66092074181E+02  0.66555425373E+02  0.00000000000E+00 0.  1.
<mgrwt>
<rscale>  0 0.74338465E+02</rscale>
<asrwt>0</asrwt>
<pdfrwt beam="1">  1        2 0.69209116E-01 0.74338465E+02</pdfrwt>
<pdfrwt beam="2">  1       -1 0.47247319E-03 0.74338465E+02</pdfrwt>
<totfact> 0.35597608E+05</totfact>
</mgrwt>
</event>
<event>
 8    1  0.2676873E-024  0.8215571E+02  0.7818608E-02  0.1323043E+00
          2   -1    0    0  501    0  0.00000000000E+00  0.00000000000E+00  0.34940266615E+03  0.34940266616E+03  0.25500000000E-02 0. -1.
         -1   -1    0    0    0  501 -0.00000000000E+00 -0.00000000000E+00 -0.48293553946E+01  0.48293580245E+01  0.50400000000E-02 0.  1.
         24    2    1    2    0    0 -0.17763568394E-14  0.22204460493E-15  0.34457331075E+03  0.35423202418E+03  0.82155708702E+02 0.  0.
         66    2    3    3    0    0  0.15070745374E+02 -0.17743768980E+01  0.33686271329E+03  0.33721026585E+03  0.20000024616E+01 0.  0.
        -13    1    3    3    0    0 -0.15070745374E+02  0.17743768980E+01  0.77105974663E+01  0.17021758335E+02  0.10566000000E+00 0.  1.
         13    1    4    4    0    0  0.14900087096E+01  0.90738006670E-01  0.43115588617E+02  0.43141551956E+02  0.10566000000E+00 0. -1.
        -13    1    4    4    0    0  0.24945254248E+01 -0.42482260696E+00  0.46374236593E+02  0.46443343064E+02  0.10566000000E+00 0.  1.
         14    1    4    4    0    0  0.11086211239E+02 -0.14402922977E+01  0.24737288808E+03  0.24762537083E+03  0.00000000000E+00 0. -1.
<mgrwt>
<rscale>  0 0.82155709E+02</rscale>
<asrwt>0</asrwt>
<pdfrwt beam="1">  1        2 0.53754286E-01 0.82155709E+02</pdfrwt>
<pdfrwt beam="2">  1       -1 0.74297755E-03 0.82155709E+02</pdfrwt>
<totfact> 0.25120736E+05</totfact>
</mgrwt>
</event>
<event>
 8    1  0.2676873E-024  0.8026652E+02  0.7818608E-02  0.1328297E+00
          2   -1    0    0  501    0  0.00000000000E+00  0.00000000000E+00  0.58453350567E+03  0.58453350568E+03  0.25500000000E-02 0. -1.
         -1   -1    0    0    0  501 -0.00000000000E+00 -0.00000000000E+00 -0.27554918258E+01  0.27554964351E+01  0.50400000000E-02 0.  1.
         24    2    1    2    0    0  0.00000000000E+00  0.00000000000E+00  0.58177801385E+03  0.58728900212E+03  0.80266522335E+02 0.  0.
         66    2    3    3    0    0 -0.21769192418E+02 -0.17326702489E+02  0.50244066167E+03  0.50321439851E+03  0.20000010483E+01 0.  0.
        -13    1    3    3    0    0  0.21769192418E+02  0.17326702489E+02  0.79337352177E+02  0.84074603610E+02  0.10566000000E+00 0.  1.
         13    1    4    4    0    0 -0.26808837362E+01 -0.27572458560E+01  0.76827358203E+02  0.76923622346E+02  0.10566000000E+00 0. -1.
        -13    1    4    4    0    0 -0.49558312498E+00 -0.35306485104E+00  0.11623412840E+02  0.11639808741E+02  0.10566000000E+00 0. -1.
        -14    1    4    4    0    0 -0.18592725556E+02 -0.14216391782E+02  0.41398989063E+03  0.41465096742E+03  0.00000000000E+00 0.  1.
<mgrwt>
<rscale>  0 0.80266522E+02</rscale>
<asrwt>0</asrwt>
<pdfrwt beam="1">  1        2 0.89928349E-01 0.80266522E+02</pdfrwt>
<pdfrwt beam="2">  1       -1 0.42392162E-03 0.80266522E+02</pdfrwt>
<totfact> 0.31652431E+05</totfact>
</mgrwt>
</event>
<event>
 8    1  0.2676873E-024  0.8718251E+02  0.7818608E-02  0.1309822E+00
          2   -1    0    0  501    0  0.00000000000E+00  0.00000000000E+00  0.38460262923E+03  0.38460262924E+03  0.25500000000E-02 0. -1.
         -1   -1    0    0    0  501 -0.00000000000E+00 -0.00000000000E+00 -0.49406762826E+01  0.49406788532E+01  0.50400000000E-02 0.  1.
         24    2    1    2    0    0 -0.35527136788E-14 -0.71054273576E-14  0.37966195295E+03  0.38954330810E+03  0.87182511797E+02 0.  0.
         66    2    3    3    0    0  0.23172801254E+02  0.30650996904E+02  0.28168855310E+03  0.28430424419E+03  0.19999969486E+01 0.  0.
        -13    1    3    3    0    0 -0.23172801254E+02 -0.30650996904E+02  0.97973399848E+02  0.10523906390E+03  0.10566000000E+00 0.  1.
         13    1    4    4    0    0  0.20707902224E+01  0.36397976162E+01  0.31099012543E+02  0.31379866858E+02  0.10566000000E+00 0. -1.
        -13    1    4    4    0    0  0.19279154969E+01  0.21447478784E+01  0.20532057732E+02  0.20733869884E+02  0.10566000000E+00 0.  1.
         14    1    4    4    0    0  0.19174095535E+02  0.24866451410E+02  0.23005748283E+03  0.23219050745E+03  0.00000000000E+00 0. -1.
<mgrwt>
<rscale>  0 0.87182512E+02</rscale>
<asrwt>0</asrwt>
<pdfrwt beam="1">  1        2 0.59169614E-01 0.87182512E+02</pdfrwt>
<pdfrwt beam="2">  1       -1 0.76010451E-03 0.87182512E+02</pdfrwt>
<totfact> 0.22237561E+05</totfact>
</mgrwt>
</event>
<event>
 8    1  0.2676873E-024  0.7866186E+02  0.7818608E-02  0.1332892E+00
         -1   -1    0    0    0  501 -0.00000000000E+00  0.00000000000E+00  0.12438060143E+01  0.12438162255E+01  0.50400000000E-02 0.  1.
          2   -1    0    0  501    0  0.00000000000E+00 -0.00000000000E+00 -0.12436954185E+04  0.12436954185E+04  0.25500000000E-02 0. -1.
         24    2    1    2    0    0  0.00000000000E+00  0.17763568394E-14 -0.12424516125E+04  0.12449392348E+04  0.78661863678E+02 0.  0.
         66    2    3    3    0    0 -0.19891434806E+01 -0.11036578504E+02 -0.12178355960E+04  0.12178888708E+04  0.19999989219E+01 0.  0.
        -13    1    3    3    0    0  0.19891434806E+01  0.11036578504E+02 -0.24616016547E+02  0.27050363981E+02  0.10566000000E+00 0.  1.
         13    1    4    4    0    0 -0.11541633816E+01 -0.48249990994E+01 -0.51825437448E+03  0.51827813049E+03  0.10566000000E+00 0. -1.
        -13    1    4    4    0    0 -0.10448141487E+01 -0.58758076335E+01 -0.62608569390E+03  0.62611414616E+03  0.10566000000E+00 0.  1.
        -14    1    4    4    0    0  0.20983404965E+00 -0.33577177114E+00 -0.73495527595E+02  0.73496594135E+02  0.00000000000E+00 0.  1.
<mgrwt>
<rscale>  0 0.78661864E+02</rscale>
<asrwt>0</asrwt>
<pdfrwt beam="1">  1        2 0.19133676E+00 0.78661864E+02</pdfrwt>
<pdfrwt beam="2">  1       -1 0.19135655E-03 0.78661864E+02</pdfrwt>
<totfact> 0.36438149E+05</totfact>
</mgrwt>
</event>
<event>
 8    1  0.2676873E-024  0.8071526E+02  0.7818608E-02  0.1327034E+00
          2   -1    0    0  501    0  0.00000000000E+00  0.00000000000E+00  0.36329461912E+02  0.36329462002E+02  0.25500000000E-02 0. -1.
         -1   -1    0    0    0  501 -0.00000000000E+00 -0.00000000000E+00 -0.44832441664E+02  0.44832441948E+02  0.50400000000E-02 0.  1.
         24    2    1    2    0    0  0.00000000000E+00  0.44408920985E-15 -0.85029797519E+01  0.81161903950E+02  0.80715264901E+02 0.  0.
         66    2    3    3    0    0  0.10140977277E+02  0.34100330921E+01  0.34848955260E+02  0.36509141671E+02  0.19999992523E+01 0.  0.
        -13    1    3    3    0    0 -0.10140977277E+02 -0.34100330921E+01 -0.43351935012E+02  0.44652762279E+02  0.10566000000E+00 0.  1.
         13    1    4    4    0    0  0.14365501708E+01  0.12330810086E+00  0.39493082836E+01  0.42056011741E+01  0.10566000000E+00 0. -1.
        -13    1    4    4    0    0  0.61002809939E+00 -0.12732930684E+00  0.22748186012E+01  0.23609978269E+01  0.10566000000E+00 0. -1.
         14    1    4    4    0    0  0.80943990069E+01  0.34140542981E+01  0.28624828375E+02  0.29942542670E+02  0.00000000000E+00 0. -1.
<mgrwt>
<rscale>  0 0.80715265E+02</rscale>
<asrwt>0</asrwt>
<pdfrwt beam="1">  1        2 0.55891480E-02 0.80715265E+02</pdfrwt>
<pdfrwt beam="2">  1       -1 0.68972988E-02 0.80715265E+02</pdfrwt>
<totfact> 0.13637022E+05</totfact>
</mgrwt>
</event>
<event>
 8    1  0.2676873E-024  0.7885445E+02  0.7818608E-02  0.1332334E+00
         -1   -1    0    0    0  501 -0.00000000000E+00  0.00000000000E+00  0.34492067668E+02  0.34492068036E+02  0.50400000000E-02 0.  1.
          2   -1    0    0  501    0  0.00000000000E+00 -0.00000000000E+00 -0.45068505912E+02  0.45068505985E+02  0.25500000000E-02 0. -1.
         24    2    1    2    0    0  0.00000000000E+00  0.00000000000E+00 -0.10576438244E+02  0.79560574021E+02  0.78854447513E+02 0.  0.
         66    2    3    3    0    0  0.13939970357E+02 -0.31551059720E+02 -0.24507072827E+02  0.42360226080E+02  0.19999979933E+01 0.  0.
        -13    1    3    3    0    0 -0.13939970357E+02  0.31551059720E+02  0.13930634583E+02  0.37200347941E+02  0.10566000000E+00 0.  1.
         13    1    4    4    0    0  0.14422921402E+01 -0.34067655150E+01 -0.29757848776E+01  0.47489701584E+01  0.10566000000E+00 0. -1.
        -13    1    4    4    0    0  0.59921026454E+01 -0.15267968955E+02 -0.11931975158E+02  0.20282982161E+02  0.10566000000E+00 0.  1.
         14    1    4    4    0    0  0.65055755714E+01 -0.12876325250E+02 -0.95993127914E+01  0.17328273761E+02  0.00000000000E+00 0. -1.
<mgrwt>
<rscale>  0 0.78854448E+02</rscale>
<asrwt>0</asrwt>
<pdfrwt beam="1">  1        2 0.69336163E-02 0.78854448E+02</pdfrwt>
<pdfrwt beam="2">  1       -1 0.53064720E-02 0.78854448E+02</pdfrwt>
<totfact> 0.15204678E+05</totfact>
</mgrwt>
</event>
<event>
 8    1  0.2676873E-024  0.7871734E+02  0.7818608E-02  0.1332731E+00
          2   -1    0    0  501    0  0.00000000000E+00  0.00000000000E+00  0.60454934318E+02  0.60454934372E+02  0.25500000000E-02 0. -1.
         -1   -1    0    0    0  501 -0.00000000000E+00 -0.00000000000E+00 -0.25624128498E+02  0.25624128994E+02  0.50400000000E-02 0.  1.
         24    2    1    2    0    0  0.00000000000E+00  0.00000000000E+00  0.34830805819E+02  0.86079063366E+02  0.78717343171E+02 0.  0.
         66    2    3    3    0    0 -0.22056479350E+02  0.32537075517E+02  0.15899390475E+02  0.42449266031E+02  0.20000011516E+01 0.  0.
        -13    1    3    3    0    0  0.22056479350E+02 -0.32537075517E+02  0.18931415344E+02  0.43629797335E+02  0.10566000000E+00 0.  1.
         13    1    4    4    0    0 -0.11367026409E+02  0.16249604887E+02  0.74622577409E+01  0.21188567743E+02  0.10566000000E+00 0. -1.
        -13    1    4    4    0    0 -0.10197766861E+02  0.15254349676E+02  0.81683983797E+01  0.20085405874E+02  0.10566000000E+00 0.  1.
         14    1    4    4    0    0 -0.49168607960E+00  0.10331209535E+01  0.26873435444E+00  0.11752924141E+01  0.00000000000E+00 0. -1.
<mgrwt>
<rscale>  0 0.78717343E+02</rscale>
<asrwt>0</asrwt>
<pdfrwt beam="1">  1        2 0.93007592E-02 0.78717343E+02</pdfrwt>
<pdfrwt beam="2">  1       -1 0.39421737E-02 0.78717343E+02</pdfrwt>
<totfact> 0.16293457E+05</totfact>
</mgrwt>
</event>
<event>
 8    1  0.2676873E-024  0.7924735E+02  0.7818608E-02  0.1331201E+00
          2   -1    0    0  501    0  0.00000000000E+00  0.00000000000E+00  0.10367293627E+03  0.10367293630E+03  0.25500000000E-02 0. -1.
         -1   -1    0    0    0  501 -0.00000000000E+00 -0.00000000000E+00 -0.15144123521E+02  0.15144124360E+02  0.50400000000E-02 0.  1.
         24    2    1    2    0    0  0.00000000000E+00  0.35527136788E-14  0.88528812744E+02  0.11881706066E+03  0.79247354639E+02 0.  0.
         66    2    3    3    0    0  0.22872643670E+02 -0.26648540403E+02  0.71723433848E+02  0.79884626133E+02  0.19999988372E+01 0.  0.
        -13    1    3    3    0    0 -0.22872643670E+02  0.26648540403E+02  0.16805378896E+02  0.38932434524E+02  0.10566000000E+00 0.  1.
         13    1    4    4    0    0  0.39313737848E+01 -0.37294112954E+01  0.10505069380E+02  0.11820822948E+02  0.10566000000E+00 0. -1.
        -13    1    4    4    0    0  0.40010961699E+01 -0.51120692415E+01  0.14176140803E+02  0.15592182483E+02  0.10566000000E+00 0.  1.
         14    1    4    4    0    0  0.14940173715E+02 -0.17807059866E+02  0.47042223665E+02  0.52471620702E+02  0.00000000000E+00 0. -1.
<mgrwt>
<rscale>  0 0.79247355E+02</rscale>
<asrwt>0</asrwt>
<pdfrwt beam="1">  1        2 0.15949683E-01 0.79247355E+02</pdfrwt>
<pdfrwt beam="2">  1       -1 0.23298652E-02 0.79247355E+02</pdfrwt>
<totfact> 0.18365490E+05</totfact>
</mgrwt>
</event>
<event>
 8    1  0.2676873E-024  0.7729507E+02  0.7818608E-02  0.1336908E+00
          2   -1    0    0  501    0  0.00000000000E+00  0.00000000000E+00  0.11245656345E+04  0.11245656345E+04  0.25500000000E-02 0. -1.
         -1   -1    0    0    0  501 -0.00000000000E+00 -0.00000000000E+00 -0.13281809297E+01  0.13281904922E+01  0.50400000000E-02 0.  1.
         24    2    1    2    0    0  0.17763568394E-14 -0.35527136788E-14  0.11232374536E+04  0.11258938250E+04  0.77295071376E+02 0.  0.
         66    2    3    3    0    0  0.15410963403E+02  0.17597764151E+02  0.10096396379E+04  0.10099125593E+04  0.19999945355E+01 0.  0.
        -13    1    3    3    0    0 -0.15410963403E+02 -0.17597764151E+02  0.11359781568E+03  0.11598126568E+03  0.10566000000E+00 0.  1.
         13    1    4    4    0    0  0.59724124150E+01  0.69587234289E+01  0.35839246900E+03  0.35850978584E+03  0.10566000000E+00 0. -1.
        -13    1    4    4    0    0  0.88859698116E+01  0.99929797300E+01  0.60480319905E+03  0.60495102352E+03  0.10566000000E+00 0.  1.
         14    1    4    4    0    0  0.55258117677E+00  0.64606099243E+00  0.46443969848E+02  0.46451749977E+02  0.00000000000E+00 0. -1.
<mgrwt>
<rscale>  0 0.77295071E+02</rscale>
<asrwt>0</asrwt>
<pdfrwt beam="1">  1        2 0.17300965E+00 0.77295071E+02</pdfrwt>
<pdfrwt beam="2">  1       -1 0.20433680E-03 0.77295071E+02</pdfrwt>
<totfact> 0.38503468E+05</totfact>
</mgrwt>
</event>
<event>
 8    1  0.2676873E-024  0.7010240E+02  0.7818608E-02  0.1359745E+00
         -1   -1    0    0    0  501 -0.00000000000E+00  0.00000000000E+00  0.26813163700E+02  0.26813164173E+02  0.50400000000E-02 0.  1.
          2   -1    0    0  501    0  0.00000000000E+00 -0.00000000000E+00 -0.45820279564E+02  0.45820279635E+02  0.25500000000E-02 0. -1.
         24    2    1    2    0    0  0.00000000000E+00  0.00000000000E+00 -0.19007115864E+02  0.72633443808E+02  0.70102401570E+02 0.  0.
         66    2    3    3    0    0  0.24496839499E+02 -0.16755566246E+02 -0.28776632443E+02  0.41387663870E+02  0.20000000439E+01 0.  0.
        -13    1    3    3    0    0 -0.24496839499E+02  0.16755566246E+02  0.97695165791E+01  0.31245779938E+02  0.10566000000E+00 0.  1.
         13    1    4    4    0    0  0.30043506090E+01 -0.20804244565E+01 -0.40863389679E+01  0.54830300653E+01  0.10566000000E+00 0. -1.
        -13    1    4    4    0    0  0.14510578673E+02 -0.10400331050E+02 -0.17691264504E+02  0.25133956775E+02  0.10566000000E+00 0.  1.
        -14    1    4    4    0    0  0.69819102177E+01 -0.42748107400E+01 -0.69990289709E+01  0.10770677030E+02  0.00000000000E+00 0.  1.
<mgrwt>
<rscale>  0 0.70102402E+02</rscale>
<asrwt>0</asrwt>
<pdfrwt beam="1">  1        2 0.70492738E-02 0.70102402E+02</pdfrwt>
<pdfrwt beam="2">  1       -1 0.41251022E-02 0.70102402E+02</pdfrwt>
<totfact> 0.21001595E+05</totfact>
</mgrwt>
</event>
<event>
 8    1  0.2676873E-024  0.8100040E+02  0.7818608E-02  0.1326236E+00
          2   -1    0    0  501    0  0.00000000000E+00  0.00000000000E+00  0.26339695841E+02  0.26339695965E+02  0.25500000000E-02 0. -1.
         -1   -1    0    0    0  501 -0.00000000000E+00 -0.00000000000E+00 -0.62273543683E+02  0.62273543887E+02  0.50400000000E-02 0.  1.
         24    2    1    2    0    0 -0.35527136788E-14  0.00000000000E+00 -0.35933847841E+02  0.88613239852E+02  0.81000400347E+02 0.  0.
         66    2    3    3    0    0 -0.10237539240E+02  0.30994877752E+02  0.82041145906E+01  0.33716422565E+02  0.19999994567E+01 0.  0.
        -13    1    3    3    0    0  0.10237539240E+02 -0.30994877752E+02 -0.44137962432E+02  0.54896817287E+02  0.10566000000E+00 0.  1.
         13    1    4    4    0    0 -0.54045466576E+01  0.15443163125E+02  0.44961956559E+01  0.16968422181E+02  0.10566000000E+00 0.  1.
        -13    1    4    4    0    0 -0.10888486950E+01  0.33133694252E+01  0.13095710582E+01  0.37269489963E+01  0.10566000000E+00 0. -1.
        -14    1    4    4    0    0 -0.37441438877E+01  0.12238345201E+02  0.23983478764E+01  0.13021051388E+02  0.00000000000E+00 0.  1.
<mgrwt>
<rscale>  0 0.81000400E+02</rscale>
<asrwt>0</asrwt>
<pdfrwt beam="1">  1        2 0.40522609E-02 0.81000400E+02</pdfrwt>
<pdfrwt beam="2">  1       -1 0.95805452E-02 0.81000400E+02</pdfrwt>
<totfact> 0.12662033E+05</totfact>
</mgrwt>
</event>
<event>
 8    1  0.2676873E-024  0.7748158E+02  0.7818608E-02  0.1336354E+00
          2   -1    0    0  501    0  0.00000000000E+00  0.00000000000E+00  0.25946195446E+02  0.25946195572E+02  0.25500000000E-02 0. -1.
         -1   -1    0    0    0  501 -0.00000000000E+00 -0.00000000000E+00 -0.57844661234E+02  0.57844661454E+02  0.50400000000E-02 0.  1.
         24    2    1    2    0    0  0.71054273576E-14  0.00000000000E+00 -0.31898465788E+02  0.83790857026E+02  0.77481582337E+02 0.  0.
         66    2    3    3    0    0  0.18168888212E+02 -0.24996692780E+02  0.92609207441E+01  0.32321940070E+02  0.20000020248E+01 0.  0.
        -13    1    3    3    0    0 -0.18168888212E+02  0.24996692780E+02 -0.41159386532E+02  0.51468916955E+02  0.10566000000E+00 0.  1.
         13    1    4    4    0    0  0.10955423722E+01 -0.18349065042E+01  0.31188179029E+00  0.21622972171E+01  0.10566000000E+00 0. -1.
        -13    1    4    4    0    0  0.52737174401E+01 -0.74654542206E+01  0.34136052000E+01  0.97575082298E+01  0.10566000000E+00 0.  1.
         14    1    4    4    0    0  0.11799628399E+02 -0.15696332055E+02  0.55354337538E+01  0.20402134623E+02  0.00000000000E+00 0. -1.
<mgrwt>
<rscale>  0 0.77481582E+02</rscale>
<asrwt>0</asrwt>
<pdfrwt beam="1">  1        2 0.39917224E-02 0.77481582E+02</pdfrwt>
<pdfrwt beam="2">  1       -1 0.88991786E-02 0.77481582E+02</pdfrwt>
<totfact> 0.14308950E+05</totfact>
</mgrwt>
</event>
<event>
 8    1  0.2676873E-024  0.8142825E+02  0.7818608E-02  0.1325046E+00
         -1   -1    0    0    0  501 -0.00000000000E+00  0.00000000000E+00  0.27661145714E+02  0.27661146173E+02  0.50400000000E-02 0.  1.
          2   -1    0    0  501    0  0.00000000000E+00 -0.00000000000E+00 -0.59926660345E+02  0.59926660400E+02  0.25500000000E-02 0. -1.
         24    2    1    2    0    0  0.00000000000E+00 -0.44408920985E-15 -0.32265514632E+02  0.87587806572E+02  0.81428253240E+02 0.  0.
         66    2    3    3    0    0 -0.12504925362E+02  0.27989407943E+01 -0.57682765799E+02  0.59122827233E+02  0.20000004715E+01 0.  0.
        -13    1    3    3    0    0  0.12504925362E+02 -0.27989407943E+01  0.25417251167E+02  0.28464979340E+02  0.10566000000E+00 0.  1.
         13    1    4    4    0    0 -0.44253342377E+01  0.83832271664E+00 -0.16968919472E+02  0.17556815206E+02  0.10566000000E+00 0. -1.
        -13    1    4    4    0    0 -0.69076473608E+00  0.33050201340E+00 -0.28143203535E+01  0.29185528245E+01  0.10566000000E+00 0. -1.
         14    1    4    4    0    0 -0.73888263885E+01  0.16301160643E+01 -0.37899525973E+02  0.38647459202E+02  0.00000000000E+00 0. -1.
<mgrwt>
<rscale>  0 0.81428253E+02</rscale>
<asrwt>0</asrwt>
<pdfrwt beam="1">  1        2 0.92194862E-02 0.81428253E+02</pdfrwt>
<pdfrwt beam="2">  1       -1 0.42555610E-02 0.81428253E+02</pdfrwt>
<totfact> 0.14829427E+05</totfact>
</mgrwt>
</event>
<event>
 8    1  0.2676873E-024  0.8002553E+02  0.7818608E-02  0.1328979E+00
          2   -1    0    0  501    0  0.00000000000E+00  0.00000000000E+00  0.18284649665E+03  0.18284649667E+03  0.25500000000E-02 0. -1.
         -1   -1    0    0    0  501 -0.00000000000E+00 -0.00000000000E+00 -0.87560952322E+01  0.87560966827E+01  0.50400000000E-02 0.  1.
         24    2    1    2    0    0  0.00000000000E+00 -0.44408920985E-15  0.17409040142E+03  0.19160259336E+03  0.80025532882E+02 0.  0.
         66    2    3    3    0    0 -0.17652729512E+02 -0.24213894576E+01  0.17281069454E+03  0.17373836094E+03  0.19999822873E+01 0.  0.
        -13    1    3    3    0    0  0.17652729512E+02  0.24213894576E+01  0.12797068865E+01  0.17864232418E+02  0.10566000000E+00 0.  1.
         13    1    4    4    0    0 -0.18064387679E+01 -0.58707067974E+00  0.15165935970E+02  0.15284784947E+02  0.10566000000E+00 0. -1.
        -13    1    4    4    0    0 -0.45741976383E+01 -0.40182048973E+00  0.50183388598E+02  0.50393138411E+02  0.10566000000E+00 0.  1.
         14    1    4    4    0    0 -0.11272093106E+02 -0.14324982881E+01  0.10746136997E+03  0.10806043758E+03  0.00000000000E+00 0. -1.
<mgrwt>
<rscale>  0 0.80025533E+02</rscale>
<asrwt>0</asrwt>
<pdfrwt beam="1">  1        2 0.28130228E-01 0.80025533E+02</pdfrwt>
<pdfrwt beam="2">  1       -1 0.13470918E-02 0.80025533E+02</pdfrwt>
<totfact> 0.21370250E+05</totfact>
</mgrwt>
</event>
<event>
 8    1  0.2676873E-024  0.7202364E+02  0.7818608E-02  0.1353344E+00
         -1   -1    0    0    0  501 -0.00000000000E+00  0.00000000000E+00  0.30804206547E+01  0.30804247778E+01  0.50400000000E-02 0.  1.
          2   -1    0    0  501    0  0.00000000000E+00 -0.00000000000E+00 -0.42099774740E+03  0.42099774740E+03  0.25500000000E-02 0. -1.
         24    2    1    2    0    0  0.00000000000E+00  0.00000000000E+00 -0.41791732674E+03  0.42407817218E+03  0.72023635914E+02 0.  0.
         66    2    3    3    0    0  0.26653699275E+02 -0.16837930913E+01 -0.35111656594E+03  0.35213647599E+03  0.19999990076E+01 0.  0.
        -13    1    3    3    0    0 -0.26653699275E+02  0.16837930913E+01 -0.66800760799E+02  0.71941696196E+02  0.10566000000E+00 0.  1.
         13    1    4    4    0    0  0.11325697759E+02 -0.10429697533E+01 -0.14713284321E+03  0.14757182634E+03  0.10566000000E+00 0. -1.
        -13    1    4    4    0    0  0.48033280426E+01 -0.28561106954E+00 -0.72810308664E+02  0.72969210944E+02  0.10566000000E+00 0.  1.
        -14    1    4    4    0    0  0.10524673474E+02 -0.35521226848E+00 -0.13117341407E+03  0.13159543870E+03  0.00000000000E+00 0.  1.
<mgrwt>
<rscale>  0 0.72023636E+02</rscale>
<asrwt>0</asrwt>
<pdfrwt beam="1">  1        2 0.64768839E-01 0.72023636E+02</pdfrwt>
<pdfrwt beam="2">  1       -1 0.47391152E-03 0.72023636E+02</pdfrwt>
<totfact> 0.37774703E+05</totfact>
</mgrwt>
</event>
<event>
 8    1  0.2676873E-024  0.7898405E+02  0.7818608E-02  0.1331960E+00
         -1   -1    0    0    0  501 -0.00000000000E+00  0.00000000000E+00  0.44520603563E+02  0.44520603848E+02  0.50400000000E-02 0.  1.
          2   -1    0    0  501    0  0.00000000000E+00 -0.00000000000E+00 -0.35031418841E+02  0.35031418934E+02  0.25500000000E-02 0. -1.
         24    2    1    2    0    0  0.17763568394E-14  0.35527136788E-14  0.94891847217E+01  0.79552022782E+02  0.78984047136E+02 0.  0.
         66    2    3    3    0    0  0.94533891647E+01  0.26354836863E+02 -0.23267333563E+02  0.36459742186E+02  0.19999990885E+01 0.  0.
        -13    1    3    3    0    0 -0.94533891647E+01 -0.26354836863E+02  0.32756518285E+02  0.43092280596E+02  0.10566000000E+00 0.  1.
         13    1    4    4    0    0  0.12900887821E+01  0.30267908665E+01 -0.29122595270E+01  0.43952487533E+01  0.10566000000E+00 0. -1.
        -13    1    4    4    0    0  0.81844705685E+01  0.23330375659E+02 -0.20254425287E+02  0.31961615957E+02  0.10566000000E+00 0.  1.
        -14    1    4    4    0    0 -0.21170185869E-01 -0.23296626945E-02 -0.10064874990E+00  0.10287747545E+00  0.00000000000E+00 0.  1.
<mgrwt>
<rscale>  0 0.78984047E+02</rscale>
<asrwt>0</asrwt>
<pdfrwt beam="1">  1        2 0.53894491E-02 0.78984047E+02</pdfrwt>
<pdfrwt beam="2">  1       -1 0.68493237E-02 0.78984047E+02</pdfrwt>
<totfact> 0.14378138E+05</totfact>
</mgrwt>
</event>
<event>
 8    1  0.2676873E-024  0.7995949E+02  0.7818608E-02  0.1329166E+00
         -1   -1    0    0    0  501 -0.00000000000E+00  0.00000000000E+00  0.48098026722E+01  0.48098053128E+01  0.50400000000E-02 0.  1.
          2   -1    0    0  501    0  0.00000000000E+00 -0.00000000000E+00 -0.33231704276E+03  0.33231704277E+03  0.25500000000E-02 0. -1.
         24    2    1    2    0    0  0.17763568394E-14  0.00000000000E+00 -0.32750724009E+03  0.33712684809E+03  0.79959485918E+02 0.  0.
         66    2    3    3    0    0  0.12454993737E+02 -0.36161497300E+02 -0.21258809381E+03  0.21601036654E+03  0.20000168320E+01 0.  0.
        -13    1    3    3    0    0 -0.12454993737E+02  0.36161497300E+02 -0.11491914629E+03  0.12111648155E+03  0.10566000000E+00 0.  1.
         13    1    4    4    0    0  0.55472564143E+00 -0.23059431164E+01 -0.11661699047E+02  0.11900902608E+02  0.10566000000E+00 0. -1.
        -13    1    4    4    0    0  0.20427066971E+01 -0.71634006730E+01 -0.42635005140E+02  0.43280963335E+02  0.10566000000E+00 0.  1.
         14    1    4    4    0    0  0.98575613981E+01 -0.26692153510E+02 -0.15829138962E+03  0.16082850059E+03  0.00000000000E+00 0. -1.
<mgrwt>
<rscale>  0 0.79959486E+02</rscale>
<asrwt>0</asrwt>
<pdfrwt beam="1">  1        2 0.51125681E-01 0.79959486E+02</pdfrwt>
<pdfrwt beam="2">  1       -1 0.73997011E-03 0.79959486E+02</pdfrwt>
<totfact> 0.26488699E+05</totfact>
</mgrwt>
</event>
<event>
 8    1  0.2676873E-024  0.7899971E+02  0.7818608E-02  0.1331914E+00
          2   -1    0    0  501    0  0.00000000000E+00  0.00000000000E+00  0.10873142459E+04  0.10873142459E+04  0.25500000000E-02 0. -1.
         -1   -1    0    0    0  501 -0.00000000000E+00 -0.00000000000E+00 -0.14349426761E+01  0.14349515271E+01  0.50400000000E-02 0.  1.
         24    2    1    2    0    0  0.00000000000E+00  0.00000000000E+00  0.10858793032E+04  0.10887491974E+04  0.78999707180E+02 0.  0.
         66    2    3    3    0    0  0.13328247995E+02 -0.10329109282E+02  0.10351791315E+04  0.10353183892E+04  0.19999966297E+01 0.  0.
        -13    1    3    3    0    0 -0.13328247995E+02  0.10329109282E+02  0.50700171669E+02  0.53430808196E+02  0.10566000000E+00 0.  1.
         13    1    4    4    0    0  0.91120660619E+01 -0.65729946648E+01  0.64902022309E+03  0.64911747407E+03  0.10566000000E+00 0. -1.
        -13    1    4    4    0    0  0.15585388833E+00 -0.32763685908E+00  0.29429829925E+02  0.29432255941E+02  0.10566000000E+00 0. -1.
         14    1    4    4    0    0  0.40603280444E+01 -0.34284777581E+01  0.35672907853E+03  0.35676865921E+03  0.00000000000E+00 0. -1.
<mgrwt>
<rscale>  0 0.78999707E+02</rscale>
<asrwt>0</asrwt>
<pdfrwt beam="1">  1        2 0.16727900E+00 0.78999707E+02</pdfrwt>
<pdfrwt beam="2">  1       -1 0.22076125E-03 0.78999707E+02</pdfrwt>
<totfact> 0.36433001E+05</totfact>
</mgrwt>
</event>
<event>
 8    1  0.2676873E-024  0.7880828E+02  0.7818608E-02  0.1332468E+00
          2   -1    0    0  501    0  0.00000000000E+00  0.00000000000E+00  0.30704635283E+03  0.30704635284E+03  0.25500000000E-02 0. -1.
         -1   -1    0    0    0  501 -0.00000000000E+00 -0.00000000000E+00 -0.50568448051E+01  0.50568473167E+01  0.50400000000E-02 0.  1.
         24    2    1    2    0    0  0.00000000000E+00  0.00000000000E+00  0.30198950803E+03  0.31210320016E+03  0.78808277429E+02 0.  0.
         66    2    3    3    0    0  0.85033558652E+01 -0.58864379740E+01  0.30156815816E+03  0.30175206917E+03  0.20000049099E+01 0.  0.
        -13    1    3    3    0    0 -0.85033558652E+01  0.58864379740E+01  0.42134986630E+00  0.10351130988E+02  0.10566000000E+00 0.  1.
         13    1    4    4    0    0  0.13131083062E+01 -0.13023053227E+01  0.42875735939E+02  0.42915733116E+02  0.10566000000E+00 0. -1.
        -13    1    4    4    0    0  0.65394766248E+00 -0.92819109634E+00  0.33200370710E+02  0.33219948308E+02  0.10566000000E+00 0.  1.
        -14    1    4    4    0    0  0.65362998965E+01 -0.36559415549E+01  0.22549205151E+03  0.22561638775E+03  0.00000000000E+00 0.  1.
<mgrwt>
<rscale>  0 0.78808277E+02</rscale>
<asrwt>0</asrwt>
<pdfrwt beam="1">  1        2 0.47237896E-01 0.78808277E+02</pdfrwt>
<pdfrwt beam="2">  1       -1 0.77797639E-03 0.78808277E+02</pdfrwt>
<totfact> 0.26740292E+05</totfact>
</mgrwt>
</event>
<event>
 8    1  0.2676873E-024  0.7992146E+02  0.7818608E-02  0.1329274E+00
          2   -1    0    0  501    0  0.00000000000E+00  0.00000000000E+00  0.19419660827E+02  0.19419660994E+02  0.25500000000E-02 0. -1.
         -1   -1    0    0    0  501 -0.00000000000E+00 -0.00000000000E+00 -0.82229040235E+02  0.82229040389E+02  0.50400000000E-02 0.  1.
         24    2    1    2    0    0 -0.35527136788E-14  0.00000000000E+00 -0.62809379408E+02  0.10164870138E+03  0.79921463647E+02 0.  0.
         66    2    3    3    0    0 -0.23763504722E+02 -0.65197257870E+00  0.93887649514E+01  0.25637436180E+02  0.20000004195E+01 0.  0.
        -13    1    3    3    0    0  0.23763504722E+02  0.65197257870E+00 -0.72198144359E+02  0.76011265203E+02  0.10566000000E+00 0.  1.
         13    1    4    4    0    0 -0.81361447236E+00  0.24015885789E+00  0.29727462316E+00  0.90508619691E+00  0.10566000000E+00 0. -1.
        -13    1    4    4    0    0 -0.83224070217E+01 -0.83303142976E+00  0.36313830357E+01  0.91189092981E+01  0.10566000000E+00 0.  1.
         14    1    4    4    0    0 -0.14627483228E+02 -0.59100006832E-01  0.54601072925E+01  0.15613440685E+02  0.00000000000E+00 0. -1.
<mgrwt>
<rscale>  0 0.79921464E+02</rscale>
<asrwt>0</asrwt>
<pdfrwt beam="1">  1        2 0.29876402E-02 0.79921464E+02</pdfrwt>
<pdfrwt beam="2">  1       -1 0.12650621E-01 0.79921464E+02</pdfrwt>
<totfact> 0.12376708E+05</totfact>
</mgrwt>
</event>
<event>
 8    1  0.2676873E-024  0.7685466E+02  0.7818608E-02  0.1338222E+00
         -1   -1    0    0    0  501 -0.00000000000E+00  0.00000000000E+00  0.13493364721E+01  0.13493458847E+01  0.50400000000E-02 0.  1.
          2   -1    0    0  501    0  0.00000000000E+00 -0.00000000000E+00 -0.10943560510E+04  0.10943560510E+04  0.25500000000E-02 0. -1.
         24    2    1    2    0    0 -0.17763568394E-14  0.00000000000E+00 -0.10930067145E+04  0.10957053969E+04  0.76854660013E+02 0.  0.
         66    2    3    3    0    0  0.12267811661E+02  0.13205042425E+02 -0.10303000055E+04  0.10304595934E+04  0.20000000866E+01 0.  0.
        -13    1    3    3    0    0 -0.12267811661E+02 -0.13205042425E+02 -0.62706709044E+02  0.65245803479E+02  0.10566000000E+00 0.  1.
         13    1    4    4    0    0  0.70879695086E+01  0.67284758038E+01 -0.58863991088E+03  0.58872104391E+03  0.10566000000E+00 0. -1.
        -13    1    4    4    0    0  0.48968370001E+01  0.57987834461E+01 -0.40316790900E+03  0.40323935685E+03  0.10566000000E+00 0.  1.
        -14    1    4    4    0    0  0.28300515238E+00  0.67778317512E+00 -0.38492185617E+02  0.38499192661E+02  0.00000000000E+00 0.  1.
<mgrwt>
<rscale>  0 0.76854660E+02</rscale>
<asrwt>0</asrwt>
<pdfrwt beam="1">  1        2 0.16836176E+00 0.76854660E+02</pdfrwt>
<pdfrwt beam="2">  1       -1 0.20759183E-03 0.76854660E+02</pdfrwt>
<totfact> 0.39117977E+05</totfact>
</mgrwt>
</event>
<event>
 8    1  0.2676873E-024  0.7760457E+02  0.7818608E-02  0.1335990E+00
         -1   -1    0    0    0  501 -0.00000000000E+00  0.00000000000E+00  0.77890344162E+01  0.77890360468E+01  0.50400000000E-02 0.  1.
          2   -1    0    0  501    0  0.00000000000E+00 -0.00000000000E+00 -0.19329959679E+03  0.19329959681E+03  0.25500000000E-02 0. -1.
         24    2    1    2    0    0  0.00000000000E+00  0.00000000000E+00 -0.18551056238E+03  0.20108863286E+03  0.77604571455E+02 0.  0.
         66    2    3    3    0    0 -0.34800414637E+02 -0.12673192930E+02 -0.12257981843E+03  0.12806830435E+03  0.20000034724E+01 0.  0.
        -13    1    3    3    0    0  0.34800414637E+02  0.12673192930E+02 -0.62930743942E+02  0.73020328505E+02  0.10566000000E+00 0.  1.
         13    1    4    4    0    0 -0.18220182724E+02 -0.66854758121E+01 -0.63839740036E+02  0.66724764647E+02  0.10566000000E+00 0. -1.
        -13    1    4    4    0    0 -0.20109135300E+01 -0.10672619969E+01 -0.87294624466E+01  0.90220563087E+01  0.10566000000E+00 0.  1.
        -14    1    4    4    0    0 -0.14569318383E+02 -0.49204551208E+01 -0.50010615951E+02  0.52321483394E+02  0.00000000000E+00 0.  1.
<mgrwt>
<rscale>  0 0.77604571E+02</rscale>
<asrwt>0</asrwt>
<pdfrwt beam="1">  1        2 0.29738396E-01 0.77604571E+02</pdfrwt>
<pdfrwt beam="2">  1       -1 0.11983133E-02 0.77604571E+02</pdfrwt>
<totfact> 0.23618827E+05</totfact>
</mgrwt>
</event>
<event>
 8    1  0.2676873E-024  0.7869910E+02  0.7818608E-02  0.1332784E+00
          2   -1    0    0  501    0  0.00000000000E+00  0.00000000000E+00  0.76592057197E+03  0.76592057197E+03  0.25500000000E-02 0. -1.
         -1   -1    0    0    0  501 -0.00000000000E+00 -0.00000000000E+00 -0.20215996159E+01  0.20216058984E+01  0.50400000000E-02 0.  1.
         24    2    1    2    0    0  0.35527136788E-14 -0.88817841970E-15  0.76389897235E+03  0.76794217787E+03  0.78699101596E+02 0.  0.
         66    2    3    3    0    0  0.17130564459E+02 -0.50540681358E+01  0.72405578644E+03  0.72427880110E+03  0.20000004297E+01 0.  0.
        -13    1    3    3    0    0 -0.17130564459E+02  0.50540681358E+01  0.39843185913E+02  0.43663376772E+02  0.10566000000E+00 0.  1.
         13    1    4    4    0    0  0.10439792002E+01 -0.67262893455E+00  0.51336189258E+02  0.51351317548E+02  0.10566000000E+00 0. -1.
        -13    1    4    4    0    0  0.24463671549E+01 -0.20960025878E+00  0.93807290953E+02  0.93839478070E+02  0.10566000000E+00 0.  1.
         14    1    4    4    0    0  0.13640218103E+02 -0.41718389425E+01  0.57891230623E+03  0.57908800548E+03  0.00000000000E+00 0. -1.
<mgrwt>
<rscale>  0 0.78699102E+02</rscale>
<asrwt>0</asrwt>
<pdfrwt beam="1">  1        2 0.11783381E+00 0.78699102E+02</pdfrwt>
<pdfrwt beam="2">  1       -1 0.31101615E-03 0.78699102E+02</pdfrwt>
<totfact> 0.35576043E+05</totfact>
</mgrwt>
</event>
<event>
 8    1  0.2676873E-024  0.7839702E+02  0.7818608E-02  0.1333663E+00
          2   -1    0    0  501    0  0.00000000000E+00  0.00000000000E+00  0.30166953686E+03  0.30166953687E+03  0.25500000000E-02 0. -1.
         -1   -1    0    0    0  501 -0.00000000000E+00 -0.00000000000E+00 -0.50933971179E+01  0.50933996115E+01  0.50400000000E-02 0.  1.
         24    2    1    2    0    0  0.00000000000E+00 -0.35527136788E-14  0.29657613974E+03  0.30676293648E+03  0.78397018660E+02 0.  0.
         66    2    3    3    0    0  0.17903235462E+02 -0.22292292373E+02  0.25316394050E+03  0.25478118635E+03  0.20000029868E+01 0.  0.
        -13    1    3    3    0    0 -0.17903235462E+02  0.22292292373E+02  0.43412199245E+02  0.51981750129E+02  0.10566000000E+00 0.  1.
         13    1    4    4    0    0  0.67471358304E+01 -0.81379802469E+01  0.94829072768E+02  0.95416533004E+02  0.10566000000E+00 0. -1.
        -13    1    4    4    0    0  0.11498800581E+01 -0.12719899386E+01  0.11736255886E+02  0.11861325761E+02  0.10566000000E+00 0.  1.
        -14    1    4    4    0    0  0.10006219573E+02 -0.12882322187E+02  0.14659861184E+03  0.14750332759E+03  0.00000000000E+00 0.  1.
<mgrwt>
<rscale>  0 0.78397019E+02</rscale>
<asrwt>0</asrwt>
<pdfrwt beam="1">  1        2 0.46410709E-01 0.78397019E+02</pdfrwt>
<pdfrwt beam="2">  1       -1 0.78359957E-03 0.78397019E+02</pdfrwt>
<totfact> 0.26936467E+05</totfact>
</mgrwt>
</event>
<event>
 8    1  0.2676873E-024  0.7904513E+02  0.7818608E-02  0.1331783E+00
         -1   -1    0    0    0  501 -0.00000000000E+00  0.00000000000E+00  0.55199848085E+02  0.55199848315E+02  0.50400000000E-02 0.  1.
          2   -1    0    0  501    0  0.00000000000E+00 -0.00000000000E+00 -0.28297778790E+02  0.28297778905E+02  0.25500000000E-02 0. -1.
         24    2    1    2    0    0 -0.35527136788E-14  0.35527136788E-14  0.26902069295E+02  0.83497627220E+02  0.79045129003E+02 0.  0.
         66    2    3    3    0    0 -0.25655623513E+02  0.25233445392E+02 -0.37390933092E+01  0.36234218605E+02  0.19999987458E+01 0.  0.
        -13    1    3    3    0    0  0.25655623513E+02 -0.25233445392E+02  0.30641162604E+02  0.47263408615E+02  0.10566000000E+00 0.  1.
         13    1    4    4    0    0 -0.83918795412E+01  0.81913507410E+01 -0.83928299753E+00  0.11757441439E+02  0.10566000000E+00 0. -1.
        -13    1    4    4    0    0 -0.15561130339E+02  0.15499698588E+02 -0.21914004368E+01  0.22072671647E+02  0.10566000000E+00 0.  1.
         14    1    4    4    0    0 -0.17026136326E+01  0.15423960627E+01 -0.70840987488E+00  0.24041055191E+01  0.00000000000E+00 0. -1.
<mgrwt>
<rscale>  0 0.79045129E+02</rscale>
<asrwt>0</asrwt>
<pdfrwt beam="1">  1        2 0.43535045E-02 0.79045129E+02</pdfrwt>
<pdfrwt beam="2">  1       -1 0.84922843E-02 0.79045129E+02</pdfrwt>
<totfact> 0.13757436E+05</totfact>
</mgrwt>
</event>
<event>
 8    1  0.2676873E-024  0.7754840E+02  0.7818608E-02  0.1336156E+00
         -1   -1    0    0    0  501 -0.00000000000E+00  0.00000000000E+00  0.30695965500E+02  0.30695965914E+02  0.50400000000E-02 0.  1.
          2   -1    0    0  501    0  0.00000000000E+00 -0.00000000000E+00 -0.48978381311E+02  0.48978381377E+02  0.25500000000E-02 0. -1.
         24    2    1    2    0    0  0.22204460493E-15  0.00000000000E+00 -0.18282415811E+02  0.79674347291E+02  0.77548403519E+02 0.  0.
         66    2    3    3    0    0 -0.13968287994E+01 -0.25483540192E+02 -0.39102557096E+02  0.46737264868E+02  0.20000011317E+01 0.  0.
        -13    1    3    3    0    0  0.13968287994E+01  0.25483540192E+02  0.20820141284E+02  0.32937082423E+02  0.10566000000E+00 0.  1.
         13    1    4    4    0    0 -0.28411219366E+00 -0.61787609927E+01 -0.10048868553E+02  0.11800369925E+02  0.10566000000E+00 0. -1.
        -13    1    4    4    0    0 -0.11124089201E+01 -0.66666223212E+01 -0.10506632107E+02  0.12493269750E+02  0.10566000000E+00 0.  1.
        -14    1    4    4    0    0 -0.30768569265E-03 -0.12638156878E+02 -0.18547056436E+02  0.22443625193E+02  0.00000000000E+00 0.  1.
<mgrwt>
<rscale>  0 0.77548404E+02</rscale>
<asrwt>0</asrwt>
<pdfrwt beam="1">  1        2 0.75351356E-02 0.77548404E+02</pdfrwt>
<pdfrwt beam="2">  1       -1 0.47224563E-02 0.77548404E+02</pdfrwt>
<totfact> 0.16198175E+05</totfact>
</mgrwt>
</event>
<event>
 8    1  0.2676873E-024  0.7911646E+02  0.7818608E-02  0.1331578E+00
         -1   -1    0    0    0  501 -0.00000000000E+00  0.00000000000E+00  0.25364231823E+02  0.25364232324E+02  0.50400000000E-02 0.  1.
          2   -1    0    0  501    0  0.00000000000E+00 -0.00000000000E+00 -0.61695279806E+02  0.61695279858E+02  0.25500000000E-02 0. -1.
         24    2    1    2    0    0  0.17763568394E-14  0.71054273576E-14 -0.36331047983E+02  0.87059512182E+02  0.79116456024E+02 0.  0.
         66    2    3    3    0    0 -0.12483547519E+02 -0.37442135916E+02 -0.20661161106E+02  0.44594126049E+02  0.19999998068E+01 0.  0.
        -13    1    3    3    0    0  0.12483547519E+02  0.37442135916E+02 -0.15669886877E+02  0.42465386133E+02  0.10566000000E+00 0.  1.
         13    1    4    4    0    0 -0.26279459779E+01 -0.67279180017E+01 -0.42528994309E+01  0.83826784685E+01  0.10566000000E+00 0. -1.
        -13    1    4    4    0    0 -0.40215466002E+01 -0.14429594146E+02 -0.73861225487E+01  0.16701856023E+02  0.10566000000E+00 0.  1.
        -14    1    4    4    0    0 -0.58340549407E+01 -0.16284623768E+02 -0.90221391263E+01  0.19509591558E+02  0.00000000000E+00 0.  1.
<mgrwt>
<rscale>  0 0.79116456E+02</rscale>
<asrwt>0</asrwt>
<pdfrwt beam="1">  1        2 0.94915815E-02 0.79116456E+02</pdfrwt>
<pdfrwt beam="2">  1       -1 0.39021896E-02 0.79116456E+02</pdfrwt>
<totfact> 0.16146960E+05</totfact>
</mgrwt>
</event>
<event>
 8    1  0.2676873E-024  0.8718116E+02  0.7818608E-02  0.1309825E+00
          2   -1    0    0  501    0  0.00000000000E+00  0.00000000000E+00  0.43289696002E+03  0.43289696003E+03  0.25500000000E-02 0. -1.
         -1   -1    0    0    0  501 -0.00000000000E+00 -0.00000000000E+00 -0.43893536489E+01  0.43893565424E+01  0.50400000000E-02 0.  1.
         24    2    1    2    0    0 -0.17763568394E-14  0.00000000000E+00  0.42850760637E+03  0.43728631657E+03  0.87181155885E+02 0.  0.
         66    2    3    3    0    0  0.91434353858E+01 -0.42437231311E+02  0.19586031918E+03  0.20062349226E+03  0.20000007003E+01 0.  0.
        -13    1    3    3    0    0 -0.91434353858E+01  0.42437231311E+02  0.23264728719E+03  0.23666282432E+03  0.10566000000E+00 0.  1.
         13    1    4    4    0    0  0.24113221183E+01 -0.13684089165E+02  0.60331830714E+02  0.61911305365E+02  0.10566000000E+00 0. -1.
        -13    1    4    4    0    0  0.10276104342E+01 -0.31356833032E+01  0.15643602753E+02  0.15988182014E+02  0.10566000000E+00 0.  1.
        -14    1    4    4    0    0  0.57045028334E+01 -0.25617458842E+02  0.11988488572E+03  0.12272400488E+03  0.00000000000E+00 0.  1.
<mgrwt>
<rscale>  0 0.87181156E+02</rscale>
<asrwt>0</asrwt>
<pdfrwt beam="1">  1        2 0.66599530E-01 0.87181156E+02</pdfrwt>
<pdfrwt beam="2">  1       -1 0.67528543E-03 0.87181156E+02</pdfrwt>
<totfact> 0.23178315E+05</totfact>
</mgrwt>
</event>
<event>
 8    1  0.2676873E-024  0.7960301E+02  0.7818608E-02  0.1330182E+00
          2   -1    0    0  501    0  0.00000000000E+00  0.00000000000E+00  0.64424406260E+03  0.64424406261E+03  0.25500000000E-02 0. -1.
         -1   -1    0    0    0  501 -0.00000000000E+00 -0.00000000000E+00 -0.24589412853E+01  0.24589464504E+01  0.50400000000E-02 0.  1.
         24    2    1    2    0    0  0.17763568394E-14  0.00000000000E+00  0.64178512132E+03  0.64670300906E+03  0.79603014895E+02 0.  0.
         66    2    3    3    0    0 -0.11256371415E+02  0.97617933646E+00  0.63093040581E+03  0.63103473422E+03  0.19999995562E+01 0.  0.
        -13    1    3    3    0    0  0.11256371415E+02 -0.97617933646E+00  0.10854715511E+02  0.15668274838E+02  0.10566000000E+00 0.  1.
         13    1    4    4    0    0 -0.29596039904E+01 -0.23298030222E+00  0.15226576317E+03  0.15229473836E+03  0.10566000000E+00 0. -1.
        -13    1    4    4    0    0 -0.42928848889E+00  0.35402205561E+00  0.39408033276E+02  0.39412103102E+02  0.10566000000E+00 0.  1.
         14    1    4    4    0    0 -0.78674789356E+01  0.85513758307E+00  0.43925660936E+03  0.43932789276E+03  0.00000000000E+00 0. -1.
<mgrwt>
<rscale>  0 0.79603015E+02</rscale>
<asrwt>0</asrwt>
<pdfrwt beam="1">  1        2 0.99114509E-01 0.79603015E+02</pdfrwt>
<pdfrwt beam="2">  1       -1 0.37829891E-03 0.79603015E+02</pdfrwt>
<totfact> 0.33209474E+05</totfact>
</mgrwt>
</event>
<event>
 8    1  0.2676873E-024  0.8026613E+02  0.7818608E-02  0.1328298E+00
         -1   -1    0    0    0  501 -0.00000000000E+00  0.00000000000E+00  0.38475085957E+01  0.38475118967E+01  0.50400000000E-02 0.  1.
          2   -1    0    0  501    0  0.00000000000E+00 -0.00000000000E+00 -0.41862473699E+03  0.41862473699E+03  0.25500000000E-02 0. -1.
         24    2    1    2    0    0 -0.35527136788E-14  0.00000000000E+00 -0.41477722839E+03  0.42247224889E+03  0.80266131659E+02 0.  0.
         66    2    3    3    0    0  0.29797179191E+02  0.23311246536E+02 -0.27761544120E+03  0.28018854240E+03  0.19999994868E+01 0.  0.
        -13    1    3    3    0    0 -0.29797179191E+02 -0.23311246536E+02 -0.13716178720E+03  0.14228370649E+03  0.10566000000E+00 0.  1.
         13    1    4    4    0    0  0.10764273401E+02  0.85589166793E+01 -0.95491144705E+02  0.96476393578E+02  0.10566000000E+00 0. -1.
        -13    1    4    4    0    0  0.10355231127E+02  0.86124174925E+01 -0.10047044551E+03  0.10136925634E+03  0.10566000000E+00 0.  1.
        -14    1    4    4    0    0  0.86776746640E+01  0.61399123642E+01 -0.81653850985E+02  0.82342892480E+02  0.00000000000E+00 0.  1.
<mgrwt>
<rscale>  0 0.80266132E+02</rscale>
<asrwt>0</asrwt>
<pdfrwt beam="1">  1        2 0.64403770E-01 0.80266132E+02</pdfrwt>
<pdfrwt beam="2">  1       -1 0.59192499E-03 0.80266132E+02</pdfrwt>
<totfact> 0.28455771E+05</totfact>
</mgrwt>
</event>
<event>
 8    1  0.2676873E-024  0.7826165E+02  0.7818608E-02  0.1334058E+00
          2   -1    0    0  501    0  0.00000000000E+00  0.00000000000E+00  0.38604131203E+02  0.38604131287E+02  0.25500000000E-02 0. -1.
         -1   -1    0    0    0  501 -0.00000000000E+00 -0.00000000000E+00 -0.39664708837E+02  0.39664709157E+02  0.50400000000E-02 0.  1.
         24    2    1    2    0    0 -0.17763568394E-14  0.45102810375E-16 -0.10605776342E+01  0.78268840444E+02  0.78261654465E+02 0.  0.
         66    2    3    3    0    0 -0.13373789946E+02  0.21836569902E-01  0.36219957283E+02  0.38661919558E+02  0.19999960026E+01 0.  0.
        -13    1    3    3    0    0  0.13373789946E+02 -0.21836569902E-01 -0.37280534917E+02  0.39606920886E+02  0.10566000000E+00 0.  1.
         13    1    4    4    0    0 -0.43977840597E+01 -0.34549861803E+00  0.12840000882E+02  0.13577063770E+02  0.10566000000E+00 0. -1.
        -13    1    4    4    0    0 -0.54682785254E+01 -0.44599879604E+00  0.13876201440E+02  0.14921833513E+02  0.10566000000E+00 0.  1.
        -14    1    4    4    0    0 -0.35077273609E+01  0.81333398398E+00  0.95037549611E+01  0.10163022275E+02  0.00000000000E+00 0.  1.
<mgrwt>
<rscale>  0 0.78261654E+02</rscale>
<asrwt>0</asrwt>
<pdfrwt beam="1">  1        2 0.59390971E-02 0.78261654E+02</pdfrwt>
<pdfrwt beam="2">  1       -1 0.61022630E-02 0.78261654E+02</pdfrwt>
<totfact> 0.15037935E+05</totfact>
</mgrwt>
</event>
<event>
 8    1  0.2676873E-024  0.7740482E+02  0.7818608E-02  0.1336582E+00
          2   -1    0    0  501    0  0.00000000000E+00  0.00000000000E+00  0.19705636332E+03  0.19705636334E+03  0.25500000000E-02 0. -1.
         -1   -1    0    0    0  501 -0.00000000000E+00 -0.00000000000E+00 -0.76012589183E+01  0.76012605892E+01  0.50400000000E-02 0.  1.
         24    2    1    2    0    0  0.00000000000E+00  0.88817841970E-15  0.18945510441E+03  0.20465762393E+03  0.77404821860E+02 0.  0.
         66    2    3    3    0    0  0.31624317345E+02  0.73297600073E+01  0.15038040931E+03  0.15385737009E+03  0.19999994088E+01 0.  0.
        -13    1    3    3    0    0 -0.31624317345E+02 -0.73297600073E+01  0.39074695097E+02  0.50800253841E+02  0.10566000000E+00 0.  1.
         13    1    4    4    0    0  0.24622525059E+02  0.54081889611E+01  0.12020138587E+03  0.12281653625E+03  0.10566000000E+00 0. -1.
        -13    1    4    4    0    0  0.30905673889E+01  0.91384735220E+00  0.13331273019E+02  0.13715710996E+02  0.10566000000E+00 0. -1.
         14    1    4    4    0    0  0.39112248966E+01  0.10077236940E+01  0.16847750418E+02  0.17325122839E+02  0.00000000000E+00 0. -1.
<mgrwt>
<rscale>  0 0.77404822E+02</rscale>
<asrwt>0</asrwt>
<pdfrwt beam="1">  1        2 0.30316365E-01 0.77404822E+02</pdfrwt>
<pdfrwt beam="2">  1       -1 0.11694245E-02 0.77404822E+02</pdfrwt>
<totfact> 0.23937582E+05</totfact>
</mgrwt>
</event>
<event>
 8    1  0.2676873E-024  0.7997392E+02  0.7818608E-02  0.1329125E+00
         -1   -1    0    0    0  501 -0.00000000000E+00  0.00000000000E+00  0.91578665854E+02  0.91578665993E+02  0.50400000000E-02 0.  1.
          2   -1    0    0  501    0  0.00000000000E+00 -0.00000000000E+00 -0.17459928467E+02  0.17459928654E+02  0.25500000000E-02 0. -1.
         24    2    1    2    0    0  0.00000000000E+00  0.00000000000E+00  0.74118737387E+02  0.10903859465E+03  0.79973920066E+02 0.  0.
         66    2    3    3    0    0 -0.19264875027E+02 -0.31679811237E+02  0.16758447375E+02  0.40738083052E+02  0.20000006293E+01 0.  0.
        -13    1    3    3    0    0  0.19264875027E+02  0.31679811237E+02  0.57360290012E+02  0.68300511595E+02  0.10566000000E+00 0.  1.
         13    1    4    4    0    0 -0.19849911020E+01 -0.37150807282E+01  0.20031621046E+01  0.46653871163E+01  0.10566000000E+00 0. -1.
        -13    1    4    4    0    0 -0.55167969505E+01 -0.87748442706E+01  0.55171708733E+01  0.11742371100E+02  0.10566000000E+00 0.  1.
         14    1    4    4    0    0 -0.11763086974E+02 -0.19189886238E+02  0.92381143966E+01  0.24330324835E+02  0.00000000000E+00 0. -1.
<mgrwt>
<rscale>  0 0.79973920E+02</rscale>
<asrwt>0</asrwt>
<pdfrwt beam="1">  1        2 0.26861428E-02 0.79973920E+02</pdfrwt>
<pdfrwt beam="2">  1       -1 0.14089026E-01 0.79973920E+02</pdfrwt>
<totfact> 0.12085405E+05</totfact>
</mgrwt>
</event>
<event>
 8    1  0.2676873E-024  0.7873680E+02  0.7818608E-02  0.1332675E+00
         -1   -1    0    0    0  501 -0.00000000000E+00  0.00000000000E+00  0.16765415571E+01  0.16765491326E+01  0.50400000000E-02 0.  1.
          2   -1    0    0  501    0  0.00000000000E+00 -0.00000000000E+00 -0.92444315787E+03  0.92444315787E+03  0.25500000000E-02 0. -1.
         24    2    1    2    0    0 -0.71054273576E-14  0.00000000000E+00 -0.92276661631E+03  0.92611970701E+03  0.78736799043E+02 0.  0.
         66    2    3    3    0    0 -0.20308579825E+02 -0.17954744967E+02 -0.79706949892E+03  0.79753281900E+03  0.19999994343E+01 0.  0.
        -13    1    3    3    0    0  0.20308579825E+02  0.17954744967E+02 -0.12569711740E+03  0.12858688801E+03  0.10566000000E+00 0.  1.
         13    1    4    4    0    0 -0.58340527620E+01 -0.44642747531E+01 -0.20895092160E+03  0.20908004382E+03  0.10566000000E+00 0. -1.
        -13    1    4    4    0    0 -0.31958762169E+01 -0.35455129341E+01 -0.13127251083E+03  0.13135930705E+03  0.10566000000E+00 0.  1.
        -14    1    4    4    0    0 -0.11278650846E+02 -0.99449572795E+01 -0.45684606649E+03  0.45709346813E+03  0.00000000000E+00 0.  1.
<mgrwt>
<rscale>  0 0.78736799E+02</rscale>
<asrwt>0</asrwt>
<pdfrwt beam="1">  1        2 0.14222162E+00 0.78736799E+02</pdfrwt>
<pdfrwt beam="2">  1       -1 0.25793079E-03 0.78736799E+02</pdfrwt>
<totfact> 0.36519453E+05</totfact>
</mgrwt>
</event>
<event>
 8    1  0.2676873E-024  0.8034674E+02  0.7818608E-02  0.1328070E+00
         -1   -1    0    0    0  501 -0.00000000000E+00  0.00000000000E+00  0.40269547918E+01  0.40269579458E+01  0.50400000000E-02 0.  1.
          2   -1    0    0  501    0  0.00000000000E+00 -0.00000000000E+00 -0.40077401265E+03  0.40077401266E+03  0.25500000000E-02 0. -1.
         24    2    1    2    0    0  0.00000000000E+00  0.00000000000E+00 -0.39674705786E+03  0.40480097061E+03  0.80346735359E+02 0.  0.
         66    2    3    3    0    0 -0.31388691997E+02 -0.19291961012E+02 -0.27886483667E+03  0.28129526636E+03  0.19999998803E+01 0.  0.
        -13    1    3    3    0    0  0.31388691997E+02  0.19291961012E+02 -0.11788222119E+03  0.12350570425E+03  0.10566000000E+00 0.  1.
         13    1    4    4    0    0 -0.13117618227E+02 -0.83038551899E+01 -0.12002413555E+03  0.12102408932E+03  0.10566000000E+00 0. -1.
        -13    1    4    4    0    0 -0.10955205197E+02 -0.72688430089E+01 -0.10024075738E+03  0.10109932346E+03  0.10566000000E+00 0.  1.
         14    1    4    4    0    0 -0.73158685733E+01 -0.37192628128E+01 -0.58599943743E+02  0.59171853575E+02  0.00000000000E+00 0. -1.
<mgrwt>
<rscale>  0 0.80346735E+02</rscale>
<asrwt>0</asrwt>
<pdfrwt beam="1">  1        2 0.61657509E-01 0.80346735E+02</pdfrwt>
<pdfrwt beam="2">  1       -1 0.61953207E-03 0.80346735E+02</pdfrwt>
<totfact> 0.27955033E+05</totfact>
</mgrwt>
</event>
<event>
 8    1  0.2676873E-024  0.8113963E+02  0.7818608E-02  0.1325848E+00
          2   -1    0    0  501    0  0.00000000000E+00  0.00000000000E+00  0.47417562565E+03  0.47417562566E+03  0.25500000000E-02 0. -1.
         -1   -1    0    0    0  501 -0.00000000000E+00 -0.00000000000E+00 -0.34710957178E+01  0.34710993768E+01  0.50400000000E-02 0.  1.
         24    2    1    2    0    0 -0.35527136788E-14  0.44408920985E-15  0.47070452993E+03  0.47764672504E+03  0.81139629262E+02 0.  0.
         66    2    3    3    0    0  0.28950221114E+02 -0.27471512572E+01  0.40181363163E+03  0.40286952814E+03  0.19999990596E+01 0.  0.
        -13    1    3    3    0    0 -0.28950221114E+02  0.27471512572E+01  0.68890898302E+02  0.74777196895E+02  0.10566000000E+00 0.  1.
         13    1    4    4    0    0  0.11595361139E+02 -0.53970684089E+00  0.15898915629E+03  0.15941237928E+03  0.10566000000E+00 0. -1.
        -13    1    4    4    0    0  0.50338291153E+01 -0.55587974555E+00  0.78320875569E+02  0.78484515363E+02  0.10566000000E+00 0.  1.
         14    1    4    4    0    0  0.12321030860E+02 -0.16515646707E+01  0.16450359977E+03  0.16497263350E+03  0.00000000000E+00 0. -1.
<mgrwt>
<rscale>  0 0.81139629E+02</rscale>
<asrwt>0</asrwt>
<pdfrwt beam="1">  1        2 0.72950134E-01 0.81139629E+02</pdfrwt>
<pdfrwt beam="2">  1       -1 0.53401473E-03 0.81139629E+02</pdfrwt>
<totfact> 0.28849050E+05</totfact>
</mgrwt>
</event>
<event>
 8    1  0.2676873E-024  0.7988365E+02  0.7818608E-02  0.1329382E+00
          2   -1    0    0  501    0  0.00000000000E+00  0.00000000000E+00  0.20825174994E+03  0.20825174996E+03  0.25500000000E-02 0. -1.
         -1   -1    0    0    0  501 -0.00000000000E+00 -0.00000000000E+00 -0.76606759533E+01  0.76606776113E+01  0.50400000000E-02 0.  1.
         24    2    1    2    0    0  0.17763568394E-14  0.00000000000E+00  0.20059107399E+03  0.21591242757E+03  0.79883649233E+02 0.  0.
         66    2    3    3    0    0  0.13445596291E+02  0.33331639389E+02  0.14729445425E+03  0.15162927983E+03  0.20000010799E+01 0.  0.
        -13    1    3    3    0    0 -0.13445596291E+02 -0.33331639389E+02  0.53296619741E+02  0.64283147744E+02  0.10566000000E+00 0.  1.
         13    1    4    4    0    0  0.58965601606E+01  0.16670386568E+02  0.72263843427E+02  0.74395869784E+02  0.10566000000E+00 0. -1.
        -13    1    4    4    0    0  0.37513046248E+00  0.10451218798E+01  0.39088512041E+01  0.40648843008E+01  0.10566000000E+00 0.  1.
         14    1    4    4    0    0  0.71739056677E+01  0.15616130941E+02  0.71121759617E+02  0.73168525741E+02  0.00000000000E+00 0. -1.
<mgrwt>
<rscale>  0 0.79883649E+02</rscale>
<asrwt>0</asrwt>
<pdfrwt beam="1">  1        2 0.32038729E-01 0.79883649E+02</pdfrwt>
<pdfrwt beam="2">  1       -1 0.11785657E-02 0.79883649E+02</pdfrwt>
<totfact> 0.22457636E+05</totfact>
</mgrwt>
</event>
<event>
 8    1  0.2676873E-024  0.8032438E+02  0.7818608E-02  0.1328133E+00
          2   -1    0    0  501    0  0.00000000000E+00  0.00000000000E+00  0.23515766039E+03  0.23515766040E+03  0.25500000000E-02 0. -1.
         -1   -1    0    0    0  501 -0.00000000000E+00 -0.00000000000E+00 -0.68592327056E+01  0.68592345573E+01  0.50400000000E-02 0.  1.
         24    2    1    2    0    0  0.00000000000E+00  0.00000000000E+00  0.22829842768E+03  0.24201689496E+03  0.80324375898E+02 0.  0.
         66    2    3    3    0    0 -0.25639029018E+02 -0.21245980005E+01  0.20704361659E+03  0.20864547179E+03  0.20000006669E+01 0.  0.
        -13    1    3    3    0    0  0.25639029018E+02  0.21245980005E+01  0.21254811094E+02  0.33371423169E+02  0.10566000000E+00 0.  1.
         13    1    4    4    0    0 -0.13693978820E+02 -0.13066359348E+01  0.11162780337E+03  0.11247226326E+03  0.10566000000E+00 0. -1.
        -13    1    4    4    0    0 -0.39107507591E+01  0.23651268202E-01  0.35614643955E+02  0.35828878840E+02  0.10566000000E+00 0.  1.
        -14    1    4    4    0    0 -0.80342994391E+01 -0.84161333394E+00  0.59801169265E+02  0.60344329691E+02  0.00000000000E+00 0.  1.
<mgrwt>
<rscale>  0 0.80324376E+02</rscale>
<asrwt>0</asrwt>
<pdfrwt beam="1">  1        2 0.36178107E-01 0.80324376E+02</pdfrwt>
<pdfrwt beam="2">  1       -1 0.10552666E-02 0.80324376E+02</pdfrwt>
<totfact> 0.23104912E+05</totfact>
</mgrwt>
</event>
<event>
 8    1  0.2676873E-024  0.8113029E+02  0.7818608E-02  0.1325874E+00
         -1   -1    0    0    0  501 -0.00000000000E+00  0.00000000000E+00  0.10831244194E+02  0.10831245366E+02  0.50400000000E-02 0.  1.
          2   -1    0    0  501    0  0.00000000000E+00 -0.00000000000E+00 -0.15192446733E+03  0.15192446735E+03  0.25500000000E-02 0. -1.
         24    2    1    2    0    0  0.00000000000E+00  0.00000000000E+00 -0.14109322313E+03  0.16275571271E+03  0.81130292783E+02 0.  0.
         66    2    3    3    0    0  0.19478039639E+02  0.25356309834E+02 -0.12058882242E+03  0.12477179389E+03  0.19999953764E+01 0.  0.
        -13    1    3    3    0    0 -0.19478039639E+02 -0.25356309834E+02 -0.20504400714E+02  0.37983918824E+02  0.10566000000E+00 0.  1.
         13    1    4    4    0    0  0.76690612381E+01  0.10001381629E+02 -0.45137192915E+02  0.46863839823E+02  0.10566000000E+00 0. -1.
        -13    1    4    4    0    0  0.89977681615E+01  0.10857692649E+02 -0.55474934352E+02  0.57239224549E+02  0.10566000000E+00 0.  1.
        -14    1    4    4    0    0  0.28112102395E+01  0.44972355559E+01 -0.19976695152E+02  0.20668729518E+02  0.00000000000E+00 0.  1.
<mgrwt>
<rscale>  0 0.81130293E+02</rscale>
<asrwt>0</asrwt>
<pdfrwt beam="1">  1        2 0.23372993E-01 0.81130293E+02</pdfrwt>
<pdfrwt beam="2">  1       -1 0.16663455E-02 0.81130293E+02</pdfrwt>
<totfact> 0.19377271E+05</totfact>
</mgrwt>
</event>
<event>
 8    1  0.2676873E-024  0.8115085E+02  0.7818608E-02  0.1325817E+00
          2   -1    0    0  501    0  0.00000000000E+00  0.00000000000E+00  0.52660001061E+03  0.52660001061E+03  0.25500000000E-02 0. -1.
         -1   -1    0    0    0  501 -0.00000000000E+00 -0.00000000000E+00 -0.31264032319E+01  0.31264072943E+01  0.50400000000E-02 0.  1.
         24    2    1    2    0    0  0.00000000000E+00 -0.71054273576E-14  0.52347360737E+03  0.52972641791E+03  0.81150848491E+02 0.  0.
         66    2    3    3    0    0  0.18058815726E+02 -0.34465302567E+02  0.33643160883E+03  0.33868009293E+03  0.20000039029E+01 0.  0.
        -13    1    3    3    0    0 -0.18058815726E+02  0.34465302567E+02  0.18704199854E+03  0.19104632498E+03  0.10566000000E+00 0.  1.
         13    1    4    4    0    0  0.11245720217E+02 -0.21975417599E+02  0.20862590819E+03  0.21008133171E+03  0.10566000000E+00 0. -1.
        -13    1    4    4    0    0  0.18350508130E+01 -0.42904375180E+01  0.41897667883E+02  0.42156861881E+02  0.10566000000E+00 0.  1.
         14    1    4    4    0    0  0.49780446957E+01 -0.81994474498E+01  0.85908032764E+02  0.86441899336E+02  0.00000000000E+00 0. -1.
<mgrwt>
<rscale>  0 0.81150848E+02</rscale>
<asrwt>0</asrwt>
<pdfrwt beam="1">  1        2 0.81015262E-01 0.81150848E+02</pdfrwt>
<pdfrwt beam="2">  1       -1 0.48098617E-03 0.81150848E+02</pdfrwt>
<totfact> 0.29819362E+05</totfact>
</mgrwt>
</event>
<event>
 8    1  0.2676873E-024  0.7547068E+02  0.7818608E-02  0.1342420E+00
          2   -1    0    0  501    0  0.00000000000E+00  0.00000000000E+00  0.11617131713E+02  0.11617131993E+02  0.25500000000E-02 0. -1.
         -1   -1    0    0    0  501 -0.00000000000E+00 -0.00000000000E+00 -0.12257379136E+03  0.12257379146E+03  0.50400000000E-02 0.  1.
         24    2    1    2    0    0  0.00000000000E+00  0.88817841970E-15 -0.11095665965E+03  0.13419092345E+03  0.75470680518E+02 0.  0.
         66    2    3    3    0    0 -0.35450963639E+02  0.50069014234E+01 -0.34470617681E+02  0.49739957420E+02  0.19999990093E+01 0.  0.
        -13    1    3    3    0    0  0.35450963639E+02 -0.50069014234E+01 -0.76486041964E+02  0.84450966035E+02  0.10566000000E+00 0.  1.
         13    1    4    4    0    0 -0.16726935694E+02  0.19378237216E+01 -0.16224224365E+02  0.23383373554E+02  0.10566000000E+00 0. -1.
        -13    1    4    4    0    0 -0.20795734900E+01  0.32263582564E-01 -0.23686091684E+01  0.31539087284E+01  0.10566000000E+00 0.  1.
        -14    1    4    4    0    0 -0.16644454454E+02  0.30368141192E+01 -0.15877784148E+02  0.23202675137E+02  0.00000000000E+00 0.  1.
<mgrwt>
<rscale>  0 0.75470681E+02</rscale>
<asrwt>0</asrwt>
<pdfrwt beam="1">  1        2 0.17872511E-02 0.75470681E+02</pdfrwt>
<pdfrwt beam="2">  1       -1 0.18857506E-01 0.75470681E+02</pdfrwt>
<totfact> 0.13114101E+05</totfact>
</mgrwt>
</event>
<event>
 8    1  0.2676873E-024  0.7975574E+02  0.7818608E-02  0.1329746E+00
         -1   -1    0    0    0  501 -0.00000000000E+00  0.00000000000E+00  0.44641993539E+02  0.44641993823E+02  0.50400000000E-02 0.  1.
          2   -1    0    0  501    0  0.00000000000E+00 -0.00000000000E+00 -0.35622161560E+02  0.35622161651E+02  0.25500000000E-02 0. -1.
         24    2    1    2    0    0  0.35527136788E-14  0.00000000000E+00  0.90198319787E+01  0.80264155474E+02  0.79755735123E+02 0.  0.
         66    2    3    3    0    0 -0.30224393648E+02  0.19766304630E+02  0.21473027441E+02  0.42063186751E+02  0.20000005057E+01 0.  0.
        -13    1    3    3    0    0  0.30224393648E+02 -0.19766304630E+02 -0.12453195462E+02  0.38200968723E+02  0.10566000000E+00 0.  1.
         13    1    4    4    0    0 -0.81902058112E+01  0.62625790889E+01  0.61768895042E+01  0.12019338420E+02  0.10566000000E+00 0. -1.
        -13    1    4    4    0    0 -0.51386969311E+01  0.27829387731E+01  0.32430518806E+01  0.66842728774E+01  0.10566000000E+00 0.  1.
         14    1    4    4    0    0 -0.16895490906E+02  0.10720786768E+02  0.12053086056E+02  0.23359575453E+02  0.00000000000E+00 0. -1.
<mgrwt>
<rscale>  0 0.79755735E+02</rscale>
<asrwt>0</asrwt>
<pdfrwt beam="1">  1        2 0.54803326E-02 0.79755735E+02</pdfrwt>
<pdfrwt beam="2">  1       -1 0.68679991E-02 0.79755735E+02</pdfrwt>
<totfact> 0.14042028E+05</totfact>
</mgrwt>
</event>
<event>
 8    1  0.2676873E-024  0.8179118E+02  0.7818608E-02  0.1324044E+00
         -1   -1    0    0    0  501 -0.00000000000E+00  0.00000000000E+00  0.19097518448E+01  0.19097584953E+01  0.50400000000E-02 0.  1.
          2   -1    0    0  501    0  0.00000000000E+00 -0.00000000000E+00 -0.87574004496E+03  0.87574004496E+03  0.25500000000E-02 0. -1.
         24    2    1    2    0    0  0.00000000000E+00  0.17763568394E-14 -0.87383029311E+03  0.87764980346E+03  0.81791175232E+02 0.  0.
         66    2    3    3    0    0  0.16123122032E+02  0.10201863636E+02 -0.82501756206E+03  0.82524057753E+03  0.20000009584E+01 0.  0.
        -13    1    3    3    0    0 -0.16123122032E+02 -0.10201863636E+02 -0.48812731055E+02  0.52409225932E+02  0.10566000000E+00 0.  1.
         13    1    4    4    0    0  0.72733301978E+01  0.41726295443E+01 -0.33109180475E+03  0.33119798687E+03  0.10566000000E+00 0. -1.
        -13    1    4    4    0    0  0.24711239799E+01  0.21380433566E+01 -0.15526897264E+03  0.15530338925E+03  0.10566000000E+00 0.  1.
        -14    1    4    4    0    0  0.63786678543E+01  0.38911907350E+01 -0.33865678467E+03  0.33873920141E+03  0.00000000000E+00 0.  1.
<mgrwt>
<rscale>  0 0.81791175E+02</rscale>
<asrwt>0</asrwt>
<pdfrwt beam="1">  1        2 0.13472892E+00 0.81791175E+02</pdfrwt>
<pdfrwt beam="2">  1       -1 0.29380919E-03 0.81791175E+02</pdfrwt>
<totfact> 0.32885540E+05</totfact>
</mgrwt>
</event>
<event>
 8    1  0.2676873E-024  0.8073402E+02  0.7818608E-02  0.1326981E+00
         -1   -1    0    0    0  501 -0.00000000000E+00  0.00000000000E+00  0.20908540899E+01  0.20908601643E+01  0.50400000000E-02 0.  1.
          2   -1    0    0  501    0  0.00000000000E+00 -0.00000000000E+00 -0.77934332788E+03  0.77934332788E+03  0.25500000000E-02 0. -1.
         24    2    1    2    0    0  0.35527136788E-14  0.00000000000E+00 -0.77725247379E+03  0.78143418805E+03  0.80734021565E+02 0.  0.
         66    2    3    3    0    0 -0.24605181141E+02  0.24663639336E+02 -0.58575279418E+03  0.58679131379E+03  0.20000017494E+01 0.  0.
        -13    1    3    3    0    0  0.24605181141E+02 -0.24663639336E+02 -0.19149967961E+03  0.19464287426E+03  0.10566000000E+00 0.  1.
         13    1    4    4    0    0 -0.55706088569E+01  0.59688165404E+01 -0.13623282130E+03  0.13647729195E+03  0.10566000000E+00 0. -1.
        -13    1    4    4    0    0 -0.14827069483E+02  0.14447277879E+02 -0.35977052203E+03  0.36036565529E+03  0.10566000000E+00 0.  1.
        -14    1    4    4    0    0 -0.42075028004E+01  0.42475449160E+01 -0.89749450852E+02  0.89948366555E+02  0.00000000000E+00 0.  1.
<mgrwt>
<rscale>  0 0.80734022E+02</rscale>
<asrwt>0</asrwt>
<pdfrwt beam="1">  1        2 0.11989874E+00 0.80734022E+02</pdfrwt>
<pdfrwt beam="2">  1       -1 0.32167095E-03 0.80734022E+02</pdfrwt>
<totfact> 0.33402990E+05</totfact>
</mgrwt>
</event>
<event>
 8    1  0.2676873E-024  0.7890655E+02  0.7818608E-02  0.1332183E+00
          2   -1    0    0  501    0  0.00000000000E+00  0.00000000000E+00  0.46036692656E+03  0.46036692657E+03  0.25500000000E-02 0. -1.
         -1   -1    0    0    0  501 -0.00000000000E+00 -0.00000000000E+00 -0.33811288909E+01  0.33811326473E+01  0.50400000000E-02 0.  1.
         24    2    1    2    0    0  0.00000000000E+00  0.00000000000E+00  0.45698579767E+03  0.46374805921E+03  0.78906546964E+02 0.  0.
         66    2    3    3    0    0  0.16465672915E+02 -0.28803746594E+02  0.35383588073E+03  0.35539359124E+03  0.19999992278E+01 0.  0.
        -13    1    3    3    0    0 -0.16465672915E+02  0.28803746594E+02  0.10314991694E+03  0.10835446798E+03  0.10566000000E+00 0.  1.
         13    1    4    4    0    0  0.10267859175E+02 -0.18015644819E+02  0.22534015805E+03  0.22629226762E+03  0.10566000000E+00 0. -1.
        -13    1    4    4    0    0  0.13159404339E+01 -0.21978708815E+01  0.31216803364E+02  0.31321914244E+02  0.10566000000E+00 0.  1.
        -14    1    4    4    0    0  0.48818733057E+01 -0.85902308939E+01  0.97278919315E+02  0.97779409370E+02  0.00000000000E+00 0.  1.
<mgrwt>
<rscale>  0 0.78906547E+02</rscale>
<asrwt>0</asrwt>
<pdfrwt beam="1">  1        2 0.70825642E-01 0.78906547E+02</pdfrwt>
<pdfrwt beam="2">  1       -1 0.52017426E-03 0.78906547E+02</pdfrwt>
<totfact> 0.30725812E+05</totfact>
</mgrwt>
</event>
<event>
 8    1  0.2676873E-024  0.8320766E+02  0.7818608E-02  0.1320187E+00
         -1   -1    0    0    0  501 -0.00000000000E+00  0.00000000000E+00  0.76864236539E+01  0.76864253063E+01  0.50400000000E-02 0.  1.
          2   -1    0    0  501    0  0.00000000000E+00 -0.00000000000E+00 -0.22518643361E+03  0.22518643363E+03  0.25500000000E-02 0. -1.
         24    2    1    2    0    0  0.00000000000E+00  0.00000000000E+00 -0.21750000996E+03  0.23287285893E+03  0.83207656473E+02 0.  0.
         66    2    3    3    0    0 -0.23774000482E+02 -0.97637689340E+01 -0.20028929245E+03  0.20194141467E+03  0.20000021777E+01 0.  0.
        -13    1    3    3    0    0  0.23774000482E+02  0.97637689340E+01 -0.17210717512E+02  0.30931444260E+02  0.10566000000E+00 0.  1.
         13    1    4    4    0    0 -0.20253962779E+02 -0.83204190207E+01 -0.16603489083E+03  0.16747253064E+03  0.10566000000E+00 0. -1.
        -13    1    4    4    0    0 -0.33165315775E+01 -0.14250623244E+01 -0.31351577840E+02  0.31558878013E+02  0.10566000000E+00 0.  1.
        -14    1    4    4    0    0 -0.20350612525E+00 -0.18287588898E-01 -0.29028237731E+01  0.29100060200E+01  0.00000000000E+00 0.  1.
<mgrwt>
<rscale>  0 0.83207656E+02</rscale>
<asrwt>0</asrwt>
<pdfrwt beam="1">  1        2 0.34644062E-01 0.83207656E+02</pdfrwt>
<pdfrwt beam="2">  1       -1 0.11825270E-02 0.83207656E+02</pdfrwt>
<totfact> 0.20729964E+05</totfact>
</mgrwt>
</event>
<event>
 8    1  0.2676873E-024  0.8039226E+02  0.7818608E-02  0.1327942E+00
         -1   -1    0    0    0  501 -0.00000000000E+00  0.00000000000E+00  0.47475719618E+01  0.47475746370E+01  0.50400000000E-02 0.  1.
          2   -1    0    0  501    0  0.00000000000E+00 -0.00000000000E+00 -0.34032735264E+03  0.34032735265E+03  0.25500000000E-02 0. -1.
         24    2    1    2    0    0  0.00000000000E+00 -0.35527136788E-14 -0.33557978068E+03  0.34507492728E+03  0.80392264813E+02 0.  0.
         66    2    3    3    0    0  0.28196733538E+01  0.19611008465E+02 -0.31789277766E+03  0.31851587138E+03  0.20000052522E+01 0.  0.
        -13    1    3    3    0    0 -0.28196733538E+01 -0.19611008465E+02 -0.17687003015E+02  0.26559055905E+02  0.10566000000E+00 0.  1.
         13    1    4    4    0    0  0.94293397861E+00  0.63540799702E+01 -0.10564345691E+03  0.10583862532E+03  0.10566000000E+00 0. -1.
        -13    1    4    4    0    0 -0.14533783957E+00  0.41175860756E+01 -0.66907972041E+02  0.67034793390E+02  0.10566000000E+00 0.  1.
         14    1    4    4    0    0  0.20220772148E+01  0.91393424196E+01 -0.14534134870E+03  0.14564245267E+03  0.00000000000E+00 0. -1.
<mgrwt>
<rscale>  0 0.80392265E+02</rscale>
<asrwt>0</asrwt>
<pdfrwt beam="1">  1        2 0.52358035E-01 0.80392265E+02</pdfrwt>
<pdfrwt beam="2">  1       -1 0.73039616E-03 0.80392265E+02</pdfrwt>
<totfact> 0.26341239E+05</totfact>
</mgrwt>
</event>
<event>
 8    1  0.2676873E-024  0.8138313E+02  0.7818608E-02  0.1325172E+00
         -1   -1    0    0    0  501 -0.00000000000E+00  0.00000000000E+00  0.18237142851E+01  0.18237212494E+01  0.50400000000E-02 0.  1.
          2   -1    0    0  501    0  0.00000000000E+00 -0.00000000000E+00 -0.90792742203E+03  0.90792742203E+03  0.25500000000E-02 0. -1.
         24    2    1    2    0    0  0.00000000000E+00  0.17763568394E-14 -0.90610370774E+03  0.90975114328E+03  0.81383127954E+02 0.  0.
         66    2    3    3    0    0  0.13365676196E+02  0.97637164080E+01 -0.86856600470E+03  0.86872600742E+03  0.19999993902E+01 0.  0.
        -13    1    3    3    0    0 -0.13365676196E+02 -0.97637164080E+01 -0.37537703047E+02  0.41025135860E+02  0.10566000000E+00 0.  1.
         13    1    4    4    0    0  0.45083750156E+01  0.33654991890E+01 -0.27562575178E+03  0.27568318454E+03  0.10566000000E+00 0. -1.
        -13    1    4    4    0    0  0.83727949299E+01  0.56995519586E+01 -0.55999868176E+03  0.56009028141E+03  0.10566000000E+00 0.  1.
        -14    1    4    4    0    0  0.48450625020E+00  0.69866526042E+00 -0.32941571149E+02  0.32952541468E+02  0.00000000000E+00 0.  1.
<mgrwt>
<rscale>  0 0.81383128E+02</rscale>
<asrwt>0</asrwt>
<pdfrwt beam="1">  1        2 0.13968078E+00 0.81383128E+02</pdfrwt>
<pdfrwt beam="2">  1       -1 0.28057269E-03 0.81383128E+02</pdfrwt>
<totfact> 0.33455439E+05</totfact>
</mgrwt>
</event>
<event>
 8    1  0.2676873E-024  0.7894825E+02  0.7818608E-02  0.1332063E+00
         -1   -1    0    0    0  501 -0.00000000000E+00  0.00000000000E+00  0.35183467889E+01  0.35183503988E+01  0.50400000000E-02 0.  1.
          2   -1    0    0  501    0  0.00000000000E+00 -0.00000000000E+00 -0.44288003295E+03  0.44288003296E+03  0.25500000000E-02 0. -1.
         24    2    1    2    0    0 -0.35527136788E-14  0.22204460493E-15 -0.43936168616E+03  0.44639838336E+03  0.78948245051E+02 0.  0.
         66    2    3    3    0    0  0.20158299387E+02 -0.18995616993E+01 -0.41125458980E+03  0.41175757795E+03  0.20000012999E+01 0.  0.
        -13    1    3    3    0    0 -0.20158299387E+02  0.18995616993E+01 -0.28107096365E+02  0.34640805402E+02  0.10566000000E+00 0.  1.
         13    1    4    4    0    0  0.10069345356E+02 -0.61544357218E+00 -0.19415279085E+03  0.19441473156E+03  0.10566000000E+00 0. -1.
        -13    1    4    4    0    0  0.19171652524E+01 -0.11408628790E+00 -0.32925348617E+02  0.32981483955E+02  0.10566000000E+00 0.  1.
         14    1    4    4    0    0  0.81717887779E+01 -0.11700318393E+01 -0.18417645033E+03  0.18436136244E+03  0.00000000000E+00 0. -1.
<mgrwt>
<rscale>  0 0.78948245E+02</rscale>
<asrwt>0</asrwt>
<pdfrwt beam="1">  1        2 0.68135345E-01 0.78948245E+02</pdfrwt>
<pdfrwt beam="2">  1       -1 0.54128475E-03 0.78948245E+02</pdfrwt>
<totfact> 0.30288336E+05</totfact>
</mgrwt>
</event>
<event>
 8    1  0.2799003E-024  0.7963464E+02  0.7818608E-02  0.1330091E+00
          2   -1    0    0  501    0  0.00000000000E+00  0.00000000000E+00  0.78407761213E+03  0.78407761213E+03  0.25500000000E-02 0. -1.
         -1   -1    0    0    0  501 -0.00000000000E+00 -0.00000000000E+00 -0.20220146862E+01  0.20220209674E+01  0.50400000000E-02 0.  1.
         24    2    1    2    0    0  0.00000000000E+00  0.88817841970E-15  0.78205559744E+03  0.78609963310E+03  0.79634638627E+02 0.  0.
         66    2    3    3    0    0 -0.24274994006E+02  0.76160269639E+01  0.69330005304E+03  0.69376958909E+03  0.20000001302E+01 0.  0.
        -13    1    3    3    0    0  0.24274994006E+02 -0.76160269639E+01  0.88755544404E+02  0.92330044012E+02  0.10566000000E+00 0.  1.
         13    1    4    4    0    0 -0.15945335380E+02  0.50395090797E+01  0.44971780905E+03  0.45002863166E+03  0.10566000000E+00 0. -1.
        -13    1    4    4    0    0 -0.59811413733E+01  0.21565075162E+01  0.16493531583E+03  0.16505785091E+03  0.10566000000E+00 0.  1.
        -14    1    4    4    0    0 -0.23485172525E+01  0.42001036797E+00  0.78646928166E+02  0.78683106522E+02  0.00000000000E+00 0.  1.
<mgrwt>
<rscale>  0 0.79634639E+02</rscale>
<asrwt>0</asrwt>
<pdfrwt beam="1">  1        2 0.12062741E+00 0.79634639E+02</pdfrwt>
<pdfrwt beam="2">  1       -1 0.31107945E-03 0.79634639E+02</pdfrwt>
<totfact> 0.34653030E+05</totfact>
</mgrwt>
</event>
<event>
 8    1  0.2676873E-024  0.7642727E+02  0.7818608E-02  0.1339507E+00
         -1   -1    0    0    0  501 -0.00000000000E+00  0.00000000000E+00  0.94873449341E+00  0.94874788041E+00  0.50400000000E-02 0.  1.
          2   -1    0    0  501    0  0.00000000000E+00 -0.00000000000E+00 -0.15391783433E+04  0.15391783433E+04  0.25500000000E-02 0. -1.
         24    2    1    2    0    0  0.88817841970E-15 -0.17763568394E-14 -0.15382296088E+04  0.15401270911E+04  0.76427269904E+02 0.  0.
         66    2    3    3    0    0 -0.71604219234E+01 -0.83448451762E+01 -0.15065829010E+04  0.15066243545E+04  0.20000089690E+01 0.  0.
        -13    1    3    3    0    0  0.71604219234E+01  0.83448451762E+01 -0.31646707776E+02  0.33502736608E+02  0.10566000000E+00 0.  1.
         13    1    4    4    0    0 -0.19138366483E+01 -0.13036802392E+01 -0.26812628886E+03  0.26813630917E+03  0.10566000000E+00 0.  1.
        -13    1    4    4    0    0 -0.23385727743E+01 -0.38538731068E+01 -0.63106865051E+03  0.63108475982E+03  0.10566000000E+00 0. -1.
         14    1    4    4    0    0 -0.29080125009E+01 -0.31872918301E+01 -0.60738796163E+03  0.60740328555E+03  0.00000000000E+00 0. -1.
<mgrwt>
<rscale>  0 0.76427270E+02</rscale>
<asrwt>0</asrwt>
<pdfrwt beam="1">  1        2 0.23679467E+00 0.76427270E+02</pdfrwt>
<pdfrwt beam="2">  1       -1 0.14596142E-03 0.76427270E+02</pdfrwt>
<totfact> 0.37054953E+05</totfact>
</mgrwt>
</event>
<event>
 8    1  0.2676873E-024  0.7707632E+02  0.7818608E-02  0.1337559E+00
         -1   -1    0    0    0  501 -0.00000000000E+00  0.00000000000E+00  0.36368129782E+02  0.36368130131E+02  0.50400000000E-02 0.  1.
          2   -1    0    0  501    0  0.00000000000E+00 -0.00000000000E+00 -0.40837672290E+02  0.40837672370E+02  0.25500000000E-02 0. -1.
         24    2    1    2    0    0  0.00000000000E+00  0.88817841970E-15 -0.44695425078E+01  0.77205802501E+02  0.77076320161E+02 0.  0.
         66    2    3    3    0    0  0.21244033000E+02 -0.56013150628E+01 -0.33920109242E+02  0.40463038404E+02  0.19999993353E+01 0.  0.
        -13    1    3    3    0    0 -0.21244033000E+02  0.56013150628E+01  0.29450566734E+02  0.36742764098E+02  0.10566000000E+00 0.  1.
         13    1    4    4    0    0  0.71468819497E+01 -0.12211493603E+01 -0.11568054226E+02  0.13652844758E+02  0.10566000000E+00 0. -1.
        -13    1    4    4    0    0  0.65536857769E+01 -0.24110198162E+01 -0.97970337028E+01  0.12031493973E+02  0.10566000000E+00 0.  1.
        -14    1    4    4    0    0  0.75434652732E+01 -0.19691458863E+01 -0.12555021313E+02  0.14778699673E+02  0.00000000000E+00 0.  1.
<mgrwt>
<rscale>  0 0.77076320E+02</rscale>
<asrwt>0</asrwt>
<pdfrwt beam="1">  1        2 0.62827188E-02 0.77076320E+02</pdfrwt>
<pdfrwt beam="2">  1       -1 0.55950969E-02 0.77076320E+02</pdfrwt>
<totfact> 0.15862023E+05</totfact>
</mgrwt>
</event>
<event>
 8    1  0.2676873E-024  0.8229590E+02  0.7818608E-02  0.1322659E+00
         -1   -1    0    0    0  501 -0.00000000000E+00  0.00000000000E+00  0.21109868188E+02  0.21109868789E+02  0.50400000000E-02 0.  1.
          2   -1    0    0  501    0  0.00000000000E+00 -0.00000000000E+00 -0.80206740768E+02  0.80206740808E+02  0.25500000000E-02 0. -1.
         24    2    1    2    0    0 -0.35527136788E-14  0.00000000000E+00 -0.59096872580E+02  0.10131660960E+03  0.82295899240E+02 0.  0.
         66    2    3    3    0    0 -0.29502647511E+02 -0.39089204470E+00 -0.64832594036E+02  0.71258854003E+02  0.20000044210E+01 0.  0.
        -13    1    3    3    0    0  0.29502647511E+02  0.39089204470E+00  0.57357214557E+01  0.30057755595E+02  0.10566000000E+00 0.  1.
         13    1    4    4    0    0 -0.10457728243E+02 -0.77760603265E+00 -0.21854817478E+02  0.24240729407E+02  0.10566000000E+00 0. -1.
        -13    1    4    4    0    0 -0.12215800793E+02  0.14692311400E+00 -0.28535790800E+02  0.31041100110E+02  0.10566000000E+00 0.  1.
         14    1    4    4    0    0 -0.68291184746E+01  0.23979087395E+00 -0.14441985757E+02  0.15977024486E+02  0.00000000000E+00 0. -1.
<mgrwt>
<rscale>  0 0.82295899E+02</rscale>
<asrwt>0</asrwt>
<pdfrwt beam="1">  1        2 0.12339498E-01 0.82295899E+02</pdfrwt>
<pdfrwt beam="2">  1       -1 0.32476721E-02 0.82295899E+02</pdfrwt>
<totfact> 0.15477738E+05</totfact>
</mgrwt>
</event>
<event>
 8    1  0.2676873E-024  0.8013303E+02  0.7818608E-02  0.1328674E+00
         -1   -1    0    0    0  501 -0.00000000000E+00  0.00000000000E+00  0.45739185139E+02  0.45739185417E+02  0.50400000000E-02 0.  1.
          2   -1    0    0  501    0  0.00000000000E+00 -0.00000000000E+00 -0.35097382783E+02  0.35097382876E+02  0.25500000000E-02 0. -1.
         24    2    1    2    0    0  0.35527136788E-14  0.00000000000E+00  0.10641802356E+02  0.80836568292E+02  0.80133031990E+02 0.  0.
         66    2    3    3    0    0  0.29281463623E+02  0.36896564750E+01 -0.21974477885E+02  0.36849631849E+02  0.20000030661E+01 0.  0.
        -13    1    3    3    0    0 -0.29281463623E+02 -0.36896564750E+01  0.32616280241E+02  0.43986936443E+02  0.10566000000E+00 0.  1.
         13    1    4    4    0    0  0.16145847517E+02  0.12506385033E+01 -0.11534461717E+02  0.19882340401E+02  0.10566000000E+00 0. -1.
        -13    1    4    4    0    0  0.11289481055E+02  0.19225390706E+01 -0.91127688812E+01  0.14635650300E+02  0.10566000000E+00 0.  1.
        -14    1    4    4    0    0  0.18461350511E+01  0.51647890108E+00 -0.13272472873E+01  0.23316411482E+01  0.00000000000E+00 0.  1.
<mgrwt>
<rscale>  0 0.80133032E+02</rscale>
<asrwt>0</asrwt>
<pdfrwt beam="1">  1        2 0.53995974E-02 0.80133032E+02</pdfrwt>
<pdfrwt beam="2">  1       -1 0.70367978E-02 0.80133032E+02</pdfrwt>
<totfact> 0.13817739E+05</totfact>
</mgrwt>
</event>
<event>
 8    1  0.2676873E-024  0.8011509E+02  0.7818608E-02  0.1328725E+00
          2   -1    0    0  501    0  0.00000000000E+00  0.00000000000E+00  0.22892711422E+02  0.22892711564E+02  0.25500000000E-02 0. -1.
         -1   -1    0    0    0  501 -0.00000000000E+00 -0.00000000000E+00 -0.70092478539E+02  0.70092478720E+02  0.50400000000E-02 0.  1.
         24    2    1    2    0    0  0.00000000000E+00 -0.17763568394E-14 -0.47199767117E+02  0.92985190284E+02  0.80115089692E+02 0.  0.
         66    2    3    3    0    0 -0.18022878524E+01  0.12026421809E+02  0.20653358232E+02  0.24050867580E+02  0.19999905203E+01 0.  0.
        -13    1    3    3    0    0  0.18022878524E+01 -0.12026421809E+02 -0.67853125349E+02  0.68934322704E+02  0.10566000000E+00 0.  1.
         13    1    4    4    0    0 -0.44269137134E+00  0.36017432703E+01  0.60110408553E+01  0.70222721704E+01  0.10566000000E+00 0. -1.
        -13    1    4    4    0    0 -0.87412442465E-02  0.43300489524E+01  0.82528295898E+01  0.93203948743E+01  0.10566000000E+00 0.  1.
        -14    1    4    4    0    0 -0.13508552368E+01  0.40946295860E+01  0.63894877866E+01  0.77082005353E+01  0.00000000000E+00 0.  1.
<mgrwt>
<rscale>  0 0.80115090E+02</rscale>
<asrwt>0</asrwt>
<pdfrwt beam="1">  1        2 0.35219556E-02 0.80115090E+02</pdfrwt>
<pdfrwt beam="2">  1       -1 0.10783458E-01 0.80115090E+02</pdfrwt>
<totfact> 0.12704056E+05</totfact>
</mgrwt>
</event>
<event>
 8    1  0.2676873E-024  0.7780168E+02  0.7818608E-02  0.1335408E+00
          2   -1    0    0  501    0  0.00000000000E+00  0.00000000000E+00  0.73522101471E+03  0.73522101472E+03  0.25500000000E-02 0. -1.
         -1   -1    0    0    0  501 -0.00000000000E+00 -0.00000000000E+00 -0.20582558745E+01  0.20582620452E+01  0.50400000000E-02 0.  1.
         24    2    1    2    0    0  0.00000000000E+00  0.00000000000E+00  0.73316275884E+03  0.73727927676E+03  0.77801677334E+02 0.  0.
         66    2    3    3    0    0  0.15792697030E+01  0.34049127598E+02  0.54396640250E+03  0.54503695677E+03  0.20000014157E+01 0.  0.
        -13    1    3    3    0    0 -0.15792697030E+01 -0.34049127598E+02  0.18919635633E+03  0.19224231999E+03  0.10566000000E+00 0.  1.
         13    1    4    4    0    0  0.66131861038E+00  0.20044667164E+02  0.31651752370E+03  0.31715229780E+03  0.10566000000E+00 0. -1.
        -13    1    4    4    0    0 -0.13746270007E+00  0.21102518674E+01  0.39723677660E+02  0.39780067745E+02  0.10566000000E+00 0.  1.
        -14    1    4    4    0    0  0.10554137927E+01  0.11894208567E+02  0.18772520115E+03  0.18810459123E+03  0.00000000000E+00 0.  1.
<mgrwt>
<rscale>  0 0.77801677E+02</rscale>
<asrwt>0</asrwt>
<pdfrwt beam="1">  1        2 0.11311092E+00 0.77801677E+02</pdfrwt>
<pdfrwt beam="2">  1       -1 0.31665524E-03 0.77801677E+02</pdfrwt>
<totfact> 0.36349738E+05</totfact>
</mgrwt>
</event>
<event>
 8    1  0.2676873E-024  0.8071810E+02  0.7818608E-02  0.1327026E+00
         -1   -1    0    0    0  501 -0.00000000000E+00  0.00000000000E+00  0.20392584075E+01  0.20392646357E+01  0.50400000000E-02 0.  1.
          2   -1    0    0  501    0  0.00000000000E+00 -0.00000000000E+00 -0.79874640685E+03  0.79874640685E+03  0.25500000000E-02 0. -1.
         24    2    1    2    0    0  0.00000000000E+00  0.88817841970E-15 -0.79670714844E+03  0.80078567149E+03  0.80718097623E+02 0.  0.
         66    2    3    3    0    0 -0.17560095679E+02  0.79077436236E+01 -0.75018462131E+03  0.75043444445E+03  0.19999996490E+01 0.  0.
        -13    1    3    3    0    0  0.17560095679E+02 -0.79077436236E+01 -0.46522527128E+02  0.50351227035E+02  0.10566000000E+00 0.  1.
         13    1    4    4    0    0 -0.47816851400E+01  0.19315386580E+01 -0.18201324817E+03  0.18208632301E+03  0.10566000000E+00 0. -1.
        -13    1    4    4    0    0 -0.17197613772E+01  0.51241004202E+00 -0.59080373365E+02  0.59107713746E+02  0.10566000000E+00 0.  1.
         14    1    4    4    0    0 -0.11058649162E+02  0.54637949236E+01 -0.50909099978E+03  0.50924040770E+03  0.00000000000E+00 0. -1.
<mgrwt>
<rscale>  0 0.80718098E+02</rscale>
<asrwt>0</asrwt>
<pdfrwt beam="1">  1        2 0.12288381E+00 0.80718098E+02</pdfrwt>
<pdfrwt beam="2">  1       -1 0.31373318E-03 0.80718098E+02</pdfrwt>
<totfact> 0.33567635E+05</totfact>
</mgrwt>
</event>
<event>
 8    1  0.2676873E-024  0.7791913E+02  0.7818608E-02  0.1335063E+00
          2   -1    0    0  501    0  0.00000000000E+00  0.00000000000E+00  0.17142303199E+03  0.17142303201E+03  0.25500000000E-02 0. -1.
         -1   -1    0    0    0  501 -0.00000000000E+00 -0.00000000000E+00 -0.88543972634E+01  0.88543986978E+01  0.50400000000E-02 0.  1.
         24    2    1    2    0    0  0.00000000000E+00  0.00000000000E+00  0.16256863472E+03  0.18027743070E+03  0.77919131317E+02 0.  0.
         66    2    3    3    0    0  0.11096600755E+02 -0.11996295313E+02  0.16309815882E+03  0.16392698088E+03  0.20000001988E+01 0.  0.
        -13    1    3    3    0    0 -0.11096600755E+02  0.11996295313E+02 -0.52952409817E+00  0.16350449821E+02  0.10566000000E+00 0.  1.
         13    1    4    4    0    0  0.75501689109E+01 -0.85413472721E+01  0.11381713288E+03  0.11438667127E+03  0.10566000000E+00 0. -1.
        -13    1    4    4    0    0  0.16953223215E+01 -0.13293507626E+01  0.25989515504E+02  0.26078868292E+02  0.10566000000E+00 0.  1.
         14    1    4    4    0    0  0.18511095222E+01 -0.21255972780E+01  0.23291510443E+02  0.23461441323E+02  0.00000000000E+00 0. -1.
<mgrwt>
<rscale>  0 0.77919131E+02</rscale>
<asrwt>0</asrwt>
<pdfrwt beam="1">  1        2 0.26372775E-01 0.77919131E+02</pdfrwt>
<pdfrwt beam="2">  1       -1 0.13622151E-02 0.77919131E+02</pdfrwt>
<totfact> 0.22436991E+05</totfact>
</mgrwt>
</event>
<event>
 8    1  0.2676873E-024  0.7905407E+02  0.7818608E-02  0.1331757E+00
         -1   -1    0    0    0  501 -0.00000000000E+00  0.00000000000E+00  0.19102387922E+01  0.19102454410E+01  0.50400000000E-02 0.  1.
          2   -1    0    0  501    0  0.00000000000E+00 -0.00000000000E+00 -0.81789966756E+03  0.81789966756E+03  0.25500000000E-02 0. -1.
         24    2    1    2    0    0  0.00000000000E+00  0.17763568394E-14 -0.81598942876E+03  0.81980991300E+03  0.79054067577E+02 0.  0.
         66    2    3    3    0    0 -0.30840516132E+01 -0.11500102996E+02 -0.79884558295E+03  0.79893681173E+03  0.19999995606E+01 0.  0.
        -13    1    3    3    0    0  0.30840516132E+01  0.11500102996E+02 -0.17143845813E+02  0.20873101268E+02  0.10566000000E+00 0.  1.
         13    1    4    4    0    0 -0.14202779960E+01 -0.80553416785E+01 -0.54123452537E+03  0.54129634059E+03  0.10566000000E+00 0. -1.
        -13    1    4    4    0    0 -0.11329310231E+01 -0.22107256653E+01 -0.18811800767E+03  0.18813443814E+03  0.10566000000E+00 0.  1.
        -14    1    4    4    0    0 -0.53084259413E+00 -0.12340356518E+01 -0.69493049908E+02  0.69506033000E+02  0.00000000000E+00 0.  1.
<mgrwt>
<rscale>  0 0.79054068E+02</rscale>
<asrwt>0</asrwt>
<pdfrwt beam="1">  1        2 0.12583044E+00 0.79054068E+02</pdfrwt>
<pdfrwt beam="2">  1       -1 0.29388406E-03 0.79054068E+02</pdfrwt>
<totfact> 0.35574583E+05</totfact>
</mgrwt>
</event>
<event>
 8    1  0.2676873E-024  0.7843310E+02  0.7818608E-02  0.1333558E+00
          2   -1    0    0  501    0  0.00000000000E+00  0.00000000000E+00  0.15347461563E+03  0.15347461565E+03  0.25500000000E-02 0. -1.
         -1   -1    0    0    0  501 -0.00000000000E+00 -0.00000000000E+00 -0.10020795061E+02  0.10020796329E+02  0.50400000000E-02 0.  1.
         24    2    1    2    0    0  0.00000000000E+00  0.00000000000E+00  0.14345382056E+03  0.16349541198E+03  0.78433099534E+02 0.  0.
         66    2    3    3    0    0  0.37264542493E+01  0.24068290198E+02  0.13577749529E+03  0.13795904207E+03  0.20000015062E+01 0.  0.
        -13    1    3    3    0    0 -0.37264542493E+01 -0.24068290198E+02  0.76763252718E+01  0.25536369907E+02  0.10566000000E+00 0.  1.
         13    1    4    4    0    0  0.29437642080E+01  0.16955699457E+02  0.92101698767E+02  0.93695760691E+02  0.10566000000E+00 0. -1.
        -13    1    4    4    0    0  0.23657824418E+00  0.23295199611E+01  0.16249718806E+02  0.16417891394E+02  0.10566000000E+00 0.  1.
         14    1    4    4    0    0  0.54611179713E+00  0.47830707805E+01  0.27426077720E+02  0.27845389983E+02  0.00000000000E+00 0. -1.
<mgrwt>
<rscale>  0 0.78433100E+02</rscale>
<asrwt>0</asrwt>
<pdfrwt beam="1">  1        2 0.23611478E-01 0.78433100E+02</pdfrwt>
<pdfrwt beam="2">  1       -1 0.15416609E-02 0.78433100E+02</pdfrwt>
<totfact> 0.21264558E+05</totfact>
</mgrwt>
</event>
<event>
 8    1  0.2676873E-024  0.7966247E+02  0.7818608E-02  0.1330012E+00
          2   -1    0    0  501    0  0.00000000000E+00  0.00000000000E+00  0.13752870156E+03  0.13752870158E+03  0.25500000000E-02 0. -1.
         -1   -1    0    0    0  501 -0.00000000000E+00 -0.00000000000E+00 -0.11535970447E+02  0.11535971548E+02  0.50400000000E-02 0.  1.
         24    2    1    2    0    0  0.00000000000E+00  0.00000000000E+00  0.12599273111E+03  0.14906467313E+03  0.79662465960E+02 0.  0.
         66    2    3    3    0    0  0.22703146542E+02  0.28339283562E+01  0.12398832941E+03  0.12609746165E+03  0.19999985680E+01 0.  0.
        -13    1    3    3    0    0 -0.22703146542E+02 -0.28339283562E+01  0.20044017084E+01  0.22967211478E+02  0.10566000000E+00 0.  1.
         13    1    4    4    0    0  0.12481943472E+02  0.14057109574E+01  0.73082053119E+02  0.74153709201E+02  0.10566000000E+00 0. -1.
        -13    1    4    4    0    0  0.18675935869E+01  0.16902144993E+00  0.97998846808E+01  0.99782452289E+01  0.10566000000E+00 0. -1.
         14    1    4    4    0    0  0.83536094828E+01  0.12591959488E+01  0.41106391605E+02  0.41965507224E+02  0.00000000000E+00 0. -1.
<mgrwt>
<rscale>  0 0.79662466E+02</rscale>
<asrwt>0</asrwt>
<pdfrwt beam="1">  1        2 0.21158262E-01 0.79662466E+02</pdfrwt>
<pdfrwt beam="2">  1       -1 0.17747648E-02 0.79662466E+02</pdfrwt>
<totfact> 0.19704825E+05</totfact>
</mgrwt>
</event>
<event>
 8    1  0.2676873E-024  0.7354975E+02  0.7818608E-02  0.1348422E+00
          2   -1    0    0  501    0  0.00000000000E+00  0.00000000000E+00  0.57403690425E+03  0.57403690426E+03  0.25500000000E-02 0. -1.
         -1   -1    0    0    0  501 -0.00000000000E+00 -0.00000000000E+00 -0.23559285586E+01  0.23559339496E+01  0.50400000000E-02 0.  1.
         24    2    1    2    0    0  0.00000000000E+00  0.00000000000E+00  0.57168097569E+03  0.57639283821E+03  0.73549751644E+02 0.  0.
         66    2    3    3    0    0 -0.18777414021E+02  0.17384999664E+02  0.49273379049E+03  0.49340188264E+03  0.20000024572E+01 0.  0.
        -13    1    3    3    0    0  0.18777414021E+02 -0.17384999664E+02  0.78947185202E+02  0.82990955568E+02  0.10566000000E+00 0.  1.
         13    1    4    4    0    0 -0.87793306639E+01  0.73789101038E+01  0.22980017158E+03  0.23008619034E+03  0.10566000000E+00 0. -1.
        -13    1    4    4    0    0 -0.47245750826E+01  0.41866417574E+01  0.11163567992E+03  0.11181406788E+03  0.10566000000E+00 0.  1.
         14    1    4    4    0    0 -0.52735082748E+01  0.58194478026E+01  0.15129793899E+03  0.15150162443E+03  0.00000000000E+00 0. -1.
<mgrwt>
<rscale>  0 0.73549752E+02</rscale>
<asrwt>0</asrwt>
<pdfrwt beam="1">  1        2 0.88313346E-01 0.73549752E+02</pdfrwt>
<pdfrwt beam="2">  1       -1 0.36245106E-03 0.73549752E+02</pdfrwt>
<totfact> 0.39493075E+05</totfact>
</mgrwt>
</event>
<event>
 8    1  0.2676873E-024  0.8589519E+02  0.7818608E-02  0.1313108E+00
          2   -1    0    0  501    0  0.00000000000E+00  0.00000000000E+00  0.36863554700E+02  0.36863554788E+02  0.25500000000E-02 0. -1.
         -1   -1    0    0    0  501 -0.00000000000E+00 -0.00000000000E+00 -0.50035755439E+02  0.50035755693E+02  0.50400000000E-02 0.  1.
         24    2    1    2    0    0  0.00000000000E+00  0.00000000000E+00 -0.13172200739E+02  0.86899310481E+02  0.85895187815E+02 0.  0.
         66    2    3    3    0    0 -0.17262809902E+02  0.33402562003E+02  0.14358799234E+02  0.40297777485E+02  0.20000001861E+01 0.  0.
        -13    1    3    3    0    0  0.17262809902E+02 -0.33402562003E+02 -0.27530999973E+02  0.46601532996E+02  0.10566000000E+00 0.  1.
         13    1    4    4    0    0 -0.77480089529E+01  0.15108158326E+02  0.68119567707E+01  0.18294862936E+02  0.10566000000E+00 0. -1.
        -13    1    4    4    0    0 -0.14959860270E+01  0.22550490371E+01  0.61184213636E+00  0.27764609106E+01  0.10566000000E+00 0.  1.
        -14    1    4    4    0    0 -0.80188149216E+01  0.16039354639E+02  0.69350003268E+01  0.19226453639E+02  0.00000000000E+00 0.  1.
<mgrwt>
<rscale>  0 0.85895188E+02</rscale>
<asrwt>0</asrwt>
<pdfrwt beam="1">  1        2 0.56713161E-02 0.85895188E+02</pdfrwt>
<pdfrwt beam="2">  1       -1 0.76978086E-02 0.85895188E+02</pdfrwt>
<totfact> 0.11496601E+05</totfact>
</mgrwt>
</event>
<event>
 8    1  0.2676873E-024  0.8024592E+02  0.7818608E-02  0.1328355E+00
         -1   -1    0    0    0  501 -0.00000000000E+00  0.00000000000E+00  0.40593954979E+01  0.40593986266E+01  0.50400000000E-02 0.  1.
          2   -1    0    0  501    0  0.00000000000E+00 -0.00000000000E+00 -0.39657419188E+03  0.39657419189E+03  0.25500000000E-02 0. -1.
         24    2    1    2    0    0  0.00000000000E+00  0.00000000000E+00 -0.39251479639E+03  0.40063359052E+03  0.80245924943E+02 0.  0.
         66    2    3    3    0    0  0.98209694642E+01  0.38727740862E+02 -0.17940584083E+03  0.18381171096E+03  0.20000020693E+01 0.  0.
        -13    1    3    3    0    0 -0.98209694642E+01 -0.38727740862E+02 -0.21310895556E+03  0.21682187956E+03  0.10566000000E+00 0.  1.
         13    1    4    4    0    0  0.27940721492E+01  0.11348029088E+02 -0.53388687562E+02  0.54652975463E+02  0.10566000000E+00 0. -1.
        -13    1    4    4    0    0  0.62715176015E+01  0.22415168930E+02 -0.10197011557E+03  0.10459296039E+03  0.10566000000E+00 0.  1.
        -14    1    4    4    0    0  0.75537971357E+00  0.49645428444E+01 -0.24047037701E+02  0.24565775102E+02  0.00000000000E+00 0.  1.
<mgrwt>
<rscale>  0 0.80245925E+02</rscale>
<asrwt>0</asrwt>
<pdfrwt beam="1">  1        2 0.61011384E-01 0.80245925E+02</pdfrwt>
<pdfrwt beam="2">  1       -1 0.62452294E-03 0.80245925E+02</pdfrwt>
<totfact> 0.27943693E+05</totfact>
</mgrwt>
</event>
<event>
 8    1  0.2676873E-024  0.7910694E+02  0.7818608E-02  0.1331605E+00
         -1   -1    0    0    0  501 -0.00000000000E+00  0.00000000000E+00  0.33185604050E+02  0.33185604433E+02  0.50400000000E-02 0.  1.
          2   -1    0    0  501    0  0.00000000000E+00 -0.00000000000E+00 -0.47143243768E+02  0.47143243837E+02  0.25500000000E-02 0. -1.
         24    2    1    2    0    0  0.00000000000E+00  0.00000000000E+00 -0.13957639718E+02  0.80328848270E+02  0.79106941275E+02 0.  0.
         66    2    3    3    0    0 -0.60235661606E+01  0.31526488670E+02 -0.30410589743E+02  0.44260668863E+02  0.20000006336E+01 0.  0.
        -13    1    3    3    0    0  0.60235661606E+01 -0.31526488670E+02  0.16452950025E+02  0.36068179407E+02  0.10566000000E+00 0.  1.
         13    1    4    4    0    0 -0.64017974012E+00  0.34885553477E+01 -0.38119601280E+01  0.52078836936E+01  0.10566000000E+00 0. -1.
        -13    1    4    4    0    0 -0.14660049954E+01  0.48716460434E+01 -0.43351449888E+01  0.66848150257E+01  0.10566000000E+00 0.  1.
        -14    1    4    4    0    0 -0.39173814251E+01  0.23166287279E+02 -0.22263484626E+02  0.32367970144E+02  0.00000000000E+00 0.  1.
<mgrwt>
<rscale>  0 0.79106941E+02</rscale>
<asrwt>0</asrwt>
<pdfrwt beam="1">  1        2 0.72528067E-02 0.79106941E+02</pdfrwt>
<pdfrwt beam="2">  1       -1 0.51054776E-02 0.79106941E+02</pdfrwt>
<totfact> 0.15215930E+05</totfact>
</mgrwt>
</event>
<event>
 8    1  0.2676873E-024  0.7854130E+02  0.7818608E-02  0.1333243E+00
         -1   -1    0    0    0  501 -0.00000000000E+00  0.00000000000E+00  0.79738000843E+02  0.79738001002E+02  0.50400000000E-02 0.  1.
          2   -1    0    0  501    0  0.00000000000E+00 -0.00000000000E+00 -0.19340639994E+02  0.19340640162E+02  0.25500000000E-02 0. -1.
         24    2    1    2    0    0  0.00000000000E+00 -0.17763568394E-14  0.60397360849E+02  0.99078641164E+02  0.78541300838E+02 0.  0.
         66    2    3    3    0    0  0.27673732128E+02  0.10405624241E+02 -0.23385221293E+01  0.29725093001E+02  0.20000006011E+01 0.  0.
        -13    1    3    3    0    0 -0.27673732128E+02 -0.10405624241E+02  0.62735882978E+02  0.69353548163E+02  0.10566000000E+00 0.  1.
         13    1    4    4    0    0  0.16786439359E+02  0.60487184901E+01 -0.81650745092E+00  0.17861953706E+02  0.10566000000E+00 0. -1.
        -13    1    4    4    0    0  0.36029085759E+01  0.99641135162E+00 -0.35352836441E+00  0.37563189599E+01  0.10566000000E+00 0.  1.
        -14    1    4    4    0    0  0.72843841926E+01  0.33604943995E+01 -0.11684863140E+01  0.81068203348E+01  0.00000000000E+00 0.  1.
<mgrwt>
<rscale>  0 0.78541301E+02</rscale>
<asrwt>0</asrwt>
<pdfrwt beam="1">  1        2 0.29754832E-02 0.78541301E+02</pdfrwt>
<pdfrwt beam="2">  1       -1 0.12267385E-01 0.78541301E+02</pdfrwt>
<totfact> 0.13001148E+05</totfact>
</mgrwt>
</event>
<event>
 8    1  0.2676873E-024  0.8018538E+02  0.7818608E-02  0.1328526E+00
          2   -1    0    0  501    0  0.00000000000E+00  0.00000000000E+00  0.26186423260E+02  0.26186423384E+02  0.25500000000E-02 0. -1.
         -1   -1    0    0    0  501 -0.00000000000E+00 -0.00000000000E+00 -0.61383866322E+02  0.61383866529E+02  0.50400000000E-02 0.  1.
         24    2    1    2    0    0  0.00000000000E+00  0.35527136788E-14 -0.35197443063E+02  0.87570289913E+02  0.80185383190E+02 0.  0.
         66    2    3    3    0    0  0.32414802559E+02 -0.22568010034E+02 -0.24966882799E+02  0.46769431721E+02  0.20000012425E+01 0.  0.
        -13    1    3    3    0    0 -0.32414802559E+02  0.22568010034E+02 -0.10230560264E+02  0.40800858192E+02  0.10566000000E+00 0.  1.
         13    1    4    4    0    0  0.21884542320E+02 -0.15582587095E+02 -0.17402757270E+02  0.32009644449E+02  0.10566000000E+00 0. -1.
        -13    1    4    4    0    0  0.47594552929E+01 -0.30215737253E+01 -0.39184448987E+01  0.68664180562E+01  0.10566000000E+00 0.  1.
         14    1    4    4    0    0  0.57708049466E+01 -0.39638492139E+01 -0.36456806299E+01  0.78933692158E+01  0.00000000000E+00 0. -1.
<mgrwt>
<rscale>  0 0.80185383E+02</rscale>
<asrwt>0</asrwt>
<pdfrwt beam="1">  1        2 0.40286805E-02 0.80185383E+02</pdfrwt>
<pdfrwt beam="2">  1       -1 0.94436718E-02 0.80185383E+02</pdfrwt>
<totfact> 0.13014236E+05</totfact>
</mgrwt>
</event>
<event>
 8    1  0.2676873E-024  0.8012327E+02  0.7818608E-02  0.1328702E+00
          2   -1    0    0  501    0  0.00000000000E+00  0.00000000000E+00  0.15837712841E+02  0.15837713047E+02  0.25500000000E-02 0. -1.
         -1   -1    0    0    0  501 -0.00000000000E+00 -0.00000000000E+00 -0.10133624903E+03  0.10133624915E+03  0.50400000000E-02 0.  1.
         24    2    1    2    0    0  0.00000000000E+00  0.71054273576E-14 -0.85498536188E+02  0.11717396220E+03  0.80123265833E+02 0.  0.
         66    2    3    3    0    0  0.10858051898E+02 -0.26245470095E+02 -0.15104736413E+01  0.28513216627E+02  0.20000000626E+01 0.  0.
        -13    1    3    3    0    0 -0.10858051898E+02  0.26245470095E+02 -0.83988062547E+02  0.88660745575E+02  0.10566000000E+00 0.  1.
         13    1    4    4    0    0  0.91412909605E+01 -0.21656882258E+02 -0.83034857181E+00  0.23521998052E+02  0.10566000000E+00 0. -1.
        -13    1    4    4    0    0  0.81425974445E+00 -0.13887530615E+01 -0.10100037997E+00  0.16164835630E+01  0.10566000000E+00 0.  1.
        -14    1    4    4    0    0  0.90250119289E+00 -0.31998347754E+01 -0.57912468948E+00  0.33747350117E+01  0.00000000000E+00 0.  1.
<mgrwt>
<rscale>  0 0.80123266E+02</rscale>
<asrwt>0</asrwt>
<pdfrwt beam="1">  1        2 0.24365713E-02 0.80123266E+02</pdfrwt>
<pdfrwt beam="2">  1       -1 0.15590192E-01 0.80123266E+02</pdfrwt>
<totfact> 0.11773967E+05</totfact>
</mgrwt>
</event>
<event>
 8    1  0.2676873E-024  0.7880434E+02  0.7818608E-02  0.1332479E+00
          2   -1    0    0  501    0  0.00000000000E+00  0.00000000000E+00  0.14828914056E+03  0.14828914058E+03  0.25500000000E-02 0. -1.
         -1   -1    0    0    0  501 -0.00000000000E+00 -0.00000000000E+00 -0.10469619817E+02  0.10469621030E+02  0.50400000000E-02 0.  1.
         24    2    1    2    0    0  0.00000000000E+00  0.00000000000E+00  0.13781952074E+03  0.15875876161E+03  0.78804340558E+02 0.  0.
         66    2    3    3    0    0 -0.86028915705E+01 -0.25392747745E+02  0.12705418665E+03  0.12986750058E+03  0.19999954892E+01 0.  0.
        -13    1    3    3    0    0  0.86028915705E+01  0.25392747745E+02  0.10765334091E+02  0.28891261024E+02  0.10566000000E+00 0.  1.
         13    1    4    4    0    0 -0.60380417712E+01 -0.18205143909E+02  0.89107340785E+02  0.91148310785E+02  0.10566000000E+00 0. -1.
        -13    1    4    4    0    0 -0.22430539373E+01 -0.68907303851E+01  0.35288423680E+02  0.36024956157E+02  0.10566000000E+00 0.  1.
        -14    1    4    4    0    0 -0.32179586201E+00 -0.29687345149E+00  0.26584221821E+01  0.26942336426E+01  0.00000000000E+00 0.  1.
<mgrwt>
<rscale>  0 0.78804341E+02</rscale>
<asrwt>0</asrwt>
<pdfrwt beam="1">  1        2 0.22813712E-01 0.78804341E+02</pdfrwt>
<pdfrwt beam="2">  1       -1 0.16107110E-02 0.78804341E+02</pdfrwt>
<totfact> 0.20769303E+05</totfact>
</mgrwt>
</event>
<event>
 8    1  0.2676873E-024  0.8301772E+02  0.7818608E-02  0.1320699E+00
         -1   -1    0    0    0  501 -0.00000000000E+00  0.00000000000E+00  0.27282619429E+01  0.27282665981E+01  0.50400000000E-02 0.  1.
          2   -1    0    0  501    0  0.00000000000E+00 -0.00000000000E+00 -0.63153174244E+03  0.63153174245E+03  0.25500000000E-02 0. -1.
         24    2    1    2    0    0  0.00000000000E+00  0.00000000000E+00 -0.62880348050E+03  0.63426000905E+03  0.83017720918E+02 0.  0.
         66    2    3    3    0    0  0.20517450133E+02  0.32686968907E+02 -0.43084737970E+03  0.43257700851E+03  0.20000007814E+01 0.  0.
        -13    1    3    3    0    0 -0.20517450133E+02 -0.32686968907E+02 -0.19795610080E+03  0.20168300054E+03  0.10566000000E+00 0.  1.
         13    1    4    4    0    0  0.90810722962E+01  0.13845810027E+02 -0.19285175227E+03  0.19356131289E+03  0.10566000000E+00 0. -1.
        -13    1    4    4    0    0  0.37659861055E+01  0.66962876519E+01 -0.86570821714E+02  0.86911111234E+02  0.10566000000E+00 0.  1.
         14    1    4    4    0    0  0.76703917312E+01  0.12144871228E+02 -0.15142480571E+03  0.15210458439E+03  0.00000000000E+00 0. -1.
<mgrwt>
<rscale>  0 0.83017721E+02</rscale>
<asrwt>0</asrwt>
<pdfrwt beam="1">  1        2 0.97158613E-01 0.83017721E+02</pdfrwt>
<pdfrwt beam="2">  1       -1 0.41973347E-03 0.83017721E+02</pdfrwt>
<totfact> 0.29613178E+05</totfact>
</mgrwt>
</event>
<event>
 8    1  0.2676873E-024  0.8196800E+02  0.7818608E-02  0.1323558E+00
         -1   -1    0    0    0  501 -0.00000000000E+00  0.00000000000E+00  0.33741808163E+01  0.33741845804E+01  0.50400000000E-02 0.  1.
          2   -1    0    0  501    0  0.00000000000E+00 -0.00000000000E+00 -0.49780599227E+03  0.49780599227E+03  0.25500000000E-02 0. -1.
         24    2    1    2    0    0  0.00000000000E+00  0.35527136788E-14 -0.49443181145E+03  0.50118017685E+03  0.81968002884E+02 0.  0.
         66    2    3    3    0    0  0.84559902378E+01 -0.23223085310E+02 -0.44707499611E+03  0.44776206583E+03  0.19999966756E+01 0.  0.
        -13    1    3    3    0    0 -0.84559902378E+01  0.23223085310E+02 -0.47356815342E+02  0.53418111026E+02  0.10566000000E+00 0.  1.
         13    1    4    4    0    0  0.48276031051E+00 -0.32199041332E+01 -0.60932344898E+02  0.61019362984E+02  0.10566000000E+00 0. -1.
        -13    1    4    4    0    0  0.17926211078E+01 -0.46337559751E+01 -0.88403983256E+02  0.88543552021E+02  0.10566000000E+00 0. -1.
         14    1    4    4    0    0  0.61806088195E+01 -0.15369425201E+02 -0.29773866795E+03  0.29819915082E+03  0.00000000000E+00 0. -1.
<mgrwt>
<rscale>  0 0.81968003E+02</rscale>
<asrwt>0</asrwt>
<pdfrwt beam="1">  1        2 0.76585479E-01 0.81968003E+02</pdfrwt>
<pdfrwt beam="2">  1       -1 0.51910543E-03 0.81968003E+02</pdfrwt>
<totfact> 0.28540132E+05</totfact>
</mgrwt>
</event>
<event>
 8    1  0.2676873E-024  0.7992304E+02  0.7818608E-02  0.1329270E+00
         -1   -1    0    0    0  501 -0.00000000000E+00  0.00000000000E+00  0.63892366488E+02  0.63892366687E+02  0.50400000000E-02 0.  1.
          2   -1    0    0  501    0  0.00000000000E+00 -0.00000000000E+00 -0.24993956986E+02  0.24993957116E+02  0.25500000000E-02 0. -1.
         24    2    1    2    0    0 -0.55511151231E-16  0.35527136788E-14  0.38898409502E+02  0.88886323803E+02  0.79923039842E+02 0.  0.
         66    2    3    3    0    0  0.47740546780E+00 -0.22623205993E+02 -0.17136305930E+02  0.28455058196E+02  0.19999976612E+01 0.  0.
        -13    1    3    3    0    0 -0.47740546780E+00  0.22623205993E+02  0.56034715432E+02  0.60431265607E+02  0.10566000000E+00 0.  1.
         13    1    4    4    0    0  0.13695815146E+00 -0.16610376672E+02 -0.12174530819E+02  0.20594992970E+02  0.10566000000E+00 0. -1.
        -13    1    4    4    0    0  0.60005940859E+00 -0.35500757655E+01 -0.26440572782E+01  0.44682560536E+01  0.10566000000E+00 0.  1.
         14    1    4    4    0    0 -0.25961209226E+00 -0.24627535551E+01 -0.23177178328E+01  0.33918091727E+01  0.00000000000E+00 0. -1.
<mgrwt>
<rscale>  0 0.79923040E+02</rscale>
<asrwt>0</asrwt>
<pdfrwt beam="1">  1        2 0.38452242E-02 0.79923040E+02</pdfrwt>
<pdfrwt beam="2">  1       -1 0.98295949E-02 0.79923040E+02</pdfrwt>
<totfact> 0.13015183E+05</totfact>
</mgrwt>
</event>
<event>
 8    1  0.2676873E-024  0.7741299E+02  0.7818608E-02  0.1336558E+00
         -1   -1    0    0    0  501 -0.00000000000E+00  0.00000000000E+00  0.31213236970E+01  0.31213277660E+01  0.50400000000E-02 0.  1.
          2   -1    0    0  501    0  0.00000000000E+00 -0.00000000000E+00 -0.47998605125E+03  0.47998605125E+03  0.25500000000E-02 0. -1.
         24    2    1    2    0    0  0.00000000000E+00  0.35527136788E-14 -0.47686472755E+03  0.48310737902E+03  0.77412991688E+02 0.  0.
         66    2    3    3    0    0 -0.19038153581E+02 -0.24326214013E+02 -0.38387520791E+03  0.38512126823E+03  0.20000046303E+01 0.  0.
        -13    1    3    3    0    0  0.19038153581E+02  0.24326214013E+02 -0.92989519644E+02  0.97986110789E+02  0.10566000000E+00 0.  1.
         13    1    4    4    0    0 -0.13036732170E+00 -0.29553610800E+00 -0.35063892243E+01  0.35228208381E+01  0.10566000000E+00 0. -1.
        -13    1    4    4    0    0 -0.53988649580E+01 -0.67065916340E+01 -0.99592068981E+02  0.99963580779E+02  0.10566000000E+00 0. -1.
        -14    1    4    4    0    0 -0.13508921301E+02 -0.17324086271E+02 -0.28077674970E+03  0.28163486661E+03  0.00000000000E+00 0.  1.
<mgrwt>
<rscale>  0 0.77412992E+02</rscale>
<asrwt>0</asrwt>
<pdfrwt beam="1">  1        2 0.73843949E-01 0.77412992E+02</pdfrwt>
<pdfrwt beam="2">  1       -1 0.48020434E-03 0.77412992E+02</pdfrwt>
<totfact> 0.32737828E+05</totfact>
</mgrwt>
</event>
<event>
 8    1  0.2676873E-024  0.8844029E+02  0.7818608E-02  0.1306673E+00
          2   -1    0    0  501    0  0.00000000000E+00  0.00000000000E+00  0.83864772838E+02  0.83864772876E+02  0.25500000000E-02 0. -1.
         -1   -1    0    0    0  501 -0.00000000000E+00 -0.00000000000E+00 -0.23316357376E+02  0.23316357921E+02  0.50400000000E-02 0.  1.
         24    2    1    2    0    0  0.71054273576E-14  0.00000000000E+00  0.60548415461E+02  0.10718113080E+03  0.88440285979E+02 0.  0.
         66    2    3    3    0    0 -0.36547092897E+02  0.14268351565E+02  0.54952416398E+02  0.67550306618E+02  0.20000001372E+01 0.  0.
        -13    1    3    3    0    0  0.36547092897E+02 -0.14268351565E+02  0.55959990633E+01  0.39630824180E+02  0.10566000000E+00 0.  1.
         13    1    4    4    0    0 -0.79269466676E+01  0.37064126169E+01  0.11476274034E+02  0.14432255808E+02  0.10566000000E+00 0. -1.
        -13    1    4    4    0    0 -0.48577400756E+01  0.15465522613E+01  0.75834974550E+01  0.91383838956E+01  0.10566000000E+00 0.  1.
         14    1    4    4    0    0 -0.23762406154E+02  0.90153866865E+01  0.35892644909E+02  0.43979666914E+02  0.00000000000E+00 0. -1.
<mgrwt>
<rscale>  0 0.88440286E+02</rscale>
<asrwt>0</asrwt>
<pdfrwt beam="1">  1        2 0.12902273E-01 0.88440286E+02</pdfrwt>
<pdfrwt beam="2">  1       -1 0.35871320E-02 0.88440286E+02</pdfrwt>
<totfact> 0.12879642E+05</totfact>
</mgrwt>
</event>
<event>
 8    1  0.2676873E-024  0.7590097E+02  0.7818608E-02  0.1341104E+00
         -1   -1    0    0    0  501 -0.00000000000E+00  0.00000000000E+00  0.22651978033E+01  0.22652034102E+01  0.50400000000E-02 0.  1.
          2   -1    0    0  501    0  0.00000000000E+00 -0.00000000000E+00 -0.63581092248E+03  0.63581092248E+03  0.25500000000E-02 0. -1.
         24    2    1    2    0    0 -0.17763568394E-14  0.00000000000E+00 -0.63354572467E+03  0.63807612589E+03  0.75900969569E+02 0.  0.
         66    2    3    3    0    0  0.13330064157E+02  0.12262956191E+02 -0.59709578814E+03  0.59737379498E+03  0.19999999096E+01 0.  0.
        -13    1    3    3    0    0 -0.13330064157E+02 -0.12262956191E+02 -0.36449936528E+02  0.40702330915E+02  0.10566000000E+00 0.  1.
         13    1    4    4    0    0  0.32987209979E+01  0.28729490735E+01 -0.15931455968E+03  0.15937463879E+03  0.10566000000E+00 0. -1.
        -13    1    4    4    0    0  0.16269741536E+01  0.21614748002E+01 -0.96254457730E+02  0.96292527306E+02  0.10566000000E+00 0.  1.
         14    1    4    4    0    0  0.84043690051E+01  0.72285323174E+01 -0.34152677073E+03  0.34170662888E+03  0.00000000000E+00 0. -1.
<mgrwt>
<rscale>  0 0.75900970E+02</rscale>
<asrwt>0</asrwt>
<pdfrwt beam="1">  1        2 0.97816923E-01 0.75900970E+02</pdfrwt>
<pdfrwt beam="2">  1       -1 0.34849291E-03 0.75900970E+02</pdfrwt>
<totfact> 0.37447261E+05</totfact>
</mgrwt>
</event>
<event>
 8    1  0.2676873E-024  0.8126129E+02  0.7818608E-02  0.1325510E+00
          2   -1    0    0  501    0  0.00000000000E+00  0.00000000000E+00  0.39620816280E+02  0.39620816362E+02  0.25500000000E-02 0. -1.
         -1   -1    0    0    0  501 -0.00000000000E+00 -0.00000000000E+00 -0.41666206198E+02  0.41666206503E+02  0.50400000000E-02 0.  1.
         24    2    1    2    0    0  0.22204460493E-15  0.00000000000E+00 -0.20453899181E+01  0.81287022864E+02  0.81261285162E+02 0.  0.
         66    2    3    3    0    0  0.17140634295E+01 -0.40305327723E+02 -0.56493509410E+01  0.40784465471E+02  0.20000003531E+01 0.  0.
        -13    1    3    3    0    0 -0.17140634295E+01  0.40305327723E+02  0.36039610229E+01  0.40502557393E+02  0.10566000000E+00 0.  1.
         13    1    4    4    0    0  0.56702647258E+00 -0.52036121487E+01 -0.31993691922E+00  0.52452475712E+01  0.10566000000E+00 0. -1.
        -13    1    4    4    0    0  0.95101057901E+00 -0.19045183438E+02 -0.24619784374E+01  0.19227478649E+02  0.10566000000E+00 0.  1.
        -14    1    4    4    0    0  0.19602637789E+00 -0.16056532136E+02 -0.28674355844E+01  0.16311739251E+02  0.00000000000E+00 0.  1.
<mgrwt>
<rscale>  0 0.81261285E+02</rscale>
<asrwt>0</asrwt>
<pdfrwt beam="1">  1        2 0.60955102E-02 0.81261285E+02</pdfrwt>
<pdfrwt beam="2">  1       -1 0.64101856E-02 0.81261285E+02</pdfrwt>
<totfact> 0.13624237E+05</totfact>
</mgrwt>
</event>
<event>
 8    1  0.2676873E-024  0.8067484E+02  0.7818608E-02  0.1327147E+00
          2   -1    0    0  501    0  0.00000000000E+00  0.00000000000E+00  0.54721557881E+03  0.54721557881E+03  0.25500000000E-02 0. -1.
         -1   -1    0    0    0  501 -0.00000000000E+00 -0.00000000000E+00 -0.29734285014E+01  0.29734327728E+01  0.50400000000E-02 0.  1.
         24    2    1    2    0    0  0.35527136788E-14  0.00000000000E+00  0.54424215030E+03  0.55018901158E+03  0.80674843045E+02 0.  0.
         66    2    3    3    0    0  0.20976557252E+02 -0.46360123627E+01  0.50492256785E+03  0.50538332787E+03  0.19999997284E+01 0.  0.
        -13    1    3    3    0    0 -0.20976557252E+02  0.46360123627E+01  0.39319582452E+02  0.44805683713E+02  0.10566000000E+00 0.  1.
         13    1    4    4    0    0  0.18005079624E+02 -0.37621338850E+01  0.42314102126E+03  0.42354063746E+03  0.10566000000E+00 0. -1.
        -13    1    4    4    0    0  0.86765290098E+00 -0.45649840066E-01  0.27903717666E+02  0.27917441306E+02  0.10566000000E+00 0.  1.
         14    1    4    4    0    0  0.21038247263E+01 -0.82822863772E+00  0.53877828929E+02  0.53925249107E+02  0.00000000000E+00 0. -1.
<mgrwt>
<rscale>  0 0.80674843E+02</rscale>
<asrwt>0</asrwt>
<pdfrwt beam="1">  1        2 0.84187001E-01 0.80674843E+02</pdfrwt>
<pdfrwt beam="2">  1       -1 0.45745093E-03 0.80674843E+02</pdfrwt>
<totfact> 0.30637366E+05</totfact>
</mgrwt>
</event>
<event>
 8    1  0.2676873E-024  0.7907920E+02  0.7818608E-02  0.1331685E+00
          2   -1    0    0  501    0  0.00000000000E+00  0.00000000000E+00  0.73912893729E+02  0.73912893773E+02  0.25500000000E-02 0. -1.
         -1   -1    0    0    0  501 -0.00000000000E+00 -0.00000000000E+00 -0.21151651657E+02  0.21151652257E+02  0.50400000000E-02 0.  1.
         24    2    1    2    0    0 -0.35527136788E-14 -0.88817841970E-15  0.52761242073E+02  0.95064546030E+02  0.79079196044E+02 0.  0.
         66    2    3    3    0    0 -0.22442344353E+02 -0.51803574666E+01  0.64995054851E+02  0.68984433633E+02  0.20000012420E+01 0.  0.
        -13    1    3    3    0    0  0.22442344353E+02  0.51803574666E+01 -0.12233812778E+02  0.26080112398E+02  0.10566000000E+00 0.  1.
         13    1    4    4    0    0 -0.91881679688E+01 -0.24700419160E+01  0.28397654341E+02  0.29949315081E+02  0.10566000000E+00 0. -1.
        -13    1    4    4    0    0 -0.98409431737E+01 -0.16691656997E+01  0.28023854602E+02  0.29748577570E+02  0.10566000000E+00 0.  1.
        -14    1    4    4    0    0 -0.34132332108E+01 -0.10411498509E+01  0.85735459079E+01  0.92865409813E+01  0.00000000000E+00 0.  1.
<mgrwt>
<rscale>  0 0.79079196E+02</rscale>
<asrwt>0</asrwt>
<pdfrwt beam="1">  1        2 0.11371215E-01 0.79079196E+02</pdfrwt>
<pdfrwt beam="2">  1       -1 0.32541003E-02 0.79079196E+02</pdfrwt>
<totfact> 0.16884296E+05</totfact>
</mgrwt>
</event>
<event>
 8    1  0.2676873E-024  0.8026467E+02  0.7818608E-02  0.1328302E+00
          2   -1    0    0  501    0  0.00000000000E+00  0.00000000000E+00  0.23532625890E+03  0.23532625892E+03  0.25500000000E-02 0. -1.
         -1   -1    0    0    0  501 -0.00000000000E+00 -0.00000000000E+00 -0.68441325938E+01  0.68441344495E+01  0.50400000000E-02 0.  1.
         24    2    1    2    0    0  0.00000000000E+00  0.00000000000E+00  0.22848212631E+03  0.24217039337E+03  0.80264670811E+02 0.  0.
         66    2    3    3    0    0  0.31871305289E+02  0.13907334364E+02  0.17460988453E+03  0.17805000933E+03  0.19999997648E+01 0.  0.
        -13    1    3    3    0    0 -0.31871305289E+02 -0.13907334364E+02  0.53872241786E+02  0.64120384037E+02  0.10566000000E+00 0.  1.
         13    1    4    4    0    0  0.13526026395E+02  0.59104169241E+01  0.73678473841E+02  0.75142631641E+02  0.10566000000E+00 0. -1.
        -13    1    4    4    0    0  0.18483481492E+01  0.34111086190E+00  0.94954770431E+01  0.96802890356E+01  0.10566000000E+00 0.  1.
        -14    1    4    4    0    0  0.16496930745E+02  0.76558065781E+01  0.91435933641E+02  0.93227088655E+02  0.00000000000E+00 0.  1.
<mgrwt>
<rscale>  0 0.80264671E+02</rscale>
<asrwt>0</asrwt>
<pdfrwt beam="1">  1        2 0.36204042E-01 0.80264671E+02</pdfrwt>
<pdfrwt beam="2">  1       -1 0.10529436E-02 0.80264671E+02</pdfrwt>
<totfact> 0.23156093E+05</totfact>
</mgrwt>
</event>
<event>
 8    1  0.2676873E-024  0.7929079E+02  0.7818608E-02  0.1331076E+00
          2   -1    0    0  501    0  0.00000000000E+00  0.00000000000E+00  0.19233578179E+02  0.19233578348E+02  0.25500000000E-02 0. -1.
         -1   -1    0    0    0  501 -0.00000000000E+00 -0.00000000000E+00 -0.81719436269E+02  0.81719436424E+02  0.50400000000E-02 0.  1.
         24    2    1    2    0    0  0.17763568394E-14  0.00000000000E+00 -0.62485858090E+02  0.10095301477E+03  0.79290785912E+02 0.  0.
         66    2    3    3    0    0  0.14042090075E+02 -0.87993495219E+00  0.15893752279E+02  0.21320552392E+02  0.20000034041E+01 0.  0.
        -13    1    3    3    0    0 -0.14042090075E+02  0.87993495219E+00 -0.78379610368E+02  0.79632462380E+02  0.10566000000E+00 0.  1.
         13    1    4    4    0    0  0.37832220910E+01 -0.18890241929E+00  0.42644588128E+01  0.57048423743E+01  0.10566000000E+00 0. -1.
        -13    1    4    4    0    0  0.12402724182E+01 -0.47741662671E+00  0.95480089983E+00  0.16398204477E+01  0.10566000000E+00 0. -1.
        -14    1    4    4    0    0  0.90185955662E+01 -0.21361590618E+00  0.10674492566E+02  0.13975889570E+02  0.00000000000E+00 0.  1.
<mgrwt>
<rscale>  0 0.79290786E+02</rscale>
<asrwt>0</asrwt>
<pdfrwt beam="1">  1        2 0.29590121E-02 0.79290786E+02</pdfrwt>
<pdfrwt beam="2">  1       -1 0.12572221E-01 0.79290786E+02</pdfrwt>
<totfact> 0.12637282E+05</totfact>
</mgrwt>
</event>
<event>
 8    1  0.2676873E-024  0.7823501E+02  0.7818608E-02  0.1334136E+00
         -1   -1    0    0    0  501 -0.00000000000E+00  0.00000000000E+00  0.53755727663E+02  0.53755727899E+02  0.50400000000E-02 0.  1.
          2   -1    0    0  501    0  0.00000000000E+00 -0.00000000000E+00 -0.28465419763E+02  0.28465419877E+02  0.25500000000E-02 0. -1.
         24    2    1    2    0    0 -0.71054273576E-14  0.00000000000E+00  0.25290307900E+02  0.82221147777E+02  0.78235014335E+02 0.  0.
         66    2    3    3    0    0 -0.37287924143E+02 -0.27624071514E+01  0.66360557314E+00  0.37449440061E+02  0.20000020883E+01 0.  0.
        -13    1    3    3    0    0  0.37287924143E+02  0.27624071514E+01  0.24626702327E+02  0.44771707715E+02  0.10566000000E+00 0.  1.
         13    1    4    4    0    0 -0.55184995228E+01 -0.17580559973E-01 -0.28044409470E+00  0.55266589352E+01  0.10566000000E+00 0. -1.
        -13    1    4    4    0    0 -0.62629167778E+01 -0.10030680317E+00  0.28445998440E+00  0.62710660608E+01  0.10566000000E+00 0.  1.
         14    1    4    4    0    0 -0.25506507843E+02 -0.26445197883E+01  0.65958968345E+00  0.25651715065E+02  0.00000000000E+00 0. -1.
<mgrwt>
<rscale>  0 0.78235014E+02</rscale>
<asrwt>0</asrwt>
<pdfrwt beam="1">  1        2 0.43792954E-02 0.78235014E+02</pdfrwt>
<pdfrwt beam="2">  1       -1 0.82701119E-02 0.78235014E+02</pdfrwt>
<totfact> 0.14176704E+05</totfact>
</mgrwt>
</event>
<event>
 8    1  0.2676873E-024  0.8039674E+02  0.7818608E-02  0.1327929E+00
          2   -1    0    0  501    0  0.00000000000E+00  0.00000000000E+00  0.12012783081E+03  0.12012783084E+03  0.25500000000E-02 0. -1.
         -1   -1    0    0    0  501 -0.00000000000E+00 -0.00000000000E+00 -0.13451579107E+02  0.13451580051E+02  0.50400000000E-02 0.  1.
         24    2    1    2    0    0  0.00000000000E+00  0.00000000000E+00  0.10667625170E+03  0.13357941089E+03  0.80396743315E+02 0.  0.
         66    2    3    3    0    0 -0.86859639124E+01  0.15998557870E+02  0.11287289352E+03  0.11434898300E+03  0.19999995545E+01 0.  0.
        -13    1    3    3    0    0  0.86859639124E+01 -0.15998557870E+02 -0.61966418158E+01  0.19230427890E+02  0.10566000000E+00 0.  1.
         13    1    4    4    0    0 -0.61179052278E+01  0.10031867889E+02  0.73190163334E+02  0.74127446406E+02  0.10566000000E+00 0. -1.
        -13    1    4    4    0    0 -0.13567247479E+01  0.42326143185E+01  0.27039703008E+02  0.27402781406E+02  0.10566000000E+00 0.  1.
        -14    1    4    4    0    0 -0.12113339367E+01  0.17340756629E+01  0.12643027176E+02  0.12818755184E+02  0.00000000000E+00 0.  1.
<mgrwt>
<rscale>  0 0.80396743E+02</rscale>
<asrwt>0</asrwt>
<pdfrwt beam="1">  1        2 0.18481204E-01 0.80396743E+02</pdfrwt>
<pdfrwt beam="2">  1       -1 0.20694739E-02 0.80396743E+02</pdfrwt>
<totfact> 0.18447449E+05</totfact>
</mgrwt>
</event>
<event>
 8    1  0.2676873E-024  0.8025198E+02  0.7818608E-02  0.1328338E+00
         -1   -1    0    0    0  501 -0.00000000000E+00  0.00000000000E+00  0.85824802955E+02  0.85824803103E+02  0.50400000000E-02 0.  1.
          2   -1    0    0  501    0  0.00000000000E+00 -0.00000000000E+00 -0.18760252660E+02  0.18760252833E+02  0.25500000000E-02 0. -1.
         24    2    1    2    0    0  0.00000000000E+00 -0.17763568394E-14  0.67064550295E+02  0.10458505594E+03  0.80251978286E+02 0.  0.
         66    2    3    3    0    0  0.26829659966E+02 -0.14691823924E+02  0.67346363991E+02  0.73994682824E+02  0.19999998136E+01 0.  0.
        -13    1    3    3    0    0 -0.26829659966E+02  0.14691823924E+02 -0.28181369613E+00  0.30590373112E+02  0.10566000000E+00 0.  1.
         13    1    4    4    0    0  0.35942049896E+01 -0.15224755985E+01  0.97406972315E+01  0.10494216886E+02  0.10566000000E+00 0.  1.
        -13    1    4    4    0    0  0.81579272929E+01 -0.42216170813E+01  0.19869445839E+02  0.21890177489E+02  0.10566000000E+00 0. -1.
        -14    1    4    4    0    0  0.15077527684E+02 -0.89477312442E+01  0.37736220920E+02  0.41610288449E+02  0.00000000000E+00 0.  1.
<mgrwt>
<rscale>  0 0.80251978E+02</rscale>
<asrwt>0</asrwt>
<pdfrwt beam="1">  1        2 0.28861928E-02 0.80251978E+02</pdfrwt>
<pdfrwt beam="2">  1       -1 0.13203816E-01 0.80251978E+02</pdfrwt>
<totfact> 0.12144209E+05</totfact>
</mgrwt>
</event>
<event>
 8    1  0.2676873E-024  0.7693563E+02  0.7818608E-02  0.1337980E+00
          2   -1    0    0  501    0  0.00000000000E+00  0.00000000000E+00  0.83941059024E+03  0.83941059024E+03  0.25500000000E-02 0. -1.
         -1   -1    0    0    0  501 -0.00000000000E+00 -0.00000000000E+00 -0.17628675675E+01  0.17628747721E+01  0.50400000000E-02 0.  1.
         24    2    1    2    0    0  0.00000000000E+00  0.00000000000E+00  0.83764772267E+03  0.84117346501E+03  0.76935628603E+02 0.  0.
         66    2    3    3    0    0  0.24093677415E+01 -0.11577556337E+02  0.81902655326E+03  0.81911436309E+03  0.20000010367E+01 0.  0.
        -13    1    3    3    0    0 -0.24093677415E+01  0.11577556337E+02  0.18621169411E+02  0.22059101929E+02  0.10566000000E+00 0.  1.
         13    1    4    4    0    0  0.32391222790E+00 -0.58286319632E+00  0.32515815693E+02  0.32522824030E+02  0.10566000000E+00 0. -1.
        -13    1    4    4    0    0  0.23606463426E+00 -0.19776935440E+01  0.10860875450E+03  0.10862706714E+03  0.10566000000E+00 0.  1.
         14    1    4    4    0    0  0.18493908793E+01 -0.90169995966E+01  0.67790198307E+03  0.67796447192E+03  0.00000000000E+00 0. -1.
<mgrwt>
<rscale>  0 0.76935629E+02</rscale>
<asrwt>0</asrwt>
<pdfrwt beam="1">  1        2 0.12914044E+00 0.76935629E+02</pdfrwt>
<pdfrwt beam="2">  1       -1 0.27121021E-03 0.76935629E+02</pdfrwt>
<totfact> 0.38321890E+05</totfact>
</mgrwt>
</event>
<event>
 8    1  0.2676873E-024  0.7936706E+02  0.7818608E-02  0.1330857E+00
          2   -1    0    0  501    0  0.00000000000E+00  0.00000000000E+00  0.60658131953E+02  0.60658132007E+02  0.25500000000E-02 0. -1.
         -1   -1    0    0    0  501 -0.00000000000E+00 -0.00000000000E+00 -0.25961606315E+02  0.25961606804E+02  0.50400000000E-02 0.  1.
         24    2    1    2    0    0  0.00000000000E+00 -0.11102230246E-15  0.34696525638E+02  0.86619738810E+02  0.79367060297E+02 0.  0.
         66    2    3    3    0    0 -0.32220635971E+02 -0.68633117450E+00 -0.78641141553E+01  0.33233788818E+02  0.19999987203E+01 0.  0.
        -13    1    3    3    0    0  0.32220635971E+02  0.68633117450E+00  0.42560639794E+02  0.53385949992E+02  0.10566000000E+00 0.  1.
         13    1    4    4    0    0 -0.12306635001E+02 -0.20087039129E+00 -0.30700440543E+01  0.12685816824E+02  0.10566000000E+00 0. -1.
        -13    1    4    4    0    0 -0.51830220200E+01  0.51954306081E+00 -0.14647177659E+01  0.54120425369E+01  0.10566000000E+00 0.  1.
        -14    1    4    4    0    0 -0.14730978950E+02 -0.10050038440E+01 -0.33293523352E+01  0.15135929457E+02  0.00000000000E+00 0.  1.
<mgrwt>
<rscale>  0 0.79367060E+02</rscale>
<asrwt>0</asrwt>
<pdfrwt beam="1">  1        2 0.93320202E-02 0.79367060E+02</pdfrwt>
<pdfrwt beam="2">  1       -1 0.39940934E-02 0.79367060E+02</pdfrwt>
<totfact> 0.15946144E+05</totfact>
</mgrwt>
</event>
<event>
 8    1  0.2676873E-024  0.7878461E+02  0.7818608E-02  0.1332536E+00
          2   -1    0    0  501    0  0.00000000000E+00  0.00000000000E+00  0.19160220792E+03  0.19160220794E+03  0.25500000000E-02 0. -1.
         -1   -1    0    0    0  501 -0.00000000000E+00 -0.00000000000E+00 -0.80988293058E+01  0.80988308740E+01  0.50400000000E-02 0.  1.
         24    2    1    2    0    0 -0.17763568394E-14 -0.88817841970E-15  0.18350337862E+03  0.19970103881E+03  0.78784611057E+02 0.  0.
         66    2    3    3    0    0 -0.13315937763E+02 -0.58790979631E+01  0.18452480108E+03  0.18510883339E+03  0.19999983367E+01 0.  0.
        -13    1    3    3    0    0  0.13315937763E+02  0.58790979631E+01 -0.10214224613E+01  0.14592205427E+02  0.10566000000E+00 0.  1.
         13    1    4    4    0    0 -0.23313586318E+01 -0.91031331816E+00  0.26491120606E+02  0.26609294211E+02  0.10566000000E+00 0. -1.
        -13    1    4    4    0    0 -0.57890063512E+01 -0.27737951385E+01  0.74826570814E+02  0.75101487321E+02  0.10566000000E+00 0.  1.
         14    1    4    4    0    0 -0.51955727795E+01 -0.21949895065E+01  0.83207109658E+02  0.83398051855E+02  0.00000000000E+00 0. -1.
<mgrwt>
<rscale>  0 0.78784611E+02</rscale>
<asrwt>0</asrwt>
<pdfrwt beam="1">  1        2 0.29477261E-01 0.78784611E+02</pdfrwt>
<pdfrwt beam="2">  1       -1 0.12459739E-02 0.78784611E+02</pdfrwt>
<totfact> 0.22629640E+05</totfact>
</mgrwt>
</event>
<event>
 8    1  0.2676873E-024  0.7947108E+02  0.7818608E-02  0.1330559E+00
          2   -1    0    0  501    0  0.00000000000E+00  0.00000000000E+00  0.99479782791E+01  0.99479786059E+01  0.25500000000E-02 0. -1.
         -1   -1    0    0    0  501 -0.00000000000E+00 -0.00000000000E+00 -0.15871698824E+03  0.15871698832E+03  0.50400000000E-02 0.  1.
         24    2    1    2    0    0  0.35527136788E-14  0.00000000000E+00 -0.14876900996E+03  0.16866496693E+03  0.79471081177E+02 0.  0.
         66    2    3    3    0    0 -0.29844757253E+02 -0.18332768877E+02 -0.11414304553E+03  0.11941287532E+03  0.20000001905E+01 0.  0.
        -13    1    3    3    0    0  0.29844757253E+02  0.18332768877E+02 -0.34625964434E+02  0.49252091602E+02  0.10566000000E+00 0.  1.
         13    1    4    4    0    0 -0.10713637313E+02 -0.63941026743E+01 -0.41267021404E+02  0.43112002889E+02  0.10566000000E+00 0. -1.
        -13    1    4    4    0    0 -0.19005101482E+02 -0.11659129073E+02 -0.71893751683E+02  0.75271853094E+02  0.10566000000E+00 0.  1.
        -14    1    4    4    0    0 -0.12601845824E+00 -0.27953712979E+00 -0.98227243941E+00  0.10290193409E+01  0.00000000000E+00 0.  1.
<mgrwt>
<rscale>  0 0.79471081E+02</rscale>
<asrwt>0</asrwt>
<pdfrwt beam="1">  1        2 0.15304583E-02 0.79471081E+02</pdfrwt>
<pdfrwt beam="2">  1       -1 0.24417997E-01 0.79471081E+02</pdfrwt>
<totfact> 0.10810722E+05</totfact>
</mgrwt>
</event>
<event>
 8    1  0.2676873E-024  0.7904839E+02  0.7818608E-02  0.1331774E+00
          2   -1    0    0  501    0  0.00000000000E+00  0.00000000000E+00  0.58724296285E+03  0.58724296286E+03  0.25500000000E-02 0. -1.
         -1   -1    0    0    0  501 -0.00000000000E+00 -0.00000000000E+00 -0.26601604021E+01  0.26601651765E+01  0.50400000000E-02 0.  1.
         24    2    1    2    0    0  0.00000000000E+00  0.35527136788E-14  0.58458280245E+03  0.58990312804E+03  0.79048387360E+02 0.  0.
         66    2    3    3    0    0  0.10692885131E+02 -0.26279078228E+02  0.49755976228E+03  0.49837199437E+03  0.19999974632E+01 0.  0.
        -13    1    3    3    0    0 -0.10692885131E+02  0.26279078228E+02  0.87023040171E+02  0.91531133662E+02  0.10566000000E+00 0.  1.
         13    1    4    4    0    0  0.34552876344E+01 -0.10902897556E+02  0.19944699031E+03  0.19977468632E+03  0.10566000000E+00 0. -1.
        -13    1    4    4    0    0  0.34422251141E+01 -0.77905667688E+01  0.15253539339E+03  0.15277303180E+03  0.10566000000E+00 0.  1.
        -14    1    4    4    0    0  0.37953723824E+01 -0.75856139031E+01  0.14557737858E+03  0.14582427625E+03  0.00000000000E+00 0.  1.
<mgrwt>
<rscale>  0 0.79048387E+02</rscale>
<asrwt>0</asrwt>
<pdfrwt beam="1">  1        2 0.90345013E-01 0.79048387E+02</pdfrwt>
<pdfrwt beam="2">  1       -1 0.40925608E-03 0.79048387E+02</pdfrwt>
<totfact> 0.32980426E+05</totfact>
</mgrwt>
</event>
<event>
 8    1  0.2676873E-024  0.7894021E+02  0.7818608E-02  0.1332086E+00
         -1   -1    0    0    0  501 -0.00000000000E+00  0.00000000000E+00  0.63914560947E+01  0.63914580818E+01  0.50400000000E-02 0.  1.
          2   -1    0    0  501    0  0.00000000000E+00 -0.00000000000E+00 -0.24374555497E+03  0.24374555499E+03  0.25500000000E-02 0. -1.
         24    2    1    2    0    0 -0.17763568394E-14  0.00000000000E+00 -0.23735409888E+03  0.25013701307E+03  0.78940211884E+02 0.  0.
         66    2    3    3    0    0  0.12992788602E+02 -0.35825475919E+02 -0.86499704091E+02  0.94543514261E+02  0.20000001157E+01 0.  0.
        -13    1    3    3    0    0 -0.12992788602E+02  0.35825475919E+02 -0.15085439479E+03  0.15559349881E+03  0.10566000000E+00 0.  1.
         13    1    4    4    0    0  0.64030896671E+01 -0.17131653763E+02 -0.40499821572E+02  0.44438044842E+02  0.10566000000E+00 0. -1.
        -13    1    4    4    0    0  0.60178865365E+01 -0.17887635206E+02 -0.43871135744E+02  0.47758456498E+02  0.10566000000E+00 0.  1.
        -14    1    4    4    0    0  0.57181239823E+00 -0.80618695023E+00 -0.21287467754E+01  0.23470129210E+01  0.00000000000E+00 0.  1.
<mgrwt>
<rscale>  0 0.78940212E+02</rscale>
<asrwt>0</asrwt>
<pdfrwt beam="1">  1        2 0.37499309E-01 0.78940212E+02</pdfrwt>
<pdfrwt beam="2">  1       -1 0.98330129E-03 0.78940212E+02</pdfrwt>
<totfact> 0.24496722E+05</totfact>
</mgrwt>
</event>
<event>
 8    1  0.2676873E-024  0.7930354E+02  0.7818608E-02  0.1331040E+00
          2   -1    0    0  501    0  0.00000000000E+00  0.00000000000E+00  0.75458063883E+01  0.75458068192E+01  0.25500000000E-02 0. -1.
         -1   -1    0    0    0  501 -0.00000000000E+00 -0.00000000000E+00 -0.20836246277E+03  0.20836246284E+03  0.50400000000E-02 0.  1.
         24    2    1    2    0    0 -0.71054273576E-14  0.00000000000E+00 -0.20081665639E+03  0.21590826965E+03  0.79303539790E+02 0.  0.
         66    2    3    3    0    0 -0.38743034400E+02  0.76916862749E+01 -0.91831102652E+02  0.99985679798E+02  0.19999995427E+01 0.  0.
        -13    1    3    3    0    0  0.38743034400E+02 -0.76916862749E+01 -0.10898555373E+03  0.11592258986E+03  0.10566000000E+00 0.  1.
         13    1    4    4    0    0 -0.71974424497E+01  0.17802112989E+01 -0.16924761602E+02  0.18477852944E+02  0.10566000000E+00 0. -1.
        -13    1    4    4    0    0 -0.88315227410E+01  0.19542980802E+01 -0.22765093954E+02  0.24496443450E+02  0.10566000000E+00 0.  1.
         14    1    4    4    0    0 -0.22714069209E+02  0.39571768958E+01 -0.52141247095E+02  0.57011383404E+02  0.00000000000E+00 0. -1.
<mgrwt>
<rscale>  0 0.79303540E+02</rscale>
<asrwt>0</asrwt>
<pdfrwt beam="1">  1        2 0.11608935E-02 0.79303540E+02</pdfrwt>
<pdfrwt beam="2">  1       -1 0.32055759E-01 0.79303540E+02</pdfrwt>
<totfact> 0.10057589E+05</totfact>
</mgrwt>
</event>
<event>
 8    1  0.2676873E-024  0.8651989E+02  0.7818608E-02  0.1311505E+00
         -1   -1    0    0    0  501 -0.00000000000E+00  0.00000000000E+00  0.15334187421E+01  0.15334270247E+01  0.50400000000E-02 0.  1.
          2   -1    0    0  501    0  0.00000000000E+00 -0.00000000000E+00 -0.12204219254E+04  0.12204219254E+04  0.25500000000E-02 0. -1.
         24    2    1    2    0    0  0.00000000000E+00  0.17763568394E-14 -0.12188885066E+04  0.12219553524E+04  0.86519891718E+02 0.  0.
         66    2    3    3    0    0 -0.27150716049E+02  0.12448458447E+02 -0.10512902660E+04  0.10517163824E+04  0.20000000405E+01 0.  0.
        -13    1    3    3    0    0  0.27150716049E+02 -0.12448458447E+02 -0.16759824057E+03  0.17023897000E+03  0.10566000000E+00 0.  1.
         13    1    4    4    0    0 -0.16729359352E+02  0.83876487292E+01 -0.65803565481E+03  0.65830172283E+03  0.10566000000E+00 0. -1.
        -13    1    4    4    0    0 -0.58855003375E+01  0.25329151041E+01 -0.23827624077E+03  0.23836239815E+03  0.10566000000E+00 0.  1.
        -14    1    4    4    0    0 -0.45358563599E+01  0.15278946132E+01 -0.15497837046E+03  0.15505226140E+03  0.00000000000E+00 0.  1.
<mgrwt>
<rscale>  0 0.86519892E+02</rscale>
<asrwt>0</asrwt>
<pdfrwt beam="1">  1        2 0.18775644E+00 0.86519892E+02</pdfrwt>
<pdfrwt beam="2">  1       -1 0.23591219E-03 0.86519892E+02</pdfrwt>
<totfact> 0.28507837E+05</totfact>
</mgrwt>
</event>
<event>
 8    1  0.2676873E-024  0.8170991E+02  0.7818608E-02  0.1324268E+00
          2   -1    0    0  501    0  0.00000000000E+00  0.00000000000E+00  0.66926356449E+03  0.66926356450E+03  0.25500000000E-02 0. -1.
         -1   -1    0    0    0  501 -0.00000000000E+00 -0.00000000000E+00 -0.24939736820E+01  0.24939787746E+01  0.50400000000E-02 0.  1.
         24    2    1    2    0    0  0.00000000000E+00  0.00000000000E+00  0.66676959081E+03  0.67175754327E+03  0.81709911964E+02 0.  0.
         66    2    3    3    0    0  0.12710672198E+02 -0.25485337771E+02  0.57412524976E+03  0.57483464236E+03  0.20000032785E+01 0.  0.
        -13    1    3    3    0    0 -0.12710672198E+02  0.25485337771E+02  0.92644341051E+02  0.96922900915E+02  0.10566000000E+00 0.  1.
         13    1    4    4    0    0  0.11734579580E+02 -0.24132449883E+02  0.53927201240E+03  0.53993924660E+03  0.10566000000E+00 0. -1.
        -13    1    4    4    0    0  0.13344452994E+00 -0.10887250048E+00  0.30507263559E+01  0.30574100148E+01  0.10566000000E+00 0. -1.
         14    1    4    4    0    0  0.84264808728E+00 -0.12440153875E+01  0.31802511008E+02  0.31837985748E+02  0.00000000000E+00 0. -1.
<mgrwt>
<rscale>  0 0.81709912E+02</rscale>
<asrwt>0</asrwt>
<pdfrwt beam="1">  1        2 0.10296359E+00 0.81709912E+02</pdfrwt>
<pdfrwt beam="2">  1       -1 0.38368879E-03 0.81709912E+02</pdfrwt>
<totfact> 0.31324992E+05</totfact>
</mgrwt>
</event>
<event>
 8    1  0.2813699E-024  0.7918349E+02  0.7818608E-02  0.1331385E+00
         -1   -1    0    0    0  501 -0.00000000000E+00  0.00000000000E+00  0.11500650936E+02  0.11500652041E+02  0.50400000000E-02 0.  1.
          2   -1    0    0  501    0  0.00000000000E+00 -0.00000000000E+00 -0.13629715415E+03  0.13629715417E+03  0.25500000000E-02 0. -1.
         24    2    1    2    0    0 -0.35527136788E-14 -0.35527136788E-14 -0.12479650321E+03  0.14779780621E+03  0.79183485068E+02 0.  0.
         66    2    3    3    0    0  0.17619139566E+02  0.17330899355E+02 -0.12011040087E+03  0.12264298817E+03  0.19999999204E+01 0.  0.
        -13    1    3    3    0    0 -0.17619139566E+02 -0.17330899355E+02 -0.46861023452E+01  0.25154818042E+02  0.10566000000E+00 0.  1.
         13    1    4    4    0    0  0.15085576118E+00  0.31884235819E+00 -0.19985682930E+01  0.20322050014E+01  0.10566000000E+00 0.  1.
        -13    1    4    4    0    0  0.13057560232E+01  0.10004384139E+01 -0.94682033216E+01  0.96106146519E+01  0.10566000000E+00 0.  1.
         14    1    4    4    0    0  0.16162527781E+02  0.16011618583E+02 -0.10864362925E+03  0.11100016852E+03  0.00000000000E+00 0. -1.
<mgrwt>
<rscale>  0 0.79183485E+02</rscale>
<asrwt>0</asrwt>
<pdfrwt beam="1">  1        2 0.20968792E-01 0.79183485E+02</pdfrwt>
<pdfrwt beam="2">  1       -1 0.17693311E-02 0.79183485E+02</pdfrwt>
<totfact> 0.19966772E+05</totfact>
</mgrwt>
</event>
<event>
 8    1  0.2676873E-024  0.7902910E+02  0.7818608E-02  0.1331829E+00
         -1   -1    0    0    0  501 -0.00000000000E+00  0.00000000000E+00  0.95203714610E+01  0.95203727950E+01  0.50400000000E-02 0.  1.
          2   -1    0    0  501    0  0.00000000000E+00 -0.00000000000E+00 -0.16400616369E+03  0.16400616371E+03  0.25500000000E-02 0. -1.
         24    2    1    2    0    0 -0.44408920985E-15  0.00000000000E+00 -0.15448579223E+03  0.17352653651E+03  0.79029101417E+02 0.  0.
         66    2    3    3    0    0  0.33050745400E+01  0.17970981343E+02 -0.15415891925E+03  0.15525093260E+03  0.20000003195E+01 0.  0.
        -13    1    3    3    0    0 -0.33050745400E+01 -0.17970981343E+02 -0.32687298234E+00  0.18275603906E+02  0.10566000000E+00 0.  1.
         13    1    4    4    0    0  0.14945788128E+01  0.71432231104E+01 -0.68512397518E+02  0.68900066618E+02  0.10566000000E+00 0. -1.
        -13    1    4    4    0    0  0.18620463586E+01  0.10254899861E+02 -0.81859016025E+02  0.82519936115E+02  0.10566000000E+00 0.  1.
        -14    1    4    4    0    0 -0.51550631383E-01  0.57285837224E+00 -0.37875057038E+01  0.38309298661E+01  0.00000000000E+00 0.  1.
<mgrwt>
<rscale>  0 0.79029101E+02</rscale>
<asrwt>0</asrwt>
<pdfrwt beam="1">  1        2 0.25231715E-01 0.79029101E+02</pdfrwt>
<pdfrwt beam="2">  1       -1 0.14646728E-02 0.79029101E+02</pdfrwt>
<totfact> 0.21299540E+05</totfact>
</mgrwt>
</event>
<event>
 8    1  0.2676873E-024  0.7860292E+02  0.7818608E-02  0.1333064E+00
          2   -1    0    0  501    0  0.00000000000E+00  0.00000000000E+00  0.69360898725E+01  0.69360903412E+01  0.25500000000E-02 0. -1.
         -1   -1    0    0    0  501 -0.00000000000E+00 -0.00000000000E+00 -0.22269100532E+03  0.22269100537E+03  0.50400000000E-02 0.  1.
         24    2    1    2    0    0  0.35527136788E-14  0.00000000000E+00 -0.21575491544E+03  0.22962709572E+03  0.78602923280E+02 0.  0.
         66    2    3    3    0    0  0.26684453695E+02  0.17187304894E+02 -0.40367336576E+02  0.51390518369E+02  0.19999993720E+01 0.  0.
        -13    1    3    3    0    0 -0.26684453695E+02 -0.17187304894E+02 -0.17538757887E+03  0.17823657735E+03  0.10566000000E+00 0.  1.
         13    1    4    4    0    0  0.48082904319E+01  0.32463208316E+01 -0.66477302145E+01  0.88239297855E+01  0.10566000000E+00 0. -1.
        -13    1    4    4    0    0  0.40291387287E+01  0.21343419809E+01 -0.65636388776E+01  0.79926149624E+01  0.10566000000E+00 0.  1.
        -14    1    4    4    0    0  0.17847024535E+02  0.11806642082E+02 -0.27155967484E+02  0.34573973621E+02  0.00000000000E+00 0.  1.
<mgrwt>
<rscale>  0 0.78602923E+02</rscale>
<asrwt>0</asrwt>
<pdfrwt beam="1">  1        2 0.10670910E-02 0.78602923E+02</pdfrwt>
<pdfrwt beam="2">  1       -1 0.34260149E-01 0.78602923E+02</pdfrwt>
<totfact> 0.10072920E+05</totfact>
</mgrwt>
</event>
<event>
 8    1  0.2676873E-024  0.8658857E+02  0.7818608E-02  0.1311330E+00
          2   -1    0    0  501    0  0.00000000000E+00  0.00000000000E+00  0.11053473233E+04  0.11053473233E+04  0.25500000000E-02 0. -1.
         -1   -1    0    0    0  501 -0.00000000000E+00 -0.00000000000E+00 -0.16957484791E+01  0.16957559689E+01  0.50400000000E-02 0.  1.
         24    2    1    2    0    0  0.00000000000E+00  0.00000000000E+00  0.11036515748E+04  0.11070430792E+04  0.86588571755E+02 0.  0.
         66    2    3    3    0    0  0.63260127776E+01  0.19340407070E+02  0.10403560584E+04  0.10405569653E+04  0.20000184854E+01 0.  0.
        -13    1    3    3    0    0 -0.63260127776E+01 -0.19340407070E+02  0.63295516402E+02  0.66486113918E+02  0.10566000000E+00 0.  1.
         13    1    4    4    0    0  0.40798296046E+01  0.11058469592E+02  0.59598821818E+03  0.59610477446E+03  0.10566000000E+00 0. -1.
        -13    1    4    4    0    0  0.11213469928E+01  0.21817333953E+01  0.12430634261E+03  0.12433058899E+03  0.10566000000E+00 0.  1.
         14    1    4    4    0    0  0.11248361803E+01  0.61002040825E+01  0.32006149759E+03  0.32012160188E+03  0.00000000000E+00 0. -1.
<mgrwt>
<rscale>  0 0.86588572E+02</rscale>
<asrwt>0</asrwt>
<pdfrwt beam="1">  1        2 0.17005330E+00 0.86588572E+02</pdfrwt>
<pdfrwt beam="2">  1       -1 0.26088516E-03 0.86588572E+02</pdfrwt>
<totfact> 0.28675962E+05</totfact>
</mgrwt>
</event>
<event>
 8    1  0.2676873E-024  0.8213254E+02  0.7818608E-02  0.1323106E+00
         -1   -1    0    0    0  501 -0.00000000000E+00  0.00000000000E+00  0.12304407731E+02  0.12304408763E+02  0.50400000000E-02 0.  1.
          2   -1    0    0  501    0  0.00000000000E+00 -0.00000000000E+00 -0.13705969045E+03  0.13705969047E+03  0.25500000000E-02 0. -1.
         24    2    1    2    0    0  0.88817841970E-15  0.00000000000E+00 -0.12475528272E+03  0.14936409923E+03  0.82132536636E+02 0.  0.
         66    2    3    3    0    0  0.70445818144E+01 -0.24639863457E+02 -0.12071349423E+03  0.12342000121E+03  0.20000012920E+01 0.  0.
        -13    1    3    3    0    0 -0.70445818144E+01  0.24639863457E+02 -0.40417884863E+01  0.25944098024E+02  0.10566000000E+00 0.  1.
         13    1    4    4    0    0  0.49199000961E+01 -0.17939388206E+02 -0.90171875312E+02  0.92070653998E+02  0.10566000000E+00 0. -1.
        -13    1    4    4    0    0  0.85923697587E+00 -0.16967988193E+01 -0.77546084850E+01  0.79851444073E+01  0.10566000000E+00 0.  1.
         14    1    4    4    0    0  0.12654447425E+01 -0.50036764312E+01 -0.22787010431E+02  0.23364202803E+02  0.00000000000E+00 0. -1.
<mgrwt>
<rscale>  0 0.82132537E+02</rscale>
<asrwt>0</asrwt>
<pdfrwt beam="1">  1        2 0.21086105E-01 0.82132537E+02</pdfrwt>
<pdfrwt beam="2">  1       -1 0.18929860E-02 0.82132537E+02</pdfrwt>
<totfact> 0.18147157E+05</totfact>
</mgrwt>
</event>
<event>
 8    1  0.2676873E-024  0.8532492E+02  0.7818608E-02  0.1314585E+00
         -1   -1    0    0    0  501 -0.00000000000E+00  0.00000000000E+00  0.16846960327E+01  0.16847035716E+01  0.50400000000E-02 0.  1.
          2   -1    0    0  501    0  0.00000000000E+00 -0.00000000000E+00 -0.10803618318E+04  0.10803618318E+04  0.25500000000E-02 0. -1.
         24    2    1    2    0    0 -0.17763568394E-14  0.00000000000E+00 -0.10786771358E+04  0.10820465354E+04  0.85324917163E+02 0.  0.
         66    2    3    3    0    0  0.15818136538E+02  0.27922053013E+02 -0.89567128559E+03  0.89624823923E+03  0.19999999934E+01 0.  0.
        -13    1    3    3    0    0 -0.15818136538E+02 -0.27922053013E+02 -0.18300585017E+03  0.18579829614E+03  0.10566000000E+00 0.  1.
         13    1    4    4    0    0  0.10205805291E+02  0.18313428788E+02 -0.58429640972E+03  0.58467242599E+03  0.10566000000E+00 0. -1.
        -13    1    4    4    0    0  0.69922932704E+00  0.88617960378E+00 -0.40979116539E+02  0.40994797137E+02  0.10566000000E+00 0.  1.
        -14    1    4    4    0    0  0.49131019201E+01  0.87224446211E+01 -0.27039575933E+03  0.27058101610E+03  0.00000000000E+00 0.  1.
<mgrwt>
<rscale>  0 0.85324917E+02</rscale>
<asrwt>0</asrwt>
<pdfrwt beam="1">  1        2 0.16620896E+00 0.85324917E+02</pdfrwt>
<pdfrwt beam="2">  1       -1 0.25918545E-03 0.85324917E+02</pdfrwt>
<totfact> 0.29817863E+05</totfact>
</mgrwt>
</event>
<event>
 8    1  0.2676873E-024  0.7974603E+02  0.7818608E-02  0.1329774E+00
         -1   -1    0    0    0  501 -0.00000000000E+00  0.00000000000E+00  0.25630871412E+01  0.25630920964E+01  0.50400000000E-02 0.  1.
          2   -1    0    0  501    0  0.00000000000E+00 -0.00000000000E+00 -0.62028944084E+03  0.62028944085E+03  0.25500000000E-02 0. -1.
         24    2    1    2    0    0  0.00000000000E+00 -0.35527136788E-14 -0.61772635370E+03  0.62285253295E+03  0.79746032740E+02 0.  0.
         66    2    3    3    0    0 -0.33045038772E+02 -0.19028653000E+02 -0.39939795773E+03  0.40121913322E+03  0.19999998593E+01 0.  0.
        -13    1    3    3    0    0  0.33045038772E+02  0.19028653000E+02 -0.21832839597E+03  0.22163339972E+03  0.10566000000E+00 0.  1.
         13    1    4    4    0    0 -0.41510924843E+01 -0.22052587967E+01 -0.46969647410E+02  0.47204381968E+02  0.10566000000E+00 0.  1.
        -13    1    4    4    0    0 -0.12076363194E+02 -0.74755271813E+01 -0.15750201108E+03  0.15814112910E+03  0.10566000000E+00 0.  1.
         14    1    4    4    0    0 -0.16817583093E+02 -0.93478670221E+01 -0.19492629924E+03  0.19587362215E+03  0.00000000000E+00 0. -1.
<mgrwt>
<rscale>  0 0.79746033E+02</rscale>
<asrwt>0</asrwt>
<pdfrwt beam="1">  1        2 0.95429025E-01 0.79746033E+02</pdfrwt>
<pdfrwt beam="2">  1       -1 0.39432198E-03 0.79746033E+02</pdfrwt>
<totfact> 0.32727064E+05</totfact>
</mgrwt>
</event>
<event>
 8    1  0.2676873E-024  0.7903446E+02  0.7818608E-02  0.1331814E+00
         -1   -1    0    0    0  501 -0.00000000000E+00  0.00000000000E+00  0.10945017229E+03  0.10945017240E+03  0.50400000000E-02 0.  1.
          2   -1    0    0  501    0  0.00000000000E+00 -0.00000000000E+00 -0.14267782521E+02  0.14267782749E+02  0.25500000000E-02 0. -1.
         24    2    1    2    0    0  0.35527136788E-14  0.00000000000E+00  0.95182389765E+02  0.12371795515E+03  0.79034455180E+02 0.  0.
         66    2    3    3    0    0 -0.19372509547E+02 -0.26459721749E+02  0.13176555543E+02  0.35398200784E+02  0.20000003918E+01 0.  0.
        -13    1    3    3    0    0  0.19372509547E+02  0.26459721749E+02  0.82005834221E+02  0.88319754368E+02  0.10566000000E+00 0.  1.
         13    1    4    4    0    0 -0.70483367092E+01 -0.93785944784E+01  0.43106837966E+01  0.12499209719E+02  0.10566000000E+00 0. -1.
        -13    1    4    4    0    0 -0.71422447514E+01 -0.86923981605E+01  0.45658145454E+01  0.12141963283E+02  0.10566000000E+00 0.  1.
         14    1    4    4    0    0 -0.51819280866E+01 -0.83887291098E+01  0.43000572013E+01  0.10757027782E+02  0.00000000000E+00 0. -1.
<mgrwt>
<rscale>  0 0.79034455E+02</rscale>
<asrwt>0</asrwt>
<pdfrwt beam="1">  1        2 0.21950435E-02 0.79034455E+02</pdfrwt>
<pdfrwt beam="2">  1       -1 0.16838488E-01 0.79034455E+02</pdfrwt>
<totfact> 0.11980927E+05</totfact>
</mgrwt>
</event>
<event>
 8    1  0.2676873E-024  0.8027766E+02  0.7818608E-02  0.1328265E+00
          2   -1    0    0  501    0  0.00000000000E+00  0.00000000000E+00  0.25843911848E+03  0.25843911849E+03  0.25500000000E-02 0. -1.
         -1   -1    0    0    0  501 -0.00000000000E+00 -0.00000000000E+00 -0.62340613556E+01  0.62340633930E+01  0.50400000000E-02 0.  1.
         24    2    1    2    0    0  0.00000000000E+00  0.22204460493E-15  0.25220505712E+03  0.26467318188E+03  0.80277657977E+02 0.  0.
         66    2    3    3    0    0  0.36877368196E+02  0.10829906255E+01  0.74259032031E+02  0.82942853750E+02  0.19999990653E+01 0.  0.
        -13    1    3    3    0    0 -0.36877368196E+02 -0.10829906255E+01  0.17794602509E+03  0.18173032813E+03  0.10566000000E+00 0.  1.
         13    1    4    4    0    0  0.20777137332E+02  0.60345917498E+00  0.41076679971E+02  0.46036489877E+02  0.10566000000E+00 0. -1.
        -13    1    4    4    0    0  0.77839252400E+00  0.10086131633E+00  0.11519893810E+01  0.13979669152E+01  0.10566000000E+00 0.  1.
         14    1    4    4    0    0  0.15321838339E+02  0.37867013418E+00  0.32030362679E+02  0.35508396958E+02  0.00000000000E+00 0. -1.
<mgrwt>
<rscale>  0 0.80277658E+02</rscale>
<asrwt>0</asrwt>
<pdfrwt beam="1">  1        2 0.39759869E-01 0.80277658E+02</pdfrwt>
<pdfrwt beam="2">  1       -1 0.95908642E-03 0.80277658E+02</pdfrwt>
<totfact> 0.23935736E+05</totfact>
</mgrwt>
</event>
<event>
 8    1  0.2676873E-024  0.8013596E+02  0.7818608E-02  0.1328666E+00
         -1   -1    0    0    0  501 -0.00000000000E+00  0.00000000000E+00  0.20051369897E+02  0.20051370531E+02  0.50400000000E-02 0.  1.
          2   -1    0    0  501    0  0.00000000000E+00 -0.00000000000E+00 -0.80066494794E+02  0.80066494835E+02  0.25500000000E-02 0. -1.
         24    2    1    2    0    0 -0.35527136788E-14  0.35527136788E-14 -0.60015124897E+02  0.10011786537E+03  0.80135957903E+02 0.  0.
         66    2    3    3    0    0 -0.29625841329E+02  0.23708108139E+02 -0.46009735626E+02  0.59671271459E+02  0.19999997971E+01 0.  0.
        -13    1    3    3    0    0  0.29625841329E+02 -0.23708108139E+02 -0.14005389270E+02  0.40446593906E+02  0.10566000000E+00 0.  1.
         13    1    4    4    0    0 -0.11879100901E+02  0.98769777363E+01 -0.17944892795E+02  0.23679063936E+02  0.10566000000E+00 0. -1.
        -13    1    4    4    0    0 -0.77022877703E+01  0.54911091064E+01 -0.11063619813E+02  0.14556523058E+02  0.10566000000E+00 0.  1.
         14    1    4    4    0    0 -0.10044452657E+02  0.83400212958E+01 -0.17001223018E+02  0.21435684465E+02  0.00000000000E+00 0. -1.
<mgrwt>
<rscale>  0 0.80135958E+02</rscale>
<asrwt>0</asrwt>
<pdfrwt beam="1">  1        2 0.12317922E-01 0.80135958E+02</pdfrwt>
<pdfrwt beam="2">  1       -1 0.30848262E-02 0.80135958E+02</pdfrwt>
<totfact> 0.16622940E+05</totfact>
</mgrwt>
</event>
<event>
 8    1  0.2676873E-024  0.7958077E+02  0.7818608E-02  0.1330245E+00
          2   -1    0    0  501    0  0.00000000000E+00  0.00000000000E+00  0.34082712374E+02  0.34082712470E+02  0.25500000000E-02 0. -1.
         -1   -1    0    0    0  501 -0.00000000000E+00 -0.00000000000E+00 -0.46453892987E+02  0.46453893261E+02  0.50400000000E-02 0.  1.
         24    2    1    2    0    0 -0.35527136788E-14  0.35527136788E-14 -0.12371180613E+02  0.80536605730E+02  0.79580768737E+02 0.  0.
         66    2    3    3    0    0 -0.31191797047E+02  0.24603848371E+02 -0.44389254453E+01  0.40024763094E+02  0.20000109697E+01 0.  0.
        -13    1    3    3    0    0  0.31191797047E+02 -0.24603848371E+02 -0.79322551677E+01  0.40511842636E+02  0.10566000000E+00 0.  1.
         13    1    4    4    0    0 -0.17362400651E+02  0.14663385716E+02 -0.25018907312E+01  0.22863474327E+02  0.10566000000E+00 0. -1.
        -13    1    4    4    0    0 -0.37179585025E+00  0.20902320262E+00  0.13816832417E-01  0.43963370429E+00  0.10566000000E+00 0.  1.
         14    1    4    4    0    0 -0.13457600546E+02  0.97314394526E+01 -0.19508515465E+01  0.16721655063E+02  0.00000000000E+00 0. -1.
<mgrwt>
<rscale>  0 0.79580769E+02</rscale>
<asrwt>0</asrwt>
<pdfrwt beam="1">  1        2 0.52434942E-02 0.79580769E+02</pdfrwt>
<pdfrwt beam="2">  1       -1 0.71467528E-02 0.79580769E+02</pdfrwt>
<totfact> 0.14003730E+05</totfact>
</mgrwt>
</event>
<event>
 8    1  0.2676873E-024  0.8041465E+02  0.7818608E-02  0.1327879E+00
         -1   -1    0    0    0  501 -0.00000000000E+00  0.00000000000E+00  0.37863295033E+01  0.37863328577E+01  0.50400000000E-02 0.  1.
          2   -1    0    0  501    0  0.00000000000E+00 -0.00000000000E+00 -0.42696447036E+03  0.42696447036E+03  0.25500000000E-02 0. -1.
         24    2    1    2    0    0  0.00000000000E+00  0.00000000000E+00 -0.42317814085E+03  0.43075080322E+03  0.80414647797E+02 0.  0.
         66    2    3    3    0    0 -0.17441137253E+02  0.16936313903E+02 -0.38309730719E+03  0.38387312848E+03  0.20000004115E+01 0.  0.
        -13    1    3    3    0    0  0.17441137253E+02 -0.16936313903E+02 -0.40080833667E+02  0.46877674737E+02  0.10566000000E+00 0.  1.
         13    1    4    4    0    0 -0.93552053513E+01  0.91907088068E+01 -0.21382944048E+03  0.21423125303E+03  0.10566000000E+00 0. -1.
        -13    1    4    4    0    0 -0.27388062087E+00  0.25748214734E+00 -0.36407057075E+01  0.36615856858E+01  0.10566000000E+00 0.  1.
        -14    1    4    4    0    0 -0.78120512813E+01  0.74881229490E+01 -0.16562716100E+03  0.16598028977E+03  0.00000000000E+00 0.  1.
<mgrwt>
<rscale>  0 0.80414648E+02</rscale>
<asrwt>0</asrwt>
<pdfrwt beam="1">  1        2 0.65686804E-01 0.80414648E+02</pdfrwt>
<pdfrwt beam="2">  1       -1 0.58251283E-03 0.80414648E+02</pdfrwt>
<totfact> 0.28511404E+05</totfact>
</mgrwt>
</event>
<event>
 8    1  0.2676873E-024  0.8004373E+02  0.7818608E-02  0.1328927E+00
          2   -1    0    0  501    0  0.00000000000E+00  0.00000000000E+00  0.37592832849E+03  0.37592832850E+03  0.25500000000E-02 0. -1.
         -1   -1    0    0    0  501 -0.00000000000E+00 -0.00000000000E+00 -0.42607834909E+01  0.42607864718E+01  0.50400000000E-02 0.  1.
         24    2    1    2    0    0  0.00000000000E+00  0.00000000000E+00  0.37166754500E+03  0.38018911497E+03  0.80043732649E+02 0.  0.
         66    2    3    3    0    0 -0.25229886773E+02  0.30755696637E+02  0.16620233693E+03  0.17090838735E+03  0.20000008918E+01 0.  0.
        -13    1    3    3    0    0  0.25229886773E+02 -0.30755696637E+02  0.20546520807E+03  0.20928072762E+03  0.10566000000E+00 0.  1.
         13    1    4    4    0    0 -0.11444867503E+02  0.13636098294E+02  0.75324771284E+02  0.77400003242E+02  0.10566000000E+00 0.  1.
        -13    1    4    4    0    0 -0.10787680504E+02  0.12565375047E+02  0.69644167729E+02  0.71586199532E+02  0.10566000000E+00 0. -1.
        -14    1    4    4    0    0 -0.29973387672E+01  0.45542232956E+01  0.21233397916E+02  0.21922184576E+02  0.00000000000E+00 0.  1.
<mgrwt>
<rscale>  0 0.80043733E+02</rscale>
<asrwt>0</asrwt>
<pdfrwt beam="1">  1        2 0.57835144E-01 0.80043733E+02</pdfrwt>
<pdfrwt beam="2">  1       -1 0.65550520E-03 0.80043733E+02</pdfrwt>
<totfact> 0.27603128E+05</totfact>
</mgrwt>
</event>
<event>
 8    1  0.2676873E-024  0.7661877E+02  0.7818608E-02  0.1338930E+00
         -1   -1    0    0    0  501 -0.00000000000E+00  0.00000000000E+00  0.40997796658E+01  0.40997827637E+01  0.50400000000E-02 0.  1.
          2   -1    0    0  501    0  0.00000000000E+00 -0.00000000000E+00 -0.35797248554E+03  0.35797248555E+03  0.25500000000E-02 0. -1.
         24    2    1    2    0    0  0.00000000000E+00  0.71054273576E-14 -0.35387270587E+03  0.36207226831E+03  0.76618767403E+02 0.  0.
         66    2    3    3    0    0 -0.18902165936E+02  0.33131882709E+02 -0.16167796068E+03  0.16612879490E+03  0.19999990648E+01 0.  0.
        -13    1    3    3    0    0  0.18902165936E+02 -0.33131882709E+02 -0.19219474519E+03  0.19594347341E+03  0.10566000000E+00 0.  1.
         13    1    4    4    0    0 -0.58076015287E+01  0.10295128697E+02 -0.52055821596E+02  0.53381060653E+02  0.10566000000E+00 0. -1.
        -13    1    4    4    0    0 -0.10504101167E+02  0.18451940259E+02 -0.85919736894E+02  0.88504364822E+02  0.10566000000E+00 0.  1.
         14    1    4    4    0    0 -0.25904632408E+01  0.43848137524E+01 -0.23702402194E+02  0.24243369427E+02  0.00000000000E+00 0. -1.
<mgrwt>
<rscale>  0 0.76618767E+02</rscale>
<asrwt>0</asrwt>
<pdfrwt beam="1">  1        2 0.55072665E-01 0.76618767E+02</pdfrwt>
<pdfrwt beam="2">  1       -1 0.63073586E-03 0.76618767E+02</pdfrwt>
<totfact> 0.30408201E+05</totfact>
</mgrwt>
</event>
<event>
 8    1  0.2676873E-024  0.7835195E+02  0.7818608E-02  0.1333795E+00
          2   -1    0    0  501    0  0.00000000000E+00  0.00000000000E+00  0.37997574195E+03  0.37997574196E+03  0.25500000000E-02 0. -1.
         -1   -1    0    0    0  501 -0.00000000000E+00 -0.00000000000E+00 -0.40390901263E+01  0.40390932707E+01  0.50400000000E-02 0.  1.
         24    2    1    2    0    0  0.00000000000E+00  0.00000000000E+00  0.37593665183E+03  0.38401483523E+03  0.78351946318E+02 0.  0.
         66    2    3    3    0    0 -0.20227887042E+02  0.14139362263E+02  0.33704542114E+03  0.33795370230E+03  0.20000004227E+01 0.  0.
        -13    1    3    3    0    0  0.20227887042E+02 -0.14139362263E+02  0.38891230684E+02  0.46061132939E+02  0.10566000000E+00 0.  1.
         13    1    4    4    0    0 -0.77428879864E+01  0.52032355473E+01  0.13346021425E+03  0.13378589584E+03  0.10566000000E+00 0. -1.
        -13    1    4    4    0    0 -0.39077641516E+01  0.21242118947E+01  0.55420601201E+02  0.55598894758E+02  0.10566000000E+00 0.  1.
         14    1    4    4    0    0 -0.85772349042E+01  0.68119148209E+01  0.14816460569E+03  0.14856891169E+03  0.00000000000E+00 0. -1.
<mgrwt>
<rscale>  0 0.78351946E+02</rscale>
<asrwt>0</asrwt>
<pdfrwt beam="1">  1        2 0.58457813E-01 0.78351946E+02</pdfrwt>
<pdfrwt beam="2">  1       -1 0.62139866E-03 0.78351946E+02</pdfrwt>
<totfact> 0.29297552E+05</totfact>
</mgrwt>
</event>
<event>
 8    1  0.2676873E-024  0.8006919E+02  0.7818608E-02  0.1328855E+00
         -1   -1    0    0    0  501 -0.00000000000E+00  0.00000000000E+00  0.58525759646E+01  0.58525781347E+01  0.50400000000E-02 0.  1.
          2   -1    0    0  501    0  0.00000000000E+00 -0.00000000000E+00 -0.27385694904E+03  0.27385694905E+03  0.25500000000E-02 0. -1.
         24    2    1    2    0    0  0.00000000000E+00  0.00000000000E+00 -0.26800437308E+03  0.27970952719E+03  0.80069192648E+02 0.  0.
         66    2    3    3    0    0 -0.18492455197E+02 -0.25489442392E+02 -0.22029989164E+03  0.22254825283E+03  0.20000024307E+01 0.  0.
        -13    1    3    3    0    0  0.18492455197E+02  0.25489442392E+02 -0.47704481437E+02  0.57161274355E+02  0.10566000000E+00 0.  1.
         13    1    4    4    0    0 -0.69877516003E+01 -0.10320734695E+02 -0.85084914214E+02  0.85993023135E+02  0.10566000000E+00 0. -1.
        -13    1    4    4    0    0 -0.40742104358E+01 -0.43987434382E+01 -0.43797958594E+02  0.44206565978E+02  0.10566000000E+00 0. -1.
        -14    1    4    4    0    0 -0.74304931610E+01 -0.10769964259E+02 -0.91417018831E+02  0.92348663719E+02  0.00000000000E+00 0.  1.
<mgrwt>
<rscale>  0 0.80069193E+02</rscale>
<asrwt>0</asrwt>
<pdfrwt beam="1">  1        2 0.42131829E-01 0.80069193E+02</pdfrwt>
<pdfrwt beam="2">  1       -1 0.90039668E-03 0.80069193E+02</pdfrwt>
<totfact> 0.24610268E+05</totfact>
</mgrwt>
</event>
<event>
 8    1  0.2676873E-024  0.8499283E+02  0.7818608E-02  0.1315451E+00
          2   -1    0    0  501    0  0.00000000000E+00  0.00000000000E+00  0.94977366050E+02  0.94977366084E+02  0.25500000000E-02 0. -1.
         -1   -1    0    0    0  501 -0.00000000000E+00 -0.00000000000E+00 -0.19014480872E+02  0.19014481540E+02  0.50400000000E-02 0.  1.
         24    2    1    2    0    0  0.00000000000E+00 -0.35527136788E-14  0.75962885177E+02  0.11399184762E+03  0.84992831464E+02 0.  0.
         66    2    3    3    0    0  0.17948670989E+02 -0.25926553736E+02  0.76164014777E+02  0.82457856503E+02  0.19999933095E+01 0.  0.
        -13    1    3    3    0    0 -0.17948670989E+02  0.25926553736E+02 -0.20112959924E+00  0.31533991121E+02  0.10566000000E+00 0.  1.
         13    1    4    4    0    0  0.11009288485E+02 -0.17335307617E+02  0.49575909734E+02  0.53660966383E+02  0.10566000000E+00 0. -1.
        -13    1    4    4    0    0  0.39408031728E+00 -0.36656720435E+00  0.12488707758E+01  0.13640062544E+01  0.10566000000E+00 0.  1.
         14    1    4    4    0    0  0.65453021871E+01 -0.82246789144E+01  0.25339234267E+02  0.27432883866E+02  0.00000000000E+00 0. -1.
<mgrwt>
<rscale>  0 0.84992831E+02</rscale>
<asrwt>0</asrwt>
<pdfrwt beam="1">  1        2 0.14611903E-01 0.84992831E+02</pdfrwt>
<pdfrwt beam="2">  1       -1 0.29253047E-02 0.84992831E+02</pdfrwt>
<totfact> 0.14846241E+05</totfact>
</mgrwt>
</event>
<event>
 8    1  0.2676873E-024  0.8196088E+02  0.7818608E-02  0.1323577E+00
         -1   -1    0    0    0  501 -0.00000000000E+00  0.00000000000E+00  0.41600444127E+01  0.41600474657E+01  0.50400000000E-02 0.  1.
          2   -1    0    0  501    0  0.00000000000E+00 -0.00000000000E+00 -0.40369662642E+03  0.40369662642E+03  0.25500000000E-02 0. -1.
         24    2    1    2    0    0  0.00000000000E+00  0.00000000000E+00 -0.39953658200E+03  0.40785667389E+03  0.81960881386E+02 0.  0.
         66    2    3    3    0    0  0.26831850357E+02  0.72085170429E+01 -0.34962784374E+03  0.35073571249E+03  0.19999975379E+01 0.  0.
        -13    1    3    3    0    0 -0.26831850357E+02 -0.72085170429E+01 -0.49908738266E+02  0.57120961397E+02  0.10566000000E+00 0.  1.
         13    1    4    4    0    0  0.41537033548E+01  0.74155367444E+00 -0.50583615424E+02  0.50759397818E+02  0.10566000000E+00 0.  1.
        -13    1    4    4    0    0  0.19080275746E+02  0.59949900618E+01 -0.25366177014E+03  0.25444901576E+03  0.10566000000E+00 0. -1.
         14    1    4    4    0    0  0.35978712564E+01  0.47197330668E+00 -0.45382458172E+02  0.45527298911E+02  0.00000000000E+00 0. -1.
<mgrwt>
<rscale>  0 0.81960881E+02</rscale>
<asrwt>0</asrwt>
<pdfrwt beam="1">  1        2 0.62107142E-01 0.81960881E+02</pdfrwt>
<pdfrwt beam="2">  1       -1 0.64000739E-03 0.81960881E+02</pdfrwt>
<totfact> 0.26605239E+05</totfact>
</mgrwt>
</event>
<event>
 8    1  0.2676873E-024  0.8961356E+02  0.7818608E-02  0.1303790E+00
          2   -1    0    0  501    0  0.00000000000E+00  0.00000000000E+00  0.17097384618E+03  0.17097384620E+03  0.25500000000E-02 0. -1.
         -1   -1    0    0    0  501 -0.00000000000E+00 -0.00000000000E+00 -0.11742425104E+02  0.11742426186E+02  0.50400000000E-02 0.  1.
         24    2    1    2    0    0  0.71054273576E-14 -0.88817841970E-15  0.15923142108E+03  0.18271627239E+03  0.89613563351E+02 0.  0.
         66    2    3    3    0    0  0.43247874142E+02  0.45118033286E+01  0.10151161815E+03  0.11045063877E+03  0.19999999311E+01 0.  0.
        -13    1    3    3    0    0 -0.43247874142E+02 -0.45118033286E+01  0.57719802930E+02  0.72265633612E+02  0.10566000000E+00 0.  1.
         13    1    4    4    0    0  0.12095830737E+02  0.15984953803E+01  0.29382896097E+02  0.31815563107E+02  0.10566000000E+00 0. -1.
        -13    1    4    4    0    0  0.30978474271E+01  0.85958643628E-01  0.62957255701E+01  0.70179321784E+01  0.10566000000E+00 0.  1.
        -14    1    4    4    0    0  0.28054195978E+02  0.28273493047E+01  0.65832996479E+02  0.71617143488E+02  0.00000000000E+00 0.  1.
<mgrwt>
<rscale>  0 0.89613563E+02</rscale>
<asrwt>0</asrwt>
<pdfrwt beam="1">  1        2 0.26303668E-01 0.89613563E+02</pdfrwt>
<pdfrwt beam="2">  1       -1 0.18065271E-02 0.89613563E+02</pdfrwt>
<totfact> 0.15456540E+05</totfact>
</mgrwt>
</event>
<event>
 8    1  0.2676873E-024  0.8076416E+02  0.7818608E-02  0.1326897E+00
         -1   -1    0    0    0  501 -0.00000000000E+00  0.00000000000E+00  0.32953390683E+01  0.32953429225E+01  0.50400000000E-02 0.  1.
          2   -1    0    0  501    0  0.00000000000E+00 -0.00000000000E+00 -0.49485389571E+03  0.49485389571E+03  0.25500000000E-02 0. -1.
         24    2    1    2    0    0  0.00000000000E+00  0.00000000000E+00 -0.49155855664E+03  0.49814923863E+03  0.80764158814E+02 0.  0.
         66    2    3    3    0    0  0.37617416416E+02 -0.11490960765E+02 -0.30164468978E+03  0.30420491625E+03  0.20000000498E+01 0.  0.
        -13    1    3    3    0    0 -0.37617416416E+02  0.11490960765E+02 -0.18991386685E+03  0.19394432238E+03  0.10566000000E+00 0.  1.
         13    1    4    4    0    0  0.33052208990E+01 -0.93260292720E+00 -0.27276081422E+02  0.27491635368E+02  0.10566000000E+00 0. -1.
        -13    1    4    4    0    0  0.21856154187E+02 -0.74785780104E+01 -0.18009752899E+03  0.18157299280E+03  0.10566000000E+00 0.  1.
        -14    1    4    4    0    0  0.12456041330E+02 -0.30797798271E+01 -0.94271079375E+02  0.95140288080E+02  0.00000000000E+00 0.  1.
<mgrwt>
<rscale>  0 0.80764159E+02</rscale>
<asrwt>0</asrwt>
<pdfrwt beam="1">  1        2 0.76131310E-01 0.80764159E+02</pdfrwt>
<pdfrwt beam="2">  1       -1 0.50697593E-03 0.80764159E+02</pdfrwt>
<totfact> 0.29607659E+05</totfact>
</mgrwt>
</event>
<event>
 8    1  0.2676873E-024  0.7931061E+02  0.7818608E-02  0.1331019E+00
          2   -1    0    0  501    0  0.00000000000E+00  0.00000000000E+00  0.39581841162E+03  0.39581841163E+03  0.25500000000E-02 0. -1.
         -1   -1    0    0    0  501 -0.00000000000E+00 -0.00000000000E+00 -0.39728888327E+01  0.39728920295E+01  0.50400000000E-02 0.  1.
         24    2    1    2    0    0  0.00000000000E+00  0.00000000000E+00  0.39184552279E+03  0.39979130366E+03  0.79310609327E+02 0.  0.
         66    2    3    3    0    0  0.37944861240E+02 -0.85335446098E+01  0.23440515440E+03  0.23761820281E+03  0.20000042201E+01 0.  0.
        -13    1    3    3    0    0 -0.37944861240E+02  0.85335446098E+01  0.15744036838E+03  0.16217310085E+03  0.10566000000E+00 0.  1.
         13    1    4    4    0    0  0.20483170168E+02 -0.41896526655E+01  0.12430162903E+03  0.12604768777E+03  0.10566000000E+00 0. -1.
        -13    1    4    4    0    0  0.11587565844E+02 -0.31774238169E+01  0.70465735703E+02  0.71482856522E+02  0.10566000000E+00 0.  1.
         14    1    4    4    0    0  0.58741252283E+01 -0.11664681274E+01  0.39637789675E+02  0.40087658517E+02  0.00000000000E+00 0. -1.
<mgrwt>
<rscale>  0 0.79310609E+02</rscale>
<asrwt>0</asrwt>
<pdfrwt beam="1">  1        2 0.60895141E-01 0.79310609E+02</pdfrwt>
<pdfrwt beam="2">  1       -1 0.61121391E-03 0.79310609E+02</pdfrwt>
<totfact> 0.28793335E+05</totfact>
</mgrwt>
</event>
<event>
 8    1  0.2676873E-024  0.7946127E+02  0.7818608E-02  0.1330587E+00
          2   -1    0    0  501    0  0.00000000000E+00  0.00000000000E+00  0.38673005565E+03  0.38673005566E+03  0.25500000000E-02 0. -1.
         -1   -1    0    0    0  501 -0.00000000000E+00 -0.00000000000E+00 -0.40817173234E+01  0.40817204350E+01  0.50400000000E-02 0.  1.
         24    2    1    2    0    0 -0.17763568394E-14  0.00000000000E+00  0.38264833833E+03  0.39081177610E+03  0.79461270499E+02 0.  0.
         66    2    3    3    0    0  0.14367797216E+02  0.21101022837E+01  0.37319696340E+03  0.37348475152E+03  0.20000001198E+01 0.  0.
        -13    1    3    3    0    0 -0.14367797216E+02 -0.21101022837E+01  0.94513749303E+01  0.17327024574E+02  0.10566000000E+00 0.  1.
         13    1    4    4    0    0  0.62720864835E+01  0.97549737577E+00  0.14917651925E+03  0.14931153915E+03  0.10566000000E+00 0. -1.
        -13    1    4    4    0    0  0.31104157919E+01  0.93620061136E+00  0.98697267004E+02  0.98750761192E+02  0.10566000000E+00 0.  1.
        -14    1    4    4    0    0  0.49852949408E+01  0.19840429653E+00  0.12532317715E+03  0.12542245118E+03  0.00000000000E+00 0.  1.
<mgrwt>
<rscale>  0 0.79461270E+02</rscale>
<asrwt>0</asrwt>
<pdfrwt beam="1">  1        2 0.59496947E-01 0.79461270E+02</pdfrwt>
<pdfrwt beam="2">  1       -1 0.62795659E-03 0.79461270E+02</pdfrwt>
<totfact> 0.28418158E+05</totfact>
</mgrwt>
</event>
<event>
 8    1  0.2676873E-024  0.8011742E+02  0.7818608E-02  0.1328719E+00
         -1   -1    0    0    0  501 -0.00000000000E+00  0.00000000000E+00  0.57530652803E+01  0.57530674880E+01  0.50400000000E-02 0.  1.
          2   -1    0    0  501    0  0.00000000000E+00 -0.00000000000E+00 -0.27892956122E+03  0.27892956123E+03  0.25500000000E-02 0. -1.
         24    2    1    2    0    0  0.00000000000E+00 -0.17763568394E-14 -0.27317649594E+03  0.28468262872E+03  0.80117421082E+02 0.  0.
         66    2    3    3    0    0  0.37018440892E+02 -0.13982665384E+02 -0.15823313751E+03  0.16311837942E+03  0.20000000638E+01 0.  0.
        -13    1    3    3    0    0 -0.37018440892E+02  0.13982665384E+02 -0.11494335843E+03  0.12156424931E+03  0.10566000000E+00 0.  1.
         13    1    4    4    0    0  0.29071252185E+02 -0.10331770980E+02 -0.12179207210E+03  0.12563917855E+03  0.10566000000E+00 0. -1.
        -13    1    4    4    0    0  0.76086804375E+01 -0.34874887907E+01 -0.34395028977E+02  0.35398923408E+02  0.10566000000E+00 0.  1.
         14    1    4    4    0    0  0.33850826920E+00 -0.16340561325E+00 -0.20460364271E+01  0.20802774584E+01  0.00000000000E+00 0. -1.
<mgrwt>
<rscale>  0 0.80117421E+02</rscale>
<asrwt>0</asrwt>
<pdfrwt beam="1">  1        2 0.42912230E-01 0.80117421E+02</pdfrwt>
<pdfrwt beam="2">  1       -1 0.88508736E-03 0.80117421E+02</pdfrwt>
<totfact> 0.24735296E+05</totfact>
</mgrwt>
</event>
<event>
 8    1  0.2676873E-024  0.8009225E+02  0.7818608E-02  0.1328790E+00
          2   -1    0    0  501    0  0.00000000000E+00  0.00000000000E+00  0.28078807912E+02  0.28078808028E+02  0.25500000000E-02 0. -1.
         -1   -1    0    0    0  501 -0.00000000000E+00 -0.00000000000E+00 -0.57113971063E+02  0.57113971286E+02  0.50400000000E-02 0.  1.
         24    2    1    2    0    0  0.00000000000E+00  0.00000000000E+00 -0.29035163151E+02  0.85192779314E+02  0.80092252734E+02 0.  0.
         66    2    3    3    0    0 -0.17914918197E+02 -0.23385165390E+02  0.14288742669E+02  0.32802109974E+02  0.19999993480E+01 0.  0.
        -13    1    3    3    0    0  0.17914918197E+02  0.23385165390E+02 -0.43323905819E+02  0.52390669339E+02  0.10566000000E+00 0.  1.
         13    1    4    4    0    0 -0.42037315165E+01 -0.56407005269E+01  0.30600555292E+01  0.76722855118E+01  0.10566000000E+00 0.  1.
        -13    1    4    4    0    0 -0.49153451163E+01 -0.52974740341E+01  0.40143768998E+01  0.82674200742E+01  0.10566000000E+00 0.  1.
         14    1    4    4    0    0 -0.87958415639E+01 -0.12446990829E+02  0.72143102396E+01  0.16862404388E+02  0.00000000000E+00 0. -1.
<mgrwt>
<rscale>  0 0.80092253E+02</rscale>
<asrwt>0</asrwt>
<pdfrwt beam="1">  1        2 0.43198166E-02 0.80092253E+02</pdfrwt>
<pdfrwt beam="2">  1       -1 0.87867648E-02 0.80092253E+02</pdfrwt>
<totfact> 0.13237894E+05</totfact>
</mgrwt>
</event>
<event>
 8    1  0.2676873E-024  0.7995977E+02  0.7818608E-02  0.1329166E+00
          2   -1    0    0  501    0  0.00000000000E+00  0.00000000000E+00  0.32276053059E+02  0.32276053160E+02  0.25500000000E-02 0. -1.
         -1   -1    0    0    0  501 -0.00000000000E+00 -0.00000000000E+00 -0.49522514882E+02  0.49522515138E+02  0.50400000000E-02 0.  1.
         24    2    1    2    0    0  0.00000000000E+00  0.17763568394E-14 -0.17246461822E+02  0.81798568298E+02  0.79959773200E+02 0.  0.
         66    2    3    3    0    0  0.25152743707E+02 -0.14667393882E+02  0.19361018761E+02  0.35023449292E+02  0.19999983940E+01 0.  0.
        -13    1    3    3    0    0 -0.25152743707E+02  0.14667393882E+02 -0.36607480583E+02  0.46775119006E+02  0.10566000000E+00 0.  1.
         13    1    4    4    0    0  0.23817207616E+01 -0.14092260908E+01  0.14389285557E+01  0.31209279686E+01  0.10566000000E+00 0. -1.
        -13    1    4    4    0    0  0.15769792837E+02 -0.86542229072E+01  0.11579903850E+02  0.21393627029E+02  0.10566000000E+00 0.  1.
         14    1    4    4    0    0  0.70012301085E+01 -0.46039448842E+01  0.63421863557E+01  0.10508894295E+02  0.00000000000E+00 0. -1.
<mgrwt>
<rscale>  0 0.79959773E+02</rscale>
<asrwt>0</asrwt>
<pdfrwt beam="1">  1        2 0.49655466E-02 0.79959773E+02</pdfrwt>
<pdfrwt beam="2">  1       -1 0.76188485E-02 0.79959773E+02</pdfrwt>
<totfact> 0.13670614E+05</totfact>
</mgrwt>
</event>
<event>
 8    1  0.2676873E-024  0.7944386E+02  0.7818608E-02  0.1330637E+00
          2   -1    0    0  501    0  0.00000000000E+00  0.00000000000E+00  0.20488032723E+03  0.20488032724E+03  0.25500000000E-02 0. -1.
         -1   -1    0    0    0  501 -0.00000000000E+00 -0.00000000000E+00 -0.77012341608E+01  0.77012358100E+01  0.50400000000E-02 0.  1.
         24    2    1    2    0    0  0.00000000000E+00 -0.17763568394E-14  0.19717909307E+03  0.21258156305E+03  0.79443855694E+02 0.  0.
         66    2    3    3    0    0 -0.76307290080E+01  0.15484777555E+02  0.19430520160E+03  0.19508079800E+03  0.20000046816E+01 0.  0.
        -13    1    3    3    0    0  0.76307290080E+01 -0.15484777555E+02  0.28738914627E+01  0.17500765049E+02  0.10566000000E+00 0.  1.
         13    1    4    4    0    0 -0.27431399039E+01  0.47861662697E+01  0.52963408422E+02  0.53250032862E+02  0.10566000000E+00 0. -1.
        -13    1    4    4    0    0 -0.61358457474E+00  0.13639389814E+01  0.17369831702E+02  0.17434420925E+02  0.10566000000E+00 0.  1.
         14    1    4    4    0    0 -0.42740045294E+01  0.93346723035E+01  0.12397196148E+03  0.12439634422E+03  0.00000000000E+00 0. -1.
<mgrwt>
<rscale>  0 0.79443856E+02</rscale>
<asrwt>0</asrwt>
<pdfrwt beam="1">  1        2 0.31520048E-01 0.79443856E+02</pdfrwt>
<pdfrwt beam="2">  1       -1 0.11848055E-02 0.79443856E+02</pdfrwt>
<totfact> 0.22657365E+05</totfact>
</mgrwt>
</event>
<event>
 8    1  0.2676873E-024  0.8084562E+02  0.7818608E-02  0.1326669E+00
          2   -1    0    0  501    0  0.00000000000E+00  0.00000000000E+00  0.50833622218E+03  0.50833622219E+03  0.25500000000E-02 0. -1.
         -1   -1    0    0    0  501 -0.00000000000E+00 -0.00000000000E+00 -0.32144129204E+01  0.32144168716E+01  0.50400000000E-02 0.  1.
         24    2    1    2    0    0  0.00000000000E+00  0.00000000000E+00  0.50512180926E+03  0.51155063906E+03  0.80845619120E+02 0.  0.
         66    2    3    3    0    0 -0.36723923788E+02 -0.98401604526E+01  0.33913192168E+03  0.34126226812E+03  0.19999999182E+01 0.  0.
        -13    1    3    3    0    0  0.36723923788E+02  0.98401604526E+01  0.16598988758E+03  0.17028837094E+03  0.10566000000E+00 0.  1.
         13    1    4    4    0    0 -0.42390974257E+01 -0.12023267988E+01  0.36482981340E+02  0.36748260207E+02  0.10566000000E+00 0. -1.
        -13    1    4    4    0    0 -0.30452368087E+02 -0.84319788415E+01  0.28242311781E+03  0.28418528045E+03  0.10566000000E+00 0.  1.
        -14    1    4    4    0    0 -0.20324582753E+01 -0.20585481236E+00  0.20225822535E+02  0.20328727458E+02  0.00000000000E+00 0.  1.
<mgrwt>
<rscale>  0 0.80845619E+02</rscale>
<asrwt>0</asrwt>
<pdfrwt beam="1">  1        2 0.78205528E-01 0.80845619E+02</pdfrwt>
<pdfrwt beam="2">  1       -1 0.49452566E-03 0.80845619E+02</pdfrwt>
<totfact> 0.29783650E+05</totfact>
</mgrwt>
</event>
<event>
 8    1  0.2676873E-024  0.8375604E+02  0.7818608E-02  0.1318718E+00
          2   -1    0    0  501    0  0.00000000000E+00  0.00000000000E+00  0.96083304264E+03  0.96083304264E+03  0.25500000000E-02 0. -1.
         -1   -1    0    0    0  501 -0.00000000000E+00 -0.00000000000E+00 -0.18252549213E+01  0.18252618797E+01  0.50400000000E-02 0.  1.
         24    2    1    2    0    0  0.00000000000E+00  0.00000000000E+00  0.95900778772E+03  0.96265830452E+03  0.83756040751E+02 0.  0.
         66    2    3    3    0    0  0.14576989775E+02 -0.14195960318E+02  0.90015789948E+03  0.90039005877E+03  0.20000007248E+01 0.  0.
        -13    1    3    3    0    0 -0.14576989775E+02  0.14195960318E+02  0.58849888232E+02  0.62268245754E+02  0.10566000000E+00 0.  1.
         13    1    4    4    0    0  0.38157120009E+01 -0.42450197215E+01  0.27942856493E+03  0.27948687610E+03  0.10566000000E+00 0. -1.
        -13    1    4    4    0    0  0.43974181457E+00 -0.68867952255E+00  0.34479772191E+02  0.34489614476E+02  0.10566000000E+00 0.  1.
         14    1    4    4    0    0  0.10321535960E+02 -0.92622610735E+01  0.58624956236E+03  0.58641356819E+03  0.00000000000E+00 0. -1.
<mgrwt>
<rscale>  0 0.83756041E+02</rscale>
<asrwt>0</asrwt>
<pdfrwt beam="1">  1        2 0.14782037E+00 0.83756041E+02</pdfrwt>
<pdfrwt beam="2">  1       -1 0.28080917E-03 0.83756041E+02</pdfrwt>
<totfact> 0.31196521E+05</totfact>
</mgrwt>
</event>
<event>
 8    1  0.2676873E-024  0.7737264E+02  0.7818608E-02  0.1336677E+00
         -1   -1    0    0    0  501 -0.00000000000E+00  0.00000000000E+00  0.12940498714E+02  0.12940499695E+02  0.50400000000E-02 0.  1.
          2   -1    0    0  501    0  0.00000000000E+00 -0.00000000000E+00 -0.11565484120E+03  0.11565484123E+03  0.25500000000E-02 0. -1.
         24    2    1    2    0    0 -0.17763568394E-14 -0.35527136788E-14 -0.10271434249E+03  0.12859534092E+03  0.77372640868E+02 0.  0.
         66    2    3    3    0    0  0.14603924841E+02  0.27618352289E+02 -0.89239575309E+02  0.94571400552E+02  0.19999992769E+01 0.  0.
        -13    1    3    3    0    0 -0.14603924841E+02 -0.27618352289E+02 -0.13474767178E+02  0.34023940372E+02  0.10566000000E+00 0.  1.
         13    1    4    4    0    0  0.30883418055E+01  0.65070713880E+01 -0.22268016274E+02  0.23404177960E+02  0.10566000000E+00 0.  1.
        -13    1    4    4    0    0  0.10162537697E+02  0.19077880730E+02 -0.59350974416E+02  0.63164800592E+02  0.10566000000E+00 0. -1.
         14    1    4    4    0    0  0.13530453384E+01  0.20334001708E+01 -0.76205846180E+01  0.80024219998E+01  0.00000000000E+00 0. -1.
<mgrwt>
<rscale>  0 0.77372641E+02</rscale>
<asrwt>0</asrwt>
<pdfrwt beam="1">  1        2 0.17793052E-01 0.77372641E+02</pdfrwt>
<pdfrwt beam="2">  1       -1 0.19908461E-02 0.77372641E+02</pdfrwt>
<totfact> 0.20202504E+05</totfact>
</mgrwt>
</event>
<event>
 8    1  0.2676873E-024  0.8117168E+02  0.7818608E-02  0.1325759E+00
         -1   -1    0    0    0  501 -0.00000000000E+00  0.00000000000E+00  0.25004510120E+01  0.25004560914E+01  0.50400000000E-02 0.  1.
          2   -1    0    0  501    0  0.00000000000E+00 -0.00000000000E+00 -0.65876471003E+03  0.65876471003E+03  0.25500000000E-02 0. -1.
         24    2    1    2    0    0 -0.17763568394E-14  0.00000000000E+00 -0.65626425902E+03  0.66126516612E+03  0.81171683903E+02 0.  0.
         66    2    3    3    0    0  0.12084972317E+02  0.34336312906E+02 -0.47410002573E+03  0.47549959344E+03  0.20000075127E+01 0.  0.
        -13    1    3    3    0    0 -0.12084972317E+02 -0.34336312906E+02 -0.18216423329E+03  0.18576557268E+03  0.10566000000E+00 0.  1.
         13    1    4    4    0    0  0.56655922619E+01  0.17284058123E+02 -0.23336192485E+03  0.23406972622E+03  0.10566000000E+00 0. -1.
        -13    1    4    4    0    0  0.25468501498E+01  0.78743082691E+01 -0.11559014395E+03  0.11588608078E+03  0.10566000000E+00 0.  1.
        -14    1    4    4    0    0  0.38725299051E+01  0.91779465143E+01 -0.12514795692E+03  0.12554378643E+03  0.00000000000E+00 0.  1.
<mgrwt>
<rscale>  0 0.81171684E+02</rscale>
<asrwt>0</asrwt>
<pdfrwt beam="1">  1        2 0.10134828E+00 0.81171684E+02</pdfrwt>
<pdfrwt beam="2">  1       -1 0.38468569E-03 0.81171684E+02</pdfrwt>
<totfact> 0.31744363E+05</totfact>
</mgrwt>
</event>
<event>
 8    1  0.2676873E-024  0.8180688E+02  0.7818608E-02  0.1324001E+00
         -1   -1    0    0    0  501 -0.00000000000E+00  0.00000000000E+00  0.16380514349E+01  0.16380591885E+01  0.50400000000E-02 0.  1.
          2   -1    0    0  501    0  0.00000000000E+00 -0.00000000000E+00 -0.10213887986E+04  0.10213887986E+04  0.25500000000E-02 0. -1.
         24    2    1    2    0    0 -0.17763568394E-14 -0.35527136788E-14 -0.10197507472E+04  0.10230268578E+04  0.81806878801E+02 0.  0.
         66    2    3    3    0    0 -0.14232310787E+02 -0.19355465065E+02 -0.92378330836E+03  0.92409782680E+03  0.19999979700E+01 0.  0.
        -13    1    3    3    0    0  0.14232310787E+02  0.19355465065E+02 -0.95967438796E+02  0.98929030983E+02  0.10566000000E+00 0.  1.
         13    1    4    4    0    0 -0.70233211927E+01 -0.10991048338E+02 -0.48952194576E+03  0.48969569810E+03  0.10566000000E+00 0. -1.
        -13    1    4    4    0    0 -0.12714572999E+01 -0.13745563613E+01 -0.81380623702E+02  0.81402230234E+02  0.10566000000E+00 0.  1.
         14    1    4    4    0    0 -0.59375322949E+01 -0.69898603657E+01 -0.35288073889E+03  0.35299989847E+03  0.00000000000E+00 0. -1.
<mgrwt>
<rscale>  0 0.81806879E+02</rscale>
<asrwt>0</asrwt>
<pdfrwt beam="1">  1        2 0.15713623E+00 0.81806879E+02</pdfrwt>
<pdfrwt beam="2">  1       -1 0.25200933E-03 0.81806879E+02</pdfrwt>
<totfact> 0.33268358E+05</totfact>
</mgrwt>
</event>
<event>
 8    1  0.2676873E-024  0.8001844E+02  0.7818608E-02  0.1328999E+00
          2   -1    0    0  501    0  0.00000000000E+00  0.00000000000E+00  0.14367214161E+04  0.14367214161E+04  0.25500000000E-02 0. -1.
         -1   -1    0    0    0  501 -0.00000000000E+00 -0.00000000000E+00 -0.11141544651E+01  0.11141658646E+01  0.50400000000E-02 0.  1.
         24    2    1    2    0    0  0.35527136788E-14 -0.88817841970E-15  0.14356072617E+04  0.14378355820E+04  0.80018442319E+02 0.  0.
         66    2    3    3    0    0  0.21797500652E+02 -0.56150939506E+01  0.13120571942E+04  0.13122517827E+04  0.19999991167E+01 0.  0.
        -13    1    3    3    0    0 -0.21797500652E+02  0.56150939506E+01  0.12355006748E+03  0.12558379933E+03  0.10566000000E+00 0.  1.
         13    1    4    4    0    0  0.12115273889E+02 -0.38806917290E+01  0.76930162997E+03  0.76940681610E+03  0.10566000000E+00 0. -1.
        -13    1    4    4    0    0  0.36357268582E+01 -0.56896534317E+00  0.21641437497E+03  0.21644568623E+03  0.10566000000E+00 0.  1.
         14    1    4    4    0    0  0.60464999039E+01 -0.11654368784E+01  0.32634118926E+03  0.32639928035E+03  0.00000000000E+00 0. -1.
<mgrwt>
<rscale>  0 0.80018442E+02</rscale>
<asrwt>0</asrwt>
<pdfrwt beam="1">  1        2 0.22103435E+00 0.80018442E+02</pdfrwt>
<pdfrwt beam="2">  1       -1 0.17140903E-03 0.80018442E+02</pdfrwt>
<totfact> 0.33731014E+05</totfact>
</mgrwt>
</event>
<event>
 8    1  0.2676873E-024  0.8812700E+02  0.7818608E-02  0.1307452E+00
          2   -1    0    0  501    0  0.00000000000E+00  0.00000000000E+00  0.81599017286E+03  0.81599017286E+03  0.25500000000E-02 0. -1.
         -1   -1    0    0    0  501 -0.00000000000E+00 -0.00000000000E+00 -0.23794280295E+01  0.23794333673E+01  0.50400000000E-02 0.  1.
         24    2    1    2    0    0  0.00000000000E+00  0.17763568394E-14  0.81361074483E+03  0.81836960623E+03  0.88127000967E+02 0.  0.
         66    2    3    3    0    0 -0.11254269656E+02  0.11242302294E+02  0.78837743828E+03  0.78854044483E+03  0.19999996459E+01 0.  0.
        -13    1    3    3    0    0  0.11254269656E+02 -0.11242302294E+02  0.25233306552E+02  0.29829161402E+02  0.10566000000E+00 0.  1.
         13    1    4    4    0    0 -0.20158599139E+01  0.21103753371E+01  0.16567019136E+03  0.16569592887E+03  0.10566000000E+00 0. -1.
        -13    1    4    4    0    0 -0.51459580620E+01  0.57139896120E+01  0.39493006782E+03  0.39500493692E+03  0.10566000000E+00 0.  1.
        -14    1    4    4    0    0 -0.40924516805E+01  0.34179373448E+01  0.22777717910E+03  0.22783957904E+03  0.00000000000E+00 0.  1.
<mgrwt>
<rscale>  0 0.88127001E+02</rscale>
<asrwt>0</asrwt>
<pdfrwt beam="1">  1        2 0.12553686E+00 0.88127001E+02</pdfrwt>
<pdfrwt beam="2">  1       -1 0.36606651E-03 0.88127001E+02</pdfrwt>
<totfact> 0.26785090E+05</totfact>
</mgrwt>
</event>
<event>
 8    1  0.2676873E-024  0.7877411E+02  0.7818608E-02  0.1332567E+00
         -1   -1    0    0    0  501 -0.00000000000E+00  0.00000000000E+00  0.21372495952E+03  0.21372495958E+03  0.50400000000E-02 0.  1.
          2   -1    0    0  501    0  0.00000000000E+00 -0.00000000000E+00 -0.72585815441E+01  0.72585819920E+01  0.25500000000E-02 0. -1.
         24    2    1    2    0    0 -0.27755575616E-16 -0.14210854715E-13  0.20646637798E+03  0.22098354158E+03  0.78774110030E+02 0.  0.
         66    2    3    3    0    0 -0.19178211273E+00 -0.38285938585E+02  0.12893148323E+03  0.13451088149E+03  0.19999996573E+01 0.  0.
        -13    1    3    3    0    0  0.19178211273E+00  0.38285938585E+02  0.77534894752E+02  0.86472660083E+02  0.10566000000E+00 0.  1.
         13    1    4    4    0    0  0.61858423148E+00 -0.21498148766E+02  0.70710566488E+02  0.73909055087E+02  0.10566000000E+00 0. -1.
        -13    1    4    4    0    0 -0.17637965568E+00 -0.68034000788E+01  0.24541346230E+02  0.25467748256E+02  0.10566000000E+00 0.  1.
        -14    1    4    4    0    0 -0.63398668853E+00 -0.99843897397E+01  0.33679570511E+02  0.35134078149E+02  0.00000000000E+00 0.  1.
<mgrwt>
<rscale>  0 0.78774110E+02</rscale>
<asrwt>0</asrwt>
<pdfrwt beam="1">  1        2 0.11167049E-02 0.78774110E+02</pdfrwt>
<pdfrwt beam="2">  1       -1 0.32880762E-01 0.78774110E+02</pdfrwt>
<totfact> 0.10149670E+05</totfact>
</mgrwt>
</event>
<event>
 8    1  0.2676873E-024  0.7907275E+02  0.7818608E-02  0.1331704E+00
         -1   -1    0    0    0  501 -0.00000000000E+00  0.00000000000E+00  0.76675039388E+01  0.76675055952E+01  0.50400000000E-02 0.  1.
          2   -1    0    0  501    0  0.00000000000E+00 -0.00000000000E+00 -0.20386357198E+03  0.20386357199E+03  0.25500000000E-02 0. -1.
         24    2    1    2    0    0 -0.35527136788E-14  0.00000000000E+00 -0.19619606804E+03  0.21153107759E+03  0.79072749237E+02 0.  0.
         66    2    3    3    0    0 -0.18646243125E+02 -0.16680468455E+02 -0.17996931637E+03  0.18171096618E+03  0.19999963747E+01 0.  0.
        -13    1    3    3    0    0  0.18646243125E+02  0.16680468455E+02 -0.16226751669E+02  0.29820111407E+02  0.10566000000E+00 0.  1.
         13    1    4    4    0    0 -0.48459202744E+01 -0.45393721456E+01 -0.44285502829E+02  0.44780640545E+02  0.10566000000E+00 0. -1.
        -13    1    4    4    0    0 -0.67508150850E+01 -0.50549332868E+01 -0.60610292772E+02  0.61194318436E+02  0.10566000000E+00 0.  1.
        -14    1    4    4    0    0 -0.70495077661E+01 -0.70861630224E+01 -0.75073520768E+02  0.75736007201E+02  0.00000000000E+00 0.  1.
<mgrwt>
<rscale>  0 0.79072749E+02</rscale>
<asrwt>0</asrwt>
<pdfrwt beam="1">  1        2 0.31363622E-01 0.79072749E+02</pdfrwt>
<pdfrwt beam="2">  1       -1 0.11796163E-02 0.79072749E+02</pdfrwt>
<totfact> 0.22898945E+05</totfact>
</mgrwt>
</event>
<event>
 8    1  0.2676873E-024  0.8292656E+02  0.7818608E-02  0.1320946E+00
          2   -1    0    0  501    0  0.00000000000E+00  0.00000000000E+00  0.13005954994E+02  0.13005955244E+02  0.25500000000E-02 0. -1.
         -1   -1    0    0    0  501 -0.00000000000E+00 -0.00000000000E+00 -0.13218586160E+03  0.13218586170E+03  0.50400000000E-02 0.  1.
         24    2    1    2    0    0  0.00000000000E+00 -0.35527136788E-14 -0.11917990661E+03  0.14519181694E+03  0.82926555263E+02 0.  0.
         66    2    3    3    0    0 -0.17055768999E+02 -0.21908851208E+02 -0.57649023432E+01  0.28427647037E+02  0.19999999095E+01 0.  0.
        -13    1    3    3    0    0  0.17055768999E+02  0.21908851208E+02 -0.11341500426E+03  0.11676416990E+03  0.10566000000E+00 0.  1.
         13    1    4    4    0    0 -0.79604782523E+01 -0.10323772811E+02 -0.18491810267E+01  0.13167389019E+02  0.10566000000E+00 0.  1.
        -13    1    4    4    0    0 -0.85471244989E+01 -0.10739685313E+02 -0.34662202525E+01  0.14156977951E+02  0.10566000000E+00 0. -1.
         14    1    4    4    0    0 -0.54816624726E+00 -0.84539308377E+00 -0.44950106391E+00  0.11032800674E+01  0.00000000000E+00 0. -1.
<mgrwt>
<rscale>  0 0.82926555E+02</rscale>
<asrwt>0</asrwt>
<pdfrwt beam="1">  1        2 0.20009163E-02 0.82926555E+02</pdfrwt>
<pdfrwt beam="2">  1       -1 0.20336286E-01 0.82926555E+02</pdfrwt>
<totfact> 0.10166615E+05</totfact>
</mgrwt>
</event>
<event>
 8    1  0.2676873E-024  0.7510327E+02  0.7818608E-02  0.1343552E+00
         -1   -1    0    0    0  501 -0.00000000000E+00  0.00000000000E+00  0.11353528410E+01  0.11353640276E+01  0.50400000000E-02 0.  1.
          2   -1    0    0  501    0  0.00000000000E+00 -0.00000000000E+00 -0.12420089134E+04  0.12420089134E+04  0.25500000000E-02 0. -1.
         24    2    1    2    0    0 -0.22204460493E-15 -0.35527136788E-14 -0.12408735605E+04  0.12431442774E+04  0.75103270322E+02 0.  0.
         66    2    3    3    0    0 -0.16884981230E+01  0.23026370739E+02 -0.11105196368E+04  0.11107614183E+04  0.19999994274E+01 0.  0.
        -13    1    3    3    0    0  0.16884981230E+01 -0.23026370739E+02 -0.13035392377E+03  0.13238285909E+03  0.10566000000E+00 0.  1.
         13    1    4    4    0    0  0.14722855840E+00  0.59737183106E+01 -0.29600624893E+03  0.29606657622E+03  0.10566000000E+00 0. -1.
        -13    1    4    4    0    0 -0.69456996769E+00  0.25135876760E+01 -0.12460902150E+03  0.12463635085E+03  0.10566000000E+00 0.  1.
         14    1    4    4    0    0 -0.11411567137E+01  0.14539064752E+02 -0.68990436634E+03  0.69005849124E+03  0.00000000000E+00 0. -1.
<mgrwt>
<rscale>  0 0.75103270E+02</rscale>
<asrwt>0</asrwt>
<pdfrwt beam="1">  1        2 0.19107721E+00 0.75103270E+02</pdfrwt>
<pdfrwt beam="2">  1       -1 0.17467152E-03 0.75103270E+02</pdfrwt>
<totfact> 0.41080013E+05</totfact>
</mgrwt>
</event>
<event>
 8    1  0.2676873E-024  0.7268626E+02  0.7818608E-02  0.1351189E+00
         -1   -1    0    0    0  501 -0.00000000000E+00  0.00000000000E+00  0.12034052918E+01  0.12034158458E+01  0.50400000000E-02 0.  1.
          2   -1    0    0  501    0  0.00000000000E+00 -0.00000000000E+00 -0.10975663828E+04  0.10975663828E+04  0.25500000000E-02 0. -1.
         24    2    1    2    0    0 -0.35527136788E-14 -0.22204460493E-15 -0.10963629775E+04  0.10987697986E+04  0.72686257106E+02 0.  0.
         66    2    3    3    0    0  0.20585786658E+02  0.18212119297E+01 -0.10000044530E+04  0.10002199745E+04  0.19999986318E+01 0.  0.
        -13    1    3    3    0    0 -0.20585786658E+02 -0.18212119297E+01 -0.96358524489E+02  0.98549824105E+02  0.10566000000E+00 0.  1.
         13    1    4    4    0    0  0.17054811032E+02  0.21095069428E+01 -0.82961096307E+03  0.82978893570E+03  0.10566000000E+00 0.  1.
        -13    1    4    4    0    0  0.10063090755E+01  0.85130383822E-01 -0.43001246505E+02  0.43013233663E+02  0.10566000000E+00 0. -1.
        -14    1    4    4    0    0  0.25246665513E+01 -0.37342539686E+00 -0.12739224344E+03  0.12741780517E+03  0.00000000000E+00 0.  1.
<mgrwt>
<rscale>  0 0.72686257E+02</rscale>
<asrwt>0</asrwt>
<pdfrwt beam="1">  1        2 0.16885557E+00 0.72686257E+02</pdfrwt>
<pdfrwt beam="2">  1       -1 0.18514097E-03 0.72686257E+02</pdfrwt>
<totfact> 0.45162587E+05</totfact>
</mgrwt>
</event>
<event>
 8    1  0.2676873E-024  0.8017168E+02  0.7818608E-02  0.1328565E+00
          2   -1    0    0  501    0  0.00000000000E+00  0.00000000000E+00  0.94098965855E+01  0.94098969310E+01  0.25500000000E-02 0. -1.
         -1   -1    0    0    0  501 -0.00000000000E+00 -0.00000000000E+00 -0.17076431397E+03  0.17076431405E+03  0.50400000000E-02 0.  1.
         24    2    1    2    0    0  0.17763568394E-14  0.35527136788E-14 -0.16135441739E+03  0.18017421098E+03  0.80171680107E+02 0.  0.
         66    2    3    3    0    0  0.13129313212E+02  0.23425469173E+02 -0.13918510964E+02  0.30312644397E+02  0.19999978687E+01 0.  0.
        -13    1    3    3    0    0 -0.13129313212E+02 -0.23425469173E+02 -0.14743590642E+03  0.14986156658E+03  0.10566000000E+00 0.  1.
         13    1    4    4    0    0  0.36506033521E+01  0.77212839921E+01 -0.50855790105E+01  0.99407952010E+01  0.10566000000E+00 0. -1.
        -13    1    4    4    0    0  0.13743712908E+01  0.21161995212E+01 -0.14568860076E+01  0.29156264735E+01  0.10566000000E+00 0. -1.
         14    1    4    4    0    0  0.81043385690E+01  0.13587985660E+02 -0.73760459463E+01  0.17456222722E+02  0.00000000000E+00 0. -1.
<mgrwt>
<rscale>  0 0.80171680E+02</rscale>
<asrwt>0</asrwt>
<pdfrwt beam="1">  1        2 0.14476765E-02 0.80171680E+02</pdfrwt>
<pdfrwt beam="2">  1       -1 0.26271431E-01 0.80171680E+02</pdfrwt>
<totfact> 0.10367617E+05</totfact>
</mgrwt>
</event>
<event>
 8    1  0.2676873E-024  0.8321795E+02  0.7818608E-02  0.1320160E+00
         -1   -1    0    0    0  501 -0.00000000000E+00  0.00000000000E+00  0.52079332587E+02  0.52079332831E+02  0.50400000000E-02 0.  1.
          2   -1    0    0  501    0  0.00000000000E+00 -0.00000000000E+00 -0.33243641309E+02  0.33243641407E+02  0.25500000000E-02 0. -1.
         24    2    1    2    0    0  0.71054273576E-14  0.88817841970E-15  0.18835691278E+02  0.85322974238E+02  0.83217946783E+02 0.  0.
         66    2    3    3    0    0  0.40483815821E+02 -0.49774358241E+01  0.11198055040E+01  0.40853007028E+02  0.20000020104E+01 0.  0.
        -13    1    3    3    0    0 -0.40483815821E+02  0.49774358241E+01  0.17715885774E+02  0.44469967209E+02  0.10566000000E+00 0.  1.
         13    1    4    4    0    0  0.31801389479E+02 -0.38546283096E+01  0.76143558985E+00  0.32043368743E+02  0.10566000000E+00 0. -1.
        -13    1    4    4    0    0  0.59595496769E+00 -0.28233735038E-01  0.23094541954E+00  0.64842832273E+00  0.10566000000E+00 0.  1.
        -14    1    4    4    0    0  0.80864713748E+01 -0.10945737795E+01  0.12742449461E+00  0.81612099628E+01  0.00000000000E+00 0.  1.
<mgrwt>
<rscale>  0 0.83217947E+02</rscale>
<asrwt>0</asrwt>
<pdfrwt beam="1">  1        2 0.51144064E-02 0.83217947E+02</pdfrwt>
<pdfrwt beam="2">  1       -1 0.80122050E-02 0.83217947E+02</pdfrwt>
<totfact> 0.12297522E+05</totfact>
</mgrwt>
</event>
<event>
 8    1  0.2676873E-024  0.8027321E+02  0.7818608E-02  0.1328278E+00
         -1   -1    0    0    0  501 -0.00000000000E+00  0.00000000000E+00  0.24869102273E+01  0.24869153344E+01  0.50400000000E-02 0.  1.
          2   -1    0    0  501    0  0.00000000000E+00 -0.00000000000E+00 -0.64776980560E+03  0.64776980561E+03  0.25500000000E-02 0. -1.
         24    2    1    2    0    0  0.00000000000E+00  0.22204460493E-15 -0.64528289538E+03  0.65025672094E+03  0.80273208896E+02 0.  0.
         66    2    3    3    0    0  0.25186043181E+02  0.10767573008E+01 -0.57557892911E+03  0.57613418554E+03  0.19999834359E+01 0.  0.
        -13    1    3    3    0    0 -0.25186043181E+02 -0.10767573008E+01 -0.69703966261E+02  0.74122535399E+02  0.10566000000E+00 0.  1.
         13    1    4    4    0    0  0.75490594045E+01  0.24776131740E+00 -0.16381345071E+03  0.16398752233E+03  0.10566000000E+00 0. -1.
        -13    1    4    4    0    0  0.11727323087E+02  0.12515137200E+01 -0.27744705458E+03  0.27769763350E+03  0.10566000000E+00 0.  1.
        -14    1    4    4    0    0  0.59096606893E+01 -0.42251773664E+00 -0.13431842383E+03  0.13444902971E+03  0.00000000000E+00 0.  1.
<mgrwt>
<rscale>  0 0.80273209E+02</rscale>
<asrwt>0</asrwt>
<pdfrwt beam="1">  1        2 0.99656759E-01 0.80273209E+02</pdfrwt>
<pdfrwt beam="2">  1       -1 0.38260248E-03 0.80273209E+02</pdfrwt>
<totfact> 0.32538703E+05</totfact>
</mgrwt>
</event>
<event>
 8    1  0.2676873E-024  0.8131974E+02  0.7818608E-02  0.1325347E+00
         -1   -1    0    0    0  501 -0.00000000000E+00  0.00000000000E+00  0.22095812952E+02  0.22095813527E+02  0.50400000000E-02 0.  1.
          2   -1    0    0  501    0  0.00000000000E+00 -0.00000000000E+00 -0.74820744938E+02  0.74820744982E+02  0.25500000000E-02 0. -1.
         24    2    1    2    0    0  0.35527136788E-14  0.00000000000E+00 -0.52724931986E+02  0.96916558509E+02  0.81319744590E+02 0.  0.
         66    2    3    3    0    0  0.31204702999E+02 -0.25538570545E+02 -0.20387512732E+02  0.45228340095E+02  0.19999993931E+01 0.  0.
        -13    1    3    3    0    0 -0.31204702999E+02  0.25538570545E+02 -0.32337419254E+02  0.51688218414E+02  0.10566000000E+00 0.  1.
         13    1    4    4    0    0  0.97824688645E+01 -0.83847125158E+01 -0.74775920782E+01  0.14897169140E+02  0.10566000000E+00 0. -1.
        -13    1    4    4    0    0  0.10672597163E+02 -0.87461906928E+01 -0.65816626225E+01  0.15288218626E+02  0.10566000000E+00 0.  1.
         14    1    4    4    0    0  0.10749636972E+02 -0.84076673367E+01 -0.63282580316E+01  0.15042952329E+02  0.00000000000E+00 0. -1.
<mgrwt>
<rscale>  0 0.81319745E+02</rscale>
<asrwt>0</asrwt>
<pdfrwt beam="1">  1        2 0.11510884E-01 0.81319745E+02</pdfrwt>
<pdfrwt beam="2">  1       -1 0.33993559E-02 0.81319745E+02</pdfrwt>
<totfact> 0.15704191E+05</totfact>
</mgrwt>
</event>
<event>
 8    1  0.2676873E-024  0.7878859E+02  0.7818608E-02  0.1332525E+00
          2   -1    0    0  501    0  0.00000000000E+00  0.00000000000E+00  0.13522794095E+04  0.13522794095E+04  0.25500000000E-02 0. -1.
         -1   -1    0    0    0  501 -0.00000000000E+00 -0.00000000000E+00 -0.11476199515E+01  0.11476310185E+01  0.50400000000E-02 0.  1.
         24    2    1    2    0    0 -0.44408920985E-15  0.00000000000E+00  0.13511317895E+04  0.13534270405E+04  0.78788586004E+02 0.  0.
         66    2    3    3    0    0 -0.29101391515E+01 -0.15600104702E+02  0.12949009220E+04  0.12949997026E+04  0.20000001632E+01 0.  0.
        -13    1    3    3    0    0  0.29101391515E+01  0.15600104702E+02  0.56230867590E+02  0.58427337870E+02  0.10566000000E+00 0.  1.
         13    1    4    4    0    0 -0.22019446061E+01 -0.99414873391E+01  0.79725853135E+03  0.79732355961E+03  0.10566000000E+00 0. -1.
        -13    1    4    4    0    0 -0.24890927357E-01 -0.79556840737E+00  0.45497273535E+02  0.45504358162E+02  0.10566000000E+00 0.  1.
         14    1    4    4    0    0 -0.68330361798E+00 -0.48630489557E+01  0.45214511707E+03  0.45217178488E+03  0.00000000000E+00 0. -1.
<mgrwt>
<rscale>  0 0.78788586E+02</rscale>
<asrwt>0</asrwt>
<pdfrwt beam="1">  1        2 0.20804310E+00 0.78788586E+02</pdfrwt>
<pdfrwt beam="2">  1       -1 0.17655767E-03 0.78788586E+02</pdfrwt>
<totfact> 0.35709347E+05</totfact>
</mgrwt>
</event>
<event>
 8    1  0.2676873E-024  0.8269701E+02  0.7818608E-02  0.1321567E+00
          2   -1    0    0  501    0  0.00000000000E+00  0.00000000000E+00  0.11610556894E+03  0.11610556897E+03  0.25500000000E-02 0. -1.
         -1   -1    0    0    0  501 -0.00000000000E+00 -0.00000000000E+00 -0.14725383212E+02  0.14725384075E+02  0.50400000000E-02 0.  1.
         24    2    1    2    0    0 -0.35527136788E-14  0.35527136788E-14  0.10138018573E+03  0.13083095305E+03  0.82697014553E+02 0.  0.
         66    2    3    3    0    0  0.31099453773E+02 -0.26604968771E+02  0.59765572414E+02  0.72463259980E+02  0.20000031609E+01 0.  0.
        -13    1    3    3    0    0 -0.31099453773E+02  0.26604968771E+02  0.41614613316E+02  0.58367693065E+02  0.10566000000E+00 0.  1.
         13    1    4    4    0    0  0.15696205181E+02 -0.13021201254E+02  0.30756883890E+02  0.36904195017E+02  0.10566000000E+00 0. -1.
        -13    1    4    4    0    0  0.14201955905E+02 -0.12540127722E+02  0.26230207989E+02  0.32357152686E+02  0.10566000000E+00 0.  1.
         14    1    4    4    0    0  0.12012926873E+01 -0.10436397954E+01  0.27784805350E+01  0.32019122766E+01  0.00000000000E+00 0. -1.
<mgrwt>
<rscale>  0 0.82697015E+02</rscale>
<asrwt>0</asrwt>
<pdfrwt beam="1">  1        2 0.17862395E-01 0.82697015E+02</pdfrwt>
<pdfrwt beam="2">  1       -1 0.22654436E-02 0.82697015E+02</pdfrwt>
<totfact> 0.16934128E+05</totfact>
</mgrwt>
</event>
<event>
 8    1  0.2676873E-024  0.7997676E+02  0.7818608E-02  0.1329117E+00
          2   -1    0    0  501    0  0.00000000000E+00  0.00000000000E+00  0.11175608709E+04  0.11175608709E+04  0.25500000000E-02 0. -1.
         -1   -1    0    0    0  501 -0.00000000000E+00 -0.00000000000E+00 -0.14308530450E+01  0.14308619213E+01  0.50400000000E-02 0.  1.
         24    2    1    2    0    0  0.00000000000E+00  0.17763568394E-14  0.11161300179E+04  0.11189917328E+04  0.79976755198E+02 0.  0.
         66    2    3    3    0    0 -0.12391402951E+02  0.14660992473E+02  0.10488280060E+04  0.10490055661E+04  0.19999995300E+01 0.  0.
        -13    1    3    3    0    0  0.12391402951E+02 -0.14660992473E+02  0.67302011891E+02  0.69986166747E+02  0.10566000000E+00 0.  1.
         13    1    4    4    0    0 -0.64769084363E+01  0.77560642720E+01  0.50204171869E+03  0.50214341114E+03  0.10566000000E+00 0. -1.
        -13    1    4    4    0    0 -0.55880176959E+00  0.80290424994E+00  0.53205864200E+02  0.53214960904E+02  0.10566000000E+00 0. -1.
        -14    1    4    4    0    0 -0.53556927453E+01  0.61020239512E+01  0.49358042310E+03  0.49364719406E+03  0.00000000000E+00 0.  1.
<mgrwt>
<rscale>  0 0.79976755E+02</rscale>
<asrwt>0</asrwt>
<pdfrwt beam="1">  1        2 0.17193258E+00 0.79976755E+02</pdfrwt>
<pdfrwt beam="2">  1       -1 0.22013174E-03 0.79976755E+02</pdfrwt>
<totfact> 0.35257112E+05</totfact>
</mgrwt>
</event>
<event>
 8    1  0.2676873E-024  0.7981584E+02  0.7818608E-02  0.1329575E+00
         -1   -1    0    0    0  501 -0.00000000000E+00  0.00000000000E+00  0.30572879483E+02  0.30572879899E+02  0.50400000000E-02 0.  1.
          2   -1    0    0  501    0  0.00000000000E+00 -0.00000000000E+00 -0.52093301477E+02  0.52093301540E+02  0.25500000000E-02 0. -1.
         24    2    1    2    0    0  0.00000000000E+00 -0.35527136788E-14 -0.21520421994E+02  0.82666181438E+02  0.79815844234E+02 0.  0.
         66    2    3    3    0    0  0.20523719196E+02  0.21802067389E+02 -0.38053258545E+02  0.48462394505E+02  0.20000008067E+01 0.  0.
        -13    1    3    3    0    0 -0.20523719196E+02 -0.21802067389E+02  0.16532836551E+02  0.34203786933E+02  0.10566000000E+00 0.  1.
         13    1    4    4    0    0  0.10072660251E+02  0.11506929368E+02 -0.20244174768E+02  0.25371355582E+02  0.10566000000E+00 0. -1.
        -13    1    4    4    0    0  0.40768961448E+01  0.34517136001E+01 -0.67010811489E+01  0.85703594763E+01  0.10566000000E+00 0.  1.
        -14    1    4    4    0    0  0.63741628007E+01  0.68434244216E+01 -0.11108002628E+02  0.14520679447E+02  0.00000000000E+00 0.  1.
<mgrwt>
<rscale>  0 0.79815844E+02</rscale>
<asrwt>0</asrwt>
<pdfrwt beam="1">  1        2 0.80143541E-02 0.79815844E+02</pdfrwt>
<pdfrwt beam="2">  1       -1 0.47035200E-02 0.79815844E+02</pdfrwt>
<totfact> 0.15173165E+05</totfact>
</mgrwt>
</event>
<event>
 8    1  0.2676873E-024  0.8141748E+02  0.7818608E-02  0.1325076E+00
          2   -1    0    0  501    0  0.00000000000E+00  0.00000000000E+00  0.72805475100E+02  0.72805475144E+02  0.25500000000E-02 0. -1.
         -1   -1    0    0    0  501 -0.00000000000E+00 -0.00000000000E+00 -0.22762045170E+02  0.22762045728E+02  0.50400000000E-02 0.  1.
         24    2    1    2    0    0  0.00000000000E+00  0.00000000000E+00  0.50043429930E+02  0.95567520872E+02  0.81417480718E+02 0.  0.
         66    2    3    3    0    0 -0.72024919845E+01 -0.17105857506E+02  0.67532572373E+02  0.70065216678E+02  0.20000012387E+01 0.  0.
        -13    1    3    3    0    0  0.72024919845E+01  0.17105857506E+02 -0.17489142443E+02  0.25502304195E+02  0.10566000000E+00 0.  1.
         13    1    4    4    0    0 -0.45231572235E+01 -0.89521783435E+01  0.37217097819E+02  0.38545090252E+02  0.10566000000E+00 0. -1.
        -13    1    4    4    0    0 -0.58952178509E+00 -0.17648823667E+01  0.53397558594E+01  0.56556610910E+01  0.10566000000E+00 0.  1.
        -14    1    4    4    0    0 -0.20898129759E+01 -0.63887967960E+01  0.24975718694E+02  0.25864465335E+02  0.00000000000E+00 0.  1.
<mgrwt>
<rscale>  0 0.81417481E+02</rscale>
<asrwt>0</asrwt>
<pdfrwt beam="1">  1        2 0.11200842E-01 0.81417481E+02</pdfrwt>
<pdfrwt beam="2">  1       -1 0.35018531E-02 0.81417481E+02</pdfrwt>
<totfact> 0.15546474E+05</totfact>
</mgrwt>
</event>
<event>
 8    1  0.2676873E-024  0.7548842E+02  0.7818608E-02  0.1342365E+00
          2   -1    0    0  501    0  0.00000000000E+00  0.00000000000E+00  0.41189232852E+02  0.41189232931E+02  0.25500000000E-02 0. -1.
         -1   -1    0    0    0  501 -0.00000000000E+00 -0.00000000000E+00 -0.34587328171E+02  0.34587328538E+02  0.50400000000E-02 0.  1.
         24    2    1    2    0    0  0.35527136788E-14  0.00000000000E+00  0.66019046813E+01  0.75776561469E+02  0.75488423766E+02 0.  0.
         66    2    3    3    0    0 -0.20165274142E+02 -0.15681057536E+02  0.31159623666E+02  0.40341740001E+02  0.19999981470E+01 0.  0.
        -13    1    3    3    0    0  0.20165274142E+02  0.15681057536E+02 -0.24557718985E+02  0.35434821468E+02  0.10566000000E+00 0.  1.
         13    1    4    4    0    0 -0.10585305395E+02 -0.87419251347E+01  0.16276361118E+02  0.21293215837E+02  0.10566000000E+00 0. -1.
        -13    1    4    4    0    0 -0.88791347989E+01 -0.64563493765E+01  0.14244474213E+02  0.17984429146E+02  0.10566000000E+00 0.  1.
        -14    1    4    4    0    0 -0.70083394830E+00 -0.48278302490E+00  0.63878833447E+00  0.10640950185E+01  0.00000000000E+00 0.  1.
<mgrwt>
<rscale>  0 0.75488424E+02</rscale>
<asrwt>0</asrwt>
<pdfrwt beam="1">  1        2 0.63368051E-02 0.75488424E+02</pdfrwt>
<pdfrwt beam="2">  1       -1 0.53211275E-02 0.75488424E+02</pdfrwt>
<totfact> 0.16822590E+05</totfact>
</mgrwt>
</event>
<event>
 8    1  0.2676873E-024  0.8090773E+02  0.7818608E-02  0.1326495E+00
         -1   -1    0    0    0  501 -0.00000000000E+00  0.00000000000E+00  0.10175661028E+01  0.10175785843E+01  0.50400000000E-02 0.  1.
          2   -1    0    0  501    0  0.00000000000E+00 -0.00000000000E+00 -0.16082543261E+04  0.16082543261E+04  0.25500000000E-02 0. -1.
         24    2    1    2    0    0  0.00000000000E+00  0.11102230246E-15 -0.16072367600E+04  0.16092719047E+04  0.80907728473E+02 0.  0.
         66    2    3    3    0    0  0.12999734381E+02  0.94825690129E+00 -0.15653129824E+04  0.15653685269E+04  0.19999996743E+01 0.  0.
        -13    1    3    3    0    0 -0.12999734381E+02 -0.94825690129E+00 -0.41923777644E+02  0.43903377787E+02  0.10566000000E+00 0.  1.
         13    1    4    4    0    0  0.17488254353E+01  0.67693868218E+00 -0.25907956413E+03  0.25908637237E+03  0.10566000000E+00 0. -1.
        -13    1    4    4    0    0  0.24159201101E+01 -0.19106130072E+00 -0.25813704327E+03  0.25814844072E+03  0.10566000000E+00 0.  1.
         14    1    4    4    0    0  0.88349888355E+01  0.46237951984E+00 -0.10480963750E+04  0.10481337138E+04  0.00000000000E+00 0. -1.
<mgrwt>
<rscale>  0 0.80907728E+02</rscale>
<asrwt>0</asrwt>
<pdfrwt beam="1">  1        2 0.24742171E+00 0.80907728E+02</pdfrwt>
<pdfrwt beam="2">  1       -1 0.15655088E-03 0.80907728E+02</pdfrwt>
<totfact> 0.31338406E+05</totfact>
</mgrwt>
</event>
<event>
 8    1  0.2676873E-024  0.8444067E+02  0.7818608E-02  0.1316902E+00
          2   -1    0    0  501    0  0.00000000000E+00  0.00000000000E+00  0.20560951790E+04  0.20560951790E+04  0.25500000000E-02 0. -1.
         -1   -1    0    0    0  501 -0.00000000000E+00 -0.00000000000E+00 -0.86695479691E+00  0.86696944669E+00  0.50400000000E-02 0.  1.
         24    2    1    2    0    0  0.17763568394E-14  0.00000000000E+00  0.20552282242E+04  0.20569621484E+04  0.84440669040E+02 0.  0.
         66    2    3    3    0    0 -0.13593583799E+02 -0.86415054349E+01  0.19782514491E+04  0.19783180374E+04  0.20000032120E+01 0.  0.
        -13    1    3    3    0    0  0.13593583799E+02  0.86415054349E+01  0.76976775094E+02  0.78644111061E+02  0.10566000000E+00 0.  1.
         13    1    4    4    0    0 -0.29936575931E+01 -0.13128363424E+01  0.42530177993E+03  0.42531435515E+03  0.10566000000E+00 0. -1.
        -13    1    4    4    0    0 -0.55806694834E+01 -0.45839745670E+01  0.83790959758E+03  0.83794072677E+03  0.10566000000E+00 0.  1.
        -14    1    4    4    0    0 -0.50192567221E+01 -0.27446945254E+01  0.71504007158E+03  0.71506295544E+03  0.00000000000E+00 0.  1.
<mgrwt>
<rscale>  0 0.84440669E+02</rscale>
<asrwt>0</asrwt>
<pdfrwt beam="1">  1        2 0.31632168E+00 0.84440669E+02</pdfrwt>
<pdfrwt beam="2">  1       -1 0.13337907E-03 0.84440669E+02</pdfrwt>
<totfact> 0.23467803E+05</totfact>
</mgrwt>
</event>
<event>
 8    1  0.2676873E-024  0.7912358E+02  0.7818608E-02  0.1331557E+00
          2   -1    0    0  501    0  0.00000000000E+00  0.00000000000E+00  0.26420823252E+02  0.26420823375E+02  0.25500000000E-02 0. -1.
         -1   -1    0    0    0  501 -0.00000000000E+00 -0.00000000000E+00 -0.59238701900E+02  0.59238702115E+02  0.50400000000E-02 0.  1.
         24    2    1    2    0    0  0.00000000000E+00  0.71054273576E-14 -0.32817878649E+02  0.85659525490E+02  0.79123581492E+02 0.  0.
         66    2    3    3    0    0 -0.19007356987E+02 -0.26213941133E+02  0.81411722999E+01  0.33447406705E+02  0.19999998799E+01 0.  0.
        -13    1    3    3    0    0  0.19007356987E+02  0.26213941133E+02 -0.40959050948E+02  0.52212118785E+02  0.10566000000E+00 0.  1.
         13    1    4    4    0    0 -0.50408168449E+01 -0.66970722185E+01  0.25846260575E+01  0.87722327065E+01  0.10566000000E+00 0. -1.
        -13    1    4    4    0    0 -0.35630084583E+01 -0.53814100366E+01  0.90497383994E+00  0.65180322907E+01  0.10566000000E+00 0.  1.
         14    1    4    4    0    0 -0.10403531684E+02 -0.14135458878E+02  0.46515724024E+01  0.18157141708E+02  0.00000000000E+00 0. -1.
<mgrwt>
<rscale>  0 0.79123581E+02</rscale>
<asrwt>0</asrwt>
<pdfrwt beam="1">  1        2 0.40647421E-02 0.79123581E+02</pdfrwt>
<pdfrwt beam="2">  1       -1 0.91136465E-02 0.79123581E+02</pdfrwt>
<totfact> 0.13536647E+05</totfact>
</mgrwt>
</event>
<event>
 8    1  0.2676873E-024  0.7416517E+02  0.7818608E-02  0.1346476E+00
          2   -1    0    0  501    0  0.00000000000E+00  0.00000000000E+00  0.24931115277E+02  0.24931115408E+02  0.25500000000E-02 0. -1.
         -1   -1    0    0    0  501 -0.00000000000E+00 -0.00000000000E+00 -0.55156709293E+02  0.55156709523E+02  0.50400000000E-02 0.  1.
         24    2    1    2    0    0 -0.71054273576E-14  0.88817841970E-15 -0.30225594016E+02  0.80087824931E+02  0.74165174904E+02 0.  0.
         66    2    3    3    0    0  0.36227676787E+02  0.73509975572E+01 -0.17904616410E+02  0.41122463599E+02  0.19999983061E+01 0.  0.
        -13    1    3    3    0    0 -0.36227676787E+02 -0.73509975572E+01 -0.12320977606E+02  0.38965361331E+02  0.10566000000E+00 0.  1.
         13    1    4    4    0    0  0.10603164317E+02  0.23988453261E+01 -0.47688686502E+01  0.11871597394E+02  0.10566000000E+00 0. -1.
        -13    1    4    4    0    0  0.60440813841E+01  0.80634378772E+00 -0.25607567881E+01  0.66143593375E+01  0.10566000000E+00 0. -1.
         14    1    4    4    0    0  0.19580431086E+02  0.41458084433E+01 -0.10574990971E+02  0.22636506868E+02  0.00000000000E+00 0. -1.
<mgrwt>
<rscale>  0 0.74165175E+02</rscale>
<asrwt>0</asrwt>
<pdfrwt beam="1">  1        2 0.38355562E-02 0.74165175E+02</pdfrwt>
<pdfrwt beam="2">  1       -1 0.84856476E-02 0.74165175E+02</pdfrwt>
<totfact> 0.16051449E+05</totfact>
</mgrwt>
</event>
<event>
 8    1  0.2676873E-024  0.8004591E+02  0.7818608E-02  0.1328921E+00
          2   -1    0    0  501    0  0.00000000000E+00  0.00000000000E+00  0.41803944030E+03  0.41803944030E+03  0.25500000000E-02 0. -1.
         -1   -1    0    0    0  501 -0.00000000000E+00 -0.00000000000E+00 -0.38317829589E+01  0.38317862735E+01  0.50400000000E-02 0.  1.
         24    2    1    2    0    0  0.00000000000E+00  0.35527136788E-14  0.41420765734E+03  0.42187122658E+03  0.80045914431E+02 0.  0.
         66    2    3    3    0    0  0.14083068335E+02  0.23083146627E+02  0.36256713074E+03  0.36357954944E+03  0.20000020149E+01 0.  0.
        -13    1    3    3    0    0 -0.14083068335E+02 -0.23083146627E+02  0.51640526602E+02  0.58291677139E+02  0.10566000000E+00 0.  1.
         13    1    4    4    0    0  0.23906013923E+01  0.42795992056E+01  0.71210824291E+02  0.71379427040E+02  0.10566000000E+00 0. -1.
        -13    1    4    4    0    0  0.76560284737E+00  0.14640369792E+01  0.17604875303E+02  0.17682543665E+02  0.10566000000E+00 0.  1.
         14    1    4    4    0    0  0.10926864096E+02  0.17339510442E+02  0.27375143114E+03  0.27451757873E+03  0.00000000000E+00 0. -1.
<mgrwt>
<rscale>  0 0.80045914E+02</rscale>
<asrwt>0</asrwt>
<pdfrwt beam="1">  1        2 0.64313755E-01 0.80045914E+02</pdfrwt>
<pdfrwt beam="2">  1       -1 0.58950538E-03 0.80045914E+02</pdfrwt>
<totfact> 0.28646837E+05</totfact>
</mgrwt>
</event>
<event>
 8    1  0.2676873E-024  0.7652568E+02  0.7818608E-02  0.1339211E+00
          2   -1    0    0  501    0  0.00000000000E+00  0.00000000000E+00  0.10363333617E+03  0.10363333620E+03  0.25500000000E-02 0. -1.
         -1   -1    0    0    0  501 -0.00000000000E+00 -0.00000000000E+00 -0.14127159634E+02  0.14127160533E+02  0.50400000000E-02 0.  1.
         24    2    1    2    0    0  0.35527136788E-14  0.00000000000E+00  0.89506176533E+02  0.11776049673E+03  0.76525675123E+02 0.  0.
         66    2    3    3    0    0 -0.25417679628E+02 -0.12716512979E+02  0.84145060684E+02  0.88837826261E+02  0.19999993121E+01 0.  0.
        -13    1    3    3    0    0  0.25417679628E+02  0.12716512979E+02  0.53611158491E+01  0.28922670471E+02  0.10566000000E+00 0.  1.
         13    1    4    4    0    0 -0.78371495157E+01 -0.36028226550E+01  0.24369033032E+02  0.25850767465E+02  0.10566000000E+00 0. -1.
        -13    1    4    4    0    0 -0.32780375508E+01 -0.22803988430E+01  0.11298569845E+02  0.11983930642E+02  0.10566000000E+00 0.  1.
         14    1    4    4    0    0 -0.14302492561E+02 -0.68332914812E+01  0.48477457808E+02  0.51003128154E+02  0.00000000000E+00 0. -1.
<mgrwt>
<rscale>  0 0.76525675E+02</rscale>
<asrwt>0</asrwt>
<pdfrwt beam="1">  1        2 0.15943590E-01 0.76525675E+02</pdfrwt>
<pdfrwt beam="2">  1       -1 0.21734092E-02 0.76525675E+02</pdfrwt>
<totfact> 0.20158101E+05</totfact>
</mgrwt>
</event>
<event>
 8    1  0.2676873E-024  0.8460425E+02  0.7818608E-02  0.1316471E+00
         -1   -1    0    0    0  501 -0.00000000000E+00  0.00000000000E+00  0.18479734319E+01  0.18479803047E+01  0.50400000000E-02 0.  1.
          2   -1    0    0  501    0  0.00000000000E+00 -0.00000000000E+00 -0.96833986698E+03  0.96833986698E+03  0.25500000000E-02 0. -1.
         24    2    1    2    0    0  0.00000000000E+00 -0.35527136788E-14 -0.96649189355E+03  0.97018784729E+03  0.84604247714E+02 0.  0.
         66    2    3    3    0    0  0.10710933048E+02 -0.28174906668E+02 -0.82348254639E+03  0.82403643953E+03  0.20000008544E+01 0.  0.
        -13    1    3    3    0    0 -0.10710933048E+02  0.28174906668E+02 -0.14300934716E+03  0.14615140776E+03  0.10566000000E+00 0.  1.
         13    1    4    4    0    0  0.48686362420E+01 -0.13651171642E+02 -0.41713946913E+03  0.41739119058E+03  0.10566000000E+00 0. -1.
        -13    1    4    4    0    0  0.29873296849E+01 -0.84266909150E+01 -0.23117185582E+03  0.23134470244E+03  0.10566000000E+00 0.  1.
         14    1    4    4    0    0  0.28549671212E+01 -0.60970441118E+01 -0.17517122144E+03  0.17530054651E+03  0.00000000000E+00 0. -1.
<mgrwt>
<rscale>  0 0.84604248E+02</rscale>
<asrwt>0</asrwt>
<pdfrwt beam="1">  1        2 0.14897496E+00 0.84604248E+02</pdfrwt>
<pdfrwt beam="2">  1       -1 0.28430491E-03 0.84604248E+02</pdfrwt>
<totfact> 0.30402681E+05</totfact>
</mgrwt>
</event>
<event>
 8    1  0.2676873E-024  0.8056123E+02  0.7818608E-02  0.1327466E+00
         -1   -1    0    0    0  501 -0.00000000000E+00  0.00000000000E+00  0.14741490175E+03  0.14741490184E+03  0.50400000000E-02 0.  1.
          2   -1    0    0  501    0  0.00000000000E+00 -0.00000000000E+00 -0.11006539178E+02  0.11006539474E+02  0.25500000000E-02 0. -1.
         24    2    1    2    0    0 -0.35527136788E-14 -0.11102230246E-15  0.13640836257E+03  0.15842144131E+03  0.80561229429E+02 0.  0.
         66    2    3    3    0    0 -0.29737506300E+02  0.66811408704E+00  0.14905835380E+02  0.33330910352E+02  0.19999997737E+01 0.  0.
        -13    1    3    3    0    0  0.29737506300E+02 -0.66811408704E+00  0.12150252719E+03  0.12509053096E+03  0.10566000000E+00 0.  1.
         13    1    4    4    0    0 -0.91639063961E+01 -0.11985577908E+00  0.43280267565E+01  0.10135804136E+02  0.10566000000E+00 0. -1.
        -13    1    4    4    0    0 -0.86366730757E+01 -0.39687337559E+00  0.45268718784E+01  0.97597829552E+01  0.10566000000E+00 0.  1.
         14    1    4    4    0    0 -0.11936926829E+02  0.11848432417E+01  0.60509367456E+01  0.13435323261E+02  0.00000000000E+00 0. -1.
<mgrwt>
<rscale>  0 0.80561229E+02</rscale>
<asrwt>0</asrwt>
<pdfrwt beam="1">  1        2 0.16933139E-02 0.80561229E+02</pdfrwt>
<pdfrwt beam="2">  1       -1 0.22679213E-01 0.80561229E+02</pdfrwt>
<totfact> 0.10645272E+05</totfact>
</mgrwt>
</event>
<event>
 8    1  0.2676873E-024  0.8057226E+02  0.7818608E-02  0.1327435E+00
          2   -1    0    0  501    0  0.00000000000E+00  0.00000000000E+00  0.21544825218E+02  0.21544825369E+02  0.25500000000E-02 0. -1.
         -1   -1    0    0    0  501 -0.00000000000E+00 -0.00000000000E+00 -0.75330020421E+02  0.75330020589E+02  0.50400000000E-02 0.  1.
         24    2    1    2    0    0  0.00000000000E+00  0.35527136788E-14 -0.53785195203E+02  0.96874845958E+02  0.80572256741E+02 0.  0.
         66    2    3    3    0    0 -0.19152067613E+01  0.24734117062E+02  0.11216893883E+02  0.27299510434E+02  0.19999994432E+01 0.  0.
        -13    1    3    3    0    0  0.19152067613E+01 -0.24734117062E+02 -0.65002089086E+02  0.69575335524E+02  0.10566000000E+00 0.  1.
         13    1    4    4    0    0 -0.19596327393E+01  0.21643123085E+02  0.10172684955E+02  0.23994991573E+02  0.10566000000E+00 0. -1.
        -13    1    4    4    0    0  0.80723753343E-01  0.18229675636E+01  0.86920457871E+00  0.20239584228E+01  0.10566000000E+00 0.  1.
         14    1    4    4    0    0 -0.36297775315E-01  0.12680264132E+01  0.17500434881E+00  0.12805604379E+01  0.00000000000E+00 0. -1.
<mgrwt>
<rscale>  0 0.80572257E+02</rscale>
<asrwt>0</asrwt>
<pdfrwt beam="1">  1        2 0.33145885E-02 0.80572257E+02</pdfrwt>
<pdfrwt beam="2">  1       -1 0.11589234E-01 0.80572257E+02</pdfrwt>
<totfact> 0.12348569E+05</totfact>
</mgrwt>
</event>
<event>
 8    1  0.2676873E-024  0.7985976E+02  0.7818608E-02  0.1329450E+00
          2   -1    0    0  501    0  0.00000000000E+00  0.00000000000E+00  0.13067283561E+04  0.13067283561E+04  0.25500000000E-02 0. -1.
         -1   -1    0    0    0  501 -0.00000000000E+00 -0.00000000000E+00 -0.12201376156E+01  0.12201480249E+01  0.50400000000E-02 0.  1.
         24    2    1    2    0    0  0.00000000000E+00  0.00000000000E+00  0.13055082185E+04  0.13079485041E+04  0.79859757818E+02 0.  0.
         66    2    3    3    0    0  0.28692085986E+01 -0.17184645995E+02  0.12411431742E+04  0.12412670636E+04  0.19999985865E+01 0.  0.
        -13    1    3    3    0    0 -0.28692085986E+01  0.17184645995E+02  0.64365044289E+02  0.66681440493E+02  0.10566000000E+00 0.  1.
         13    1    4    4    0    0  0.76890789083E+00 -0.52409771200E+01  0.33876509331E+03  0.33880652100E+03  0.10566000000E+00 0. -1.
        -13    1    4    4    0    0  0.98312003482E+00 -0.25530684246E+01  0.19209946321E+03  0.19211897255E+03  0.10566000000E+00 0.  1.
         14    1    4    4    0    0  0.11171806729E+01 -0.93906004500E+01  0.71027861764E+03  0.71034157006E+03  0.00000000000E+00 0. -1.
<mgrwt>
<rscale>  0 0.79859758E+02</rscale>
<asrwt>0</asrwt>
<pdfrwt beam="1">  1        2 0.20103509E+00 0.79859758E+02</pdfrwt>
<pdfrwt beam="2">  1       -1 0.18771432E-03 0.79859758E+02</pdfrwt>
<totfact> 0.34739763E+05</totfact>
</mgrwt>
</event>
<event>
 8    1  0.2676873E-024  0.7878601E+02  0.7818608E-02  0.1332532E+00
         -1   -1    0    0    0  501 -0.00000000000E+00  0.00000000000E+00  0.16616256478E+02  0.16616257243E+02  0.50400000000E-02 0.  1.
          2   -1    0    0  501    0  0.00000000000E+00 -0.00000000000E+00 -0.93390997572E+02  0.93390997606E+02  0.25500000000E-02 0. -1.
         24    2    1    2    0    0  0.00000000000E+00  0.00000000000E+00 -0.76774741093E+02  0.11000725485E+03  0.78786009224E+02 0.  0.
         66    2    3    3    0    0  0.19546979384E+02 -0.20780219001E+02 -0.76289617159E+02  0.81473968778E+02  0.19999993237E+01 0.  0.
        -13    1    3    3    0    0 -0.19546979384E+02  0.20780219001E+02 -0.48512393414E+00  0.28533286072E+02  0.10566000000E+00 0.  1.
         13    1    4    4    0    0  0.11547196392E+02 -0.11995037492E+02 -0.42732124124E+02  0.45861359172E+02  0.10566000000E+00 0. -1.
        -13    1    4    4    0    0  0.53576148584E+01 -0.62301127393E+01 -0.21995022977E+02  0.23480003013E+02  0.10566000000E+00 0.  1.
        -14    1    4    4    0    0  0.26421681336E+01 -0.25550687700E+01 -0.11562470059E+02  0.12132606592E+02  0.00000000000E+00 0.  1.
<mgrwt>
<rscale>  0 0.78786009E+02</rscale>
<asrwt>0</asrwt>
<pdfrwt beam="1">  1        2 0.14367845E-01 0.78786009E+02</pdfrwt>
<pdfrwt beam="2">  1       -1 0.25563473E-02 0.78786009E+02</pdfrwt>
<totfact> 0.18122052E+05</totfact>
</mgrwt>
</event>
<event>
 8    1  0.2676873E-024  0.8041658E+02  0.7818608E-02  0.1327873E+00
         -1   -1    0    0    0  501 -0.00000000000E+00  0.00000000000E+00  0.13354859652E+03  0.13354859661E+03  0.50400000000E-02 0.  1.
          2   -1    0    0  501    0  0.00000000000E+00 -0.00000000000E+00 -0.12105755538E+02  0.12105755807E+02  0.25500000000E-02 0. -1.
         24    2    1    2    0    0 -0.35527136788E-14  0.00000000000E+00  0.12144284098E+03  0.14565435242E+03  0.80416582579E+02 0.  0.
         66    2    3    3    0    0 -0.21483376375E+02  0.30697591288E+02  0.34459945964E+02  0.50944729040E+02  0.19999924486E+01 0.  0.
        -13    1    3    3    0    0  0.21483376375E+02 -0.30697591288E+02  0.86982895017E+02  0.94709623381E+02  0.10566000000E+00 0.  1.
         13    1    4    4    0    0 -0.11539995340E+02  0.16193160710E+02  0.17633534297E+02  0.26577107481E+02  0.10566000000E+00 0. -1.
        -13    1    4    4    0    0 -0.49744206992E+01  0.63007099805E+01  0.79770482923E+01  0.11317608893E+02  0.10566000000E+00 0. -1.
         14    1    4    4    0    0 -0.49689603355E+01  0.82037205980E+01  0.88493633740E+01  0.13050012666E+02  0.00000000000E+00 0. -1.
<mgrwt>
<rscale>  0 0.80416583E+02</rscale>
<asrwt>0</asrwt>
<pdfrwt beam="1">  1        2 0.18624240E-02 0.80416583E+02</pdfrwt>
<pdfrwt beam="2">  1       -1 0.20545937E-01 0.80416583E+02</pdfrwt>
<totfact> 0.10957739E+05</totfact>
</mgrwt>
</event>
<event>
 8    1  0.2676873E-024  0.7806684E+02  0.7818608E-02  0.1334629E+00
          2   -1    0    0  501    0  0.00000000000E+00  0.00000000000E+00  0.37340340841E+03  0.37340340842E+03  0.25500000000E-02 0. -1.
         -1   -1    0    0    0  501 -0.00000000000E+00 -0.00000000000E+00 -0.40803248094E+01  0.40803279221E+01  0.50400000000E-02 0.  1.
         24    2    1    2    0    0  0.00000000000E+00 -0.44408920985E-15  0.36932308360E+03  0.37748373634E+03  0.78066837527E+02 0.  0.
         66    2    3    3    0    0 -0.20730344356E+02  0.37413005056E+01  0.34353195398E+03  0.34418301506E+03  0.19999862068E+01 0.  0.
        -13    1    3    3    0    0  0.20730344356E+02 -0.37413005056E+01  0.25791129619E+02  0.33300721278E+02  0.10566000000E+00 0.  1.
         13    1    4    4    0    0 -0.55314988232E+01  0.98665324711E+00  0.97114209169E+02  0.97276676292E+02  0.10566000000E+00 0. -1.
        -13    1    4    4    0    0 -0.31118954036E+00 -0.41674970258E-01  0.31345385893E+01  0.31519949138E+01  0.10566000000E+00 0.  1.
        -14    1    4    4    0    0 -0.14887655992E+02  0.27963222287E+01  0.24328320622E+03  0.24375434385E+03  0.00000000000E+00 0.  1.
<mgrwt>
<rscale>  0 0.78066838E+02</rscale>
<asrwt>0</asrwt>
<pdfrwt beam="1">  1        2 0.57446685E-01 0.78066838E+02</pdfrwt>
<pdfrwt beam="2">  1       -1 0.62774245E-03 0.78066838E+02</pdfrwt>
<totfact> 0.29395358E+05</totfact>
</mgrwt>
</event>
<event>
 8    1  0.2676873E-024  0.7658533E+02  0.7818608E-02  0.1339031E+00
         -1   -1    0    0    0  501 -0.00000000000E+00  0.00000000000E+00  0.90540346009E+01  0.90540360037E+01  0.50400000000E-02 0.  1.
          2   -1    0    0  501    0  0.00000000000E+00 -0.00000000000E+00 -0.16195301739E+03  0.16195301741E+03  0.25500000000E-02 0. -1.
         24    2    1    2    0    0  0.35527136788E-14  0.16653345369E-15 -0.15289898279E+03  0.17100705341E+03  0.76585333970E+02 0.  0.
         66    2    3    3    0    0  0.26587609930E+02  0.28089415311E+00 -0.13795049041E+03  0.14050379962E+03  0.20000000613E+01 0.  0.
        -13    1    3    3    0    0 -0.26587609930E+02 -0.28089415311E+00 -0.14948492374E+02  0.30503253787E+02  0.10566000000E+00 0.  1.
         13    1    4    4    0    0  0.16686868477E+02  0.99781060649E+00 -0.87765311240E+02  0.89343204703E+02  0.10566000000E+00 0. -1.
        -13    1    4    4    0    0  0.28864666675E+01 -0.18500999140E+00 -0.13432893399E+02  0.13741168350E+02  0.10566000000E+00 0.  1.
         14    1    4    4    0    0  0.70142747854E+01 -0.53190646198E+00 -0.36752285775E+02  0.37419426571E+02  0.00000000000E+00 0. -1.
<mgrwt>
<rscale>  0 0.76585334E+02</rscale>
<asrwt>0</asrwt>
<pdfrwt beam="1">  1        2 0.24915847E-01 0.76585334E+02</pdfrwt>
<pdfrwt beam="2">  1       -1 0.13929286E-02 0.76585334E+02</pdfrwt>
<totfact> 0.23046363E+05</totfact>
</mgrwt>
</event>
<event>
 8    1  0.2676873E-024  0.7954346E+02  0.7818608E-02  0.1330352E+00
         -1   -1    0    0    0  501 -0.00000000000E+00  0.00000000000E+00  0.42764788963E+02  0.42764789260E+02  0.50400000000E-02 0.  1.
          2   -1    0    0  501    0  0.00000000000E+00 -0.00000000000E+00 -0.36988153425E+02  0.36988153513E+02  0.25500000000E-02 0. -1.
         24    2    1    2    0    0  0.00000000000E+00  0.88817841970E-15  0.57766355372E+01  0.79752942773E+02  0.79543462100E+02 0.  0.
         66    2    3    3    0    0  0.12172732421E+02 -0.63271969040E+01 -0.34511946720E+02  0.37192516794E+02  0.20000009540E+01 0.  0.
        -13    1    3    3    0    0 -0.12172732421E+02  0.63271969040E+01  0.40288582257E+02  0.42560425979E+02  0.10566000000E+00 0.  1.
         13    1    4    4    0    0  0.64816421078E+01 -0.36443355973E+01 -0.18219130459E+02  0.19678433502E+02  0.10566000000E+00 0. -1.
        -13    1    4    4    0    0  0.33803934061E+01 -0.88239151918E+00 -0.90113922549E+01  0.96655071662E+01  0.10566000000E+00 0.  1.
        -14    1    4    4    0    0  0.23106969069E+01 -0.18004697876E+01 -0.72814240057E+01  0.78485761257E+01  0.00000000000E+00 0.  1.
<mgrwt>
<rscale>  0 0.79543462E+02</rscale>
<asrwt>0</asrwt>
<pdfrwt beam="1">  1        2 0.56904852E-02 0.79543462E+02</pdfrwt>
<pdfrwt beam="2">  1       -1 0.65791983E-02 0.79543462E+02</pdfrwt>
<totfact> 0.14253824E+05</totfact>
</mgrwt>
</event>
<event>
 8    1  0.2676873E-024  0.7985686E+02  0.7818608E-02  0.1329458E+00
         -1   -1    0    0    0  501 -0.00000000000E+00  0.00000000000E+00  0.28944943488E+02  0.28944943927E+02  0.50400000000E-02 0.  1.
          2   -1    0    0  501    0  0.00000000000E+00 -0.00000000000E+00 -0.55079723596E+02  0.55079723655E+02  0.25500000000E-02 0. -1.
         24    2    1    2    0    0  0.00000000000E+00  0.35527136788E-14 -0.26134780108E+02  0.84024667582E+02  0.79856859636E+02 0.  0.
         66    2    3    3    0    0  0.24628601621E+02  0.27207650384E+02  0.34089581564E+01  0.36911316058E+02  0.20000000454E+01 0.  0.
        -13    1    3    3    0    0 -0.24628601621E+02 -0.27207650384E+02 -0.29543738264E+02  0.47113351524E+02  0.10566000000E+00 0.  1.
         13    1    4    4    0    0  0.92618977081E+01  0.92883012351E+01  0.95003686539E+00  0.13151768819E+02  0.10566000000E+00 0. -1.
        -13    1    4    4    0    0  0.38184199961E+00  0.62594220389E+00 -0.34643594677E-01  0.74160041096E+00  0.10566000000E+00 0.  1.
         14    1    4    4    0    0  0.14984861913E+02  0.17293406945E+02  0.24935648856E+01  0.23017946828E+02  0.00000000000E+00 0. -1.
<mgrwt>
<rscale>  0 0.79856860E+02</rscale>
<asrwt>0</asrwt>
<pdfrwt beam="1">  1        2 0.84738037E-02 0.79856860E+02</pdfrwt>
<pdfrwt beam="2">  1       -1 0.44530683E-02 0.79856860E+02</pdfrwt>
<totfact> 0.15340725E+05</totfact>
</mgrwt>
</event>
<event>
 8    1  0.2676873E-024  0.8120674E+02  0.7818608E-02  0.1325661E+00
         -1   -1    0    0    0  501 -0.00000000000E+00  0.00000000000E+00  0.20413039336E+02  0.20413039958E+02  0.50400000000E-02 0.  1.
          2   -1    0    0  501    0  0.00000000000E+00 -0.00000000000E+00 -0.80763751510E+02  0.80763751551E+02  0.25500000000E-02 0. -1.
         24    2    1    2    0    0  0.71054273576E-14  0.00000000000E+00 -0.60350712174E+02  0.10117679151E+03  0.81206740362E+02 0.  0.
         66    2    3    3    0    0  0.37613351163E+02 -0.14979945823E+02 -0.26789331734E+02  0.48588386098E+02  0.20000015834E+01 0.  0.
        -13    1    3    3    0    0 -0.37613351163E+02  0.14979945823E+02 -0.33561380440E+02  0.52588405411E+02  0.10566000000E+00 0.  1.
         13    1    4    4    0    0  0.22514609703E+02 -0.92630095264E+01 -0.15641172057E+02  0.28937318862E+02  0.10566000000E+00 0. -1.
        -13    1    4    4    0    0  0.14674657695E+02 -0.56626636992E+01 -0.11016199051E+02  0.19203623205E+02  0.10566000000E+00 0.  1.
        -14    1    4    4    0    0  0.42408376495E+00 -0.54272597398E-01 -0.13196062609E+00  0.44744403154E+00  0.00000000000E+00 0.  1.
<mgrwt>
<rscale>  0 0.81206740E+02</rscale>
<asrwt>0</asrwt>
<pdfrwt beam="1">  1        2 0.12425192E-01 0.81206740E+02</pdfrwt>
<pdfrwt beam="2">  1       -1 0.31404677E-02 0.81206740E+02</pdfrwt>
<totfact> 0.16074035E+05</totfact>
</mgrwt>
</event>
<event>
 8    1  0.2676873E-024  0.8038848E+02  0.7818608E-02  0.1327953E+00
         -1   -1    0    0    0  501 -0.00000000000E+00  0.00000000000E+00  0.16276597266E+01  0.16276675297E+01  0.50400000000E-02 0.  1.
          2   -1    0    0  501    0  0.00000000000E+00 -0.00000000000E+00 -0.99257431932E+03  0.99257431932E+03  0.25500000000E-02 0. -1.
         24    2    1    2    0    0  0.35527136788E-14  0.44408920985E-15 -0.99094665959E+03  0.99420198685E+03  0.80388484892E+02 0.  0.
         66    2    3    3    0    0 -0.31722661461E+02 -0.22631913866E+01 -0.79925445661E+03  0.79988945217E+03  0.19999999547E+01 0.  0.
        -13    1    3    3    0    0  0.31722661461E+02  0.22631913866E+01 -0.19169220298E+03  0.19431253468E+03  0.10566000000E+00 0.  1.
         13    1    4    4    0    0 -0.67247252930E+01 -0.40690235190E+00 -0.17251300673E+03  0.17264453699E+03  0.10566000000E+00 0.  1.
        -13    1    4    4    0    0 -0.11040982222E+02 -0.16781205696E+01 -0.27935654557E+03  0.27957970258E+03  0.10566000000E+00 0. -1.
        -14    1    4    4    0    0 -0.13956953946E+02 -0.17816846509E+00 -0.34738490431E+03  0.34766521260E+03  0.00000000000E+00 0.  1.
<mgrwt>
<rscale>  0 0.80388485E+02</rscale>
<asrwt>0</asrwt>
<pdfrwt beam="1">  1        2 0.15270326E+00 0.80388485E+02</pdfrwt>
<pdfrwt beam="2">  1       -1 0.25041058E-03 0.80388485E+02</pdfrwt>
<totfact> 0.34779213E+05</totfact>
</mgrwt>
</event>
<event>
 8    1  0.2676873E-024  0.8197593E+02  0.7818608E-02  0.1323536E+00
          2   -1    0    0  501    0  0.00000000000E+00  0.00000000000E+00  0.29721834386E+03  0.29721834387E+03  0.25500000000E-02 0. -1.
         -1   -1    0    0    0  501 -0.00000000000E+00 -0.00000000000E+00 -0.56524532578E+01  0.56524555048E+01  0.50400000000E-02 0.  1.
         24    2    1    2    0    0  0.00000000000E+00  0.35527136788E-14  0.29156589061E+03  0.30287079938E+03  0.81975926661E+02 0.  0.
         66    2    3    3    0    0 -0.23877003072E+02 -0.20500422674E+02  0.24275264620E+03  0.24479220953E+03  0.20000009770E+01 0.  0.
        -13    1    3    3    0    0  0.23877003072E+02  0.20500422674E+02  0.48813244410E+02  0.58078589854E+02  0.10566000000E+00 0.  1.
         13    1    4    4    0    0 -0.11091910161E+02 -0.90259531049E+01  0.11054508964E+03  0.11146625636E+03  0.10566000000E+00 0. -1.
        -13    1    4    4    0    0 -0.17487788898E+01 -0.11579994965E+01  0.18661600540E+02  0.18779395336E+02  0.10566000000E+00 0.  1.
        -14    1    4    4    0    0 -0.11036314021E+02 -0.10316470073E+02  0.11354595602E+03  0.11454655783E+03  0.00000000000E+00 0.  1.
<mgrwt>
<rscale>  0 0.81975927E+02</rscale>
<asrwt>0</asrwt>
<pdfrwt beam="1">  1        2 0.45725900E-01 0.81975927E+02</pdfrwt>
<pdfrwt beam="2">  1       -1 0.86960836E-03 0.81975927E+02</pdfrwt>
<totfact> 0.23832121E+05</totfact>
</mgrwt>
</event>
<event>
 8    1  0.2676873E-024  0.7698406E+02  0.7818608E-02  0.1337835E+00
          2   -1    0    0  501    0  0.00000000000E+00  0.00000000000E+00  0.73018107851E+01  0.73018112303E+01  0.25500000000E-02 0. -1.
         -1   -1    0    0    0  501 -0.00000000000E+00 -0.00000000000E+00 -0.20291356836E+03  0.20291356843E+03  0.50400000000E-02 0.  1.
         24    2    1    2    0    0  0.00000000000E+00 -0.35527136788E-14 -0.19561175758E+03  0.21021537966E+03  0.76984064203E+02 0.  0.
         66    2    3    3    0    0 -0.22975924914E+02  0.17023196460E+02 -0.27616905131E+02  0.39804218178E+02  0.19999981010E+01 0.  0.
        -13    1    3    3    0    0  0.22975924914E+02 -0.17023196460E+02 -0.16799485245E+03  0.17041116148E+03  0.10566000000E+00 0.  1.
         13    1    4    4    0    0 -0.84128343905E+01  0.64973460975E+01 -0.90393544374E+01  0.13953937848E+02  0.10566000000E+00 0. -1.
        -13    1    4    4    0    0 -0.31921878139E+01  0.23738952765E+01 -0.38724594889E+01  0.55527063989E+01  0.10566000000E+00 0.  1.
        -14    1    4    4    0    0 -0.11370902710E+02  0.81519550857E+01 -0.14705091204E+02  0.20297573931E+02  0.00000000000E+00 0.  1.
<mgrwt>
<rscale>  0 0.76984064E+02</rscale>
<asrwt>0</asrwt>
<pdfrwt beam="1">  1        2 0.11233557E-02 0.76984064E+02</pdfrwt>
<pdfrwt beam="2">  1       -1 0.31217468E-01 0.76984064E+02</pdfrwt>
<totfact> 0.10935246E+05</totfact>
</mgrwt>
</event>
<event>
 8    1  0.2676873E-024  0.8163228E+02  0.7818608E-02  0.1324482E+00
         -1   -1    0    0    0  501 -0.00000000000E+00  0.00000000000E+00  0.68438112872E+01  0.68438131430E+01  0.50400000000E-02 0.  1.
          2   -1    0    0  501    0  0.00000000000E+00 -0.00000000000E+00 -0.24342534647E+03  0.24342534648E+03  0.25500000000E-02 0. -1.
         24    2    1    2    0    0  0.00000000000E+00  0.35527136788E-14 -0.23658153518E+03  0.25026915963E+03  0.81632282037E+02 0.  0.
         66    2    3    3    0    0  0.34322825879E+02  0.19684658336E+02 -0.87948135371E+02  0.96459404234E+02  0.19999999662E+01 0.  0.
        -13    1    3    3    0    0 -0.34322825879E+02 -0.19684658336E+02 -0.14863339981E+03  0.15380975539E+03  0.10566000000E+00 0.  1.
         13    1    4    4    0    0  0.30839975559E+02  0.17551833591E+02 -0.79561483373E+02  0.87116082071E+02  0.10566000000E+00 0. -1.
        -13    1    4    4    0    0  0.70861578321E+00  0.27105002278E+00 -0.13075449637E+01  0.15154016995E+01  0.10566000000E+00 0.  1.
        -14    1    4    4    0    0  0.27742345368E+01  0.18617747220E+01 -0.70791070347E+01  0.78279204639E+01  0.00000000000E+00 0.  1.
<mgrwt>
<rscale>  0 0.81632282E+02</rscale>
<asrwt>0</asrwt>
<pdfrwt beam="1">  1        2 0.37450047E-01 0.81632282E+02</pdfrwt>
<pdfrwt beam="2">  1       -1 0.10528944E-02 0.81632282E+02</pdfrwt>
<totfact> 0.22417510E+05</totfact>
</mgrwt>
</event>
<event>
 8    1  0.2676873E-024  0.7842319E+02  0.7818608E-02  0.1333587E+00
         -1   -1    0    0    0  501 -0.00000000000E+00  0.00000000000E+00  0.26065670576E+02  0.26065671064E+02  0.50400000000E-02 0.  1.
          2   -1    0    0  501    0  0.00000000000E+00 -0.00000000000E+00 -0.58987514873E+02  0.58987514928E+02  0.25500000000E-02 0. -1.
         24    2    1    2    0    0  0.00000000000E+00  0.00000000000E+00 -0.32921844296E+02  0.85053185991E+02  0.78423189271E+02 0.  0.
         66    2    3    3    0    0 -0.16444060142E+02  0.35540669666E+02 -0.18004567318E+02  0.43147546386E+02  0.20000001404E+01 0.  0.
        -13    1    3    3    0    0  0.16444060142E+02 -0.35540669666E+02 -0.14917276979E+02  0.41905639606E+02  0.10566000000E+00 0.  1.
         13    1    4    4    0    0 -0.68785202975E+01  0.13982681652E+02 -0.71248210162E+01  0.17134866974E+02  0.10566000000E+00 0. -1.
        -13    1    4    4    0    0 -0.33371090699E+01  0.81720512249E+01 -0.47733409038E+01  0.10035669663E+02  0.10566000000E+00 0.  1.
         14    1    4    4    0    0 -0.62284307743E+01  0.13385936789E+02 -0.61064053975E+01  0.15977009748E+02  0.00000000000E+00 0. -1.
<mgrwt>
<rscale>  0 0.78423189E+02</rscale>
<asrwt>0</asrwt>
<pdfrwt beam="1">  1        2 0.90750023E-02 0.78423189E+02</pdfrwt>
<pdfrwt beam="2">  1       -1 0.40101032E-02 0.78423189E+02</pdfrwt>
<totfact> 0.16367570E+05</totfact>
</mgrwt>
</event>
<event>
 8    1  0.2676873E-024  0.8385589E+02  0.7818608E-02  0.1318452E+00
         -1   -1    0    0    0  501 -0.00000000000E+00  0.00000000000E+00  0.91199560548E+02  0.91199560687E+02  0.50400000000E-02 0.  1.
          2   -1    0    0  501    0  0.00000000000E+00 -0.00000000000E+00 -0.19275889221E+02  0.19275889390E+02  0.25500000000E-02 0. -1.
         24    2    1    2    0    0  0.35527136788E-14 -0.35527136788E-14  0.71923671327E+02  0.11047545008E+03  0.83855891699E+02 0.  0.
         66    2    3    3    0    0  0.17060292761E+02 -0.26459088660E+02 -0.45195876547E+00  0.31549028918E+02  0.19999992788E+01 0.  0.
        -13    1    3    3    0    0 -0.17060292761E+02  0.26459088660E+02  0.72375630092E+02  0.78926421160E+02  0.10566000000E+00 0.  1.
         13    1    4    4    0    0  0.23758698370E+01 -0.43049121784E+01 -0.58844207187E+00  0.49532266709E+01  0.10566000000E+00 0.  1.
        -13    1    4    4    0    0  0.10403251312E+02 -0.15072592724E+02 -0.16377379978E+00  0.18315257989E+02  0.10566000000E+00 0. -1.
         14    1    4    4    0    0  0.42811716123E+01 -0.70815837567E+01  0.30025710618E+00  0.82805442579E+01  0.00000000000E+00 0. -1.
<mgrwt>
<rscale>  0 0.83855892E+02</rscale>
<asrwt>0</asrwt>
<pdfrwt beam="1">  1        2 0.29655214E-02 0.83855892E+02</pdfrwt>
<pdfrwt beam="2">  1       -1 0.14030702E-01 0.83855892E+02</pdfrwt>
<totfact> 0.10753473E+05</totfact>
</mgrwt>
</event>
<event>
 8    1  0.2676873E-024  0.7931629E+02  0.7818608E-02  0.1331003E+00
         -1   -1    0    0    0  501 -0.00000000000E+00  0.00000000000E+00  0.63901883237E+01  0.63901903113E+01  0.50400000000E-02 0.  1.
          2   -1    0    0  501    0  0.00000000000E+00 -0.00000000000E+00 -0.24612238304E+03  0.24612238305E+03  0.25500000000E-02 0. -1.
         24    2    1    2    0    0 -0.35527136788E-14 -0.71054273576E-14 -0.23973219471E+03  0.25251257336E+03  0.79316294187E+02 0.  0.
         66    2    3    3    0    0  0.16266381242E+02  0.35295771191E+02 -0.95204554273E+02  0.10285083263E+03  0.19999990712E+01 0.  0.
        -13    1    3    3    0    0 -0.16266381242E+02 -0.35295771191E+02 -0.14452764044E+03  0.14966174073E+03  0.10566000000E+00 0.  1.
         13    1    4    4    0    0  0.11999882147E+02  0.26498728060E+02 -0.73324523232E+02  0.78883944067E+02  0.10566000000E+00 0. -1.
        -13    1    4    4    0    0  0.26171936923E+01  0.51895912806E+01 -0.13221682465E+02  0.14443185650E+02  0.10566000000E+00 0.  1.
         14    1    4    4    0    0  0.16493054022E+01  0.36074518499E+01 -0.86583485764E+01  0.95237029159E+01  0.00000000000E+00 0. -1.
<mgrwt>
<rscale>  0 0.79316294E+02</rscale>
<asrwt>0</asrwt>
<pdfrwt beam="1">  1        2 0.37864975E-01 0.79316294E+02</pdfrwt>
<pdfrwt beam="2">  1       -1 0.98310624E-03 0.79316294E+02</pdfrwt>
<totfact> 0.24276749E+05</totfact>
</mgrwt>
</event>
<event>
 8    1  0.2676873E-024  0.8004737E+02  0.7818608E-02  0.1328917E+00
         -1   -1    0    0    0  501 -0.00000000000E+00  0.00000000000E+00  0.30522851415E+01  0.30522893026E+01  0.50400000000E-02 0.  1.
          2   -1    0    0  501    0  0.00000000000E+00 -0.00000000000E+00 -0.52481807022E+03  0.52481807023E+03  0.25500000000E-02 0. -1.
         24    2    1    2    0    0 -0.17763568394E-14  0.00000000000E+00 -0.52176578508E+03  0.52787035953E+03  0.80047373414E+02 0.  0.
         66    2    3    3    0    0  0.11986514244E+02 -0.37133286725E+02 -0.31903657882E+03  0.32142012402E+03  0.19999985736E+01 0.  0.
        -13    1    3    3    0    0 -0.11986514244E+02  0.37133286725E+02 -0.20272920626E+03  0.20645023551E+03  0.10566000000E+00 0.  1.
         13    1    4    4    0    0  0.22994334664E+01 -0.74410868650E+01 -0.59665702147E+02  0.60171956464E+02  0.10566000000E+00 0. -1.
        -13    1    4    4    0    0  0.16137226910E+01 -0.63391071089E+01 -0.57207033230E+02  0.57579894015E+02  0.10566000000E+00 0.  1.
        -14    1    4    4    0    0  0.80733580866E+01 -0.23353092751E+02 -0.20216384344E+03  0.20366827354E+03  0.00000000000E+00 0.  1.
<mgrwt>
<rscale>  0 0.80047373E+02</rscale>
<asrwt>0</asrwt>
<pdfrwt beam="1">  1        2 0.80741170E-01 0.80047373E+02</pdfrwt>
<pdfrwt beam="2">  1       -1 0.46958307E-03 0.80047373E+02</pdfrwt>
<totfact> 0.30870534E+05</totfact>
</mgrwt>
</event>
<event>
 8    1  0.2676873E-024  0.7880481E+02  0.7818608E-02  0.1332478E+00
          2   -1    0    0  501    0  0.00000000000E+00  0.00000000000E+00  0.45808367762E+03  0.45808367762E+03  0.25500000000E-02 0. -1.
         -1   -1    0    0    0  501 -0.00000000000E+00 -0.00000000000E+00 -0.33892248037E+01  0.33892285511E+01  0.50400000000E-02 0.  1.
         24    2    1    2    0    0  0.35527136788E-14  0.00000000000E+00  0.45469445281E+03  0.46147290618E+03  0.78804807687E+02 0.  0.
         66    2    3    3    0    0  0.12771355551E+02 -0.31782835226E+02  0.34123769651E+03  0.34295833807E+03  0.19999991322E+01 0.  0.
        -13    1    3    3    0    0 -0.12771355551E+02  0.31782835226E+02  0.11345675631E+03  0.11851456810E+03  0.10566000000E+00 0.  1.
         13    1    4    4    0    0  0.89364092213E+01 -0.24001681576E+02  0.25224821145E+03  0.25354508765E+03  0.10566000000E+00 0. -1.
        -13    1    4    4    0    0  0.15282802996E+01 -0.25703220392E+01  0.29345707558E+02  0.29497862841E+02  0.10566000000E+00 0.  1.
        -14    1    4    4    0    0  0.23066660304E+01 -0.52108316112E+01  0.59643777496E+02  0.59915387575E+02  0.00000000000E+00 0.  1.
<mgrwt>
<rscale>  0 0.78804808E+02</rscale>
<asrwt>0</asrwt>
<pdfrwt beam="1">  1        2 0.70474362E-01 0.78804808E+02</pdfrwt>
<pdfrwt beam="2">  1       -1 0.52141986E-03 0.78804808E+02</pdfrwt>
<totfact> 0.30778342E+05</totfact>
</mgrwt>
</event>
<event>
 8    1  0.2676873E-024  0.8362165E+02  0.7818608E-02  0.1319077E+00
         -1   -1    0    0    0  501 -0.00000000000E+00  0.00000000000E+00  0.16829118244E+02  0.16829118998E+02  0.50400000000E-02 0.  1.
          2   -1    0    0  501    0  0.00000000000E+00 -0.00000000000E+00 -0.10387621277E+03  0.10387621280E+03  0.25500000000E-02 0. -1.
         24    2    1    2    0    0  0.00000000000E+00  0.00000000000E+00 -0.87047094526E+02  0.12070533180E+03  0.83621650662E+02 0.  0.
         66    2    3    3    0    0 -0.37165332789E+02  0.10521303036E+02 -0.66561663324E+02  0.76983211146E+02  0.19999987470E+01 0.  0.
        -13    1    3    3    0    0  0.37165332789E+02 -0.10521303036E+02 -0.20485431203E+02  0.43722120654E+02  0.10566000000E+00 0.  1.
         13    1    4    4    0    0 -0.79575799697E+01  0.18538884757E+01 -0.13308145360E+02  0.15616589845E+02  0.10566000000E+00 0. -1.
        -13    1    4    4    0    0 -0.15338829991E+01  0.51408945740E+00 -0.23273800270E+01  0.28363615515E+01  0.10566000000E+00 0. -1.
         14    1    4    4    0    0 -0.27673869820E+02  0.81533251028E+01 -0.50926137937E+02  0.58530259749E+02  0.00000000000E+00 0. -1.
<mgrwt>
<rscale>  0 0.83621651E+02</rscale>
<asrwt>0</asrwt>
<pdfrwt beam="1">  1        2 0.15980955E-01 0.83621651E+02</pdfrwt>
<pdfrwt beam="2">  1       -1 0.25890953E-02 0.83621651E+02</pdfrwt>
<totfact> 0.15909899E+05</totfact>
</mgrwt>
</event>
<event>
 8    1  0.2676873E-024  0.7556878E+02  0.7818608E-02  0.1342119E+00
          2   -1    0    0  501    0  0.00000000000E+00  0.00000000000E+00  0.13282445754E+02  0.13282445998E+02  0.25500000000E-02 0. -1.
         -1   -1    0    0    0  501 -0.00000000000E+00 -0.00000000000E+00 -0.10748472347E+03  0.10748472359E+03  0.50400000000E-02 0.  1.
         24    2    1    2    0    0  0.00000000000E+00 -0.35527136788E-14 -0.94202277713E+02  0.12076716958E+03  0.75568777434E+02 0.  0.
         66    2    3    3    0    0 -0.13840062191E+02 -0.16700010923E+02  0.22580757591E+01  0.21898323923E+02  0.19999995554E+01 0.  0.
        -13    1    3    3    0    0  0.13840062191E+02  0.16700010923E+02 -0.96460353472E+02  0.98868845661E+02  0.10566000000E+00 0.  1.
         13    1    4    4    0    0 -0.50297836453E+00 -0.12925703014E+01  0.19058834629E+00  0.14039989931E+01  0.10566000000E+00 0. -1.
        -13    1    4    4    0    0 -0.10268759213E+02 -0.11619220319E+02  0.13294303734E+01  0.15563812057E+02  0.10566000000E+00 0.  1.
         14    1    4    4    0    0 -0.30683246130E+01 -0.37882203024E+01  0.73805703944E+00  0.49305128723E+01  0.00000000000E+00 0. -1.
<mgrwt>
<rscale>  0 0.75568777E+02</rscale>
<asrwt>0</asrwt>
<pdfrwt beam="1">  1        2 0.20434533E-02 0.75568777E+02</pdfrwt>
<pdfrwt beam="2">  1       -1 0.16536111E-01 0.75568777E+02</pdfrwt>
<totfact> 0.13455197E+05</totfact>
</mgrwt>
</event>
<event>
 8    1  0.2676873E-024  0.7691015E+02  0.7818608E-02  0.1338056E+00
          2   -1    0    0  501    0  0.00000000000E+00  0.00000000000E+00  0.29207768239E+03  0.29207768240E+03  0.25500000000E-02 0. -1.
         -1   -1    0    0    0  501 -0.00000000000E+00 -0.00000000000E+00 -0.50630107952E+01  0.50630133037E+01  0.50400000000E-02 0.  1.
         24    2    1    2    0    0  0.88817841970E-15  0.35527136788E-14  0.28701467159E+03  0.29714069570E+03  0.76910151042E+02 0.  0.
         66    2    3    3    0    0 -0.76836858395E+01 -0.10487914832E+02  0.28331853662E+03  0.28362374474E+03  0.20000001232E+01 0.  0.
        -13    1    3    3    0    0  0.76836858395E+01  0.10487914832E+02  0.36961349703E+01  0.13516950963E+02  0.10566000000E+00 0.  1.
         13    1    4    4    0    0 -0.92422319931E+00 -0.82164714031E+00  0.22019029590E+02  0.22053981968E+02  0.10566000000E+00 0.  1.
        -13    1    4    4    0    0 -0.41777133336E+00 -0.13593736794E+01  0.27992108335E+02  0.28028409209E+02  0.10566000000E+00 0. -1.
         14    1    4    4    0    0 -0.63416913068E+01 -0.83068940118E+01  0.23330739870E+03  0.23354135356E+03  0.00000000000E+00 0. -1.
<mgrwt>
<rscale>  0 0.76910151E+02</rscale>
<asrwt>0</asrwt>
<pdfrwt beam="1">  1        2 0.44935038E-01 0.76910151E+02</pdfrwt>
<pdfrwt beam="2">  1       -1 0.77892476E-03 0.76910151E+02</pdfrwt>
<totfact> 0.27990748E+05</totfact>
</mgrwt>
</event>
<event>
 8    1  0.2676873E-024  0.7958705E+02  0.7818608E-02  0.1330227E+00
         -1   -1    0    0    0  501 -0.00000000000E+00  0.00000000000E+00  0.16716541865E+01  0.16716617842E+01  0.50400000000E-02 0.  1.
          2   -1    0    0  501    0  0.00000000000E+00 -0.00000000000E+00 -0.94727781653E+03  0.94727781653E+03  0.25500000000E-02 0. -1.
         24    2    1    2    0    0  0.00000000000E+00 -0.22204460493E-15 -0.94560616234E+03  0.94894947832E+03  0.79587047548E+02 0.  0.
         66    2    3    3    0    0  0.17486829582E+02 -0.17369825759E+01 -0.89846996718E+03  0.89864402757E+03  0.20000071845E+01 0.  0.
        -13    1    3    3    0    0 -0.17486829582E+02  0.17369825759E+01 -0.47136195160E+02  0.50305450754E+02  0.10566000000E+00 0.  1.
         13    1    4    4    0    0  0.12222768999E+02 -0.17414575958E+01 -0.63105795614E+03  0.63117872582E+03  0.10566000000E+00 0. -1.
        -13    1    4    4    0    0  0.10491421689E+01 -0.33109939703E+00 -0.60471223443E+02  0.60481322364E+02  0.10566000000E+00 0.  1.
         14    1    4    4    0    0  0.42149184151E+01  0.33557441695E+00 -0.20694078760E+03  0.20698397938E+03  0.00000000000E+00 0. -1.
<mgrwt>
<rscale>  0 0.79587048E+02</rscale>
<asrwt>0</asrwt>
<pdfrwt beam="1">  1        2 0.14573462E+00 0.79587048E+02</pdfrwt>
<pdfrwt beam="2">  1       -1 0.25717891E-03 0.79587048E+02</pdfrwt>
<totfact> 0.35590913E+05</totfact>
</mgrwt>
</event>
<event>
 8    1  0.2676873E-024  0.8106048E+02  0.7818608E-02  0.1326069E+00
          2   -1    0    0  501    0  0.00000000000E+00  0.00000000000E+00  0.99473736797E+03  0.99473736797E+03  0.25500000000E-02 0. -1.
         -1   -1    0    0    0  501 -0.00000000000E+00 -0.00000000000E+00 -0.16513871060E+01  0.16513947969E+01  0.50400000000E-02 0.  1.
         24    2    1    2    0    0  0.00000000000E+00  0.00000000000E+00  0.99308598086E+03  0.99638876277E+03  0.81060478570E+02 0.  0.
         66    2    3    3    0    0 -0.17506559836E+02  0.18507448075E+02  0.88393057148E+03  0.88429987022E+03  0.20000001965E+01 0.  0.
        -13    1    3    3    0    0  0.17506559836E+02 -0.18507448075E+02  0.10915540939E+03  0.11208889255E+03  0.10566000000E+00 0.  1.
         13    1    4    4    0    0 -0.95910156977E+01  0.11276010820E+02  0.51065954527E+03  0.51087407288E+03  0.10566000000E+00 0. -1.
        -13    1    4    4    0    0 -0.28437166156E+01  0.26748169512E+01  0.12353887262E+03  0.12360058893E+03  0.10566000000E+00 0.  1.
         14    1    4    4    0    0 -0.50718275229E+01  0.45566203037E+01  0.24973215358E+03  0.24982520841E+03  0.00000000000E+00 0. -1.
<mgrwt>
<rscale>  0 0.81060479E+02</rscale>
<asrwt>0</asrwt>
<pdfrwt beam="1">  1        2 0.15303663E+00 0.81060479E+02</pdfrwt>
<pdfrwt beam="2">  1       -1 0.25405995E-03 0.81060479E+02</pdfrwt>
<totfact> 0.34038383E+05</totfact>
</mgrwt>
</event>
<event>
 8    1  0.2676873E-024  0.7940005E+02  0.7818608E-02  0.1330763E+00
          2   -1    0    0  501    0  0.00000000000E+00  0.00000000000E+00  0.23015576637E+03  0.23015576638E+03  0.25500000000E-02 0. -1.
         -1   -1    0    0    0  501 -0.00000000000E+00 -0.00000000000E+00 -0.68479358964E+01  0.68479377511E+01  0.50400000000E-02 0.  1.
         24    2    1    2    0    0  0.00000000000E+00 -0.17763568394E-14  0.22330783047E+03  0.23700370413E+03  0.79400054300E+02 0.  0.
         66    2    3    3    0    0  0.30533320308E+02  0.10957071280E+02  0.17990565270E+03  0.18281790101E+03  0.19999996856E+01 0.  0.
        -13    1    3    3    0    0 -0.30533320308E+02 -0.10957071280E+02  0.43402177774E+02  0.54185803119E+02  0.10566000000E+00 0.  1.
         13    1    4    4    0    0  0.15115143361E+02  0.52089478229E+01  0.93065877564E+02  0.94429176778E+02  0.10566000000E+00 0. -1.
        -13    1    4    4    0    0  0.14024244727E+02  0.50032962546E+01  0.77916415411E+02  0.79326485918E+02  0.10566000000E+00 0.  1.
         14    1    4    4    0    0  0.13939322202E+01  0.74482720205E+00  0.89233597218E+01  0.90622383174E+01  0.00000000000E+00 0. -1.
<mgrwt>
<rscale>  0 0.79400054E+02</rscale>
<asrwt>0</asrwt>
<pdfrwt beam="1">  1        2 0.35408583E-01 0.79400054E+02</pdfrwt>
<pdfrwt beam="2">  1       -1 0.10535286E-02 0.79400054E+02</pdfrwt>
<totfact> 0.23638120E+05</totfact>
</mgrwt>
</event>
<event>
 8    1  0.2676873E-024  0.8583737E+02  0.7818608E-02  0.1313257E+00
          2   -1    0    0  501    0  0.00000000000E+00  0.00000000000E+00  0.19236883950E+03  0.19236883952E+03  0.25500000000E-02 0. -1.
         -1   -1    0    0    0  501 -0.00000000000E+00 -0.00000000000E+00 -0.95754244733E+01  0.95754257997E+01  0.50400000000E-02 0.  1.
         24    2    1    2    0    0  0.88817841970E-15  0.00000000000E+00  0.18279341503E+03  0.20194426532E+03  0.85837367837E+02 0.  0.
         66    2    3    3    0    0  0.53647470802E+01 -0.40340038114E+02  0.12335104825E+03  0.12990604408E+03  0.19999997422E+01 0.  0.
        -13    1    3    3    0    0 -0.53647470802E+01  0.40340038114E+02  0.59442366779E+02  0.72038221235E+02  0.10566000000E+00 0.  1.
         13    1    4    4    0    0  0.40102615692E+01 -0.27659081258E+02  0.82409180409E+02  0.87019487206E+02  0.10566000000E+00 0. -1.
        -13    1    4    4    0    0  0.17183943500E+00 -0.19368848136E+01  0.56177730879E+01  0.59457203159E+01  0.10566000000E+00 0.  1.
        -14    1    4    4    0    0  0.11826460760E+01 -0.10744072043E+02  0.35324094749E+02  0.36940836559E+02  0.00000000000E+00 0.  1.
<mgrwt>
<rscale>  0 0.85837368E+02</rscale>
<asrwt>0</asrwt>
<pdfrwt beam="1">  1        2 0.29595205E-01 0.85837368E+02</pdfrwt>
<pdfrwt beam="2">  1       -1 0.14731424E-02 0.85837368E+02</pdfrwt>
<totfact> 0.18057923E+05</totfact>
</mgrwt>
</event>
<event>
 8    1  0.2676873E-024  0.8027141E+02  0.7818608E-02  0.1328283E+00
         -1   -1    0    0    0  501 -0.00000000000E+00  0.00000000000E+00  0.52948965511E+01  0.52948989498E+01  0.50400000000E-02 0.  1.
          2   -1    0    0  501    0  0.00000000000E+00 -0.00000000000E+00 -0.30423154011E+03  0.30423154012E+03  0.25500000000E-02 0. -1.
         24    2    1    2    0    0  0.00000000000E+00  0.00000000000E+00 -0.29893664356E+03  0.30952643907E+03  0.80271412230E+02 0.  0.
         66    2    3    3    0    0  0.32375121070E+02  0.84313171585E+01 -0.23488516161E+03  0.23726414547E+03  0.20000012830E+01 0.  0.
        -13    1    3    3    0    0 -0.32375121070E+02 -0.84313171585E+01 -0.64051481949E+02  0.72262293606E+02  0.10566000000E+00 0.  1.
         13    1    4    4    0    0  0.12660749198E+02  0.36087110840E+01 -0.89771022276E+02  0.90731278898E+02  0.10566000000E+00 0. -1.
        -13    1    4    4    0    0  0.52607851614E+00  0.91583374841E-01 -0.55067346393E+01  0.55335735780E+01  0.10566000000E+00 0.  1.
        -14    1    4    4    0    0  0.19188293355E+02  0.47310226997E+01 -0.13960740470E+03  0.14099929299E+03  0.00000000000E+00 0.  1.
<mgrwt>
<rscale>  0 0.80271412E+02</rscale>
<asrwt>0</asrwt>
<pdfrwt beam="1">  1        2 0.46804839E-01 0.80271412E+02</pdfrwt>
<pdfrwt beam="2">  1       -1 0.81459990E-03 0.80271412E+02</pdfrwt>
<totfact> 0.25397542E+05</totfact>
</mgrwt>
</event>
<event>
 8    1  0.2676873E-024  0.8051734E+02  0.7818608E-02  0.1327590E+00
         -1   -1    0    0    0  501 -0.00000000000E+00  0.00000000000E+00  0.23609274392E+01  0.23609328188E+01  0.50400000000E-02 0.  1.
          2   -1    0    0  501    0  0.00000000000E+00 -0.00000000000E+00 -0.68649232601E+03  0.68649232602E+03  0.25500000000E-02 0. -1.
         24    2    1    2    0    0  0.00000000000E+00 -0.35527136788E-14 -0.68413139857E+03  0.68885325884E+03  0.80517337855E+02 0.  0.
         66    2    3    3    0    0  0.25869950272E+01  0.26404170802E+02 -0.60104978930E+03  0.60163836480E+03  0.19999993220E+01 0.  0.
        -13    1    3    3    0    0 -0.25869950272E+01 -0.26404170802E+02 -0.83081609270E+02  0.87214894037E+02  0.10566000000E+00 0.  1.
         13    1    4    4    0    0  0.13404502057E+01  0.63505669548E+01 -0.14674704320E+03  0.14689054551E+03  0.10566000000E+00 0. -1.
        -13    1    4    4    0    0  0.15629629908E+00  0.15396131479E+01 -0.40442166852E+02  0.40471902116E+02  0.10566000000E+00 0. -1.
         14    1    4    4    0    0  0.10902485224E+01  0.18513990699E+02 -0.41386057925E+03  0.41427591718E+03  0.00000000000E+00 0. -1.
<mgrwt>
<rscale>  0 0.80517338E+02</rscale>
<asrwt>0</asrwt>
<pdfrwt beam="1">  1        2 0.10561405E+00 0.80517338E+02</pdfrwt>
<pdfrwt beam="2">  1       -1 0.36322057E-03 0.80517338E+02</pdfrwt>
<totfact> 0.32746978E+05</totfact>
</mgrwt>
</event>
<event>
 8    1  0.2676873E-024  0.8037041E+02  0.7818608E-02  0.1328004E+00
         -1   -1    0    0    0  501 -0.00000000000E+00  0.00000000000E+00  0.11189356440E+02  0.11189357575E+02  0.50400000000E-02 0.  1.
          2   -1    0    0  501    0  0.00000000000E+00 -0.00000000000E+00 -0.14432024262E+03  0.14432024265E+03  0.25500000000E-02 0. -1.
         24    2    1    2    0    0  0.00000000000E+00  0.44408920985E-15 -0.13313088618E+03  0.15550960022E+03  0.80370410632E+02 0.  0.
         66    2    3    3    0    0 -0.39185963930E+02  0.28762506174E+01 -0.82682990437E+02  0.91565765992E+02  0.20000018215E+01 0.  0.
        -13    1    3    3    0    0  0.39185963930E+02 -0.28762506174E+01 -0.50447895745E+02  0.63943834229E+02  0.10566000000E+00 0.  1.
         13    1    4    4    0    0 -0.20168386175E+02  0.12329242891E+01 -0.43501961263E+02  0.47965776352E+02  0.10566000000E+00 0. -1.
        -13    1    4    4    0    0 -0.56685398796E+01  0.64759150484E+00 -0.12920022681E+02  0.14124088262E+02  0.10566000000E+00 0.  1.
        -14    1    4    4    0    0 -0.13349037875E+02  0.99573482346E+00 -0.26261006493E+02  0.29475901378E+02  0.00000000000E+00 0.  1.
<mgrwt>
<rscale>  0 0.80370411E+02</rscale>
<asrwt>0</asrwt>
<pdfrwt beam="1">  1        2 0.22203113E-01 0.80370411E+02</pdfrwt>
<pdfrwt beam="2">  1       -1 0.17214396E-02 0.80370411E+02</pdfrwt>
<totfact> 0.19542564E+05</totfact>
</mgrwt>
</event>
<event>
 8    1  0.2676873E-024  0.7789900E+02  0.7818608E-02  0.1335122E+00
         -1   -1    0    0    0  501 -0.00000000000E+00  0.00000000000E+00  0.66149075805E+02  0.66149075997E+02  0.50400000000E-02 0.  1.
          2   -1    0    0  501    0  0.00000000000E+00 -0.00000000000E+00 -0.22934007484E+02  0.22934007626E+02  0.25500000000E-02 0. -1.
         24    2    1    2    0    0  0.00000000000E+00  0.44408920985E-15  0.43215068320E+02  0.89083083623E+02  0.77898996514E+02 0.  0.
         66    2    3    3    0    0  0.30587289633E+02  0.31611865760E+01 -0.56682791153E+01  0.31332168408E+02  0.20000003414E+01 0.  0.
        -13    1    3    3    0    0 -0.30587289633E+02 -0.31611865760E+01  0.48883347436E+02  0.57750915215E+02  0.10566000000E+00 0.  1.
         13    1    4    4    0    0  0.11124132426E+02  0.72128702837E+00 -0.15663022417E+01  0.11257488350E+02  0.10566000000E+00 0. -1.
        -13    1    4    4    0    0  0.74532746565E+01  0.67569962836E+00 -0.10476968507E+01  0.75575595148E+01  0.10566000000E+00 0.  1.
        -14    1    4    4    0    0  0.12009882550E+02  0.17641999193E+01 -0.30542800228E+01  0.12517120543E+02  0.00000000000E+00 0.  1.
<mgrwt>
<rscale>  0 0.77898997E+02</rscale>
<asrwt>0</asrwt>
<pdfrwt beam="1">  1        2 0.35283089E-02 0.77898997E+02</pdfrwt>
<pdfrwt beam="2">  1       -1 0.10176781E-01 0.77898997E+02</pdfrwt>
<totfact> 0.13762364E+05</totfact>
</mgrwt>
</event>
<event>
 8    1  0.2676873E-024  0.7967382E+02  0.7818608E-02  0.1329980E+00
          2   -1    0    0  501    0  0.00000000000E+00  0.00000000000E+00  0.51133150301E+03  0.51133150302E+03  0.25500000000E-02 0. -1.
         -1   -1    0    0    0  501 -0.00000000000E+00 -0.00000000000E+00 -0.31036190518E+01  0.31036231441E+01  0.50400000000E-02 0.  1.
         24    2    1    2    0    0  0.00000000000E+00  0.00000000000E+00  0.50822788396E+03  0.51443512616E+03  0.79673816245E+02 0.  0.
         66    2    3    3    0    0  0.12541628059E+02  0.19571607880E+02  0.46296142802E+03  0.46354894467E+03  0.20000002954E+01 0.  0.
        -13    1    3    3    0    0 -0.12541628059E+02 -0.19571607880E+02  0.45266455934E+02  0.50886181486E+02  0.10566000000E+00 0.  1.
         13    1    4    4    0    0  0.46105517198E+01  0.74766328669E+01  0.18032235958E+03  0.18053620622E+03  0.10566000000E+00 0. -1.
        -13    1    4    4    0    0  0.43492311950E+01  0.78872891724E+01  0.17879847655E+03  0.17902522594E+03  0.10566000000E+00 0.  1.
         14    1    4    4    0    0  0.35818451442E+01  0.42076858404E+01  0.10384059189E+03  0.10398751252E+03  0.00000000000E+00 0. -1.
<mgrwt>
<rscale>  0 0.79673816E+02</rscale>
<asrwt>0</asrwt>
<pdfrwt beam="1">  1        2 0.78666343E-01 0.79673816E+02</pdfrwt>
<pdfrwt beam="2">  1       -1 0.47748043E-03 0.79673816E+02</pdfrwt>
<totfact> 0.30996301E+05</totfact>
</mgrwt>
</event>
<event>
 8    1  0.2676873E-024  0.7951142E+02  0.7818608E-02  0.1330444E+00
         -1   -1    0    0    0  501 -0.00000000000E+00  0.00000000000E+00  0.11734982888E+03  0.11734982899E+03  0.50400000000E-02 0.  1.
          2   -1    0    0  501    0  0.00000000000E+00 -0.00000000000E+00 -0.13468416137E+02  0.13468416378E+02  0.25500000000E-02 0. -1.
         24    2    1    2    0    0  0.00000000000E+00  0.35527136788E-14  0.10388141274E+03  0.13081824536E+03  0.79511416836E+02 0.  0.
         66    2    3    3    0    0  0.31129775683E+02 -0.24207029670E+02  0.59943848689E+02  0.71779580760E+02  0.19999997003E+01 0.  0.
        -13    1    3    3    0    0 -0.31129775683E+02  0.24207029670E+02  0.43937564052E+02  0.59038664605E+02  0.10566000000E+00 0.  1.
         13    1    4    4    0    0  0.22256083742E+02 -0.18010667756E+02  0.44333912473E+02  0.52775225018E+02  0.10566000000E+00 0. -1.
        -13    1    4    4    0    0  0.46911169712E+01 -0.29320668333E+01  0.78494177629E+01  0.96035471366E+01  0.10566000000E+00 0.  1.
         14    1    4    4    0    0  0.41825749703E+01 -0.32642950801E+01  0.77605184538E+01  0.94008086048E+01  0.00000000000E+00 0. -1.
<mgrwt>
<rscale>  0 0.79511417E+02</rscale>
<asrwt>0</asrwt>
<pdfrwt beam="1">  1        2 0.20720640E-02 0.79511417E+02</pdfrwt>
<pdfrwt beam="2">  1       -1 0.18053820E-01 0.79511417E+02</pdfrwt>
<totfact> 0.11619722E+05</totfact>
</mgrwt>
</event>
<event>
 8    1  0.2676873E-024  0.8182008E+02  0.7818608E-02  0.1323964E+00
          2   -1    0    0  501    0  0.00000000000E+00  0.00000000000E+00  0.36167338443E+02  0.36167338533E+02  0.25500000000E-02 0. -1.
         -1   -1    0    0    0  501 -0.00000000000E+00 -0.00000000000E+00 -0.46274661212E+02  0.46274661486E+02  0.50400000000E-02 0.  1.
         24    2    1    2    0    0  0.00000000000E+00  0.00000000000E+00 -0.10107322769E+02  0.82442000019E+02  0.81820079403E+02 0.  0.
         66    2    3    3    0    0  0.14619033833E+02  0.28723486439E+02  0.20291485393E+02  0.38137897216E+02  0.20000002855E+01 0.  0.
        -13    1    3    3    0    0 -0.14619033833E+02 -0.28723486439E+02 -0.30398808163E+02  0.44304102803E+02  0.10566000000E+00 0.  1.
         13    1    4    4    0    0  0.64599996276E+01  0.13426049217E+02  0.90838872278E+01  0.17450460280E+02  0.10566000000E+00 0. -1.
        -13    1    4    4    0    0  0.78720923546E+01  0.14201269547E+02  0.10234202999E+02  0.19193643996E+02  0.10566000000E+00 0.  1.
        -14    1    4    4    0    0  0.28694185088E+00  0.10961676755E+01  0.97339516691E+00  0.14937929407E+01  0.00000000000E+00 0.  1.
<mgrwt>
<rscale>  0 0.81820079E+02</rscale>
<asrwt>0</asrwt>
<pdfrwt beam="1">  1        2 0.55642059E-02 0.81820079E+02</pdfrwt>
<pdfrwt beam="2">  1       -1 0.71191787E-02 0.81820079E+02</pdfrwt>
<totfact> 0.13118573E+05</totfact>
</mgrwt>
</event>
<event>
 8    1  0.2676873E-024  0.7859561E+02  0.7818608E-02  0.1333085E+00
          2   -1    0    0  501    0  0.00000000000E+00  0.00000000000E+00  0.18898346812E+03  0.18898346814E+03  0.25500000000E-02 0. -1.
         -1   -1    0    0    0  501 -0.00000000000E+00 -0.00000000000E+00 -0.81717067691E+01  0.81717083234E+01  0.50400000000E-02 0.  1.
         24    2    1    2    0    0  0.00000000000E+00  0.00000000000E+00  0.18081176135E+03  0.19715517646E+03  0.78595614142E+02 0.  0.
         66    2    3    3    0    0 -0.27535554945E+02  0.27684003901E+02  0.10101830796E+03  0.10832040159E+03  0.19999998594E+01 0.  0.
        -13    1    3    3    0    0  0.27535554945E+02 -0.27684003901E+02  0.79793453390E+02  0.88834774870E+02  0.10566000000E+00 0.  1.
         13    1    4    4    0    0 -0.23009642193E+02  0.22313885061E+02  0.82482464998E+02  0.88491362836E+02  0.10566000000E+00 0. -1.
        -13    1    4    4    0    0 -0.24000873159E+01  0.27861027967E+01  0.10426464618E+02  0.11056451347E+02  0.10566000000E+00 0.  1.
         14    1    4    4    0    0 -0.21258254362E+01  0.25840160435E+01  0.81093783448E+01  0.87725874083E+01  0.00000000000E+00 0. -1.
<mgrwt>
<rscale>  0 0.78595614E+02</rscale>
<asrwt>0</asrwt>
<pdfrwt beam="1">  1        2 0.29074378E-01 0.78595614E+02</pdfrwt>
<pdfrwt beam="2">  1       -1 0.12571859E-02 0.78595614E+02</pdfrwt>
<totfact> 0.22666136E+05</totfact>
</mgrwt>
</event>
<event>
 8    1  0.2676873E-024  0.8007182E+02  0.7818608E-02  0.1328848E+00
         -1   -1    0    0    0  501 -0.00000000000E+00  0.00000000000E+00  0.11106176653E+03  0.11106176665E+03  0.50400000000E-02 0.  1.
          2   -1    0    0  501    0  0.00000000000E+00 -0.00000000000E+00 -0.14432274927E+02  0.14432275153E+02  0.25500000000E-02 0. -1.
         24    2    1    2    0    0  0.35527136788E-14  0.00000000000E+00  0.96629491607E+02  0.12549404180E+03  0.80071817011E+02 0.  0.
         66    2    3    3    0    0 -0.28733540106E+02 -0.27821038824E+02  0.50091784687E+02  0.64131220340E+02  0.20000002307E+01 0.  0.
        -13    1    3    3    0    0  0.28733540106E+02  0.27821038824E+02  0.46537706920E+02  0.61362821461E+02  0.10566000000E+00 0.  1.
         13    1    4    4    0    0 -0.22236543074E+02 -0.21452261732E+02  0.38410372242E+02  0.49295347053E+02  0.10566000000E+00 0. -1.
        -13    1    4    4    0    0 -0.80156665622E+00 -0.45858499960E+00  0.13917135305E+01  0.16735710002E+01  0.10566000000E+00 0.  1.
         14    1    4    4    0    0 -0.56954303756E+01 -0.59101920921E+01  0.10289698915E+02  0.13162302287E+02  0.00000000000E+00 0. -1.
<mgrwt>
<rscale>  0 0.80071817E+02</rscale>
<asrwt>0</asrwt>
<pdfrwt beam="1">  1        2 0.22203500E-02 0.80071817E+02</pdfrwt>
<pdfrwt beam="2">  1       -1 0.17086426E-01 0.80071817E+02</pdfrwt>
<totfact> 0.11558912E+05</totfact>
</mgrwt>
</event>
<event>
 8    1  0.2676873E-024  0.7879487E+02  0.7818608E-02  0.1332507E+00
         -1   -1    0    0    0  501 -0.00000000000E+00  0.00000000000E+00  0.13216774483E+01  0.13216870579E+01  0.50400000000E-02 0.  1.
          2   -1    0    0  501    0  0.00000000000E+00 -0.00000000000E+00 -0.11743806526E+04  0.11743806526E+04  0.25500000000E-02 0. -1.
         24    2    1    2    0    0  0.00000000000E+00  0.00000000000E+00 -0.11730589751E+04  0.11757023397E+04  0.78794874831E+02 0.  0.
         66    2    3    3    0    0  0.72240703694E+01 -0.21760782797E+02 -0.10644811787E+04  0.10647299651E+04  0.19999994378E+01 0.  0.
        -13    1    3    3    0    0 -0.72240703694E+01  0.21760782797E+02 -0.10857779645E+03  0.11097237452E+03  0.10566000000E+00 0.  1.
         13    1    4    4    0    0  0.14093514349E+01 -0.42706173702E+01 -0.21869820942E+03  0.21874446830E+03  0.10566000000E+00 0. -1.
        -13    1    4    4    0    0  0.62664405656E+00 -0.94261798043E+00 -0.65250418593E+02  0.65260321038E+02  0.10566000000E+00 0. -1.
        -14    1    4    4    0    0  0.51880748780E+01 -0.16547547446E+02 -0.78053255068E+03  0.78072517579E+03  0.00000000000E+00 0.  1.
<mgrwt>
<rscale>  0 0.78794875E+02</rscale>
<asrwt>0</asrwt>
<pdfrwt beam="1">  1        2 0.18067311E+00 0.78794875E+02</pdfrwt>
<pdfrwt beam="2">  1       -1 0.20333667E-03 0.78794875E+02</pdfrwt>
<totfact> 0.36523871E+05</totfact>
</mgrwt>
</event>
<event>
 8    1  0.2676873E-024  0.7933843E+02  0.7818608E-02  0.1330939E+00
          2   -1    0    0  501    0  0.00000000000E+00  0.00000000000E+00  0.20802375556E+02  0.20802375712E+02  0.25500000000E-02 0. -1.
         -1   -1    0    0    0  501 -0.00000000000E+00 -0.00000000000E+00 -0.75647437529E+02  0.75647437697E+02  0.50400000000E-02 0.  1.
         24    2    1    2    0    0  0.00000000000E+00  0.17763568394E-14 -0.54845061973E+02  0.96449813409E+02  0.79338425014E+02 0.  0.
         66    2    3    3    0    0  0.34521767517E+02 -0.15308939715E+02 -0.12774734495E+02  0.39916286313E+02  0.20000009834E+01 0.  0.
        -13    1    3    3    0    0 -0.34521767517E+02  0.15308939715E+02 -0.42070327478E+02  0.56533527095E+02  0.10566000000E+00 0.  1.
         13    1    4    4    0    0  0.83855617625E+01 -0.39788198295E+01 -0.35179235243E+01  0.99265101252E+01  0.10566000000E+00 0. -1.
        -13    1    4    4    0    0  0.18548571529E+02 -0.73975043578E+01 -0.68380365670E+01  0.21107877312E+02  0.10566000000E+00 0.  1.
        -14    1    4    4    0    0  0.75876342252E+01 -0.39326155282E+01 -0.24187744040E+01  0.88818988761E+01  0.00000000000E+00 0.  1.
<mgrwt>
<rscale>  0 0.79338425E+02</rscale>
<asrwt>0</asrwt>
<pdfrwt beam="1">  1        2 0.32003655E-02 0.79338425E+02</pdfrwt>
<pdfrwt beam="2">  1       -1 0.11638067E-01 0.79338425E+02</pdfrwt>
<totfact> 0.12815597E+05</totfact>
</mgrwt>
</event>
<event>
 8    1  0.2676873E-024  0.8475436E+02  0.7818608E-02  0.1316076E+00
          2   -1    0    0  501    0  0.00000000000E+00  0.00000000000E+00  0.16022765307E+03  0.16022765309E+03  0.25500000000E-02 0. -1.
         -1   -1    0    0    0  501 -0.00000000000E+00 -0.00000000000E+00 -0.11207959672E+02  0.11207960806E+02  0.50400000000E-02 0.  1.
         24    2    1    2    0    0 -0.88817841970E-15  0.71054273576E-14  0.14901969340E+03  0.17143561390E+03  0.84754355001E+02 0.  0.
         66    2    3    3    0    0 -0.58228958116E+01  0.41153220620E+02  0.58077851890E+02  0.71445997516E+02  0.19999994731E+01 0.  0.
        -13    1    3    3    0    0  0.58228958116E+01 -0.41153220620E+02  0.90941841511E+02  0.99989616383E+02  0.10566000000E+00 0.  1.
         13    1    4    4    0    0 -0.16475998480E-01  0.11562391097E+01  0.12931901735E+01  0.17380060983E+01  0.10566000000E+00 0. -1.
        -13    1    4    4    0    0 -0.23140106093E+01  0.15573898483E+02  0.21207966583E+02  0.26413821565E+02  0.10566000000E+00 0.  1.
         14    1    4    4    0    0 -0.34924092038E+01  0.24423083027E+02  0.35576695133E+02  0.43294169852E+02  0.00000000000E+00 0. -1.
<mgrwt>
<rscale>  0 0.84754355E+02</rscale>
<asrwt>0</asrwt>
<pdfrwt beam="1">  1        2 0.24650406E-01 0.84754355E+02</pdfrwt>
<pdfrwt beam="2">  1       -1 0.17243017E-02 0.84754355E+02</pdfrwt>
<totfact> 0.17553093E+05</totfact>
</mgrwt>
</event>
<event>
 8    1  0.2676873E-024  0.8617616E+02  0.7818608E-02  0.1312385E+00
          2   -1    0    0  501    0  0.00000000000E+00  0.00000000000E+00  0.18039913649E+02  0.18039913829E+02  0.25500000000E-02 0. -1.
         -1   -1    0    0    0  501 -0.00000000000E+00 -0.00000000000E+00 -0.10291527808E+03  0.10291527821E+03  0.50400000000E-02 0.  1.
         24    2    1    2    0    0  0.88817841970E-15  0.00000000000E+00 -0.84875364435E+02  0.12095519204E+03  0.86176162555E+02 0.  0.
         66    2    3    3    0    0  0.49223483383E+01  0.27623452718E+02  0.33937325031E+01  0.28333762057E+02  0.19999996983E+01 0.  0.
        -13    1    3    3    0    0 -0.49223483383E+01 -0.27623452718E+02 -0.88269096939E+02  0.92621429980E+02  0.10566000000E+00 0.  1.
         13    1    4    4    0    0  0.25657819119E+01  0.17698364719E+02  0.14271786846E+01  0.17940550537E+02  0.10566000000E+00 0. -1.
        -13    1    4    4    0    0  0.75906640217E+00  0.27595431129E+01  0.54335073347E+00  0.29150735925E+01  0.10566000000E+00 0.  1.
         14    1    4    4    0    0  0.15975000242E+01  0.71655448856E+01  0.14232030850E+01  0.74781379270E+01  0.00000000000E+00 0. -1.
<mgrwt>
<rscale>  0 0.86176163E+02</rscale>
<asrwt>0</asrwt>
<pdfrwt beam="1">  1        2 0.27753714E-02 0.86176163E+02</pdfrwt>
<pdfrwt beam="2">  1       -1 0.15833119E-01 0.86176163E+02</pdfrwt>
<totfact> 0.97851405E+04</totfact>
</mgrwt>
</event>
<event>
 8    1  0.2676873E-024  0.7881012E+02  0.7818608E-02  0.1332462E+00
          2   -1    0    0  501    0  0.00000000000E+00  0.00000000000E+00  0.29535802426E+03  0.29535802427E+03  0.25500000000E-02 0. -1.
         -1   -1    0    0    0  501 -0.00000000000E+00 -0.00000000000E+00 -0.52572076829E+01  0.52572100988E+01  0.50400000000E-02 0.  1.
         24    2    1    2    0    0  0.00000000000E+00  0.00000000000E+00  0.29010081658E+03  0.30061523437E+03  0.78810122171E+02 0.  0.
         66    2    3    3    0    0  0.49042507334E+01 -0.92722298518E+01  0.28992736509E+03  0.29012394412E+03  0.20000004863E+01 0.  0.
        -13    1    3    3    0    0 -0.49042507334E+01  0.92722298518E+01  0.17345148831E+00  0.10491290251E+02  0.10566000000E+00 0.  1.
         13    1    4    4    0    0  0.15593521110E+01 -0.30718523445E+01  0.84192880080E+02  0.84263397013E+02  0.10566000000E+00 0. -1.
        -13    1    4    4    0    0  0.33388584657E+01 -0.51700975162E+01  0.17083719170E+03  0.17094804800E+03  0.10566000000E+00 0.  1.
        -14    1    4    4    0    0  0.60401567714E-02 -0.10302799910E+01  0.34897293317E+02  0.34912499111E+02  0.00000000000E+00 0.  1.
<mgrwt>
<rscale>  0 0.78810122E+02</rscale>
<asrwt>0</asrwt>
<pdfrwt beam="1">  1        2 0.45439725E-01 0.78810122E+02</pdfrwt>
<pdfrwt beam="2">  1       -1 0.80880086E-03 0.78810122E+02</pdfrwt>
<totfact> 0.26366191E+05</totfact>
</mgrwt>
</event>
<event>
 8    1  0.2676873E-024  0.7978995E+02  0.7818608E-02  0.1329649E+00
          2   -1    0    0  501    0  0.00000000000E+00  0.00000000000E+00  0.70865971167E+03  0.70865971168E+03  0.25500000000E-02 0. -1.
         -1   -1    0    0    0  501 -0.00000000000E+00 -0.00000000000E+00 -0.22459398925E+01  0.22459455475E+01  0.50400000000E-02 0.  1.
         24    2    1    2    0    0  0.00000000000E+00  0.00000000000E+00  0.70641377178E+03  0.71090565722E+03  0.79789952459E+02 0.  0.
         66    2    3    3    0    0 -0.41425390380E+01  0.35361628902E+02  0.51330697236E+03  0.51454412185E+03  0.20000072466E+01 0.  0.
        -13    1    3    3    0    0  0.41425390380E+01 -0.35361628902E+02  0.19310679942E+03  0.19636153538E+03  0.10566000000E+00 0.  1.
         13    1    4    4    0    0 -0.28818333439E+01  0.17604514952E+02  0.25752335965E+03  0.25814049632E+03  0.10566000000E+00 0. -1.
        -13    1    4    4    0    0 -0.12075321837E+01  0.17516507708E+02  0.25329455904E+03  0.25390240444E+03  0.10566000000E+00 0.  1.
        -14    1    4    4    0    0 -0.53173510494E-01  0.24060624230E+00  0.24890536666E+01  0.25012210901E+01  0.00000000000E+00 0.  1.
<mgrwt>
<rscale>  0 0.79789952E+02</rscale>
<asrwt>0</asrwt>
<pdfrwt beam="1">  1        2 0.10902462E+00 0.79789952E+02</pdfrwt>
<pdfrwt beam="2">  1       -1 0.34552948E-03 0.79789952E+02</pdfrwt>
<totfact> 0.33775006E+05</totfact>
</mgrwt>
</event>
<event>
 8    1  0.2676873E-024  0.8033250E+02  0.7818608E-02  0.1328110E+00
         -1   -1    0    0    0  501 -0.00000000000E+00  0.00000000000E+00  0.22011856928E+02  0.22011857505E+02  0.50400000000E-02 0.  1.
          2   -1    0    0  501    0  0.00000000000E+00 -0.00000000000E+00 -0.73293569927E+02  0.73293569971E+02  0.25500000000E-02 0. -1.
         24    2    1    2    0    0  0.00000000000E+00  0.00000000000E+00 -0.51281712999E+02  0.95305427476E+02  0.80332499141E+02 0.  0.
         66    2    3    3    0    0  0.29172006687E+02  0.19124811143E+02 -0.49222491151E+02  0.60362389054E+02  0.20000004499E+01 0.  0.
        -13    1    3    3    0    0 -0.29172006687E+02 -0.19124811143E+02 -0.20592218480E+01  0.34943038421E+02  0.10566000000E+00 0.  1.
         13    1    4    4    0    0  0.99215748471E+01  0.69031022083E+01 -0.17028533771E+02  0.20882351256E+02  0.10566000000E+00 0. -1.
        -13    1    4    4    0    0  0.66713986612E+01  0.41246673116E+01 -0.98773208403E+01  0.12613210200E+02  0.10566000000E+00 0.  1.
        -14    1    4    4    0    0  0.12579033179E+02  0.80970416236E+01 -0.22316636540E+02  0.26866827599E+02  0.00000000000E+00 0.  1.
<mgrwt>
<rscale>  0 0.80332499E+02</rscale>
<asrwt>0</asrwt>
<pdfrwt beam="1">  1        2 0.11275934E-01 0.80332499E+02</pdfrwt>
<pdfrwt beam="2">  1       -1 0.33864396E-02 0.80332499E+02</pdfrwt>
<totfact> 0.16148305E+05</totfact>
</mgrwt>
</event>
<event>
 8    1  0.2676873E-024  0.7692652E+02  0.7818608E-02  0.1338007E+00
          2   -1    0    0  501    0  0.00000000000E+00  0.00000000000E+00  0.50754222780E+03  0.50754222781E+03  0.25500000000E-02 0. -1.
         -1   -1    0    0    0  501 -0.00000000000E+00 -0.00000000000E+00 -0.29148734075E+01  0.29148777647E+01  0.50400000000E-02 0.  1.
         24    2    1    2    0    0 -0.35527136788E-14 -0.22204460493E-15  0.50462735439E+03  0.51045710557E+03  0.76926522259E+02 0.  0.
         66    2    3    3    0    0  0.26244343155E+02  0.11798199082E+01  0.43866770614E+03  0.43945820499E+03  0.19999992075E+01 0.  0.
        -13    1    3    3    0    0 -0.26244343155E+02 -0.11798199082E+01  0.65959648251E+02  0.70998900584E+02  0.10566000000E+00 0.  1.
         13    1    4    4    0    0  0.16735320981E+02 -0.14572378480E+00  0.27918063318E+03  0.27968183586E+03  0.10566000000E+00 0. -1.
        -13    1    4    4    0    0  0.44397916327E+01  0.71602816465E+00  0.77606490074E+02  0.77736753931E+02  0.10566000000E+00 0.  1.
        -14    1    4    4    0    0  0.50692305410E+01  0.60951552839E+00  0.81880582892E+02  0.82039615200E+02  0.00000000000E+00 0.  1.
<mgrwt>
<rscale>  0 0.76926522E+02</rscale>
<asrwt>0</asrwt>
<pdfrwt beam="1">  1        2 0.78083310E-01 0.76926522E+02</pdfrwt>
<pdfrwt beam="2">  1       -1 0.44844303E-03 0.76926522E+02</pdfrwt>
<totfact> 0.33878083E+05</totfact>
</mgrwt>
</event>
<event>
 8    1  0.2676873E-024  0.7923967E+02  0.7818608E-02  0.1331223E+00
         -1   -1    0    0    0  501 -0.00000000000E+00  0.00000000000E+00  0.35468449350E+01  0.35468485159E+01  0.50400000000E-02 0.  1.
          2   -1    0    0  501    0  0.00000000000E+00 -0.00000000000E+00 -0.44257094505E+03  0.44257094506E+03  0.25500000000E-02 0. -1.
         24    2    1    2    0    0  0.00000000000E+00  0.00000000000E+00 -0.43902410012E+03  0.44611779358E+03  0.79239669743E+02 0.  0.
         66    2    3    3    0    0  0.29675662413E+02  0.21423863584E+02 -0.30468088832E+03  0.30687794084E+03  0.19999986450E+01 0.  0.
        -13    1    3    3    0    0 -0.29675662413E+02 -0.21423863584E+02 -0.13434321180E+03  0.13923985274E+03  0.10566000000E+00 0.  1.
         13    1    4    4    0    0  0.50913262516E+00  0.32317691492E+00 -0.42910601119E+01  0.43345149980E+01  0.10566000000E+00 0.  1.
        -13    1    4    4    0    0  0.12738828054E+02  0.99354281189E+01 -0.13026828701E+03  0.13126624942E+03  0.10566000000E+00 0.  1.
         14    1    4    4    0    0  0.16427701734E+02  0.11165258550E+02 -0.17012154120E+03  0.17127717642E+03  0.00000000000E+00 0. -1.
<mgrwt>
<rscale>  0 0.79239670E+02</rscale>
<asrwt>0</asrwt>
<pdfrwt beam="1">  1        2 0.68087794E-01 0.79239670E+02</pdfrwt>
<pdfrwt beam="2">  1       -1 0.54566908E-03 0.79239670E+02</pdfrwt>
<totfact> 0.29991786E+05</totfact>
</mgrwt>
</event>
<event>
 8    1  0.2676873E-024  0.8098062E+02  0.7818608E-02  0.1326291E+00
         -1   -1    0    0    0  501 -0.00000000000E+00  0.00000000000E+00  0.98758859789E+02  0.98758859918E+02  0.50400000000E-02 0.  1.
          2   -1    0    0  501    0  0.00000000000E+00 -0.00000000000E+00 -0.16600690103E+02  0.16600690299E+02  0.25500000000E-02 0. -1.
         24    2    1    2    0    0  0.00000000000E+00 -0.35527136788E-14  0.82158169686E+02  0.11535955022E+03  0.80980621015E+02 0.  0.
         66    2    3    3    0    0 -0.32888248833E+02 -0.23491842927E+02  0.38270478175E+02  0.55696796127E+02  0.20000009127E+01 0.  0.
        -13    1    3    3    0    0  0.32888248833E+02  0.23491842927E+02  0.43887691511E+02  0.59662754090E+02  0.10566000000E+00 0.  1.
         13    1    4    4    0    0 -0.22503430847E+02 -0.15821354992E+02  0.24813368919E+02  0.37046377890E+02  0.10566000000E+00 0. -1.
        -13    1    4    4    0    0 -0.63102217014E+01 -0.47704723990E+01  0.83235214592E+01  0.11483400121E+02  0.10566000000E+00 0. -1.
        -14    1    4    4    0    0 -0.40745962841E+01 -0.29000155365E+01  0.51335877973E+01  0.71670181152E+01  0.00000000000E+00 0.  1.
<mgrwt>
<rscale>  0 0.80980621E+02</rscale>
<asrwt>0</asrwt>
<pdfrwt beam="1">  1        2 0.25539523E-02 0.80980621E+02</pdfrwt>
<pdfrwt beam="2">  1       -1 0.15193671E-01 0.80980621E+02</pdfrwt>
<totfact> 0.11529415E+05</totfact>
</mgrwt>
</event>
<event>
 8    1  0.2676873E-024  0.7525723E+02  0.7818608E-02  0.1343076E+00
          2   -1    0    0  501    0  0.00000000000E+00  0.00000000000E+00  0.11462233282E+03  0.11462233285E+03  0.25500000000E-02 0. -1.
         -1   -1    0    0    0  501 -0.00000000000E+00 -0.00000000000E+00 -0.12352851659E+02  0.12352852687E+02  0.50400000000E-02 0.  1.
         24    2    1    2    0    0  0.00000000000E+00  0.00000000000E+00  0.10226948116E+03  0.12697518554E+03  0.75257231977E+02 0.  0.
         66    2    3    3    0    0 -0.27627377185E+02  0.24330281587E+02  0.64094571986E+02  0.73941522389E+02  0.20000007255E+01 0.  0.
        -13    1    3    3    0    0  0.27627377185E+02 -0.24330281587E+02  0.38174909176E+02  0.53033663148E+02  0.10566000000E+00 0.  1.
         13    1    4    4    0    0 -0.96152674741E+01  0.82829225859E+01  0.21080476268E+02  0.24606052484E+02  0.10566000000E+00 0. -1.
        -13    1    4    4    0    0 -0.92992420726E+01  0.90069663312E+01  0.22249254555E+02  0.25741830508E+02  0.10566000000E+00 0.  1.
        -14    1    4    4    0    0 -0.87128676381E+01  0.70403926700E+01  0.20764841164E+02  0.23593639397E+02  0.00000000000E+00 0.  1.
<mgrwt>
<rscale>  0 0.75257232E+02</rscale>
<asrwt>0</asrwt>
<pdfrwt beam="1">  1        2 0.17634205E-01 0.75257232E+02</pdfrwt>
<pdfrwt beam="2">  1       -1 0.19004388E-02 0.75257232E+02</pdfrwt>
<totfact> 0.21688291E+05</totfact>
</mgrwt>
</event>
<event>
 8    1  0.2676873E-024  0.8146064E+02  0.7818608E-02  0.1324957E+00
          2   -1    0    0  501    0  0.00000000000E+00  0.00000000000E+00  0.24692112092E+03  0.24692112093E+03  0.25500000000E-02 0. -1.
         -1   -1    0    0    0  501 -0.00000000000E+00 -0.00000000000E+00 -0.67185773214E+01  0.67185792118E+01  0.50400000000E-02 0.  1.
         24    2    1    2    0    0  0.00000000000E+00  0.00000000000E+00  0.24020254360E+03  0.25363970014E+03  0.81460637969E+02 0.  0.
         66    2    3    3    0    0 -0.96137959198E+01 -0.15650051820E+02  0.23328095201E+03  0.23401143511E+03  0.20000000342E+01 0.  0.
        -13    1    3    3    0    0  0.96137959198E+01  0.15650051820E+02  0.69215915900E+01  0.19628265031E+02  0.10566000000E+00 0.  1.
         13    1    4    4    0    0 -0.18071755727E+01 -0.26953458515E+01  0.41789640390E+02  0.41915581599E+02  0.10566000000E+00 0. -1.
        -13    1    4    4    0    0 -0.56892210184E+01 -0.85586976673E+01  0.12086113364E+03  0.12129733439E+03  0.10566000000E+00 0.  1.
        -14    1    4    4    0    0 -0.21173993287E+01 -0.43960083011E+01  0.70630177978E+02  0.70798519124E+02  0.00000000000E+00 0.  1.
<mgrwt>
<rscale>  0 0.81460638E+02</rscale>
<asrwt>0</asrwt>
<pdfrwt beam="1">  1        2 0.37987865E-01 0.81460638E+02</pdfrwt>
<pdfrwt beam="2">  1       -1 0.10336274E-02 0.81460638E+02</pdfrwt>
<totfact> 0.22657660E+05</totfact>
</mgrwt>
</event>
<event>
 8    1  0.2676873E-024  0.7950665E+02  0.7818608E-02  0.1330457E+00
         -1   -1    0    0    0  501 -0.00000000000E+00  0.00000000000E+00  0.39709735086E+01  0.39709767070E+01  0.50400000000E-02 0.  1.
          2   -1    0    0  501    0  0.00000000000E+00 -0.00000000000E+00 -0.39796949297E+03  0.39796949298E+03  0.25500000000E-02 0. -1.
         24    2    1    2    0    0  0.00000000000E+00 -0.35527136788E-14 -0.39399851946E+03  0.40194046968E+03  0.79506652759E+02 0.  0.
         66    2    3    3    0    0  0.20779238282E+02  0.31437974850E+02 -0.26070936756E+03  0.26342645529E+03  0.20000012173E+01 0.  0.
        -13    1    3    3    0    0 -0.20779238282E+02 -0.31437974850E+02 -0.13328915189E+03  0.13851401439E+03  0.10566000000E+00 0.  1.
         13    1    4    4    0    0  0.23812921028E+01  0.30627815681E+01 -0.25266515104E+02  0.25562846722E+02  0.10566000000E+00 0. -1.
        -13    1    4    4    0    0  0.65185640459E+01  0.88192059062E+01 -0.76851370935E+02  0.77629984211E+02  0.10566000000E+00 0. -1.
        -14    1    4    4    0    0  0.11879382133E+02  0.19555987376E+02 -0.15859148153E+03  0.16023362436E+03  0.00000000000E+00 0.  1.
<mgrwt>
<rscale>  0 0.79506653E+02</rscale>
<asrwt>0</asrwt>
<pdfrwt beam="1">  1        2 0.61226044E-01 0.79506653E+02</pdfrwt>
<pdfrwt beam="2">  1       -1 0.61091956E-03 0.79506653E+02</pdfrwt>
<totfact> 0.28662685E+05</totfact>
</mgrwt>
</event>
<event>
 8    1  0.2676873E-024  0.8015408E+02  0.7818608E-02  0.1328615E+00
          2   -1    0    0  501    0  0.00000000000E+00  0.00000000000E+00  0.33695720817E+03  0.33695720818E+03  0.25500000000E-02 0. -1.
         -1   -1    0    0    0  501 -0.00000000000E+00 -0.00000000000E+00 -0.47666843882E+01  0.47666870527E+01  0.50400000000E-02 0.  1.
         24    2    1    2    0    0  0.88817841970E-15 -0.35527136788E-14  0.33219052378E+03  0.34172389523E+03  0.80154079636E+02 0.  0.
         66    2    3    3    0    0  0.48504783628E+01 -0.29953646502E+02  0.27765152507E+03  0.27931186415E+03  0.20000006620E+01 0.  0.
        -13    1    3    3    0    0 -0.48504783628E+01  0.29953646502E+02  0.54538998708E+02  0.62412031077E+02  0.10566000000E+00 0.  1.
         13    1    4    4    0    0  0.30994327405E+01 -0.14906996389E+02  0.14145000944E+03  0.14226714786E+03  0.10566000000E+00 0. -1.
        -13    1    4    4    0    0  0.16672829190E+00 -0.53514668409E+01  0.48282269974E+02  0.48578336258E+02  0.10566000000E+00 0.  1.
        -14    1    4    4    0    0  0.15843173304E+01 -0.96951832719E+01  0.87919245660E+02  0.88466380041E+02  0.00000000000E+00 0.  1.
<mgrwt>
<rscale>  0 0.80154080E+02</rscale>
<asrwt>0</asrwt>
<pdfrwt beam="1">  1        2 0.51839558E-01 0.80154080E+02</pdfrwt>
<pdfrwt beam="2">  1       -1 0.73333645E-03 0.80154080E+02</pdfrwt>
<totfact> 0.26452080E+05</totfact>
</mgrwt>
</event>
<event>
 8    1  0.2676873E-024  0.8128710E+02  0.7818608E-02  0.1325438E+00
          2   -1    0    0  501    0  0.00000000000E+00  0.00000000000E+00  0.58503139075E+02  0.58503139131E+02  0.25500000000E-02 0. -1.
         -1   -1    0    0    0  501 -0.00000000000E+00 -0.00000000000E+00 -0.28236059912E+02  0.28236060362E+02  0.50400000000E-02 0.  1.
         24    2    1    2    0    0  0.00000000000E+00  0.35527136788E-14  0.30267079163E+02  0.86739199493E+02  0.81287100130E+02 0.  0.
         66    2    3    3    0    0  0.11271237243E+02 -0.28158023156E+02  0.43972944770E+02  0.53455915803E+02  0.20000013834E+01 0.  0.
        -13    1    3    3    0    0 -0.11271237243E+02  0.28158023156E+02 -0.13705865608E+02  0.33283283689E+02  0.10566000000E+00 0.  1.
         13    1    4    4    0    0  0.57641044937E+01 -0.13525638920E+02  0.21309638245E+02  0.25889759654E+02  0.10566000000E+00 0. -1.
        -13    1    4    4    0    0  0.15500893562E+01 -0.39856450330E+01  0.72832822506E+01  0.84466270025E+01  0.10566000000E+00 0.  1.
        -14    1    4    4    0    0  0.39570433930E+01 -0.10646739204E+02  0.15380024275E+02  0.19119529146E+02  0.00000000000E+00 0.  1.
<mgrwt>
<rscale>  0 0.81287100E+02</rscale>
<asrwt>0</asrwt>
<pdfrwt beam="1">  1        2 0.90004827E-02 0.81287100E+02</pdfrwt>
<pdfrwt beam="2">  1       -1 0.43440094E-02 0.81287100E+02</pdfrwt>
<totfact> 0.14817021E+05</totfact>
</mgrwt>
</event>
<event>
 8    1  0.2676873E-024  0.7059432E+02  0.7818608E-02  0.1358084E+00
         -1   -1    0    0    0  501 -0.00000000000E+00  0.00000000000E+00  0.65956297266E+01  0.65956316522E+01  0.50400000000E-02 0.  1.
          2   -1    0    0  501    0  0.00000000000E+00 -0.00000000000E+00 -0.18889616146E+03  0.18889616147E+03  0.25500000000E-02 0. -1.
         24    2    1    2    0    0  0.00000000000E+00  0.00000000000E+00 -0.18230053173E+03  0.19549179313E+03  0.70594315002E+02 0.  0.
         66    2    3    3    0    0  0.40389123211E+01  0.98535897590E+01 -0.18433185650E+03  0.18465004565E+03  0.19999983078E+01 0.  0.
        -13    1    3    3    0    0 -0.40389123211E+01 -0.98535897590E+01  0.20313247756E+01  0.10841747472E+02  0.10566000000E+00 0.  1.
         13    1    4    4    0    0  0.19753248115E+01  0.30646925043E+01 -0.73363998572E+02  0.73454623400E+02  0.10566000000E+00 0. -1.
        -13    1    4    4    0    0  0.80460417598E+00  0.33526645616E+01 -0.52816535378E+02  0.52929059324E+02  0.10566000000E+00 0.  1.
         14    1    4    4    0    0  0.12589833336E+01  0.34362326931E+01 -0.58151322554E+02  0.58266362929E+02  0.00000000000E+00 0. -1.
<mgrwt>
<rscale>  0 0.70594315E+02</rscale>
<asrwt>0</asrwt>
<pdfrwt beam="1">  1        2 0.29060944E-01 0.70594315E+02</pdfrwt>
<pdfrwt beam="2">  1       -1 0.10147126E-02 0.70594315E+02</pdfrwt>
<totfact> 0.30021387E+05</totfact>
</mgrwt>
</event>
<event>
 8    1  0.2676873E-024  0.7905373E+02  0.7818608E-02  0.1331758E+00
          2   -1    0    0  501    0  0.00000000000E+00  0.00000000000E+00  0.13850523421E+02  0.13850523656E+02  0.25500000000E-02 0. -1.
         -1   -1    0    0    0  501 -0.00000000000E+00 -0.00000000000E+00 -0.11280245461E+03  0.11280245472E+03  0.50400000000E-02 0.  1.
         24    2    1    2    0    0 -0.88817841970E-15  0.00000000000E+00 -0.98951931190E+02  0.12665297838E+03  0.79053730122E+02 0.  0.
         66    2    3    3    0    0 -0.43033400918E+01 -0.38001032539E+02 -0.33665987453E+02  0.50990155119E+02  0.19999994914E+01 0.  0.
        -13    1    3    3    0    0  0.43033400918E+01  0.38001032539E+02 -0.65285943738E+02  0.75662823260E+02  0.10566000000E+00 0.  1.
         13    1    4    4    0    0 -0.12140911226E+01 -0.11332197033E+02 -0.10468358749E+02  0.15475477562E+02  0.10566000000E+00 0. -1.
        -13    1    4    4    0    0 -0.11621316501E+01 -0.12614692445E+02 -0.11881025330E+02  0.17368101289E+02  0.10566000000E+00 0.  1.
        -14    1    4    4    0    0 -0.19271173191E+01 -0.14054143061E+02 -0.11316603374E+02  0.18146576268E+02  0.00000000000E+00 0.  1.
<mgrwt>
<rscale>  0 0.79053730E+02</rscale>
<asrwt>0</asrwt>
<pdfrwt beam="1">  1        2 0.21308498E-02 0.79053730E+02</pdfrwt>
<pdfrwt beam="2">  1       -1 0.17354223E-01 0.79053730E+02</pdfrwt>
<totfact> 0.11894035E+05</totfact>
</mgrwt>
</event>
<event>
 8    1  0.2676873E-024  0.7952018E+02  0.7818608E-02  0.1330419E+00
         -1   -1    0    0    0  501 -0.00000000000E+00  0.00000000000E+00  0.17565329566E+02  0.17565330289E+02  0.50400000000E-02 0.  1.
          2   -1    0    0  501    0  0.00000000000E+00 -0.00000000000E+00 -0.89999159716E+02  0.89999159753E+02  0.25500000000E-02 0. -1.
         24    2    1    2    0    0  0.00000000000E+00  0.35527136788E-14 -0.72433830150E+02  0.10756449004E+03  0.79520184657E+02 0.  0.
         66    2    3    3    0    0 -0.22598171879E+02  0.26295082742E+02 -0.62495175784E+02  0.71496543561E+02  0.19999990818E+01 0.  0.
        -13    1    3    3    0    0  0.22598171879E+02 -0.26295082742E+02 -0.99386543664E+01  0.36067946481E+02  0.10566000000E+00 0.  1.
         13    1    4    4    0    0 -0.54538709444E+01  0.68242400626E+01 -0.15194795539E+02  0.17527348237E+02  0.10566000000E+00 0. -1.
        -13    1    4    4    0    0 -0.17158478564E+02  0.19371167607E+02 -0.47190518207E+02  0.53820179243E+02  0.10566000000E+00 0.  1.
        -14    1    4    4    0    0  0.14177629320E-01  0.99675072138E-01 -0.10986203792E+00  0.14901608153E+00  0.00000000000E+00 0.  1.
<mgrwt>
<rscale>  0 0.79520185E+02</rscale>
<asrwt>0</asrwt>
<pdfrwt beam="1">  1        2 0.13846024E-01 0.79520185E+02</pdfrwt>
<pdfrwt beam="2">  1       -1 0.27023585E-02 0.79520185E+02</pdfrwt>
<totfact> 0.17501122E+05</totfact>
</mgrwt>
</event>
<event>
 8    1  0.2676873E-024  0.7968240E+02  0.7818608E-02  0.1329955E+00
          2   -1    0    0  501    0  0.00000000000E+00  0.00000000000E+00  0.20944701682E+03  0.20944701683E+03  0.25500000000E-02 0. -1.
         -1   -1    0    0    0  501 -0.00000000000E+00 -0.00000000000E+00 -0.75786285628E+01  0.75786302387E+01  0.50400000000E-02 0.  1.
         24    2    1    2    0    0  0.00000000000E+00 -0.35527136788E-14  0.20186838825E+03  0.21702564707E+03  0.79682402764E+02 0.  0.
         66    2    3    3    0    0 -0.73705787413E+01 -0.29492999517E+02  0.17103015219E+03  0.17372240910E+03  0.20000031780E+01 0.  0.
        -13    1    3    3    0    0  0.73705787413E+01  0.29492999517E+02  0.30838236063E+02  0.43303237974E+02  0.10566000000E+00 0.  1.
         13    1    4    4    0    0 -0.45599951358E+01 -0.18692350394E+02  0.11304102601E+03  0.11466683149E+03  0.10566000000E+00 0. -1.
        -13    1    4    4    0    0 -0.42158647605E+00 -0.17565507372E+01  0.85764803626E+01  0.87652943530E+01  0.10566000000E+00 0.  1.
        -14    1    4    4    0    0 -0.23889971295E+01 -0.90440983852E+01  0.49412645820E+02  0.50290283255E+02  0.00000000000E+00 0.  1.
<mgrwt>
<rscale>  0 0.79682403E+02</rscale>
<asrwt>0</asrwt>
<pdfrwt beam="1">  1        2 0.32222616E-01 0.79682403E+02</pdfrwt>
<pdfrwt beam="2">  1       -1 0.11659430E-02 0.79682403E+02</pdfrwt>
<totfact> 0.22652766E+05</totfact>
</mgrwt>
</event>
<event>
 8    1  0.2676873E-024  0.7907522E+02  0.7818608E-02  0.1331696E+00
          2   -1    0    0  501    0  0.00000000000E+00  0.00000000000E+00  0.32489321571E+02  0.32489321671E+02  0.25500000000E-02 0. -1.
         -1   -1    0    0    0  501 -0.00000000000E+00 -0.00000000000E+00 -0.48114969353E+02  0.48114969617E+02  0.50400000000E-02 0.  1.
         24    2    1    2    0    0  0.00000000000E+00 -0.17763568394E-14 -0.15625647782E+02  0.80604291288E+02  0.79075223082E+02 0.  0.
         66    2    3    3    0    0 -0.30638376915E+02  0.82372439454E+01  0.16188721657E+02  0.35674038733E+02  0.20000007074E+01 0.  0.
        -13    1    3    3    0    0  0.30638376915E+02 -0.82372439454E+01 -0.31814369439E+02  0.44930252555E+02  0.10566000000E+00 0.  1.
         13    1    4    4    0    0 -0.26664060633E+00  0.61305784003E-01  0.33807375418E+00  0.44756397415E+00  0.10566000000E+00 0.  1.
        -13    1    4    4    0    0 -0.11744301976E+02  0.28722623332E+01  0.61574699042E+01  0.13568497318E+02  0.10566000000E+00 0.  1.
         14    1    4    4    0    0 -0.18627434333E+02  0.53036758283E+01  0.96931779984E+01  0.21657977441E+02  0.00000000000E+00 0. -1.
<mgrwt>
<rscale>  0 0.79075223E+02</rscale>
<asrwt>0</asrwt>
<pdfrwt beam="1">  1        2 0.49983572E-02 0.79075223E+02</pdfrwt>
<pdfrwt beam="2">  1       -1 0.74023030E-02 0.79075223E+02</pdfrwt>
<totfact> 0.14119812E+05</totfact>
</mgrwt>
</event>
<event>
 8    1  0.2676873E-024  0.7940515E+02  0.7818608E-02  0.1330748E+00
          2   -1    0    0  501    0  0.00000000000E+00  0.00000000000E+00  0.75704290142E+01  0.75704294437E+01  0.25500000000E-02 0. -1.
         -1   -1    0    0    0  501 -0.00000000000E+00 -0.00000000000E+00 -0.20821732383E+03  0.20821732389E+03  0.50400000000E-02 0.  1.
         24    2    1    2    0    0  0.17763568394E-14 -0.14210854715E-13 -0.20064689481E+03  0.21578775333E+03  0.79405151533E+02 0.  0.
         66    2    3    3    0    0  0.11457837621E+02  0.37152204471E+02 -0.78864779964E+02  0.87950110202E+02  0.20000064305E+01 0.  0.
        -13    1    3    3    0    0 -0.11457837621E+02 -0.37152204471E+02 -0.12178211485E+03  0.12783764313E+03  0.10566000000E+00 0.  1.
         13    1    4    4    0    0  0.16926888065E+01  0.46801184854E+01 -0.10262180912E+02  0.11405797891E+02  0.10566000000E+00 0. -1.
        -13    1    4    4    0    0  0.47990779489E+01  0.15587366162E+02 -0.34901731130E+02  0.38524526381E+02  0.10566000000E+00 0.  1.
         14    1    4    4    0    0  0.49660708659E+01  0.16884719824E+02 -0.33700867923E+02  0.38019785930E+02  0.00000000000E+00 0. -1.
<mgrwt>
<rscale>  0 0.79405152E+02</rscale>
<asrwt>0</asrwt>
<pdfrwt beam="1">  1        2 0.11646816E-02 0.79405152E+02</pdfrwt>
<pdfrwt beam="2">  1       -1 0.32033430E-01 0.79405152E+02</pdfrwt>
<totfact> 0.10027011E+05</totfact>
</mgrwt>
</event>
<event>
 8    1  0.2676873E-024  0.9022649E+02  0.7818608E-02  0.1302304E+00
          2   -1    0    0  501    0  0.00000000000E+00  0.00000000000E+00  0.42407260842E+02  0.42407260919E+02  0.25500000000E-02 0. -1.
         -1   -1    0    0    0  501 -0.00000000000E+00 -0.00000000000E+00 -0.47991892990E+02  0.47991893255E+02  0.50400000000E-02 0.  1.
         24    2    1    2    0    0  0.00000000000E+00  0.00000000000E+00 -0.55846321482E+01  0.90399154173E+02  0.90226487015E+02 0.  0.
         66    2    3    3    0    0  0.18018997191E+02  0.11138856141E+02  0.37087531773E+02  0.42757962819E+02  0.19999988892E+01 0.  0.
        -13    1    3    3    0    0 -0.18018997191E+02 -0.11138856141E+02 -0.42672163921E+02  0.47641191354E+02  0.10566000000E+00 0.  1.
         13    1    4    4    0    0  0.10518470147E+02  0.62779885183E+01  0.22166674195E+02  0.25326349183E+02  0.10566000000E+00 0. -1.
        -13    1    4    4    0    0  0.12992989272E+01  0.53427273857E+00  0.30093817412E+01  0.33228252378E+01  0.10566000000E+00 0.  1.
         14    1    4    4    0    0  0.62012281172E+01  0.43265948838E+01  0.11911475837E+02  0.14108788398E+02  0.00000000000E+00 0. -1.
<mgrwt>
<rscale>  0 0.90226487E+02</rscale>
<asrwt>0</asrwt>
<pdfrwt beam="1">  1        2 0.65241940E-02 0.90226487E+02</pdfrwt>
<pdfrwt beam="2">  1       -1 0.73833682E-02 0.90226487E+02</pdfrwt>
<totfact> 0.10323042E+05</totfact>
</mgrwt>
</event>
<event>
 8    1  0.2676873E-024  0.7841950E+02  0.7818608E-02  0.1333597E+00
         -1   -1    0    0    0  501 -0.00000000000E+00  0.00000000000E+00  0.41337827479E+01  0.41337858203E+01  0.50400000000E-02 0.  1.
          2   -1    0    0  501    0  0.00000000000E+00 -0.00000000000E+00 -0.37191207544E+03  0.37191207545E+03  0.25500000000E-02 0. -1.
         24    2    1    2    0    0 -0.71054273576E-14  0.00000000000E+00 -0.36777829269E+03  0.37604586127E+03  0.78419495038E+02 0.  0.
         66    2    3    3    0    0  0.27940698852E+02 -0.18113698769E+01 -0.31545905209E+03  0.31670550557E+03  0.20000000285E+01 0.  0.
        -13    1    3    3    0    0 -0.27940698852E+02  0.18113698769E+01 -0.52319240600E+02  0.59340355696E+02  0.10566000000E+00 0.  1.
         13    1    4    4    0    0  0.26731770579E+01 -0.31752768588E-01 -0.31243073456E+02  0.31357418370E+02  0.10566000000E+00 0. -1.
        -13    1    4    4    0    0  0.45963710577E+01  0.35483724581E+00 -0.52470894488E+02  0.52673128526E+02  0.10566000000E+00 0.  1.
         14    1    4    4    0    0  0.20671150736E+02 -0.21344543541E+01 -0.23174508415E+03  0.23267495867E+03  0.00000000000E+00 0. -1.
<mgrwt>
<rscale>  0 0.78419495E+02</rscale>
<asrwt>0</asrwt>
<pdfrwt beam="1">  1        2 0.57217216E-01 0.78419495E+02</pdfrwt>
<pdfrwt beam="2">  1       -1 0.63596711E-03 0.78419495E+02</pdfrwt>
<totfact> 0.29010557E+05</totfact>
</mgrwt>
</event>
<event>
 8    1  0.2676873E-024  0.7991037E+02  0.7818608E-02  0.1329306E+00
         -1   -1    0    0    0  501 -0.00000000000E+00  0.00000000000E+00  0.48272997029E+01  0.48273023340E+01  0.50400000000E-02 0.  1.
          2   -1    0    0  501    0  0.00000000000E+00 -0.00000000000E+00 -0.33070586923E+03  0.33070586924E+03  0.25500000000E-02 0. -1.
         24    2    1    2    0    0  0.17763568394E-14 -0.35527136788E-14 -0.32587856953E+03  0.33553317158E+03  0.79910369474E+02 0.  0.
         66    2    3    3    0    0  0.98088916814E+01 -0.23527766654E+02 -0.29209340225E+03  0.29321037805E+03  0.19999995356E+01 0.  0.
        -13    1    3    3    0    0 -0.98088916814E+01  0.23527766654E+02 -0.33785167279E+02  0.42322793526E+02  0.10566000000E+00 0.  1.
         13    1    4    4    0    0  0.52306012083E+01 -0.14725504661E+02 -0.18391889300E+03  0.18458160808E+03  0.10566000000E+00 0. -1.
        -13    1    4    4    0    0  0.39226670329E+01 -0.76657403617E+01 -0.93659591118E+02  0.94054670614E+02  0.10566000000E+00 0.  1.
         14    1    4    4    0    0  0.65562344019E+00 -0.11365216322E+01 -0.14514918137E+02  0.14574099356E+02  0.00000000000E+00 0. -1.
<mgrwt>
<rscale>  0 0.79910369E+02</rscale>
<asrwt>0</asrwt>
<pdfrwt beam="1">  1        2 0.50877808E-01 0.79910369E+02</pdfrwt>
<pdfrwt beam="2">  1       -1 0.74266196E-03 0.79910369E+02</pdfrwt>
<totfact> 0.26485030E+05</totfact>
</mgrwt>
</event>
<event>
 8    1  0.2676873E-024  0.7888245E+02  0.7818608E-02  0.1332253E+00
          2   -1    0    0  501    0  0.00000000000E+00  0.00000000000E+00  0.38722748950E+03  0.38722748950E+03  0.25500000000E-02 0. -1.
         -1   -1    0    0    0  501 -0.00000000000E+00 -0.00000000000E+00 -0.40173010942E+01  0.40173042557E+01  0.50400000000E-02 0.  1.
         24    2    1    2    0    0  0.00000000000E+00  0.00000000000E+00  0.38321018840E+03  0.39124479376E+03  0.78882445129E+02 0.  0.
         66    2    3    3    0    0 -0.10728236722E+02  0.37583897512E+02  0.21699914268E+03  0.22050005065E+03  0.19999995107E+01 0.  0.
        -13    1    3    3    0    0  0.10728236722E+02 -0.37583897512E+02  0.16621104572E+03  0.17074474311E+03  0.10566000000E+00 0.  1.
         13    1    4    4    0    0 -0.76640372187E+01  0.25752649252E+02  0.14688213272E+03  0.14931948462E+03  0.10566000000E+00 0. -1.
        -13    1    4    4    0    0 -0.28144850609E+01  0.93567158586E+01  0.55700393840E+02  0.56550990228E+02  0.10566000000E+00 0.  1.
        -14    1    4    4    0    0 -0.24971444286E+00  0.24745324010E+01  0.14416616116E+02  0.14629575802E+02  0.00000000000E+00 0.  1.
<mgrwt>
<rscale>  0 0.78882445E+02</rscale>
<asrwt>0</asrwt>
<pdfrwt beam="1">  1        2 0.59573463E-01 0.78882445E+02</pdfrwt>
<pdfrwt beam="2">  1       -1 0.61804653E-03 0.78882445E+02</pdfrwt>
<totfact> 0.28978856E+05</totfact>
</mgrwt>
</event>
<event>
 8    1  0.2676873E-024  0.7863949E+02  0.7818608E-02  0.1332957E+00
         -1   -1    0    0    0  501 -0.00000000000E+00  0.00000000000E+00  0.12245589898E+02  0.12245590935E+02  0.50400000000E-02 0.  1.
          2   -1    0    0  501    0  0.00000000000E+00 -0.00000000000E+00 -0.12625298210E+03  0.12625298213E+03  0.25500000000E-02 0. -1.
         24    2    1    2    0    0 -0.17763568394E-14  0.00000000000E+00 -0.11400739220E+03  0.13849857306E+03  0.78639489212E+02 0.  0.
         66    2    3    3    0    0 -0.15138811742E+02 -0.30951645898E+02 -0.90310026210E+02  0.96680343501E+02  0.19999951508E+01 0.  0.
        -13    1    3    3    0    0  0.15138811742E+02  0.30951645898E+02 -0.23697365994E+02  0.41818229563E+02  0.10566000000E+00 0.  1.
         13    1    4    4    0    0 -0.28601975402E+01 -0.43014421989E+01 -0.13990096893E+02  0.14913655155E+02  0.10566000000E+00 0. -1.
        -13    1    4    4    0    0 -0.99276397446E+01 -0.21341402925E+02 -0.61257413233E+02  0.65623893131E+02  0.10566000000E+00 0.  1.
         14    1    4    4    0    0 -0.23509744570E+01 -0.53088007740E+01 -0.15062516085E+02  0.16142795215E+02  0.00000000000E+00 0. -1.
<mgrwt>
<rscale>  0 0.78639489E+02</rscale>
<asrwt>0</asrwt>
<pdfrwt beam="1">  1        2 0.19423535E-01 0.78639489E+02</pdfrwt>
<pdfrwt beam="2">  1       -1 0.18839371E-02 0.78639489E+02</pdfrwt>
<totfact> 0.19861753E+05</totfact>
</mgrwt>
</event>
<event>
 8    1  0.2676873E-024  0.8146053E+02  0.7818608E-02  0.1324957E+00
         -1   -1    0    0    0  501 -0.00000000000E+00  0.00000000000E+00  0.50925055120E+01  0.50925080061E+01  0.50400000000E-02 0.  1.
          2   -1    0    0  501    0  0.00000000000E+00 -0.00000000000E+00 -0.32576381993E+03  0.32576381994E+03  0.25500000000E-02 0. -1.
         24    2    1    2    0    0  0.00000000000E+00  0.17763568394E-14 -0.32067131442E+03  0.33085632795E+03  0.81460529408E+02 0.  0.
         66    2    3    3    0    0 -0.29954548924E+02 -0.10866170256E+02 -0.26331054788E+03  0.26523912472E+03  0.20000001199E+01 0.  0.
        -13    1    3    3    0    0  0.29954548924E+02  0.10866170256E+02 -0.57360766540E+02  0.65617203227E+02  0.10566000000E+00 0.  1.
         13    1    4    4    0    0 -0.11222957695E+02 -0.35592441227E+01 -0.96907656110E+02  0.97620325624E+02  0.10566000000E+00 0. -1.
        -13    1    4    4    0    0 -0.32125478334E+01 -0.84436817768E+00 -0.30251093015E+02  0.30433094056E+02  0.10566000000E+00 0.  1.
         14    1    4    4    0    0 -0.15519043396E+02 -0.64625579556E+01 -0.13615179876E+03  0.13718570504E+03  0.00000000000E+00 0. -1.
<mgrwt>
<rscale>  0 0.81460529E+02</rscale>
<asrwt>0</asrwt>
<pdfrwt beam="1">  1        2 0.50117495E-01 0.81460529E+02</pdfrwt>
<pdfrwt beam="2">  1       -1 0.78346283E-03 0.81460529E+02</pdfrwt>
<totfact> 0.25048209E+05</totfact>
</mgrwt>
</event>
<event>
 8    1  0.2676873E-024  0.7704605E+02  0.7818608E-02  0.1337650E+00
          2   -1    0    0  501    0  0.00000000000E+00  0.00000000000E+00  0.58258288966E+02  0.58258289021E+02  0.25500000000E-02 0. -1.
         -1   -1    0    0    0  501 -0.00000000000E+00 -0.00000000000E+00 -0.25473171767E+02  0.25473172266E+02  0.50400000000E-02 0.  1.
         24    2    1    2    0    0  0.00000000000E+00  0.00000000000E+00  0.32785117198E+02  0.83731461287E+02  0.77046049215E+02 0.  0.
         66    2    3    3    0    0 -0.32818646602E+02 -0.26382287468E+01  0.38084455422E+02  0.50383028561E+02  0.20000016091E+01 0.  0.
        -13    1    3    3    0    0  0.32818646602E+02  0.26382287468E+01 -0.52993382239E+01  0.33348432727E+02  0.10566000000E+00 0.  1.
         13    1    4    4    0    0 -0.20183036447E+02 -0.10594423942E+01  0.23854158679E+02  0.31265147189E+02  0.10566000000E+00 0. -1.
        -13    1    4    4    0    0 -0.27578351603E+01 -0.64493171905E+00  0.28414779268E+01  0.40133218832E+01  0.10566000000E+00 0.  1.
         14    1    4    4    0    0 -0.98777749942E+01 -0.93385463353E+00  0.11388818817E+02  0.15104559489E+02  0.00000000000E+00 0. -1.
<mgrwt>
<rscale>  0 0.77046049E+02</rscale>
<asrwt>0</asrwt>
<pdfrwt beam="1">  1        2 0.89628137E-02 0.77046049E+02</pdfrwt>
<pdfrwt beam="2">  1       -1 0.39189496E-02 0.77046049E+02</pdfrwt>
<totfact> 0.17124961E+05</totfact>
</mgrwt>
</event>
<event>
 8    1  0.2676873E-024  0.7865196E+02  0.7818608E-02  0.1332921E+00
         -1   -1    0    0    0  501 -0.00000000000E+00  0.00000000000E+00  0.58453961501E+01  0.58453983228E+01  0.50400000000E-02 0.  1.
          2   -1    0    0  501    0  0.00000000000E+00 -0.00000000000E+00 -0.26457271175E+03  0.26457271176E+03  0.25500000000E-02 0. -1.
         24    2    1    2    0    0  0.00000000000E+00  0.35527136788E-14 -0.25872731560E+03  0.27041811008E+03  0.78651957537E+02 0.  0.
         66    2    3    3    0    0  0.26937524387E+02  0.25420644678E+02 -0.17462825945E+03  0.17852413963E+03  0.20000093485E+01 0.  0.
        -13    1    3    3    0    0 -0.26937524387E+02 -0.25420644678E+02 -0.84099056148E+02  0.91893970449E+02  0.10566000000E+00 0.  1.
         13    1    4    4    0    0  0.23190025993E+01  0.17525692529E+01 -0.14763065541E+02  0.15046878090E+02  0.10566000000E+00 0.  1.
        -13    1    4    4    0    0  0.14375917613E+01  0.10619445376E+01 -0.77314650189E+01  0.79360639896E+01  0.10566000000E+00 0.  1.
         14    1    4    4    0    0  0.23180930027E+02  0.22606130888E+02 -0.15213372889E+03  0.15554119755E+03  0.00000000000E+00 0. -1.
<mgrwt>
<rscale>  0 0.78651958E+02</rscale>
<asrwt>0</asrwt>
<pdfrwt beam="1">  1        2 0.40703485E-01 0.78651958E+02</pdfrwt>
<pdfrwt beam="2">  1       -1 0.89929209E-03 0.78651958E+02</pdfrwt>
<totfact> 0.25471240E+05</totfact>
</mgrwt>
</event>
<event>
 8    1  0.2676873E-024  0.7864263E+02  0.7818608E-02  0.1332948E+00
         -1   -1    0    0    0  501 -0.00000000000E+00  0.00000000000E+00  0.24041422064E+01  0.24041474892E+01  0.50400000000E-02 0.  1.
          2   -1    0    0  501    0  0.00000000000E+00 -0.00000000000E+00 -0.64312503059E+03  0.64312503060E+03  0.25500000000E-02 0. -1.
         24    2    1    2    0    0  0.00000000000E+00  0.88817841970E-15 -0.64072088839E+03  0.64552917809E+03  0.78642628053E+02 0.  0.
         66    2    3    3    0    0 -0.17214405422E+02 -0.68197542500E+01 -0.60506982599E+03  0.60535637365E+03  0.19999992952E+01 0.  0.
        -13    1    3    3    0    0  0.17214405422E+02  0.68197542500E+01 -0.35651062399E+02  0.40172804436E+02  0.10566000000E+00 0.  1.
         13    1    4    4    0    0 -0.51689148892E+01 -0.24468479566E+01 -0.19738462156E+03  0.19746747768E+03  0.10566000000E+00 0. -1.
        -13    1    4    4    0    0 -0.71025499099E+01 -0.19979150785E+01 -0.24658471249E+03  0.24669509415E+03  0.10566000000E+00 0.  1.
         14    1    4    4    0    0 -0.49429406227E+01 -0.23749912148E+01 -0.16110049194E+03  0.16119380183E+03  0.00000000000E+00 0. -1.
<mgrwt>
<rscale>  0 0.78642628E+02</rscale>
<asrwt>0</asrwt>
<pdfrwt beam="1">  1        2 0.98942175E-01 0.78642628E+02</pdfrwt>
<pdfrwt beam="2">  1       -1 0.36986895E-03 0.78642628E+02</pdfrwt>
<totfact> 0.34258075E+05</totfact>
</mgrwt>
</event>
<event>
 8    1  0.2676873E-024  0.8111564E+02  0.7818608E-02  0.1325915E+00
         -1   -1    0    0    0  501 -0.00000000000E+00  0.00000000000E+00  0.10802617756E+02  0.10802618931E+02  0.50400000000E-02 0.  1.
          2   -1    0    0  501    0  0.00000000000E+00 -0.00000000000E+00 -0.15227205242E+03  0.15227205244E+03  0.25500000000E-02 0. -1.
         24    2    1    2    0    0  0.00000000000E+00  0.00000000000E+00 -0.14146943466E+03  0.16307467137E+03  0.81115642751E+02 0.  0.
         66    2    3    3    0    0  0.21286999369E+02 -0.13002193924E+02 -0.13500778013E+03  0.13730729796E+03  0.19999970438E+01 0.  0.
        -13    1    3    3    0    0 -0.21286999369E+02  0.13002193924E+02 -0.64616545262E+01  0.25767373406E+02  0.10566000000E+00 0.  1.
         13    1    4    4    0    0  0.17129065853E+02 -0.10580114202E+02 -0.11168856914E+03  0.11348872787E+03  0.10566000000E+00 0. -1.
        -13    1    4    4    0    0  0.30968881938E+01 -0.20024685293E+01 -0.16809668569E+02  0.17209785535E+02  0.10566000000E+00 0.  1.
        -14    1    4    4    0    0  0.10610453222E+01 -0.41961119318E+00 -0.65095424271E+01  0.66087845584E+01  0.00000000000E+00 0.  1.
<mgrwt>
<rscale>  0 0.81115643E+02</rscale>
<asrwt>0</asrwt>
<pdfrwt beam="1">  1        2 0.23426468E-01 0.81115643E+02</pdfrwt>
<pdfrwt beam="2">  1       -1 0.16619414E-02 0.81115643E+02</pdfrwt>
<totfact> 0.19400942E+05</totfact>
</mgrwt>
</event>
<event>
 8    1  0.2676873E-024  0.7982429E+02  0.7818608E-02  0.1329551E+00
          2   -1    0    0  501    0  0.00000000000E+00  0.00000000000E+00  0.96286169548E+03  0.96286169548E+03  0.25500000000E-02 0. -1.
         -1   -1    0    0    0  501 -0.00000000000E+00 -0.00000000000E+00 -0.16544178769E+01  0.16544255538E+01  0.50400000000E-02 0.  1.
         24    2    1    2    0    0  0.17763568394E-14  0.00000000000E+00  0.96120727760E+03  0.96451612103E+03  0.79824289684E+02 0.  0.
         66    2    3    3    0    0  0.12278551625E+02 -0.14047144868E+02  0.90688590343E+03  0.90708000030E+03  0.19999999116E+01 0.  0.
        -13    1    3    3    0    0 -0.12278551625E+02  0.14047144868E+02  0.54321374169E+02  0.57436120731E+02  0.10566000000E+00 0.  1.
         13    1    4    4    0    0  0.13817327358E+01 -0.17214704412E+01  0.10034253367E+03  0.10036686641E+03  0.10566000000E+00 0. -1.
        -13    1    4    4    0    0  0.67152521612E+01 -0.67871255166E+01  0.50075773066E+03  0.50084875528E+03  0.10566000000E+00 0.  1.
        -14    1    4    4    0    0  0.41815667278E+01 -0.55385489101E+01  0.30578563910E+03  0.30586437861E+03  0.00000000000E+00 0.  1.
<mgrwt>
<rscale>  0 0.79824290E+02</rscale>
<asrwt>0</asrwt>
<pdfrwt beam="1">  1        2 0.14813289E+00 0.79824290E+02</pdfrwt>
<pdfrwt beam="2">  1       -1 0.25452587E-03 0.79824290E+02</pdfrwt>
<totfact> 0.35359225E+05</totfact>
</mgrwt>
</event>
<event>
 8    1  0.2676873E-024  0.8124751E+02  0.7818608E-02  0.1325548E+00
         -1   -1    0    0    0  501 -0.00000000000E+00  0.00000000000E+00  0.10425246063E+01  0.10425367890E+01  0.50400000000E-02 0.  1.
          2   -1    0    0  501    0  0.00000000000E+00 -0.00000000000E+00 -0.15829649053E+04  0.15829649053E+04  0.25500000000E-02 0. -1.
         24    2    1    2    0    0 -0.16653345369E-15  0.00000000000E+00 -0.15819223806E+04  0.15840074420E+04  0.81247511101E+02 0.  0.
         66    2    3    3    0    0 -0.80452584698E-01 -0.16677741612E+02 -0.15130917670E+04  0.15131850016E+04  0.20000065031E+01 0.  0.
        -13    1    3    3    0    0  0.80452584698E-01  0.16677741612E+02 -0.68830613619E+02  0.70822440463E+02  0.10566000000E+00 0.  1.
         13    1    4    4    0    0 -0.76457804582E+00 -0.82719359887E+01 -0.74779464687E+03  0.74784079493E+03  0.10566000000E+00 0. -1.
        -13    1    4    4    0    0  0.67157213529E+00 -0.67040325971E+01 -0.57518593276E+03  0.57522540232E+03  0.10566000000E+00 0.  1.
         14    1    4    4    0    0  0.12553325834E-01 -0.17017730259E+01 -0.19011118739E+03  0.19011880433E+03  0.00000000000E+00 0. -1.
<mgrwt>
<rscale>  0 0.81247511E+02</rscale>
<asrwt>0</asrwt>
<pdfrwt beam="1">  1        2 0.24353114E+00 0.81247511E+02</pdfrwt>
<pdfrwt beam="2">  1       -1 0.16039061E-03 0.81247511E+02</pdfrwt>
<totfact> 0.31230727E+05</totfact>
</mgrwt>
</event>
<event>
 8    1  0.2676873E-024  0.8060499E+02  0.7818608E-02  0.1327343E+00
          2   -1    0    0  501    0  0.00000000000E+00  0.00000000000E+00  0.26779651514E+02  0.26779651635E+02  0.25500000000E-02 0. -1.
         -1   -1    0    0    0  501 -0.00000000000E+00 -0.00000000000E+00 -0.60653922176E+02  0.60653922386E+02  0.50400000000E-02 0.  1.
         24    2    1    2    0    0  0.17763568394E-14  0.71054273576E-14 -0.33874270662E+02  0.87433574021E+02  0.80604985287E+02 0.  0.
         66    2    3    3    0    0  0.14152782712E+02  0.37536771443E+02 -0.20854844343E+02  0.45257430354E+02  0.20000002056E+01 0.  0.
        -13    1    3    3    0    0 -0.14152782712E+02 -0.37536771443E+02 -0.13019426320E+02  0.42176143667E+02  0.10566000000E+00 0.  1.
         13    1    4    4    0    0  0.42391350844E+01  0.10252540453E+02 -0.52504273003E+01  0.12274485850E+02  0.10566000000E+00 0. -1.
        -13    1    4    4    0    0  0.61255175404E+01  0.16841794717E+02 -0.10338231360E+02  0.20689567567E+02  0.10566000000E+00 0.  1.
        -14    1    4    4    0    0  0.37881300868E+01  0.10442436273E+02 -0.52661856823E+01  0.12293376937E+02  0.00000000000E+00 0.  1.
<mgrwt>
<rscale>  0 0.80604985E+02</rscale>
<asrwt>0</asrwt>
<pdfrwt beam="1">  1        2 0.41199464E-02 0.80604985E+02</pdfrwt>
<pdfrwt beam="2">  1       -1 0.93313726E-02 0.80604985E+02</pdfrwt>
<totfact> 0.12880730E+05</totfact>
</mgrwt>
</event>
<event>
 8    1  0.2676873E-024  0.7879978E+02  0.7818608E-02  0.1332492E+00
          2   -1    0    0  501    0  0.00000000000E+00  0.00000000000E+00  0.12921641389E+03  0.12921641392E+03  0.25500000000E-02 0. -1.
         -1   -1    0    0    0  501 -0.00000000000E+00 -0.00000000000E+00 -0.12013576120E+02  0.12013577178E+02  0.50400000000E-02 0.  1.
         24    2    1    2    0    0  0.88817841970E-15  0.35527136788E-14  0.11720283777E+03  0.14122999109E+03  0.78799779206E+02 0.  0.
         66    2    3    3    0    0 -0.58807438637E+01 -0.23047505147E+02  0.11487662657E+03  0.11733034540E+03  0.19999942190E+01 0.  0.
        -13    1    3    3    0    0  0.58807438637E+01  0.23047505147E+02  0.23262112006E+01  0.23899645697E+02  0.10566000000E+00 0.  1.
         13    1    4    4    0    0 -0.21592799825E+01 -0.87172065142E+01  0.44441855177E+02  0.45340289314E+02  0.10566000000E+00 0. -1.
        -13    1    4    4    0    0 -0.29901979105E+01 -0.12425847500E+02  0.62802938683E+02  0.64090274152E+02  0.10566000000E+00 0.  1.
        -14    1    4    4    0    0 -0.73126597074E+00 -0.19044511328E+01  0.76318327097E+01  0.78997819303E+01  0.00000000000E+00 0.  1.
<mgrwt>
<rscale>  0 0.78799779E+02</rscale>
<asrwt>0</asrwt>
<pdfrwt beam="1">  1        2 0.19879448E-01 0.78799779E+02</pdfrwt>
<pdfrwt beam="2">  1       -1 0.18482426E-02 0.78799779E+02</pdfrwt>
<totfact> 0.19894969E+05</totfact>
</mgrwt>
</event>
<event>
 8    1  0.2676873E-024  0.8311943E+02  0.7818608E-02  0.1320425E+00
          2   -1    0    0  501    0  0.00000000000E+00  0.00000000000E+00  0.14059332433E+04  0.14059332433E+04  0.25500000000E-02 0. -1.
         -1   -1    0    0    0  501 -0.00000000000E+00 -0.00000000000E+00 -0.12285096811E+01  0.12285200194E+01  0.50400000000E-02 0.  1.
         24    2    1    2    0    0 -0.88817841970E-15  0.00000000000E+00  0.14047047337E+04  0.14071617634E+04  0.83119429159E+02 0.  0.
         66    2    3    3    0    0  0.68469011831E+01  0.20523022039E+02  0.13030071335E+04  0.13031882690E+04  0.19999994527E+01 0.  0.
        -13    1    3    3    0    0 -0.68469011831E+01 -0.20523022039E+02  0.10169760019E+03  0.10397349440E+03  0.10566000000E+00 0.  1.
         13    1    4    4    0    0  0.24771302987E+01  0.57586238906E+01  0.40073232509E+03  0.40078136865E+03  0.10566000000E+00 0.  1.
        -13    1    4    4    0    0  0.19710376372E+01  0.83314114590E+01  0.51833448279E+03  0.51840519347E+03  0.10566000000E+00 0. -1.
         14    1    4    4    0    0  0.23987332472E+01  0.64329866891E+01  0.38394032559E+03  0.38400170684E+03  0.00000000000E+00 0. -1.
<mgrwt>
<rscale>  0 0.83119429E+02</rscale>
<asrwt>0</asrwt>
<pdfrwt beam="1">  1        2 0.21629522E+00 0.83119429E+02</pdfrwt>
<pdfrwt beam="2">  1       -1 0.18900421E-03 0.83119429E+02</pdfrwt>
<totfact> 0.30752835E+05</totfact>
</mgrwt>
</event>
<event>
 8    1  0.2676873E-024  0.8007749E+02  0.7818608E-02  0.1328832E+00
         -1   -1    0    0    0  501 -0.00000000000E+00  0.00000000000E+00  0.32212685833E+01  0.32212725261E+01  0.50400000000E-02 0.  1.
          2   -1    0    0  501    0  0.00000000000E+00 -0.00000000000E+00 -0.49766107601E+03  0.49766107601E+03  0.25500000000E-02 0. -1.
         24    2    1    2    0    0 -0.88817841970E-15 -0.35527136788E-14 -0.49443980742E+03  0.50088234854E+03  0.80077486932E+02 0.  0.
         66    2    3    3    0    0  0.77461397409E+01  0.19388697295E+02 -0.46088469228E+03  0.46136170609E+03  0.19999998372E+01 0.  0.
        -13    1    3    3    0    0 -0.77461397409E+01 -0.19388697295E+02 -0.33555115140E+02  0.39520642451E+02  0.10566000000E+00 0.  1.
         13    1    4    4    0    0  0.38946847702E+01  0.10104152242E+02 -0.22468163316E+03  0.22494245910E+03  0.10566000000E+00 0. -1.
        -13    1    4    4    0    0  0.38489676906E+01  0.89711595300E+01 -0.23150115010E+03  0.23170690520E+03  0.10566000000E+00 0.  1.
         14    1    4    4    0    0  0.24872801191E-02  0.31338552307E+00 -0.47019090256E+01  0.47123417912E+01  0.00000000000E+00 0. -1.
<mgrwt>
<rscale>  0 0.80077487E+02</rscale>
<asrwt>0</asrwt>
<pdfrwt beam="1">  1        2 0.76563182E-01 0.80077487E+02</pdfrwt>
<pdfrwt beam="2">  1       -1 0.49558048E-03 0.80077487E+02</pdfrwt>
<totfact> 0.30329181E+05</totfact>
</mgrwt>
</event>
<event>
 8    1  0.2676873E-024  0.8025756E+02  0.7818608E-02  0.1328322E+00
          2   -1    0    0  501    0  0.00000000000E+00  0.00000000000E+00  0.25926134051E+02  0.25926134176E+02  0.25500000000E-02 0. -1.
         -1   -1    0    0    0  501 -0.00000000000E+00 -0.00000000000E+00 -0.62111802742E+02  0.62111802946E+02  0.50400000000E-02 0.  1.
         24    2    1    2    0    0  0.00000000000E+00  0.00000000000E+00 -0.36185668691E+02  0.88037937122E+02  0.80257558860E+02 0.  0.
         66    2    3    3    0    0  0.14120356461E+02  0.27480361222E+02  0.99433761447E+01  0.32518078865E+02  0.20000011028E+01 0.  0.
        -13    1    3    3    0    0 -0.14120356461E+02 -0.27480361222E+02 -0.46129044835E+02  0.55519858258E+02  0.10566000000E+00 0.  1.
         13    1    4    4    0    0  0.42518660491E+01  0.89385224266E+01  0.28814560350E+01  0.10309679965E+02  0.10566000000E+00 0. -1.
        -13    1    4    4    0    0  0.36671992153E+01  0.75058046985E+01  0.34989257271E+01  0.90575437916E+01  0.10566000000E+00 0.  1.
        -14    1    4    4    0    0  0.62012911966E+01  0.11036034097E+02  0.35629943825E+01  0.13150855108E+02  0.00000000000E+00 0.  1.
<mgrwt>
<rscale>  0 0.80257559E+02</rscale>
<asrwt>0</asrwt>
<pdfrwt beam="1">  1        2 0.39886360E-02 0.80257559E+02</pdfrwt>
<pdfrwt beam="2">  1       -1 0.95556620E-02 0.80257559E+02</pdfrwt>
<totfact> 0.12955594E+05</totfact>
</mgrwt>
</event>
<event>
 8    1  0.2676873E-024  0.8112943E+02  0.7818608E-02  0.1325876E+00
          2   -1    0    0  501    0  0.00000000000E+00  0.00000000000E+00  0.58985385842E+02  0.58985385897E+02  0.25500000000E-02 0. -1.
         -1   -1    0    0    0  501 -0.00000000000E+00 -0.00000000000E+00 -0.27896676437E+02  0.27896676892E+02  0.50400000000E-02 0.  1.
         24    2    1    2    0    0  0.00000000000E+00  0.00000000000E+00  0.31088709405E+02  0.86882062789E+02  0.81129433512E+02 0.  0.
         66    2    3    3    0    0  0.39954897700E+02  0.55424096852E+01  0.11219695246E+02  0.41916508829E+02  0.19999989178E+01 0.  0.
        -13    1    3    3    0    0 -0.39954897700E+02 -0.55424096852E+01  0.19869014159E+02  0.44965553961E+02  0.10566000000E+00 0.  1.
         13    1    4    4    0    0  0.56855423702E+01  0.11172508118E+01  0.19239860875E+01  0.61062695584E+01  0.10566000000E+00 0. -1.
        -13    1    4    4    0    0  0.62145174371E+01  0.56052060596E+00  0.21770777403E+01  0.66094812087E+01  0.10566000000E+00 0.  1.
         14    1    4    4    0    0  0.28054837892E+02  0.38646382675E+01  0.71186314185E+01  0.29200758062E+02  0.00000000000E+00 0. -1.
<mgrwt>
<rscale>  0 0.81129434E+02</rscale>
<asrwt>0</asrwt>
<pdfrwt beam="1">  1        2 0.90746746E-02 0.81129434E+02</pdfrwt>
<pdfrwt beam="2">  1       -1 0.42917965E-02 0.81129434E+02</pdfrwt>
<totfact> 0.14923994E+05</totfact>
</mgrwt>
</event>
<event>
 8    1  0.2676873E-024  0.7963207E+02  0.7818608E-02  0.1330099E+00
         -1   -1    0    0    0  501 -0.00000000000E+00  0.00000000000E+00  0.11262054980E+02  0.11262056108E+02  0.50400000000E-02 0.  1.
          2   -1    0    0  501    0  0.00000000000E+00 -0.00000000000E+00 -0.14076618392E+03  0.14076618395E+03  0.25500000000E-02 0. -1.
         24    2    1    2    0    0  0.00000000000E+00  0.00000000000E+00 -0.12950412894E+03  0.15202824006E+03  0.79632068671E+02 0.  0.
         66    2    3    3    0    0 -0.11706791225E+01 -0.35224324798E+02 -0.10005692789E+03  0.10610142478E+03  0.19999938194E+01 0.  0.
        -13    1    3    3    0    0  0.11706791225E+01  0.35224324798E+02 -0.29447201054E+02  0.45926815272E+02  0.10566000000E+00 0.  1.
         13    1    4    4    0    0 -0.12547672309E+01 -0.31308713649E+02 -0.89769014216E+02  0.95080476800E+02  0.10566000000E+00 0. -1.
        -13    1    4    4    0    0 -0.13118517892E+00 -0.46077048933E+00 -0.13024579237E+01  0.13917900968E+01  0.10566000000E+00 0. -1.
         14    1    4    4    0    0  0.21527328732E+00 -0.34548406596E+01 -0.89854557503E+01  0.96291578869E+01  0.00000000000E+00 0. -1.
<mgrwt>
<rscale>  0 0.79632069E+02</rscale>
<asrwt>0</asrwt>
<pdfrwt beam="1">  1        2 0.21656335E-01 0.79632069E+02</pdfrwt>
<pdfrwt beam="2">  1       -1 0.17326240E-02 0.79632069E+02</pdfrwt>
<totfact> 0.19869758E+05</totfact>
</mgrwt>
</event>
<event>
 8    1  0.2676873E-024  0.7964849E+02  0.7818608E-02  0.1330052E+00
          2   -1    0    0  501    0  0.00000000000E+00  0.00000000000E+00  0.23880299023E+02  0.23880299159E+02  0.25500000000E-02 0. -1.
         -1   -1    0    0    0  501 -0.00000000000E+00 -0.00000000000E+00 -0.66413340268E+02  0.66413340459E+02  0.50400000000E-02 0.  1.
         24    2    1    2    0    0  0.35527136788E-14 -0.35527136788E-14 -0.42533041246E+02  0.90293639618E+02  0.79648488736E+02 0.  0.
         66    2    3    3    0    0  0.28374936123E+02  0.27906368533E+02 -0.20995171952E+02  0.45041088503E+02  0.20000008875E+01 0.  0.
        -13    1    3    3    0    0 -0.28374936123E+02 -0.27906368533E+02 -0.21537869293E+02  0.45252551115E+02  0.10566000000E+00 0.  1.
         13    1    4    4    0    0  0.91382004636E+01  0.92848618235E+01 -0.61464798482E+01  0.14405059714E+02  0.10566000000E+00 0. -1.
        -13    1    4    4    0    0  0.22201454935E+01  0.26523622275E+01 -0.18655854373E+01  0.39313667417E+01  0.10566000000E+00 0.  1.
         14    1    4    4    0    0  0.17016590166E+02  0.15969144482E+02 -0.12983106667E+02  0.26704662048E+02  0.00000000000E+00 0. -1.
<mgrwt>
<rscale>  0 0.79648489E+02</rscale>
<asrwt>0</asrwt>
<pdfrwt beam="1">  1        2 0.36738922E-02 0.79648489E+02</pdfrwt>
<pdfrwt beam="2">  1       -1 0.10217437E-01 0.79648489E+02</pdfrwt>
<totfact> 0.13025174E+05</totfact>
</mgrwt>
</event>
<event>
 8    1  0.2676873E-024  0.7751924E+02  0.7818608E-02  0.1336243E+00
          2   -1    0    0  501    0  0.00000000000E+00  0.00000000000E+00  0.47229504867E+02  0.47229504935E+02  0.25500000000E-02 0. -1.
         -1   -1    0    0    0  501 -0.00000000000E+00 -0.00000000000E+00 -0.31808678912E+02  0.31808679311E+02  0.50400000000E-02 0.  1.
         24    2    1    2    0    0  0.00000000000E+00  0.17763568394E-14  0.15420825954E+02  0.79038184247E+02  0.77519240811E+02 0.  0.
         66    2    3    3    0    0 -0.28295709804E+02 -0.13796738360E+02 -0.15294482377E+02  0.35055932001E+02  0.19999986489E+01 0.  0.
        -13    1    3    3    0    0  0.28295709804E+02  0.13796738360E+02  0.30715308331E+02  0.43982252246E+02  0.10566000000E+00 0.  1.
         13    1    4    4    0    0 -0.16272808398E+02 -0.76223455662E+01 -0.89733021370E+01  0.20085710353E+02  0.10566000000E+00 0. -1.
        -13    1    4    4    0    0 -0.25788828649E+01 -0.79466199381E+00 -0.13223103459E+01  0.30069574659E+01  0.10566000000E+00 0.  1.
        -14    1    4    4    0    0 -0.94440185412E+01 -0.53797307997E+01 -0.49988698938E+01  0.11963264182E+02  0.00000000000E+00 0.  1.
<mgrwt>
<rscale>  0 0.77519241E+02</rscale>
<asrwt>0</asrwt>
<pdfrwt beam="1">  1        2 0.72660777E-02 0.77519241E+02</pdfrwt>
<pdfrwt beam="2">  1       -1 0.48936429E-02 0.77519241E+02</pdfrwt>
<totfact> 0.16090361E+05</totfact>
</mgrwt>
</event>
<event>
 8    1  0.2676873E-024  0.7896972E+02  0.7818608E-02  0.1332001E+00
          2   -1    0    0  501    0  0.00000000000E+00  0.00000000000E+00  0.53182198799E+02  0.53182198860E+02  0.25500000000E-02 0. -1.
         -1   -1    0    0    0  501 -0.00000000000E+00 -0.00000000000E+00 -0.29315340644E+02  0.29315341078E+02  0.50400000000E-02 0.  1.
         24    2    1    2    0    0  0.00000000000E+00  0.88817841970E-15  0.23866858154E+02  0.82497539937E+02  0.78969723170E+02 0.  0.
         66    2    3    3    0    0  0.13665625197E+02  0.55485877389E+01  0.50175427147E+02  0.52336503741E+02  0.19999991244E+01 0.  0.
        -13    1    3    3    0    0 -0.13665625197E+02 -0.55485877389E+01 -0.26308568993E+02  0.30161036196E+02  0.10566000000E+00 0.  1.
         13    1    4    4    0    0  0.98790536321E+01  0.34117855039E+01  0.35603869887E+02  0.37106370019E+02  0.10566000000E+00 0. -1.
        -13    1    4    4    0    0  0.46148403530E+00  0.45237508140E-02  0.18367177730E+01  0.18967562291E+01  0.10566000000E+00 0.  1.
         14    1    4    4    0    0  0.33250875301E+01  0.21322784842E+01  0.12734839487E+02  0.13333377493E+02  0.00000000000E+00 0. -1.
<mgrwt>
<rscale>  0 0.78969723E+02</rscale>
<asrwt>0</asrwt>
<pdfrwt beam="1">  1        2 0.81818768E-02 0.78969723E+02</pdfrwt>
<pdfrwt beam="2">  1       -1 0.45100524E-02 0.78969723E+02</pdfrwt>
<totfact> 0.15692666E+05</totfact>
</mgrwt>
</event>
<event>
 8    1  0.2676873E-024  0.7671373E+02  0.7818608E-02  0.1338645E+00
          2   -1    0    0  501    0  0.00000000000E+00  0.00000000000E+00  0.66641861045E+02  0.66641861094E+02  0.25500000000E-02 0. -1.
         -1   -1    0    0    0  501 -0.00000000000E+00 -0.00000000000E+00 -0.22076949202E+02  0.22076949777E+02  0.50400000000E-02 0.  1.
         24    2    1    2    0    0  0.00000000000E+00 -0.11102230246E-15  0.44564911843E+02  0.88718810871E+02  0.76713727812E+02 0.  0.
         66    2    3    3    0    0 -0.36166115216E+02  0.63567906496E+00  0.36965056042E+02  0.51757196324E+02  0.20000063817E+01 0.  0.
        -13    1    3    3    0    0  0.36166115216E+02 -0.63567906496E+00  0.75998558013E+01  0.36961614547E+02  0.10566000000E+00 0.  1.
         13    1    4    4    0    0 -0.10278685358E+02  0.52235651303E+00  0.10596926717E+02  0.14772618214E+02  0.10566000000E+00 0. -1.
        -13    1    4    4    0    0 -0.50847197147E+01 -0.65698145982E-01  0.43468917960E+01  0.66906892878E+01  0.10566000000E+00 0.  1.
        -14    1    4    4    0    0 -0.20802710143E+02  0.17902069791E+00  0.22021237529E+02  0.30293888823E+02  0.00000000000E+00 0.  1.
<mgrwt>
<rscale>  0 0.76713728E+02</rscale>
<asrwt>0</asrwt>
<pdfrwt beam="1">  1        2 0.10252594E-01 0.76713728E+02</pdfrwt>
<pdfrwt beam="2">  1       -1 0.33964538E-02 0.76713728E+02</pdfrwt>
<totfact> 0.17871666E+05</totfact>
</mgrwt>
</event>
<event>
 8    1  0.2676873E-024  0.8000770E+02  0.7818608E-02  0.1329030E+00
          2   -1    0    0  501    0  0.00000000000E+00  0.00000000000E+00  0.65663847064E+03  0.65663847064E+03  0.25500000000E-02 0. -1.
         -1   -1    0    0    0  501 -0.00000000000E+00 -0.00000000000E+00 -0.24371193434E+01  0.24371245548E+01  0.50400000000E-02 0.  1.
         24    2    1    2    0    0 -0.35527136788E-14  0.00000000000E+00  0.65420135130E+03  0.65907559520E+03  0.80007700565E+02 0.  0.
         66    2    3    3    0    0 -0.26488700124E+02 -0.25526950224E+02  0.45625116373E+03  0.45773616950E+03  0.20000089092E+01 0.  0.
        -13    1    3    3    0    0  0.26488700124E+02  0.25526950224E+02  0.19795018756E+03  0.20133942570E+03  0.10566000000E+00 0.  1.
         13    1    4    4    0    0 -0.40619092342E+00 -0.20593287058E+00  0.68745729510E+01  0.68904511251E+01  0.10566000000E+00 0.  1.
        -13    1    4    4    0    0 -0.91703511487E+01 -0.82610300641E+01  0.15056778177E+03  0.15107285670E+03  0.10566000000E+00 0.  1.
         14    1    4    4    0    0 -0.16912158052E+02 -0.17059987290E+02  0.29880880901E+03  0.29977286168E+03  0.00000000000E+00 0. -1.
<mgrwt>
<rscale>  0 0.80007701E+02</rscale>
<asrwt>0</asrwt>
<pdfrwt beam="1">  1        2 0.10102123E+00 0.80007701E+02</pdfrwt>
<pdfrwt beam="2">  1       -1 0.37494211E-03 0.80007701E+02</pdfrwt>
<totfact> 0.32933577E+05</totfact>
</mgrwt>
</event>
<event>
 8    1  0.2676873E-024  0.7965689E+02  0.7818608E-02  0.1330028E+00
         -1   -1    0    0    0  501 -0.00000000000E+00  0.00000000000E+00  0.14630994738E+02  0.14630995606E+02  0.50400000000E-02 0.  1.
          2   -1    0    0  501    0  0.00000000000E+00 -0.00000000000E+00 -0.10842085674E+03  0.10842085677E+03  0.25500000000E-02 0. -1.
         24    2    1    2    0    0  0.00000000000E+00  0.35527136788E-14 -0.93789862002E+02  0.12305185238E+03  0.79656890215E+02 0.  0.
         66    2    3    3    0    0 -0.14144727777E+01 -0.20127647184E+02 -0.99925613428E+02  0.10196200828E+03  0.19999997804E+01 0.  0.
        -13    1    3    3    0    0  0.14144727777E+01  0.20127647184E+02  0.61357514252E+01  0.21089844096E+02  0.10566000000E+00 0.  1.
         13    1    4    4    0    0 -0.19912080412E+00 -0.48497079566E+01 -0.22307291891E+02  0.22829493028E+02  0.10566000000E+00 0. -1.
        -13    1    4    4    0    0 -0.76935441316E+00 -0.24431527266E+01 -0.12829010844E+02  0.13082644409E+02  0.10566000000E+00 0.  1.
         14    1    4    4    0    0 -0.44599756046E+00 -0.12834786501E+02 -0.64789310692E+02  0.66049870842E+02  0.00000000000E+00 0. -1.
<mgrwt>
<rscale>  0 0.79656890E+02</rscale>
<asrwt>0</asrwt>
<pdfrwt beam="1">  1        2 0.16680131E-01 0.79656890E+02</pdfrwt>
<pdfrwt beam="2">  1       -1 0.22509224E-02 0.79656890E+02</pdfrwt>
<totfact> 0.18347343E+05</totfact>
</mgrwt>
</event>
<event>
 8    1  0.2676873E-024  0.8154701E+02  0.7818608E-02  0.1324718E+00
          2   -1    0    0  501    0  0.00000000000E+00  0.00000000000E+00  0.17042685079E+03  0.17042685081E+03  0.25500000000E-02 0. -1.
         -1   -1    0    0    0  501 -0.00000000000E+00 -0.00000000000E+00 -0.97547931941E+01  0.97547944962E+01  0.50400000000E-02 0.  1.
         24    2    1    2    0    0  0.71054273576E-14  0.00000000000E+00  0.16067205759E+03  0.18018164530E+03  0.81547012286E+02 0.  0.
         66    2    3    3    0    0  0.36625033194E+02 -0.34401225648E+00  0.11984559524E+03  0.12533346764E+03  0.20000026725E+01 0.  0.
        -13    1    3    3    0    0 -0.36625033194E+02  0.34401225648E+00  0.40826462353E+02  0.54848177665E+02  0.10566000000E+00 0.  1.
         13    1    4    4    0    0  0.90495669619E+01 -0.20797158295E+00  0.28555569808E+02  0.29956128679E+02  0.10566000000E+00 0. -1.
        -13    1    4    4    0    0  0.10374413580E+02 -0.61849728277E+00  0.36180926411E+02  0.37644144246E+02  0.10566000000E+00 0.  1.
         14    1    4    4    0    0  0.17201052652E+02  0.48245660925E+00  0.55109099021E+02  0.57733194712E+02  0.00000000000E+00 0. -1.
<mgrwt>
<rscale>  0 0.81547012E+02</rscale>
<asrwt>0</asrwt>
<pdfrwt beam="1">  1        2 0.26219515E-01 0.81547012E+02</pdfrwt>
<pdfrwt beam="2">  1       -1 0.15007376E-02 0.81547012E+02</pdfrwt>
<totfact> 0.19853346E+05</totfact>
</mgrwt>
</event>
<event>
 8    1  0.2676873E-024  0.8006780E+02  0.7818608E-02  0.1328859E+00
          2   -1    0    0  501    0  0.00000000000E+00  0.00000000000E+00  0.10170488337E+04  0.10170488337E+04  0.25500000000E-02 0. -1.
         -1   -1    0    0    0  501 -0.00000000000E+00 -0.00000000000E+00 -0.15758426494E+01  0.15758507091E+01  0.50400000000E-02 0.  1.
         24    2    1    2    0    0  0.00000000000E+00 -0.17763568394E-14  0.10154729910E+04  0.10186246844E+04  0.80067797150E+02 0.  0.
         66    2    3    3    0    0 -0.18243738540E+02  0.96327734279E+01  0.94415707045E+03  0.94438456039E+03  0.19999743530E+01 0.  0.
        -13    1    3    3    0    0  0.18243738540E+02 -0.96327734279E+01  0.71315920559E+02  0.74240123983E+02  0.10566000000E+00 0.  1.
         13    1    4    4    0    0 -0.85896813748E+01  0.45016968527E+01  0.47711947548E+03  0.47721803502E+03  0.10566000000E+00 0. -1.
        -13    1    4    4    0    0 -0.88510624939E+01  0.46870178841E+01  0.41507216970E+03  0.41519299930E+03  0.10566000000E+00 0.  1.
        -14    1    4    4    0    0 -0.80299467163E+00  0.44405869119E+00  0.51965425276E+02  0.51973526075E+02  0.00000000000E+00 0.  1.
<mgrwt>
<rscale>  0 0.80067797E+02</rscale>
<asrwt>0</asrwt>
<pdfrwt beam="1">  1        2 0.15646864E+00 0.80067797E+02</pdfrwt>
<pdfrwt beam="2">  1       -1 0.24243859E-03 0.80067797E+02</pdfrwt>
<totfact> 0.35175079E+05</totfact>
</mgrwt>
</event>
<event>
 8    1  0.2676873E-024  0.8393379E+02  0.7818608E-02  0.1318245E+00
          2   -1    0    0  501    0  0.00000000000E+00  0.00000000000E+00  0.52529278280E+03  0.52529278281E+03  0.25500000000E-02 0. -1.
         -1   -1    0    0    0  501 -0.00000000000E+00 -0.00000000000E+00 -0.33528332492E+01  0.33528370373E+01  0.50400000000E-02 0.  1.
         24    2    1    2    0    0  0.71054273576E-14 -0.17763568394E-14  0.52193994955E+03  0.52864561985E+03  0.83933786062E+02 0.  0.
         66    2    3    3    0    0 -0.37710956991E+02  0.96806078112E+01  0.35937720639E+03  0.36148555561E+03  0.20000003021E+01 0.  0.
        -13    1    3    3    0    0  0.37710956991E+02 -0.96806078112E+01  0.16256274316E+03  0.16716006423E+03  0.10566000000E+00 0.  1.
         13    1    4    4    0    0 -0.12988362625E+02  0.30249143108E+01  0.12298061420E+03  0.12370161803E+03  0.10566000000E+00 0. -1.
        -13    1    4    4    0    0 -0.14444720011E+02  0.38934463803E+01  0.13109035910E+03  0.13194128343E+03  0.10566000000E+00 0.  1.
        -14    1    4    4    0    0 -0.10277874355E+02  0.27622471201E+01  0.10530623309E+03  0.10584265415E+03  0.00000000000E+00 0.  1.
<mgrwt>
<rscale>  0 0.83933786E+02</rscale>
<asrwt>0</asrwt>
<pdfrwt beam="1">  1        2 0.80814268E-01 0.83933786E+02</pdfrwt>
<pdfrwt beam="2">  1       -1 0.51582083E-03 0.83933786E+02</pdfrwt>
<totfact> 0.27283524E+05</totfact>
</mgrwt>
</event>
<event>
 8    1  0.2676873E-024  0.8010971E+02  0.7818608E-02  0.1328740E+00
         -1   -1    0    0    0  501 -0.00000000000E+00  0.00000000000E+00  0.32343289739E+01  0.32343329007E+01  0.50400000000E-02 0.  1.
          2   -1    0    0  501    0  0.00000000000E+00 -0.00000000000E+00 -0.49605048455E+03  0.49605048456E+03  0.25500000000E-02 0. -1.
         24    2    1    2    0    0  0.35527136788E-14  0.35527136788E-14 -0.49281615558E+03  0.49928481746E+03  0.80109710688E+02 0.  0.
         66    2    3    3    0    0 -0.27317253703E+02 -0.29165512761E+02 -0.26121359262E+03  0.26426010000E+03  0.19999993767E+01 0.  0.
        -13    1    3    3    0    0  0.27317253703E+02  0.29165512761E+02 -0.23160256295E+03  0.23502471746E+03  0.10566000000E+00 0.  1.
         13    1    4    4    0    0 -0.13911914347E+02 -0.15366140855E+02 -0.13280835608E+03  0.13441625741E+03  0.10566000000E+00 0. -1.
        -13    1    4    4    0    0 -0.65417355980E+01 -0.63963953290E+01 -0.57454777040E+02  0.58178782615E+02  0.10566000000E+00 0.  1.
        -14    1    4    4    0    0 -0.68636037578E+01 -0.74029765770E+01 -0.70950459501E+02  0.71665059981E+02  0.00000000000E+00 0.  1.
<mgrwt>
<rscale>  0 0.80109711E+02</rscale>
<asrwt>0</asrwt>
<pdfrwt beam="1">  1        2 0.76315399E-01 0.80109711E+02</pdfrwt>
<pdfrwt beam="2">  1       -1 0.49758977E-03 0.80109711E+02</pdfrwt>
<totfact> 0.30265997E+05</totfact>
</mgrwt>
</event>
<event>
 8    1  0.2676873E-024  0.8083550E+02  0.7818608E-02  0.1326697E+00
          2   -1    0    0  501    0  0.00000000000E+00  0.00000000000E+00  0.51727424377E+03  0.51727424378E+03  0.25500000000E-02 0. -1.
         -1   -1    0    0    0  501 -0.00000000000E+00 -0.00000000000E+00 -0.31580797001E+01  0.31580837218E+01  0.50400000000E-02 0.  1.
         24    2    1    2    0    0 -0.88817841970E-15  0.00000000000E+00  0.51411616407E+03  0.52043232750E+03  0.80835495589E+02 0.  0.
         66    2    3    3    0    0  0.65374179920E+01  0.20116736745E+02  0.47876354413E+03  0.47923475679E+03  0.19999999955E+01 0.  0.
        -13    1    3    3    0    0 -0.65374179920E+01 -0.20116736745E+02  0.35352619940E+02  0.41197570704E+02  0.10566000000E+00 0.  1.
         13    1    4    4    0    0  0.30192330659E+01  0.10894964976E+02  0.26103247889E+03  0.26127721338E+03  0.10566000000E+00 0. -1.
        -13    1    4    4    0    0  0.26223436976E+01  0.54002633027E+01  0.12856284599E+03  0.12870297613E+03  0.10566000000E+00 0.  1.
        -14    1    4    4    0    0  0.89584122850E+00  0.38215084671E+01  0.89168219245E+02  0.89254567288E+02  0.00000000000E+00 0.  1.
<mgrwt>
<rscale>  0 0.80835496E+02</rscale>
<asrwt>0</asrwt>
<pdfrwt beam="1">  1        2 0.79580534E-01 0.80835496E+02</pdfrwt>
<pdfrwt beam="2">  1       -1 0.48585945E-03 0.80835496E+02</pdfrwt>
<totfact> 0.29956960E+05</totfact>
</mgrwt>
</event>
<event>
 8    1  0.2676873E-024  0.8006562E+02  0.7818608E-02  0.1328865E+00
         -1   -1    0    0    0  501 -0.00000000000E+00  0.00000000000E+00  0.37754893047E+01  0.37754926687E+01  0.50400000000E-02 0.  1.
          2   -1    0    0  501    0  0.00000000000E+00 -0.00000000000E+00 -0.42448142376E+03  0.42448142377E+03  0.25500000000E-02 0. -1.
         24    2    1    2    0    0 -0.35527136788E-14  0.00000000000E+00 -0.42070593446E+03  0.42825691644E+03  0.80065618025E+02 0.  0.
         66    2    3    3    0    0 -0.14030437451E+02 -0.17670276449E+02 -0.38719989285E+03  0.38786189406E+03  0.19999987557E+01 0.  0.
        -13    1    3    3    0    0  0.14030437451E+02  0.17670276449E+02 -0.33506041611E+02  0.40395022383E+02  0.10566000000E+00 0.  1.
         13    1    4    4    0    0 -0.65457863198E+01 -0.79529604371E+01 -0.19113918250E+03  0.19141654878E+03  0.10566000000E+00 0. -1.
        -13    1    4    4    0    0 -0.24946246469E+01 -0.32160272617E+01 -0.59905305925E+02  0.60043507771E+02  0.10566000000E+00 0.  1.
        -14    1    4    4    0    0 -0.49900264841E+01 -0.65012887506E+01 -0.13615540442E+03  0.13640183750E+03  0.00000000000E+00 0.  1.
<mgrwt>
<rscale>  0 0.80065618E+02</rscale>
<asrwt>0</asrwt>
<pdfrwt beam="1">  1        2 0.65304797E-01 0.80065618E+02</pdfrwt>
<pdfrwt beam="2">  1       -1 0.58084511E-03 0.80065618E+02</pdfrwt>
<totfact> 0.28779469E+05</totfact>
</mgrwt>
</event>
<event>
 8    1  0.2676873E-024  0.7893606E+02  0.7818608E-02  0.1332098E+00
          2   -1    0    0  501    0  0.00000000000E+00  0.00000000000E+00  0.63540426534E+03  0.63540426535E+03  0.25500000000E-02 0. -1.
         -1   -1    0    0    0  501 -0.00000000000E+00 -0.00000000000E+00 -0.24515476267E+01  0.24515528074E+01  0.50400000000E-02 0.  1.
         24    2    1    2    0    0 -0.71054273576E-14  0.00000000000E+00  0.63295271771E+03  0.63785581815E+03  0.78936062040E+02 0.  0.
         66    2    3    3    0    0 -0.33810740233E+02 -0.91287423198E+01  0.46329802693E+03  0.46462410812E+03  0.19999997945E+01 0.  0.
        -13    1    3    3    0    0  0.33810740233E+02  0.91287423198E+01  0.16965469079E+03  0.17323171003E+03  0.10566000000E+00 0.  1.
         13    1    4    4    0    0 -0.19840754807E+02 -0.56746914613E+01  0.27228095684E+03  0.27306187631E+03  0.10566000000E+00 0. -1.
        -13    1    4    4    0    0 -0.90405328889E+01 -0.18813549923E+01  0.12849261667E+03  0.12882404447E+03  0.10566000000E+00 0. -1.
         14    1    4    4    0    0 -0.49294525364E+01 -0.15726958662E+01  0.62524453419E+02  0.62738187334E+02  0.00000000000E+00 0. -1.
<mgrwt>
<rscale>  0 0.78936062E+02</rscale>
<asrwt>0</asrwt>
<pdfrwt beam="1">  1        2 0.97754528E-01 0.78936062E+02</pdfrwt>
<pdfrwt beam="2">  1       -1 0.37716148E-03 0.78936062E+02</pdfrwt>
<totfact> 0.33822222E+05</totfact>
</mgrwt>
</event>
<event>
 8    1  0.2676873E-024  0.8047450E+02  0.7818608E-02  0.1327710E+00
          2   -1    0    0  501    0  0.00000000000E+00  0.00000000000E+00  0.94847672113E+02  0.94847672147E+02  0.25500000000E-02 0. -1.
         -1   -1    0    0    0  501 -0.00000000000E+00 -0.00000000000E+00 -0.17069855543E+02  0.17069856287E+02  0.50400000000E-02 0.  1.
         24    2    1    2    0    0  0.00000000000E+00  0.17763568394E-14  0.77777816570E+02  0.11191752843E+03  0.80474495465E+02 0.  0.
         66    2    3    3    0    0  0.89424051924E+01 -0.10782692738E+02  0.91333948507E+02  0.92423607576E+02  0.20000035443E+01 0.  0.
        -13    1    3    3    0    0 -0.89424051924E+01  0.10782692738E+02 -0.13556131936E+02  0.19493920858E+02  0.10566000000E+00 0.  1.
         13    1    4    4    0    0  0.17130529556E+01 -0.20751775056E+01  0.18986303005E+02  0.19176333798E+02  0.10566000000E+00 0. -1.
        -13    1    4    4    0    0  0.20926932798E+01 -0.14837270516E+01  0.14819424784E+02  0.15040190361E+02  0.10566000000E+00 0.  1.
        -14    1    4    4    0    0  0.51366589569E+01 -0.72237881810E+01  0.57528220717E+02  0.58207083416E+02  0.00000000000E+00 0.  1.
<mgrwt>
<rscale>  0 0.80474495E+02</rscale>
<asrwt>0</asrwt>
<pdfrwt beam="1">  1        2 0.14591950E-01 0.80474495E+02</pdfrwt>
<pdfrwt beam="2">  1       -1 0.26261316E-02 0.80474495E+02</pdfrwt>
<totfact> 0.17192873E+05</totfact>
</mgrwt>
</event>
<event>
 8    1  0.2676873E-024  0.7933620E+02  0.7818608E-02  0.1330946E+00
          2   -1    0    0  501    0  0.00000000000E+00  0.00000000000E+00  0.23766358360E+02  0.23766358497E+02  0.25500000000E-02 0. -1.
         -1   -1    0    0    0  501 -0.00000000000E+00 -0.00000000000E+00 -0.66209478415E+02  0.66209478607E+02  0.50400000000E-02 0.  1.
         24    2    1    2    0    0  0.00000000000E+00  0.00000000000E+00 -0.42443120055E+02  0.89975837104E+02  0.79336201211E+02 0.  0.
         66    2    3    3    0    0 -0.17066171620E+02 -0.30630293379E+02 -0.25909061472E+00  0.35121734339E+02  0.20000021949E+01 0.  0.
        -13    1    3    3    0    0  0.17066171620E+02  0.30630293379E+02 -0.42184029440E+02  0.54854102765E+02  0.10566000000E+00 0.  1.
         13    1    4    4    0    0 -0.55388221841E+01 -0.92627488465E+01 -0.64282347007E+00  0.10812097550E+02  0.10566000000E+00 0. -1.
        -13    1    4    4    0    0 -0.40035218828E+01 -0.73622295181E+01 -0.41452133752E+00  0.83912813633E+01  0.10566000000E+00 0.  1.
        -14    1    4    4    0    0 -0.75238275536E+01 -0.14005315015E+02  0.79825419287E+00  0.15918355426E+02  0.00000000000E+00 0.  1.
<mgrwt>
<rscale>  0 0.79336201E+02</rscale>
<asrwt>0</asrwt>
<pdfrwt beam="1">  1        2 0.36563629E-02 0.79336201E+02</pdfrwt>
<pdfrwt beam="2">  1       -1 0.10186074E-01 0.79336201E+02</pdfrwt>
<totfact> 0.13158736E+05</totfact>
</mgrwt>
</event>
<event>
 8    1  0.2676873E-024  0.8005695E+02  0.7818608E-02  0.1328890E+00
         -1   -1    0    0    0  501 -0.00000000000E+00  0.00000000000E+00  0.16953770276E+01  0.16953845190E+01  0.50400000000E-02 0.  1.
          2   -1    0    0  501    0  0.00000000000E+00 -0.00000000000E+00 -0.94508484071E+03  0.94508484071E+03  0.25500000000E-02 0. -1.
         24    2    1    2    0    0 -0.35527136788E-14  0.00000000000E+00 -0.94338946368E+03  0.94678022523E+03  0.80056946634E+02 0.  0.
         66    2    3    3    0    0 -0.17483675719E+02 -0.14780877706E+02 -0.85994262622E+03  0.86024965775E+03  0.20000014859E+01 0.  0.
        -13    1    3    3    0    0  0.17483675719E+02  0.14780877706E+02 -0.83446837464E+02  0.86530567484E+02  0.10566000000E+00 0.  1.
         13    1    4    4    0    0 -0.59489756157E+01 -0.58854296719E+01 -0.30423687351E+03  0.30435195902E+03  0.10566000000E+00 0. -1.
        -13    1    4    4    0    0 -0.11353786314E+02 -0.88473913436E+01 -0.55144779075E+03  0.55163562420E+03  0.10566000000E+00 0.  1.
        -14    1    4    4    0    0 -0.18091378898E+00 -0.48056690199E-01 -0.42579619621E+01  0.42620745318E+01  0.00000000000E+00 0.  1.
<mgrwt>
<rscale>  0 0.80056947E+02</rscale>
<asrwt>0</asrwt>
<pdfrwt beam="1">  1        2 0.14539725E+00 0.80056947E+02</pdfrwt>
<pdfrwt beam="2">  1       -1 0.26082857E-03 0.80056947E+02</pdfrwt>
<totfact> 0.35044751E+05</totfact>
</mgrwt>
</event>
<event>
 8    1  0.2676873E-024  0.8017419E+02  0.7818608E-02  0.1328558E+00
         -1   -1    0    0    0  501 -0.00000000000E+00  0.00000000000E+00  0.81546110124E+01  0.81546125699E+01  0.50400000000E-02 0.  1.
          2   -1    0    0  501    0  0.00000000000E+00 -0.00000000000E+00 -0.19706333821E+03  0.19706333823E+03  0.25500000000E-02 0. -1.
         24    2    1    2    0    0  0.00000000000E+00  0.00000000000E+00 -0.18890872720E+03  0.20521795080E+03  0.80174186106E+02 0.  0.
         66    2    3    3    0    0  0.15644387632E+02 -0.51133494457E+01 -0.18800428022E+03  0.18873394657E+03  0.20000003893E+01 0.  0.
        -13    1    3    3    0    0 -0.15644387632E+02  0.51133494457E+01 -0.90444698159E+00  0.16484004226E+02  0.10566000000E+00 0.  1.
         13    1    4    4    0    0  0.86481981994E+00 -0.50698881507E+00 -0.82109837954E+01  0.82726277508E+01  0.10566000000E+00 0. -1.
        -13    1    4    4    0    0  0.12762402256E+01 -0.24665038417E+00 -0.12811710826E+02  0.12877916130E+02  0.10566000000E+00 0.  1.
         14    1    4    4    0    0  0.13503327587E+02 -0.43597102465E+01 -0.16698158560E+03  0.16758340269E+03  0.00000000000E+00 0. -1.
<mgrwt>
<rscale>  0 0.80174186E+02</rscale>
<asrwt>0</asrwt>
<pdfrwt beam="1">  1        2 0.30317433E-01 0.80174186E+02</pdfrwt>
<pdfrwt beam="2">  1       -1 0.12545558E-02 0.80174186E+02</pdfrwt>
<totfact> 0.21820065E+05</totfact>
</mgrwt>
</event>
<event>
 8    1  0.2676873E-024  0.8047653E+02  0.7818608E-02  0.1327705E+00
          2   -1    0    0  501    0  0.00000000000E+00  0.00000000000E+00  0.92401641519E+02  0.92401641554E+02  0.25500000000E-02 0. -1.
         -1   -1    0    0    0  501 -0.00000000000E+00 -0.00000000000E+00 -0.17522608325E+02  0.17522609049E+02  0.50400000000E-02 0.  1.
         24    2    1    2    0    0 -0.71054273576E-14  0.55511151231E-16  0.74879033195E+02  0.10992425060E+03  0.80476526134E+02 0.  0.
         66    2    3    3    0    0 -0.37775312773E+02 -0.26765075270E+00  0.18631392812E+02  0.42168408755E+02  0.20000016916E+01 0.  0.
        -13    1    3    3    0    0  0.37775312773E+02  0.26765075270E+00  0.56247640382E+02  0.67755841849E+02  0.10566000000E+00 0.  1.
         13    1    4    4    0    0 -0.17419916901E+02 -0.73625745779E+00  0.86899015381E+01  0.19481302129E+02  0.10566000000E+00 0. -1.
        -13    1    4    4    0    0 -0.10954013510E+02 -0.32756746173E-02  0.47839631640E+01  0.11953572281E+02  0.10566000000E+00 0.  1.
        -14    1    4    4    0    0 -0.94013823629E+01  0.47188237971E+00  0.51575281103E+01  0.10733534344E+02  0.00000000000E+00 0.  1.
<mgrwt>
<rscale>  0 0.80476526E+02</rscale>
<asrwt>0</asrwt>
<pdfrwt beam="1">  1        2 0.14215637E-01 0.80476526E+02</pdfrwt>
<pdfrwt beam="2">  1       -1 0.26957860E-02 0.80476526E+02</pdfrwt>
<totfact> 0.17069321E+05</totfact>
</mgrwt>
</event>
<event>
 8    1  0.2676873E-024  0.8104853E+02  0.7818608E-02  0.1326102E+00
          2   -1    0    0  501    0  0.00000000000E+00  0.00000000000E+00  0.21700216676E+02  0.21700216826E+02  0.25500000000E-02 0. -1.
         -1   -1    0    0    0  501 -0.00000000000E+00 -0.00000000000E+00 -0.75677403214E+02  0.75677403382E+02  0.50400000000E-02 0.  1.
         24    2    1    2    0    0  0.00000000000E+00  0.00000000000E+00 -0.53977186538E+02  0.97377620208E+02  0.81048530220E+02 0.  0.
         66    2    3    3    0    0  0.18424980669E+02  0.32536196969E+02 -0.83095423799E+01  0.38355345490E+02  0.20000018205E+01 0.  0.
        -13    1    3    3    0    0 -0.18424980669E+02 -0.32536196969E+02 -0.45667644158E+02  0.59022274718E+02  0.10566000000E+00 0.  1.
         13    1    4    4    0    0  0.40502831299E+01  0.62188896702E+01 -0.23079655665E+01  0.77728534822E+01  0.10566000000E+00 0. -1.
        -13    1    4    4    0    0  0.70496339661E+01  0.12995851050E+02 -0.30026467995E+01  0.15086965746E+02  0.10566000000E+00 0.  1.
         14    1    4    4    0    0  0.73250635732E+01  0.13321456248E+02 -0.29989300139E+01  0.15495526263E+02  0.00000000000E+00 0. -1.
<mgrwt>
<rscale>  0 0.81048530E+02</rscale>
<asrwt>0</asrwt>
<pdfrwt beam="1">  1        2 0.33384949E-02 0.81048530E+02</pdfrwt>
<pdfrwt beam="2">  1       -1 0.11642677E-01 0.81048530E+02</pdfrwt>
<totfact> 0.12159572E+05</totfact>
</mgrwt>
</event>
<event>
 8    1  0.2676873E-024  0.8029990E+02  0.7818608E-02  0.1328202E+00
          2   -1    0    0  501    0  0.00000000000E+00  0.00000000000E+00  0.94058932567E+02  0.94058932601E+02  0.25500000000E-02 0. -1.
         -1   -1    0    0    0  501 -0.00000000000E+00 -0.00000000000E+00 -0.17138389350E+02  0.17138390091E+02  0.50400000000E-02 0.  1.
         24    2    1    2    0    0  0.00000000000E+00  0.00000000000E+00  0.76920543216E+02  0.11119732269E+03  0.80299904143E+02 0.  0.
         66    2    3    3    0    0  0.87821134450E+01  0.35318585722E+02  0.61881671454E+02  0.71818307445E+02  0.20000020829E+01 0.  0.
        -13    1    3    3    0    0 -0.87821134450E+01 -0.35318585722E+02  0.15038871762E+02  0.39379015247E+02  0.10566000000E+00 0.  1.
         13    1    4    4    0    0  0.57854818651E+01  0.22472016409E+02  0.40156411402E+02  0.46379002389E+02  0.10566000000E+00 0. -1.
        -13    1    4    4    0    0  0.46599225690E+00  0.40678691538E+01  0.64675011964E+01  0.76553539433E+01  0.10566000000E+00 0.  1.
         14    1    4    4    0    0  0.25306393230E+01  0.87787001596E+01  0.15257758856E+02  0.17783951112E+02  0.00000000000E+00 0. -1.
<mgrwt>
<rscale>  0 0.80299904E+02</rscale>
<asrwt>0</asrwt>
<pdfrwt beam="1">  1        2 0.14470605E-01 0.80299904E+02</pdfrwt>
<pdfrwt beam="2">  1       -1 0.26366754E-02 0.80299904E+02</pdfrwt>
<totfact> 0.17253840E+05</totfact>
</mgrwt>
</event>
<event>
 8    1  0.2676873E-024  0.8367826E+02  0.7818608E-02  0.1318926E+00
          2   -1    0    0  501    0  0.00000000000E+00  0.00000000000E+00  0.52876447075E+02  0.52876447137E+02  0.25500000000E-02 0. -1.
         -1   -1    0    0    0  501 -0.00000000000E+00 -0.00000000000E+00 -0.33105722438E+02  0.33105722822E+02  0.50400000000E-02 0.  1.
         24    2    1    2    0    0 -0.35527136788E-14  0.00000000000E+00  0.19770724637E+02  0.85982169959E+02  0.83678264789E+02 0.  0.
         66    2    3    3    0    0  0.22004332132E+02 -0.35484035671E+02  0.75477319943E+01  0.42476766464E+02  0.20000027354E+01 0.  0.
        -13    1    3    3    0    0 -0.22004332132E+02  0.35484035671E+02  0.12222992642E+02  0.43505403495E+02  0.10566000000E+00 0.  1.
         13    1    4    4    0    0  0.94121221972E+01 -0.14201966916E+02  0.26934923387E+01  0.17249636911E+02  0.10566000000E+00 0. -1.
        -13    1    4    4    0    0  0.50422234274E+01 -0.74356499750E+01  0.17604466450E+01  0.91555034852E+01  0.10566000000E+00 0.  1.
         14    1    4    4    0    0  0.75499865074E+01 -0.13846418780E+02  0.30937930106E+01  0.16071626068E+02  0.00000000000E+00 0. -1.
<mgrwt>
<rscale>  0 0.83678265E+02</rscale>
<asrwt>0</asrwt>
<pdfrwt beam="1">  1        2 0.81348380E-02 0.83678265E+02</pdfrwt>
<pdfrwt beam="2">  1       -1 0.50931881E-02 0.83678265E+02</pdfrwt>
<totfact> 0.13373207E+05</totfact>
</mgrwt>
</event>
<event>
 8    1  0.2676873E-024  0.7941926E+02  0.7818608E-02  0.1330708E+00
         -1   -1    0    0    0  501 -0.00000000000E+00  0.00000000000E+00  0.49540875313E+02  0.49540875570E+02  0.50400000000E-02 0.  1.
          2   -1    0    0  501    0  0.00000000000E+00 -0.00000000000E+00 -0.31829369382E+02  0.31829369484E+02  0.25500000000E-02 0. -1.
         24    2    1    2    0    0  0.17763568394E-14  0.00000000000E+00  0.17711505931E+02  0.81370245054E+02  0.79419263015E+02 0.  0.
         66    2    3    3    0    0  0.11176223344E+02  0.39538840635E+01 -0.29941270124E+02  0.32264854339E+02  0.20000003654E+01 0.  0.
        -13    1    3    3    0    0 -0.11176223344E+02 -0.39538840635E+01  0.47652776055E+02  0.49105390715E+02  0.10566000000E+00 0.  1.
         13    1    4    4    0    0  0.84581598040E+01  0.31165093209E+01 -0.23481475936E+02  0.25152414870E+02  0.10566000000E+00 0. -1.
        -13    1    4    4    0    0  0.27559341921E+00 -0.13143486889E+00 -0.10445174700E+01  0.10933469889E+01  0.10566000000E+00 0.  1.
         14    1    4    4    0    0  0.24424701204E+01  0.96880961143E+00 -0.54152767185E+01  0.60190924807E+01  0.00000000000E+00 0. -1.
<mgrwt>
<rscale>  0 0.79419263E+02</rscale>
<asrwt>0</asrwt>
<pdfrwt beam="1">  1        2 0.48968261E-02 0.79419263E+02</pdfrwt>
<pdfrwt beam="2">  1       -1 0.76216732E-02 0.79419263E+02</pdfrwt>
<totfact> 0.13893548E+05</totfact>
</mgrwt>
</event>
<event>
 8    1  0.2676873E-024  0.7864538E+02  0.7818608E-02  0.1332940E+00
          2   -1    0    0  501    0  0.00000000000E+00  0.00000000000E+00  0.87761810241E+02  0.87761810278E+02  0.25500000000E-02 0. -1.
         -1   -1    0    0    0  501 -0.00000000000E+00 -0.00000000000E+00 -0.17618981574E+02  0.17618982295E+02  0.50400000000E-02 0.  1.
         24    2    1    2    0    0  0.00000000000E+00  0.44408920985E-15  0.70142828667E+02  0.10538079257E+03  0.78645375133E+02 0.  0.
         66    2    3    3    0    0 -0.15151528971E+02 -0.39154671774E+01  0.83394856337E+02  0.84874034790E+02  0.20000011868E+01 0.  0.
        -13    1    3    3    0    0  0.15151528971E+02  0.39154671774E+01 -0.13252027670E+02  0.20506757783E+02  0.10566000000E+00 0.  1.
         13    1    4    4    0    0 -0.11105578078E+02 -0.32398976674E+01  0.58704050380E+02  0.59833163851E+02  0.10566000000E+00 0. -1.
        -13    1    4    4    0    0 -0.28295008494E+01 -0.17741368463E+00  0.15661735812E+02  0.15916616580E+02  0.10566000000E+00 0.  1.
         14    1    4    4    0    0 -0.12164500427E+01 -0.49815582541E+00  0.90290701452E+01  0.91242543597E+01  0.00000000000E+00 0. -1.
<mgrwt>
<rscale>  0 0.78645375E+02</rscale>
<asrwt>0</asrwt>
<pdfrwt beam="1">  1        2 0.13501817E-01 0.78645375E+02</pdfrwt>
<pdfrwt beam="2">  1       -1 0.27106126E-02 0.78645375E+02</pdfrwt>
<totfact> 0.17907760E+05</totfact>
</mgrwt>
</event>
<event>
 8    1  0.2676873E-024  0.7986516E+02  0.7818608E-02  0.1329435E+00
         -1   -1    0    0    0  501 -0.00000000000E+00  0.00000000000E+00  0.13553413777E+01  0.13553507486E+01  0.50400000000E-02 0.  1.
          2   -1    0    0  501    0  0.00000000000E+00 -0.00000000000E+00 -0.11765341357E+04  0.11765341357E+04  0.25500000000E-02 0. -1.
         24    2    1    2    0    0  0.00000000000E+00 -0.35527136788E-14 -0.11751787943E+04  0.11778894864E+04  0.79865159285E+02 0.  0.
         66    2    3    3    0    0 -0.12428049423E+02  0.22846093752E+02 -0.10343768517E+04  0.10347056933E+04  0.19999983886E+01 0.  0.
        -13    1    3    3    0    0  0.12428049423E+02 -0.22846093752E+02 -0.14080194262E+03  0.14318379316E+03  0.10566000000E+00 0.  1.
         13    1    4    4    0    0 -0.47310676277E+00  0.68834933466E+00 -0.27885086849E+02  0.27897793595E+02  0.10566000000E+00 0. -1.
        -13    1    4    4    0    0 -0.88401936734E+01  0.15883104867E+02 -0.69863915950E+03  0.69887560294E+03  0.10566000000E+00 0. -1.
         14    1    4    4    0    0 -0.31147489867E+01  0.62746395507E+01 -0.30785260531E+03  0.30793229672E+03  0.00000000000E+00 0. -1.
<mgrwt>
<rscale>  0 0.79865159E+02</rscale>
<asrwt>0</asrwt>
<pdfrwt beam="1">  1        2 0.18100443E+00 0.79865159E+02</pdfrwt>
<pdfrwt beam="2">  1       -1 0.20851572E-03 0.79865159E+02</pdfrwt>
<totfact> 0.35261954E+05</totfact>
</mgrwt>
</event>
<event>
 8    1  0.2676873E-024  0.7859336E+02  0.7818608E-02  0.1333091E+00
         -1   -1    0    0    0  501 -0.00000000000E+00  0.00000000000E+00  0.15977619092E+02  0.15977619887E+02  0.50400000000E-02 0.  1.
          2   -1    0    0  501    0  0.00000000000E+00 -0.00000000000E+00 -0.96649506116E+02  0.96649506149E+02  0.25500000000E-02 0. -1.
         24    2    1    2    0    0  0.00000000000E+00  0.00000000000E+00 -0.80671887024E+02  0.11262712604E+03  0.78593359537E+02 0.  0.
         66    2    3    3    0    0 -0.56144310535E+01  0.36468619444E+02 -0.21096203733E+02  0.42550344977E+02  0.20000013759E+01 0.  0.
        -13    1    3    3    0    0  0.56144310535E+01 -0.36468619444E+02 -0.59575683290E+02  0.70076781060E+02  0.10566000000E+00 0.  1.
         13    1    4    4    0    0 -0.28735503218E+01  0.19140569585E+02 -0.11424700373E+02  0.22475623198E+02  0.10566000000E+00 0. -1.
        -13    1    4    4    0    0 -0.23753237574E+00  0.48700908332E+01 -0.24241976879E+01  0.54462927592E+01  0.10566000000E+00 0.  1.
         14    1    4    4    0    0 -0.25033483560E+01  0.12457959025E+02 -0.72473056722E+01  0.14628429019E+02  0.00000000000E+00 0. -1.
<mgrwt>
<rscale>  0 0.78593360E+02</rscale>
<asrwt>0</asrwt>
<pdfrwt beam="1">  1        2 0.14869154E-01 0.78593360E+02</pdfrwt>
<pdfrwt beam="2">  1       -1 0.24580954E-02 0.78593360E+02</pdfrwt>
<totfact> 0.18413053E+05</totfact>
</mgrwt>
</event>
<event>
 8    1  0.2676873E-024  0.7865308E+02  0.7818608E-02  0.1332918E+00
          2   -1    0    0  501    0  0.00000000000E+00  0.00000000000E+00  0.21106802373E+03  0.21106802375E+03  0.25500000000E-02 0. -1.
         -1   -1    0    0    0  501 -0.00000000000E+00 -0.00000000000E+00 -0.73273841176E+01  0.73273858509E+01  0.50400000000E-02 0.  1.
         24    2    1    2    0    0  0.00000000000E+00  0.00000000000E+00  0.20374063961E+03  0.21839540960E+03  0.78653078154E+02 0.  0.
         66    2    3    3    0    0  0.23836996372E+02 -0.31231591229E+02  0.10465241299E+03  0.11180224609E+03  0.19999999574E+01 0.  0.
        -13    1    3    3    0    0 -0.23836996372E+02  0.31231591229E+02  0.99088226624E+02  0.10659316351E+03  0.10566000000E+00 0.  1.
         13    1    4    4    0    0  0.11792703483E+01 -0.15873979904E+01  0.48131817093E+01  0.52046511062E+01  0.10566000000E+00 0.  1.
        -13    1    4    4    0    0  0.16979210127E+02 -0.22348010530E+02  0.72920846635E+02  0.78135703677E+02  0.10566000000E+00 0. -1.
        -14    1    4    4    0    0  0.56785158960E+01 -0.72961827089E+01  0.26918384645E+02  0.28461891308E+02  0.00000000000E+00 0.  1.
<mgrwt>
<rscale>  0 0.78653078E+02</rscale>
<asrwt>0</asrwt>
<pdfrwt beam="1">  1        2 0.32472008E-01 0.78653078E+02</pdfrwt>
<pdfrwt beam="2">  1       -1 0.11272899E-02 0.78653078E+02</pdfrwt>
<totfact> 0.23505190E+05</totfact>
</mgrwt>
</event>
<event>
 8    1  0.2676873E-024  0.7931708E+02  0.7818608E-02  0.1331001E+00
         -1   -1    0    0    0  501 -0.00000000000E+00  0.00000000000E+00  0.41877022320E+02  0.41877022624E+02  0.50400000000E-02 0.  1.
          2   -1    0    0  501    0  0.00000000000E+00 -0.00000000000E+00 -0.37557587586E+02  0.37557587672E+02  0.25500000000E-02 0. -1.
         24    2    1    2    0    0  0.00000000000E+00  0.00000000000E+00  0.43194347348E+01  0.79434610296E+02  0.79317083887E+02 0.  0.
         66    2    3    3    0    0 -0.20495329532E+02  0.32975613352E+02 -0.58096880870E+01  0.39309058564E+02  0.20000002338E+01 0.  0.
        -13    1    3    3    0    0  0.20495329532E+02 -0.32975613352E+02  0.10129122822E+02  0.40125551732E+02  0.10566000000E+00 0.  1.
         13    1    4    4    0    0 -0.68338619913E+01  0.12063578953E+02 -0.17224213701E+01  0.13971739559E+02  0.10566000000E+00 0. -1.
        -13    1    4    4    0    0 -0.68058191379E+01  0.10165157391E+02 -0.14408642894E+01  0.12318151358E+02  0.10566000000E+00 0.  1.
         14    1    4    4    0    0 -0.68556484029E+01  0.10746877008E+02 -0.26464024276E+01  0.13019167648E+02  0.00000000000E+00 0. -1.
<mgrwt>
<rscale>  0 0.79317084E+02</rscale>
<asrwt>0</asrwt>
<pdfrwt beam="1">  1        2 0.57780904E-02 0.79317084E+02</pdfrwt>
<pdfrwt beam="2">  1       -1 0.64426189E-02 0.79317084E+02</pdfrwt>
<totfact> 0.14411192E+05</totfact>
</mgrwt>
</event>
<event>
 8    1  0.2676873E-024  0.8541553E+02  0.7818608E-02  0.1314349E+00
          2   -1    0    0  501    0  0.00000000000E+00  0.00000000000E+00  0.65564517580E+02  0.65564517630E+02  0.25500000000E-02 0. -1.
         -1   -1    0    0    0  501 -0.00000000000E+00 -0.00000000000E+00 -0.27819209611E+02  0.27819210067E+02  0.50400000000E-02 0.  1.
         24    2    1    2    0    0  0.00000000000E+00  0.00000000000E+00  0.37745307969E+02  0.93383727697E+02  0.85415527422E+02 0.  0.
         66    2    3    3    0    0  0.20408260621E+02  0.20896622779E+02  0.52911834720E+02  0.60471714041E+02  0.20000001442E+01 0.  0.
        -13    1    3    3    0    0 -0.20408260621E+02 -0.20896622779E+02 -0.15166526750E+02  0.32912013655E+02  0.10566000000E+00 0.  1.
         13    1    4    4    0    0  0.86419657880E+01  0.95520563856E+01  0.23730652310E+02  0.27001488422E+02  0.10566000000E+00 0. -1.
        -13    1    4    4    0    0  0.11135736505E+02  0.10286120889E+02  0.27066285130E+02  0.31022634724E+02  0.10566000000E+00 0.  1.
        -14    1    4    4    0    0  0.63055832747E+00  0.10584455043E+01  0.21148972796E+01  0.24475908958E+01  0.00000000000E+00 0.  1.
<mgrwt>
<rscale>  0 0.85415527E+02</rscale>
<asrwt>0</asrwt>
<pdfrwt beam="1">  1        2 0.10086849E-01 0.85415527E+02</pdfrwt>
<pdfrwt beam="2">  1       -1 0.42798785E-02 0.85415527E+02</pdfrwt>
<totfact> 0.13295864E+05</totfact>
</mgrwt>
</event>
<event>
 8    1  0.2676873E-024  0.7918494E+02  0.7818608E-02  0.1331380E+00
          2   -1    0    0  501    0  0.00000000000E+00  0.00000000000E+00  0.62428386665E+02  0.62428386717E+02  0.25500000000E-02 0. -1.
         -1   -1    0    0    0  501 -0.00000000000E+00 -0.00000000000E+00 -0.25109792394E+02  0.25109792900E+02  0.50400000000E-02 0.  1.
         24    2    1    2    0    0  0.88817841970E-15  0.71054273576E-14  0.37318594271E+02  0.87538179617E+02  0.79184944354E+02 0.  0.
         66    2    3    3    0    0 -0.31555161679E+01 -0.33533793469E+02 -0.42817036892E+01  0.34011844593E+02  0.19999998564E+01 0.  0.
        -13    1    3    3    0    0  0.31555161679E+01  0.33533793469E+02  0.41600297960E+02  0.53526335024E+02  0.10566000000E+00 0.  1.
         13    1    4    4    0    0 -0.24969308342E+00 -0.89802527583E+00 -0.88200460604E-01  0.94219922988E+00  0.10566000000E+00 0. -1.
        -13    1    4    4    0    0 -0.14710308612E+00 -0.37437950087E+01 -0.94173195222E+00  0.38646686133E+01  0.10566000000E+00 0.  1.
         14    1    4    4    0    0 -0.27587199983E+01 -0.28891973185E+02 -0.32517712764E+01  0.29204976750E+02  0.00000000000E+00 0. -1.
<mgrwt>
<rscale>  0 0.79184944E+02</rscale>
<asrwt>0</asrwt>
<pdfrwt beam="1">  1        2 0.96043671E-02 0.79184944E+02</pdfrwt>
<pdfrwt beam="2">  1       -1 0.38630451E-02 0.79184944E+02</pdfrwt>
<totfact> 0.16153438E+05</totfact>
</mgrwt>
</event>
<event>
 8    1  0.2676873E-024  0.8085276E+02  0.7818608E-02  0.1326649E+00
         -1   -1    0    0    0  501 -0.00000000000E+00  0.00000000000E+00  0.38914953471E+01  0.38914986109E+01  0.50400000000E-02 0.  1.
          2   -1    0    0  501    0  0.00000000000E+00 -0.00000000000E+00 -0.41996488260E+03  0.41996488260E+03  0.25500000000E-02 0. -1.
         24    2    1    2    0    0 -0.44408920985E-15  0.35527136788E-14 -0.41607338725E+03  0.42385638121E+03  0.80852757032E+02 0.  0.
         66    2    3    3    0    0 -0.25286743318E+01  0.29422052185E+02 -0.35270695750E+03  0.35394667565E+03  0.19999968604E+01 0.  0.
        -13    1    3    3    0    0  0.25286743318E+01 -0.29422052185E+02 -0.63366429746E+02  0.69909705560E+02  0.10566000000E+00 0.  1.
         13    1    4    4    0    0 -0.23763285788E+01  0.20412399025E+02 -0.24231586359E+03  0.24318573536E+03  0.10566000000E+00 0. -1.
        -13    1    4    4    0    0  0.18209274416E-01  0.23851411536E+00 -0.41685895266E+01  0.41767838390E+01  0.10566000000E+00 0. -1.
         14    1    4    4    0    0 -0.17055502742E+00  0.87711390449E+01 -0.10622250439E+03  0.10658415645E+03  0.00000000000E+00 0. -1.
<mgrwt>
<rscale>  0 0.80852757E+02</rscale>
<asrwt>0</asrwt>
<pdfrwt beam="1">  1        2 0.64609946E-01 0.80852757E+02</pdfrwt>
<pdfrwt beam="2">  1       -1 0.59869218E-03 0.80852757E+02</pdfrwt>
<totfact> 0.27950303E+05</totfact>
</mgrwt>
</event>
<event>
 8    1  0.2676873E-024  0.8198465E+02  0.7818608E-02  0.1323512E+00
          2   -1    0    0  501    0  0.00000000000E+00  0.00000000000E+00  0.18783523412E+04  0.18783523412E+04  0.25500000000E-02 0. -1.
         -1   -1    0    0    0  501 -0.00000000000E+00 -0.00000000000E+00 -0.89459114294E+00  0.89460534016E+00  0.50400000000E-02 0.  1.
         24    2    1    2    0    0  0.88817841970E-15  0.00000000000E+00  0.18774577500E+04  0.18792469465E+04  0.81984650012E+02 0.  0.
         66    2    3    3    0    0  0.53745931805E+01 -0.11959897099E+02  0.18289525322E+04  0.18290006261E+04  0.19999976337E+01 0.  0.
        -13    1    3    3    0    0 -0.53745931805E+01  0.11959897099E+02  0.48505217850E+02  0.50246320395E+02  0.10566000000E+00 0.  1.
         13    1    4    4    0    0  0.23592355705E+01 -0.39068431156E+01  0.55523836516E+03  0.55525713208E+03  0.10566000000E+00 0. -1.
        -13    1    4    4    0    0  0.27028521542E+00 -0.15592029117E+01  0.21436165530E+03  0.21436752225E+03  0.10566000000E+00 0.  1.
         14    1    4    4    0    0  0.27450723945E+01 -0.64938510716E+01  0.10593525117E+04  0.10593759718E+04  0.00000000000E+00 0. -1.
<mgrwt>
<rscale>  0 0.81984650E+02</rscale>
<asrwt>0</asrwt>
<pdfrwt beam="1">  1        2 0.28897661E+00 0.81984650E+02</pdfrwt>
<pdfrwt beam="2">  1       -1 0.13763082E-03 0.81984650E+02</pdfrwt>
<totfact> 0.27473398E+05</totfact>
</mgrwt>
</event>
<event>
 8    1  0.2676873E-024  0.8217213E+02  0.7818608E-02  0.1322998E+00
          2   -1    0    0  501    0  0.00000000000E+00  0.00000000000E+00  0.31017713241E+03  0.31017713242E+03  0.25500000000E-02 0. -1.
         -1   -1    0    0    0  501 -0.00000000000E+00 -0.00000000000E+00 -0.54422592066E+01  0.54422615404E+01  0.50400000000E-02 0.  1.
         24    2    1    2    0    0  0.00000000000E+00  0.00000000000E+00  0.30473487320E+03  0.31561939396E+03  0.82172129690E+02 0.  0.
         66    2    3    3    0    0 -0.33332279497E+02  0.64051305708E+01  0.24121534092E+03  0.24359989174E+03  0.20000020203E+01 0.  0.
        -13    1    3    3    0    0  0.33332279497E+02 -0.64051305708E+01  0.63519532282E+02  0.72019502216E+02  0.10566000000E+00 0.  1.
         13    1    4    4    0    0 -0.79291822371E+01  0.15114418023E+01  0.52399664041E+02  0.53017849286E+02  0.10566000000E+00 0. -1.
        -13    1    4    4    0    0 -0.17519170651E+02  0.37782705418E+01  0.13198274391E+03  0.13319404087E+03  0.10566000000E+00 0.  1.
         14    1    4    4    0    0 -0.78839266089E+01  0.11154182267E+01  0.56832932962E+02  0.57388001583E+02  0.00000000000E+00 0. -1.
<mgrwt>
<rscale>  0 0.82172130E+02</rscale>
<asrwt>0</asrwt>
<pdfrwt beam="1">  1        2 0.47719553E-01 0.82172130E+02</pdfrwt>
<pdfrwt beam="2">  1       -1 0.83727093E-03 0.82172130E+02</pdfrwt>
<totfact> 0.24052385E+05</totfact>
</mgrwt>
</event>
<event>
 8    1  0.2676873E-024  0.8158175E+02  0.7818608E-02  0.1324622E+00
          2   -1    0    0  501    0  0.00000000000E+00  0.00000000000E+00  0.84115928283E+02  0.84115928322E+02  0.25500000000E-02 0. -1.
         -1   -1    0    0    0  501 -0.00000000000E+00 -0.00000000000E+00 -0.19780980588E+02  0.19780981230E+02  0.50400000000E-02 0.  1.
         24    2    1    2    0    0  0.00000000000E+00  0.35527136788E-14  0.64334947695E+02  0.10389690955E+03  0.81581752369E+02 0.  0.
         66    2    3    3    0    0 -0.30574590167E+02 -0.24890993425E+02  0.45392447271E+02  0.60156806627E+02  0.19999991858E+01 0.  0.
        -13    1    3    3    0    0  0.30574590167E+02  0.24890993425E+02  0.18942500425E+02  0.43740102926E+02  0.10566000000E+00 0.  1.
         13    1    4    4    0    0 -0.33260091869E+01 -0.30940391508E+01  0.54135880887E+01  0.70677800905E+01  0.10566000000E+00 0. -1.
        -13    1    4    4    0    0 -0.11530481812E+02 -0.99778328718E+01  0.18255940546E+02  0.23786544282E+02  0.10566000000E+00 0. -1.
         14    1    4    4    0    0 -0.15718099168E+02 -0.11819121402E+02  0.21722918636E+02  0.29302482254E+02  0.00000000000E+00 0. -1.
<mgrwt>
<rscale>  0 0.81581752E+02</rscale>
<asrwt>0</asrwt>
<pdfrwt beam="1">  1        2 0.12940912E-01 0.81581752E+02</pdfrwt>
<pdfrwt beam="2">  1       -1 0.30432278E-02 0.81581752E+02</pdfrwt>
<totfact> 0.16044909E+05</totfact>
</mgrwt>
</event>
<event>
 8    1  0.2676873E-024  0.7914429E+02  0.7818608E-02  0.1331498E+00
          2   -1    0    0  501    0  0.00000000000E+00  0.00000000000E+00  0.77721524936E+03  0.77721524937E+03  0.25500000000E-02 0. -1.
         -1   -1    0    0    0  501 -0.00000000000E+00 -0.00000000000E+00 -0.20148241616E+01  0.20148304653E+01  0.50400000000E-02 0.  1.
         24    2    1    2    0    0  0.00000000000E+00 -0.17763568394E-14  0.77520042520E+03  0.77923007983E+03  0.79144286485E+02 0.  0.
         66    2    3    3    0    0  0.24728324668E+02  0.11784560970E+02  0.66867946267E+03  0.66924329635E+03  0.19999987572E+01 0.  0.
        -13    1    3    3    0    0 -0.24728324668E+02 -0.11784560970E+02  0.10652096253E+03  0.10998678349E+03  0.10566000000E+00 0.  1.
         13    1    4    4    0    0  0.16332656190E+02  0.71493209987E+01  0.42770357088E+03  0.42807502165E+03  0.10566000000E+00 0. -1.
        -13    1    4    4    0    0  0.19215842365E+01  0.11016994551E+01  0.47189653226E+02  0.47241726929E+02  0.10566000000E+00 0.  1.
         14    1    4    4    0    0  0.64740842412E+01  0.35335405159E+01  0.19378623856E+03  0.19392654777E+03  0.00000000000E+00 0. -1.
<mgrwt>
<rscale>  0 0.79144286E+02</rscale>
<asrwt>0</asrwt>
<pdfrwt beam="1">  1        2 0.11957164E+00 0.79144286E+02</pdfrwt>
<pdfrwt beam="2">  1       -1 0.30997327E-03 0.79144286E+02</pdfrwt>
<totfact> 0.35156298E+05</totfact>
</mgrwt>
</event>
<event>
 8    1  0.2676873E-024  0.7810338E+02  0.7818608E-02  0.1334522E+00
          2   -1    0    0  501    0  0.00000000000E+00  0.00000000000E+00  0.48596553125E+03  0.48596553126E+03  0.25500000000E-02 0. -1.
         -1   -1    0    0    0  501 -0.00000000000E+00 -0.00000000000E+00 -0.31381518199E+01  0.31381558671E+01  0.50400000000E-02 0.  1.
         24    2    1    2    0    0 -0.35527136788E-14  0.44408920985E-15  0.48282737943E+03  0.48910368713E+03  0.78103382967E+02 0.  0.
         66    2    3    3    0    0  0.27501761556E+02 -0.38947208083E+01  0.41324360515E+03  0.41418086987E+03  0.20000065226E+01 0.  0.
        -13    1    3    3    0    0 -0.27501761556E+02  0.38947208083E+01  0.69583774282E+02  0.74922817261E+02  0.10566000000E+00 0.  1.
         13    1    4    4    0    0  0.97331341128E+01 -0.21275620332E+01  0.14830301311E+03  0.14863732802E+03  0.10566000000E+00 0. -1.
        -13    1    4    4    0    0  0.10719826036E+01  0.10931155245E+00  0.15921730488E+02  0.15958501229E+02  0.10566000000E+00 0.  1.
         14    1    4    4    0    0  0.16696644840E+02 -0.18764703275E+01  0.24901886155E+03  0.24958504061E+03  0.00000000000E+00 0. -1.
<mgrwt>
<rscale>  0 0.78103383E+02</rscale>
<asrwt>0</asrwt>
<pdfrwt beam="1">  1        2 0.74763955E-01 0.78103383E+02</pdfrwt>
<pdfrwt beam="2">  1       -1 0.48279273E-03 0.78103383E+02</pdfrwt>
<totfact> 0.32119406E+05</totfact>
</mgrwt>
</event>
<event>
 8    1  0.2676873E-024  0.7985487E+02  0.7818608E-02  0.1329464E+00
         -1   -1    0    0    0  501 -0.00000000000E+00  0.00000000000E+00  0.11482346760E+02  0.11482347867E+02  0.50400000000E-02 0.  1.
          2   -1    0    0  501    0  0.00000000000E+00 -0.00000000000E+00 -0.13883920940E+03  0.13883920942E+03  0.25500000000E-02 0. -1.
         24    2    1    2    0    0 -0.71054273576E-14  0.00000000000E+00 -0.12735686263E+03  0.15032155729E+03  0.79854869134E+02 0.  0.
         66    2    3    3    0    0  0.39163646443E+02 -0.45017900635E+01 -0.75343384747E+02  0.85056939287E+02  0.19999948017E+01 0.  0.
        -13    1    3    3    0    0 -0.39163646443E+02  0.45017900635E+01 -0.52013477888E+02  0.65264617999E+02  0.10566000000E+00 0.  1.
         13    1    4    4    0    0  0.72119340532E+01 -0.12969819998E+01 -0.14114489239E+02  0.15903588451E+02  0.10566000000E+00 0.  1.
        -13    1    4    4    0    0  0.49340100826E+01 -0.91360725102E+00 -0.89536339798E+01  0.10264397653E+02  0.10566000000E+00 0. -1.
         14    1    4    4    0    0  0.27017702307E+02 -0.22912008127E+01 -0.52275261528E+02  0.58888953183E+02  0.00000000000E+00 0. -1.
<mgrwt>
<rscale>  0 0.79854869E+02</rscale>
<asrwt>0</asrwt>
<pdfrwt beam="1">  1        2 0.21359877E-01 0.79854869E+02</pdfrwt>
<pdfrwt beam="2">  1       -1 0.17665151E-02 0.79854869E+02</pdfrwt>
<totfact> 0.19637325E+05</totfact>
</mgrwt>
</event>
<event>
 8    1  0.2676873E-024  0.8006498E+02  0.7818608E-02  0.1328867E+00
          2   -1    0    0  501    0  0.00000000000E+00  0.00000000000E+00  0.62096088954E+02  0.62096089006E+02  0.25500000000E-02 0. -1.
         -1   -1    0    0    0  501 -0.00000000000E+00 -0.00000000000E+00 -0.25808393261E+02  0.25808393753E+02  0.50400000000E-02 0.  1.
         24    2    1    2    0    0 -0.71054273576E-14  0.00000000000E+00  0.36287695693E+02  0.87904482760E+02  0.80064981300E+02 0.  0.
         66    2    3    3    0    0  0.35192424767E+02  0.15647611096E+02  0.30043113153E+02  0.48887044747E+02  0.20000005479E+01 0.  0.
        -13    1    3    3    0    0 -0.35192424767E+02 -0.15647611096E+02  0.62445825395E+01  0.39017438013E+02  0.10566000000E+00 0.  1.
         13    1    4    4    0    0  0.49814693617E+01  0.23906671513E+01  0.38426783955E+01  0.67310970663E+01  0.10566000000E+00 0. -1.
        -13    1    4    4    0    0  0.18716270890E+01  0.10502556369E+01  0.20815390055E+01  0.29916539790E+01  0.10566000000E+00 0.  1.
         14    1    4    4    0    0  0.28339328316E+02  0.12206688307E+02  0.24118895752E+02  0.39164293702E+02  0.00000000000E+00 0. -1.
<mgrwt>
<rscale>  0 0.80064981E+02</rscale>
<asrwt>0</asrwt>
<pdfrwt beam="1">  1        2 0.95532443E-02 0.80064981E+02</pdfrwt>
<pdfrwt beam="2">  1       -1 0.39705222E-02 0.80064981E+02</pdfrwt>
<totfact> 0.15656300E+05</totfact>
</mgrwt>
</event>
<event>
 8    1  0.2676873E-024  0.7954132E+02  0.7818608E-02  0.1330358E+00
         -1   -1    0    0    0  501 -0.00000000000E+00  0.00000000000E+00  0.76427095085E+02  0.76427095251E+02  0.50400000000E-02 0.  1.
          2   -1    0    0  501    0  0.00000000000E+00 -0.00000000000E+00 -0.20695608760E+02  0.20695608917E+02  0.25500000000E-02 0. -1.
         24    2    1    2    0    0 -0.71054273576E-14 -0.35527136788E-14  0.55731486325E+02  0.97122704169E+02  0.79541316918E+02 0.  0.
         66    2    3    3    0    0  0.33402783361E+02  0.21499845629E+02  0.26286123165E+02  0.47675460828E+02  0.19999989710E+01 0.  0.
        -13    1    3    3    0    0 -0.33402783361E+02 -0.21499845629E+02  0.29445363160E+02  0.49447243340E+02  0.10566000000E+00 0.  1.
         13    1    4    4    0    0  0.23319857200E+02  0.15931706855E+02  0.19081955261E+02  0.34084706303E+02  0.10566000000E+00 0. -1.
        -13    1    4    4    0    0  0.42925547881E+01  0.23502211947E+01  0.28671192863E+01  0.56728390873E+01  0.10566000000E+00 0.  1.
         14    1    4    4    0    0  0.57903713721E+01  0.32179175788E+01  0.43370486173E+01  0.79179154378E+01  0.00000000000E+00 0. -1.
<mgrwt>
<rscale>  0 0.79541317E+02</rscale>
<asrwt>0</asrwt>
<pdfrwt beam="1">  1        2 0.31839398E-02 0.79541317E+02</pdfrwt>
<pdfrwt beam="2">  1       -1 0.11758015E-01 0.79541317E+02</pdfrwt>
<totfact> 0.12709225E+05</totfact>
</mgrwt>
</event>
<event>
 8    1  0.2676873E-024  0.7873782E+02  0.7818608E-02  0.1332672E+00
          2   -1    0    0  501    0  0.00000000000E+00  0.00000000000E+00  0.17250680062E+03  0.17250680064E+03  0.25500000000E-02 0. -1.
         -1   -1    0    0    0  501 -0.00000000000E+00 -0.00000000000E+00 -0.89846361602E+01  0.89846375738E+01  0.50400000000E-02 0.  1.
         24    2    1    2    0    0  0.00000000000E+00  0.00000000000E+00  0.16352216446E+03  0.18149143821E+03  0.78737817311E+02 0.  0.
         66    2    3    3    0    0 -0.18127236133E+02  0.23847307899E+01  0.16211350531E+03  0.16315352352E+03  0.20000005758E+01 0.  0.
        -13    1    3    3    0    0  0.18127236133E+02 -0.23847307899E+01  0.14086591533E+01  0.18337914696E+02  0.10566000000E+00 0.  1.
         13    1    4    4    0    0 -0.14343574681E+02  0.16468312560E+01  0.12172790548E+03  0.12258117442E+03  0.10566000000E+00 0. -1.
        -13    1    4    4    0    0 -0.15410504165E+01  0.42421469305E+00  0.18894286282E+02  0.18962067731E+02  0.10566000000E+00 0.  1.
         14    1    4    4    0    0 -0.22426110350E+01  0.31368484082E+00  0.21491313549E+02  0.21610281360E+02  0.00000000000E+00 0. -1.
<mgrwt>
<rscale>  0 0.78737817E+02</rscale>
<asrwt>0</asrwt>
<pdfrwt beam="1">  1        2 0.26539507E-01 0.78737817E+02</pdfrwt>
<pdfrwt beam="2">  1       -1 0.13822519E-02 0.78737817E+02</pdfrwt>
<totfact> 0.21872224E+05</totfact>
</mgrwt>
</event>
<event>
 8    1  0.2676873E-024  0.7621093E+02  0.7818608E-02  0.1340162E+00
          2   -1    0    0  501    0  0.00000000000E+00  0.00000000000E+00  0.72039138887E+02  0.72039138932E+02  0.25500000000E-02 0. -1.
         -1   -1    0    0    0  501 -0.00000000000E+00 -0.00000000000E+00 -0.20156077017E+02  0.20156077647E+02  0.50400000000E-02 0.  1.
         24    2    1    2    0    0  0.00000000000E+00  0.35527136788E-14  0.51883061870E+02  0.92195216578E+02  0.76210929997E+02 0.  0.
         66    2    3    3    0    0 -0.21774916049E+02 -0.30158852967E+02  0.35810961841E+02  0.51673284929E+02  0.20000015372E+01 0.  0.
        -13    1    3    3    0    0  0.21774916049E+02  0.30158852967E+02  0.16072100029E+02  0.40521931649E+02  0.10566000000E+00 0.  1.
         13    1    4    4    0    0 -0.38865968005E+01 -0.55936148999E+01  0.60614147377E+01  0.91184469618E+01  0.10566000000E+00 0. -1.
        -13    1    4    4    0    0 -0.13684243967E+02 -0.19166866246E+02  0.22177872249E+02  0.32349597774E+02  0.10566000000E+00 0.  1.
         14    1    4    4    0    0 -0.42040752816E+01 -0.53983718215E+01  0.75716748546E+01  0.10205240193E+02  0.00000000000E+00 0. -1.
<mgrwt>
<rscale>  0 0.76210930E+02</rscale>
<asrwt>0</asrwt>
<pdfrwt beam="1">  1        2 0.11082944E-01 0.76210930E+02</pdfrwt>
<pdfrwt beam="2">  1       -1 0.31009350E-02 0.76210930E+02</pdfrwt>
<totfact> 0.18533339E+05</totfact>
</mgrwt>
</event>
<event>
 8    1  0.2676873E-024  0.7836995E+02  0.7818608E-02  0.1333742E+00
         -1   -1    0    0    0  501 -0.00000000000E+00  0.00000000000E+00  0.23454476301E+02  0.23454476842E+02  0.50400000000E-02 0.  1.
          2   -1    0    0  501    0  0.00000000000E+00 -0.00000000000E+00 -0.65465643171E+02  0.65465643221E+02  0.25500000000E-02 0. -1.
         24    2    1    2    0    0  0.00000000000E+00  0.00000000000E+00 -0.42011166871E+02  0.88920120063E+02  0.78369953491E+02 0.  0.
         66    2    3    3    0    0  0.38978043073E+02 -0.19767805561E+01 -0.17384549421E+02  0.42771696967E+02  0.19999999172E+01 0.  0.
        -13    1    3    3    0    0 -0.38978043073E+02  0.19767805561E+01 -0.24626617449E+02  0.46148423096E+02  0.10566000000E+00 0.  1.
         13    1    4    4    0    0  0.11933576596E+02 -0.12814623307E+01 -0.48326721033E+01  0.12939021592E+02  0.10566000000E+00 0. -1.
        -13    1    4    4    0    0  0.30841104047E+01  0.10544472183E+00 -0.13132569993E+01  0.33553932050E+01  0.10566000000E+00 0.  1.
         14    1    4    4    0    0  0.23960356073E+02 -0.80076294725E+00 -0.11238620319E+02  0.26477282170E+02  0.00000000000E+00 0. -1.
<mgrwt>
<rscale>  0 0.78369953E+02</rscale>
<asrwt>0</asrwt>
<pdfrwt beam="1">  1        2 0.10071637E-01 0.78369953E+02</pdfrwt>
<pdfrwt beam="2">  1       -1 0.36083811E-02 0.78369953E+02</pdfrwt>
<totfact> 0.16798984E+05</totfact>
</mgrwt>
</event>
<event>
 8    1  0.2676873E-024  0.8057947E+02  0.7818608E-02  0.1327415E+00
          2   -1    0    0  501    0  0.00000000000E+00  0.00000000000E+00  0.12731224035E+04  0.12731224035E+04  0.25500000000E-02 0. -1.
         -1   -1    0    0    0  501 -0.00000000000E+00 -0.00000000000E+00 -0.12750197994E+01  0.12750297607E+01  0.50400000000E-02 0.  1.
         24    2    1    2    0    0  0.00000000000E+00  0.35527136788E-14  0.12718473837E+04  0.12743974332E+04  0.80579466874E+02 0.  0.
         66    2    3    3    0    0 -0.86186776473E+01  0.19451729828E+02  0.11769623551E+04  0.11771563349E+04  0.20000080094E+01 0.  0.
        -13    1    3    3    0    0  0.86186776473E+01 -0.19451729828E+02  0.94885028565E+02  0.97241098346E+02  0.10566000000E+00 0.  1.
         13    1    4    4    0    0 -0.45647252466E+01  0.10838692940E+02  0.66790754940E+03  0.66801109249E+03  0.10566000000E+00 0. -1.
        -13    1    4    4    0    0 -0.30018190748E+01  0.53565197596E+01  0.30632433472E+03  0.30638588810E+03  0.10566000000E+00 0.  1.
        -14    1    4    4    0    0 -0.10521333259E+01  0.32565171281E+01  0.20273047098E+03  0.20275935429E+03  0.00000000000E+00 0.  1.
<mgrwt>
<rscale>  0 0.80579467E+02</rscale>
<asrwt>0</asrwt>
<pdfrwt beam="1">  1        2 0.19586542E+00 0.80579467E+02</pdfrwt>
<pdfrwt beam="2">  1       -1 0.19615722E-03 0.80579467E+02</pdfrwt>
<totfact> 0.34103584E+05</totfact>
</mgrwt>
</event>
<event>
 8    1  0.2676873E-024  0.7930223E+02  0.7818608E-02  0.1331043E+00
         -1   -1    0    0    0  501 -0.00000000000E+00  0.00000000000E+00  0.14945746516E+01  0.14945831495E+01  0.50400000000E-02 0.  1.
          2   -1    0    0  501    0  0.00000000000E+00 -0.00000000000E+00 -0.10519422713E+04  0.10519422713E+04  0.25500000000E-02 0. -1.
         24    2    1    2    0    0  0.00000000000E+00 -0.17763568394E-14 -0.10504476966E+04  0.10534368544E+04  0.79302225220E+02 0.  0.
         66    2    3    3    0    0 -0.21992445993E+02 -0.87370998191E+01 -0.94776557948E+03  0.94806307714E+03  0.20000005291E+01 0.  0.
        -13    1    3    3    0    0  0.21992445993E+02  0.87370998191E+01 -0.10268211715E+03  0.10537377729E+03  0.10566000000E+00 0.  1.
         13    1    4    4    0    0 -0.18185348954E+01 -0.42837404221E+00 -0.74509285984E+02  0.74532780945E+02  0.10566000000E+00 0. -1.
        -13    1    4    4    0    0 -0.46479280794E+01 -0.15982240055E+01 -0.22167143926E+03  0.22172594729E+03  0.10566000000E+00 0.  1.
         14    1    4    4    0    0 -0.15525983018E+02 -0.67105017713E+01 -0.65158485424E+03  0.65180434891E+03  0.00000000000E+00 0. -1.
<mgrwt>
<rscale>  0 0.79302225E+02</rscale>
<asrwt>0</asrwt>
<pdfrwt beam="1">  1        2 0.16183668E+00 0.79302225E+02</pdfrwt>
<pdfrwt beam="2">  1       -1 0.22993606E-03 0.79302225E+02</pdfrwt>
<totfact> 0.36084024E+05</totfact>
</mgrwt>
</event>
<event>
 8    1  0.2676873E-024  0.7945097E+02  0.7818608E-02  0.1330617E+00
         -1   -1    0    0    0  501 -0.00000000000E+00  0.00000000000E+00  0.18743244927E+03  0.18743244934E+03  0.50400000000E-02 0.  1.
          2   -1    0    0  501    0  0.00000000000E+00 -0.00000000000E+00 -0.84196415323E+01  0.84196419185E+01  0.25500000000E-02 0. -1.
         24    2    1    2    0    0  0.00000000000E+00  0.00000000000E+00  0.17901280774E+03  0.19585209126E+03  0.79450967996E+02 0.  0.
         66    2    3    3    0    0  0.37372807472E+02  0.81868371152E+01  0.63433456735E+02  0.74105023191E+02  0.19999971244E+01 0.  0.
        -13    1    3    3    0    0 -0.37372807472E+02 -0.81868371152E+01  0.11557935101E+03  0.12174706807E+03  0.10566000000E+00 0.  1.
         13    1    4    4    0    0  0.15565956743E+02  0.42745579572E+01  0.27597166060E+02  0.31971637331E+02  0.10566000000E+00 0. -1.
        -13    1    4    4    0    0  0.11133278856E+02  0.20681584351E+01  0.18611720065E+02  0.21786107160E+02  0.10566000000E+00 0. -1.
        -14    1    4    4    0    0  0.10673571873E+02  0.18441207229E+01  0.17224570610E+02  0.20347278700E+02  0.00000000000E+00 0.  1.
<mgrwt>
<rscale>  0 0.79450968E+02</rscale>
<asrwt>0</asrwt>
<pdfrwt beam="1">  1        2 0.12953296E-02 0.79450968E+02</pdfrwt>
<pdfrwt beam="2">  1       -1 0.28835760E-01 0.79450968E+02</pdfrwt>
<totfact> 0.10333127E+05</totfact>
</mgrwt>
</event>
<event>
 8    1  0.2676873E-024  0.7943195E+02  0.7818608E-02  0.1330671E+00
         -1   -1    0    0    0  501 -0.00000000000E+00  0.00000000000E+00  0.11682326783E+03  0.11682326794E+03  0.50400000000E-02 0.  1.
          2   -1    0    0  501    0  0.00000000000E+00 -0.00000000000E+00 -0.13502094804E+02  0.13502095044E+02  0.25500000000E-02 0. -1.
         24    2    1    2    0    0  0.00000000000E+00 -0.11102230246E-15  0.10332117303E+03  0.13032536298E+03  0.79431954785E+02 0.  0.
         66    2    3    3    0    0  0.31676135100E+02 -0.58832015137E+00  0.12465686371E+02  0.34104501030E+02  0.19999995966E+01 0.  0.
        -13    1    3    3    0    0 -0.31676135100E+02  0.58832015137E+00  0.90855486654E+02  0.96220861951E+02  0.10566000000E+00 0.  1.
         13    1    4    4    0    0  0.14557342721E+02  0.28709419922E+00  0.49923511930E+01  0.15392640600E+02  0.10566000000E+00 0. -1.
        -13    1    4    4    0    0  0.45363951004E+01 -0.46282799865E+00  0.21746273853E+01  0.50530444847E+01  0.10566000000E+00 0.  1.
         14    1    4    4    0    0  0.12582397278E+02 -0.41258635194E+00  0.52987077924E+01  0.13658815945E+02  0.00000000000E+00 0. -1.
<mgrwt>
<rscale>  0 0.79431955E+02</rscale>
<asrwt>0</asrwt>
<pdfrwt beam="1">  1        2 0.20772454E-02 0.79431955E+02</pdfrwt>
<pdfrwt beam="2">  1       -1 0.17972810E-01 0.79431955E+02</pdfrwt>
<totfact> 0.11660746E+05</totfact>
</mgrwt>
</event>
<event>
 8    1  0.2676873E-024  0.8148460E+02  0.7818608E-02  0.1324890E+00
         -1   -1    0    0    0  501 -0.00000000000E+00  0.00000000000E+00  0.60881510923E+01  0.60881531785E+01  0.50400000000E-02 0.  1.
          2   -1    0    0  501    0  0.00000000000E+00 -0.00000000000E+00 -0.27265002336E+03  0.27265002337E+03  0.25500000000E-02 0. -1.
         24    2    1    2    0    0  0.88817841970E-15  0.00000000000E+00 -0.26656187227E+03  0.27873817655E+03  0.81484595598E+02 0.  0.
         66    2    3    3    0    0  0.34785254995E+01  0.22858228022E+02 -0.24801120980E+03  0.24909467861E+03  0.19999999085E+01 0.  0.
        -13    1    3    3    0    0 -0.34785254995E+01 -0.22858228022E+02 -0.18550662472E+02  0.29643497940E+02  0.10566000000E+00 0.  1.
         13    1    4    4    0    0  0.22987878912E+01  0.13311406509E+02 -0.13900962563E+03  0.13966447347E+03  0.10566000000E+00 0. -1.
        -13    1    4    4    0    0 -0.10466075986E+00  0.25264922692E+01 -0.30566077767E+02  0.30670676405E+02  0.10566000000E+00 0.  1.
        -14    1    4    4    0    0  0.12843983681E+01  0.70203292438E+01 -0.78435506401E+02  0.78759528733E+02  0.00000000000E+00 0.  1.
<mgrwt>
<rscale>  0 0.81484596E+02</rscale>
<asrwt>0</asrwt>
<pdfrwt beam="1">  1        2 0.41946148E-01 0.81484596E+02</pdfrwt>
<pdfrwt beam="2">  1       -1 0.93663901E-03 0.81484596E+02</pdfrwt>
<totfact> 0.23465155E+05</totfact>
</mgrwt>
</event>
<event>
 8    1  0.2676873E-024  0.7337997E+02  0.7818608E-02  0.1348962E+00
         -1   -1    0    0    0  501 -0.00000000000E+00  0.00000000000E+00  0.25299470773E+02  0.25299471275E+02  0.50400000000E-02 0.  1.
          2   -1    0    0  501    0  0.00000000000E+00 -0.00000000000E+00 -0.53208818870E+02  0.53208818931E+02  0.25500000000E-02 0. -1.
         24    2    1    2    0    0  0.88817841970E-15  0.17763568394E-14 -0.27909348097E+02  0.78508290206E+02  0.73379969473E+02 0.  0.
         66    2    3    3    0    0 -0.65951372117E+01 -0.15110761628E+02 -0.48999842653E+02  0.51737950715E+02  0.20000031095E+01 0.  0.
        -13    1    3    3    0    0  0.65951372117E+01  0.15110761628E+02  0.21090494556E+02  0.26770339491E+02  0.10566000000E+00 0.  1.
         13    1    4    4    0    0 -0.37682279166E+01 -0.73967178616E+01 -0.24174560268E+02  0.25560350251E+02  0.10566000000E+00 0. -1.
        -13    1    4    4    0    0 -0.27066169977E+01 -0.74558584609E+01 -0.24461387406E+02  0.25715486361E+02  0.10566000000E+00 0.  1.
        -14    1    4    4    0    0 -0.12029229739E+00 -0.25818530519E+00 -0.36389497894E+00  0.46211410314E+00  0.00000000000E+00 0.  1.
<mgrwt>
<rscale>  0 0.73379969E+02</rscale>
<asrwt>0</asrwt>
<pdfrwt beam="1">  1        2 0.81859721E-02 0.73379969E+02</pdfrwt>
<pdfrwt beam="2">  1       -1 0.38922263E-02 0.73379969E+02</pdfrwt>
<totfact> 0.19151240E+05</totfact>
</mgrwt>
</event>
<event>
 8    1  0.2676873E-024  0.7741158E+02  0.7818608E-02  0.1336562E+00
          2   -1    0    0  501    0  0.00000000000E+00  0.00000000000E+00  0.23548656535E+03  0.23548656536E+03  0.25500000000E-02 0. -1.
         -1   -1    0    0    0  501 -0.00000000000E+00 -0.00000000000E+00 -0.63618829335E+01  0.63618849299E+01  0.50400000000E-02 0.  1.
         24    2    1    2    0    0  0.88817841970E-15 -0.71054273576E-14  0.22912468241E+03  0.24184845029E+03  0.77411580638E+02 0.  0.
         66    2    3    3    0    0 -0.79408102404E+01  0.28717826048E+02  0.19169680003E+03  0.19400884804E+03  0.19999934626E+01 0.  0.
        -13    1    3    3    0    0  0.79408102404E+01 -0.28717826048E+02  0.37427882382E+02  0.47839602255E+02  0.10566000000E+00 0.  1.
         13    1    4    4    0    0 -0.37863000955E+01  0.10655274818E+02  0.73872742554E+02  0.74733287137E+02  0.10566000000E+00 0. -1.
        -13    1    4    4    0    0 -0.18451819392E+01  0.77206832202E+01  0.48034466658E+02  0.48686084223E+02  0.10566000000E+00 0.  1.
         14    1    4    4    0    0 -0.23093282057E+01  0.10341868010E+02  0.69789590819E+02  0.70589476676E+02  0.00000000000E+00 0. -1.
<mgrwt>
<rscale>  0 0.77411581E+02</rscale>
<asrwt>0</asrwt>
<pdfrwt beam="1">  1        2 0.36228701E-01 0.77411581E+02</pdfrwt>
<pdfrwt beam="2">  1       -1 0.97875141E-03 0.77411581E+02</pdfrwt>
<totfact> 0.25472471E+05</totfact>
</mgrwt>
</event>
<event>
 8    1  0.2676873E-024  0.7928217E+02  0.7818608E-02  0.1331101E+00
          2   -1    0    0  501    0  0.00000000000E+00  0.00000000000E+00  0.25408204475E+02  0.25408204603E+02  0.25500000000E-02 0. -1.
         -1   -1    0    0    0  501 -0.00000000000E+00 -0.00000000000E+00 -0.61846777748E+02  0.61846777953E+02  0.50400000000E-02 0.  1.
         24    2    1    2    0    0 -0.17763568394E-14  0.88817841970E-15 -0.36438573273E+02  0.87254982556E+02  0.79282169235E+02 0.  0.
         66    2    3    3    0    0  0.10246450230E+02 -0.40628256902E+01  0.23647172248E+02  0.26166487127E+02  0.19999995813E+01 0.  0.
        -13    1    3    3    0    0 -0.10246450230E+02  0.40628256902E+01 -0.60085745521E+02  0.61088495429E+02  0.10566000000E+00 0.  1.
         13    1    4    4    0    0  0.47377116114E+01 -0.11674210485E+01  0.93625795720E+01  0.10558306848E+02  0.10566000000E+00 0. -1.
        -13    1    4    4    0    0  0.37075981556E+01 -0.20138575275E+01  0.85904738308E+01  0.95712753015E+01  0.10566000000E+00 0.  1.
         14    1    4    4    0    0  0.18011404630E+01 -0.88154711420E+00  0.56941188453E+01  0.60369049774E+01  0.00000000000E+00 0. -1.
<mgrwt>
<rscale>  0 0.79282169E+02</rscale>
<asrwt>0</asrwt>
<pdfrwt beam="1">  1        2 0.39089546E-02 0.79282169E+02</pdfrwt>
<pdfrwt beam="2">  1       -1 0.95148889E-02 0.79282169E+02</pdfrwt>
<totfact> 0.13357957E+05</totfact>
</mgrwt>
</event>
<event>
 8    1  0.2676873E-024  0.8013915E+02  0.7818608E-02  0.1328657E+00
         -1   -1    0    0    0  501 -0.00000000000E+00  0.00000000000E+00  0.31015607129E+02  0.31015607538E+02  0.50400000000E-02 0.  1.
          2   -1    0    0  501    0  0.00000000000E+00 -0.00000000000E+00 -0.51766541489E+02  0.51766541552E+02  0.25500000000E-02 0. -1.
         24    2    1    2    0    0  0.35527136788E-14  0.00000000000E+00 -0.20750934360E+02  0.82782149090E+02  0.80139147307E+02 0.  0.
         66    2    3    3    0    0  0.20525963603E+02  0.10282258071E+02 -0.44274457161E+02  0.49912599323E+02  0.20000003686E+01 0.  0.
        -13    1    3    3    0    0 -0.20525963603E+02 -0.10282258071E+02  0.23523522801E+02  0.32869549767E+02  0.10566000000E+00 0.  1.
         13    1    4    4    0    0  0.89590065906E+01  0.43454192164E+01 -0.19778948843E+02  0.22144174147E+02  0.10566000000E+00 0. -1.
        -13    1    4    4    0    0  0.69188794899E+01  0.38083057554E+01 -0.13460575212E+02  0.15606804131E+02  0.10566000000E+00 0.  1.
        -14    1    4    4    0    0  0.46480775222E+01  0.21285330994E+01 -0.11034933105E+02  0.12161621045E+02  0.00000000000E+00 0.  1.
<mgrwt>
<rscale>  0 0.80139147E+02</rscale>
<asrwt>0</asrwt>
<pdfrwt beam="1">  1        2 0.79640833E-02 0.80139147E+02</pdfrwt>
<pdfrwt beam="2">  1       -1 0.47716319E-02 0.80139147E+02</pdfrwt>
<totfact> 0.14985543E+05</totfact>
</mgrwt>
</event>
<event>
 8    1  0.2676873E-024  0.7977603E+02  0.7818608E-02  0.1329688E+00
          2   -1    0    0  501    0  0.00000000000E+00  0.00000000000E+00  0.45007284554E+03  0.45007284555E+03  0.25500000000E-02 0. -1.
         -1   -1    0    0    0  501 -0.00000000000E+00 -0.00000000000E+00 -0.35351007561E+01  0.35351043489E+01  0.50400000000E-02 0.  1.
         24    2    1    2    0    0 -0.35527136788E-14  0.00000000000E+00  0.44653774479E+03  0.45360794990E+03  0.79776028306E+02 0.  0.
         66    2    3    3    0    0 -0.29878066937E+02 -0.11584846292E+02  0.35822154997E+03  0.35965759611E+03  0.20000059125E+01 0.  0.
        -13    1    3    3    0    0  0.29878066937E+02  0.11584846292E+02  0.88316194813E+02  0.93950353793E+02  0.10566000000E+00 0.  1.
         13    1    4    4    0    0 -0.51907625650E+01 -0.21044348927E+01  0.65759629214E+02  0.65997823151E+02  0.10566000000E+00 0. -1.
        -13    1    4    4    0    0 -0.16281780550E+02 -0.70047317919E+01  0.19936600012E+03  0.20015238148E+03  0.10566000000E+00 0.  1.
        -14    1    4    4    0    0 -0.84055238224E+01 -0.24756796078E+01  0.93095920643E+02  0.93507391476E+02  0.00000000000E+00 0.  1.
<mgrwt>
<rscale>  0 0.79776028E+02</rscale>
<asrwt>0</asrwt>
<pdfrwt beam="1">  1        2 0.69242017E-01 0.79776028E+02</pdfrwt>
<pdfrwt beam="2">  1       -1 0.54386162E-03 0.79776028E+02</pdfrwt>
<totfact> 0.29636047E+05</totfact>
</mgrwt>
</event>
<event>
 8    1  0.2676873E-024  0.7923336E+02  0.7818608E-02  0.1331241E+00
          2   -1    0    0  501    0  0.00000000000E+00  0.00000000000E+00  0.41349382521E+03  0.41349382522E+03  0.25500000000E-02 0. -1.
         -1   -1    0    0    0  501 -0.00000000000E+00 -0.00000000000E+00 -0.37956564785E+01  0.37956598246E+01  0.50400000000E-02 0.  1.
         24    2    1    2    0    0 -0.17763568394E-14  0.35527136788E-14  0.40969816874E+03  0.41728948505E+03  0.79233357023E+02 0.  0.
         66    2    3    3    0    0  0.80833523723E+01 -0.24408781879E+02  0.36353303746E+03  0.36444670193E+03  0.19999999718E+01 0.  0.
        -13    1    3    3    0    0 -0.80833523723E+01  0.24408781879E+02  0.46165131272E+02  0.52842783119E+02  0.10566000000E+00 0.  1.
         13    1    4    4    0    0  0.27357835887E+01 -0.95398350781E+01  0.14941253469E+03  0.14974180997E+03  0.10566000000E+00 0. -1.
        -13    1    4    4    0    0  0.74538467720E+00 -0.30115875247E+01  0.44592212055E+02  0.44700131965E+02  0.10566000000E+00 0.  1.
         14    1    4    4    0    0  0.46021841064E+01 -0.11857359276E+02  0.16952829071E+03  0.17000475999E+03  0.00000000000E+00 0. -1.
<mgrwt>
<rscale>  0 0.79233357E+02</rscale>
<asrwt>0</asrwt>
<pdfrwt beam="1">  1        2 0.63614461E-01 0.79233357E+02</pdfrwt>
<pdfrwt beam="2">  1       -1 0.58394717E-03 0.79233357E+02</pdfrwt>
<totfact> 0.29309033E+05</totfact>
</mgrwt>
</event>
<event>
 8    1  0.2676873E-024  0.7969600E+02  0.7818608E-02  0.1329916E+00
          2   -1    0    0  501    0  0.00000000000E+00  0.00000000000E+00  0.18763005471E+03  0.18763005473E+03  0.25500000000E-02 0. -1.
         -1   -1    0    0    0  501 -0.00000000000E+00 -0.00000000000E+00 -0.84627326398E+01  0.84627341406E+01  0.50400000000E-02 0.  1.
         24    2    1    2    0    0  0.00000000000E+00  0.00000000000E+00  0.17916732207E+03  0.19609278887E+03  0.79696000830E+02 0.  0.
         66    2    3    3    0    0 -0.20891009900E+02 -0.10146863329E+02  0.16923522781E+03  0.17083312160E+03  0.19999935665E+01 0.  0.
        -13    1    3    3    0    0  0.20891009900E+02  0.10146863329E+02  0.99320942636E+01  0.25259667270E+02  0.10566000000E+00 0.  1.
         13    1    4    4    0    0 -0.60101756655E+01 -0.23355944041E+01  0.46240615990E+02  0.46688145647E+02  0.10566000000E+00 0. -1.
        -13    1    4    4    0    0 -0.33248018897E+01 -0.21264350412E+01  0.25624635100E+02  0.25926996001E+02  0.10566000000E+00 0.  1.
        -14    1    4    4    0    0 -0.11556032345E+02 -0.56848338840E+01  0.97369976719E+02  0.98217979953E+02  0.00000000000E+00 0.  1.
<mgrwt>
<rscale>  0 0.79696001E+02</rscale>
<asrwt>0</asrwt>
<pdfrwt beam="1">  1        2 0.28866159E-01 0.79696001E+02</pdfrwt>
<pdfrwt beam="2">  1       -1 0.13019592E-02 0.79696001E+02</pdfrwt>
<totfact> 0.21795974E+05</totfact>
</mgrwt>
</event>
<event>
 8    1  0.2676873E-024  0.8028566E+02  0.7818608E-02  0.1328243E+00
          2   -1    0    0  501    0  0.00000000000E+00  0.00000000000E+00  0.13945673714E+04  0.13945673714E+04  0.25500000000E-02 0. -1.
         -1   -1    0    0    0  501 -0.00000000000E+00 -0.00000000000E+00 -0.11555119250E+01  0.11555229164E+01  0.50400000000E-02 0.  1.
         24    2    1    2    0    0  0.17763568394E-14  0.00000000000E+00  0.13934118595E+04  0.13957228943E+04  0.80285662479E+02 0.  0.
         66    2    3    3    0    0  0.10006724841E+02  0.21524684222E+02  0.12593826984E+04  0.12596079659E+04  0.19999997122E+01 0.  0.
        -13    1    3    3    0    0 -0.10006724841E+02 -0.21524684222E+02  0.13402916107E+03  0.13611492847E+03  0.10566000000E+00 0.  1.
         13    1    4    4    0    0  0.66056829848E+01  0.15762613535E+02  0.92019645549E+03  0.92035516128E+03  0.10566000000E+00 0. -1.
        -13    1    4    4    0    0  0.18106012646E+01  0.28672935854E+01  0.15744142637E+03  0.15747797799E+03  0.10566000000E+00 0.  1.
         14    1    4    4    0    0  0.15904405920E+01  0.28947771022E+01  0.18174481655E+03  0.18177482658E+03  0.00000000000E+00 0. -1.
<mgrwt>
<rscale>  0 0.80285662E+02</rscale>
<asrwt>0</asrwt>
<pdfrwt beam="1">  1        2 0.21454924E+00 0.80285662E+02</pdfrwt>
<pdfrwt beam="2">  1       -1 0.17777157E-03 0.80285662E+02</pdfrwt>
<totfact> 0.33736900E+05</totfact>
</mgrwt>
</event>
<event>
 8    1  0.2676873E-024  0.7935689E+02  0.7818608E-02  0.1330886E+00
         -1   -1    0    0    0  501 -0.00000000000E+00  0.00000000000E+00  0.59582837773E+00  0.59584969355E+00  0.50400000000E-02 0.  1.
          2   -1    0    0  501    0  0.00000000000E+00 -0.00000000000E+00 -0.26422891185E+04  0.26422891185E+04  0.25500000000E-02 0. -1.
         24    2    1    2    0    0  0.00000000000E+00  0.00000000000E+00 -0.26416932901E+04  0.26428849682E+04  0.79356890268E+02 0.  0.
         66    2    3    3    0    0 -0.10218990968E+01 -0.12178817746E+02 -0.25779938342E+04  0.25780235796E+04  0.20000017947E+01 0.  0.
        -13    1    3    3    0    0  0.10218990968E+01  0.12178817746E+02 -0.63699455930E+02  0.64861388586E+02  0.10566000000E+00 0.  1.
         13    1    4    4    0    0  0.45649223107E+00 -0.27145875389E+01 -0.55625374802E+03  0.55626056909E+03  0.10566000000E+00 0. -1.
        -13    1    4    4    0    0 -0.97624094981E+00 -0.71839825266E+01 -0.16059902100E+04  0.16060065779E+04  0.10566000000E+00 0.  1.
        -14    1    4    4    0    0 -0.50215037803E+00 -0.22802476808E+01 -0.41574987623E+03  0.41575643262E+03  0.00000000000E+00 0.  1.
<mgrwt>
<rscale>  0 0.79356890E+02</rscale>
<asrwt>0</asrwt>
<pdfrwt beam="1">  1        2 0.40649664E+00 0.79356890E+02</pdfrwt>
<pdfrwt beam="2">  1       -1 0.91669660E-04 0.79356890E+02</pdfrwt>
<totfact> 0.19458907E+05</totfact>
</mgrwt>
</event>
<event>
 8    1  0.2676873E-024  0.8033646E+02  0.7818608E-02  0.1328099E+00
         -1   -1    0    0    0  501 -0.00000000000E+00  0.00000000000E+00  0.40407412681E+02  0.40407412995E+02  0.50400000000E-02 0.  1.
          2   -1    0    0  501    0  0.00000000000E+00 -0.00000000000E+00 -0.39930463457E+02  0.39930463539E+02  0.25500000000E-02 0. -1.
         24    2    1    2    0    0  0.00000000000E+00  0.35527136788E-14  0.47694922336E+00  0.80337876534E+02  0.80336460747E+02 0.  0.
         66    2    3    3    0    0 -0.22692745001E+02 -0.18213798097E+02 -0.27416496844E+02  0.40029581924E+02  0.20000032543E+01 0.  0.
        -13    1    3    3    0    0  0.22692745001E+02  0.18213798097E+02  0.27893446068E+02  0.40308294610E+02  0.10566000000E+00 0.  1.
         13    1    4    4    0    0 -0.45914338447E+00 -0.59997045358E+00 -0.76133551090E+00  0.10777629556E+01  0.10566000000E+00 0.  1.
        -13    1    4    4    0    0 -0.77736389393E+01 -0.58302561462E+01 -0.10022489867E+02  0.13960043562E+02  0.10566000000E+00 0. -1.
         14    1    4    4    0    0 -0.14459962677E+02 -0.11783571497E+02 -0.16632671466E+02  0.24991775406E+02  0.00000000000E+00 0. -1.
<mgrwt>
<rscale>  0 0.80336461E+02</rscale>
<asrwt>0</asrwt>
<pdfrwt beam="1">  1        2 0.61431483E-02 0.80336461E+02</pdfrwt>
<pdfrwt beam="2">  1       -1 0.62165251E-02 0.80336461E+02</pdfrwt>
<totfact> 0.14085697E+05</totfact>
</mgrwt>
</event>
<event>
 8    1  0.2676873E-024  0.8172547E+02  0.7818608E-02  0.1324225E+00
          2   -1    0    0  501    0  0.00000000000E+00  0.00000000000E+00  0.28007136951E+02  0.28007137067E+02  0.25500000000E-02 0. -1.
         -1   -1    0    0    0  501 -0.00000000000E+00 -0.00000000000E+00 -0.59619203765E+02  0.59619203978E+02  0.50400000000E-02 0.  1.
         24    2    1    2    0    0  0.00000000000E+00 -0.35527136788E-14 -0.31612066814E+02  0.87626341045E+02  0.81725472631E+02 0.  0.
         66    2    3    3    0    0  0.31365215039E+02 -0.26137925688E+02 -0.14862261211E+02  0.43495455879E+02  0.20000000144E+01 0.  0.
        -13    1    3    3    0    0 -0.31365215039E+02  0.26137925688E+02 -0.16749805604E+02  0.44130885166E+02  0.10566000000E+00 0.  1.
         13    1    4    4    0    0  0.76073161467E+01 -0.68452887466E+01 -0.32548666147E+01  0.10739392799E+02  0.10566000000E+00 0. -1.
        -13    1    4    4    0    0  0.68001586975E+01 -0.54390144482E+01 -0.39027045386E+01  0.95429190099E+01  0.10566000000E+00 0.  1.
         14    1    4    4    0    0  0.16957740195E+02 -0.13853622494E+02 -0.77046900573E+01  0.23213144070E+02  0.00000000000E+00 0. -1.
<mgrwt>
<rscale>  0 0.81725473E+02</rscale>
<asrwt>0</asrwt>
<pdfrwt beam="1">  1        2 0.43087903E-02 0.81725473E+02</pdfrwt>
<pdfrwt beam="2">  1       -1 0.91721852E-02 0.81725473E+02</pdfrwt>
<totfact> 0.12499318E+05</totfact>
</mgrwt>
</event>
<event>
 8    1  0.2676873E-024  0.7707858E+02  0.7818608E-02  0.1337553E+00
          2   -1    0    0  501    0  0.00000000000E+00  0.00000000000E+00  0.14241376324E+03  0.14241376326E+03  0.25500000000E-02 0. -1.
         -1   -1    0    0    0  501 -0.00000000000E+00 -0.00000000000E+00 -0.10429306030E+02  0.10429307248E+02  0.50400000000E-02 0.  1.
         24    2    1    2    0    0 -0.35527136788E-14  0.00000000000E+00  0.13198445721E+03  0.15284307051E+03  0.77078578462E+02 0.  0.
         66    2    3    3    0    0  0.28088149414E+02  0.18363824041E+02  0.28564645947E+02  0.44114772921E+02  0.20000052288E+01 0.  0.
        -13    1    3    3    0    0 -0.28088149414E+02 -0.18363824041E+02  0.10341981126E+03  0.10872829758E+03  0.10566000000E+00 0.  1.
         13    1    4    4    0    0  0.11861376850E+02  0.71722364239E+01  0.12625740254E+02  0.18749765788E+02  0.10566000000E+00 0. -1.
        -13    1    4    4    0    0  0.14097479990E+02  0.93905157205E+01  0.13513681236E+02  0.21669136396E+02  0.10566000000E+00 0.  1.
        -14    1    4    4    0    0  0.21292925734E+01  0.18010718962E+01  0.24252244574E+01  0.36958707374E+01  0.00000000000E+00 0.  1.
<mgrwt>
<rscale>  0 0.77078578E+02</rscale>
<asrwt>0</asrwt>
<pdfrwt beam="1">  1        2 0.21909810E-01 0.77078578E+02</pdfrwt>
<pdfrwt beam="2">  1       -1 0.16045087E-02 0.77078578E+02</pdfrwt>
<totfact> 0.21742246E+05</totfact>
</mgrwt>
</event>
<event>
 8    1  0.2676873E-024  0.7704833E+02  0.7818608E-02  0.1337643E+00
         -1   -1    0    0    0  501 -0.00000000000E+00  0.00000000000E+00  0.13250628817E+03  0.13250628826E+03  0.50400000000E-02 0.  1.
          2   -1    0    0  501    0  0.00000000000E+00 -0.00000000000E+00 -0.11200307449E+02  0.11200307739E+02  0.25500000000E-02 0. -1.
         24    2    1    2    0    0  0.00000000000E+00  0.00000000000E+00  0.12130598072E+03  0.14370659600E+03  0.77048327538E+02 0.  0.
         66    2    3    3    0    0 -0.25062991417E+02  0.14239663321E+02  0.13098276775E+02  0.31725169386E+02  0.19999919604E+01 0.  0.
        -13    1    3    3    0    0  0.25062991417E+02 -0.14239663321E+02  0.10820770394E+03  0.11198142661E+03  0.10566000000E+00 0.  1.
         13    1    4    4    0    0 -0.19490487200E+02  0.10808600084E+02  0.94353100884E+01  0.24202090149E+02  0.10566000000E+00 0. -1.
        -13    1    4    4    0    0 -0.74311197249E+00  0.45180016572E+00  0.70168249220E+00  0.11224353651E+01  0.10566000000E+00 0.  1.
        -14    1    4    4    0    0 -0.48293922441E+01  0.29792630713E+01  0.29612841946E+01  0.64006438721E+01  0.00000000000E+00 0.  1.
<mgrwt>
<rscale>  0 0.77048328E+02</rscale>
<asrwt>0</asrwt>
<pdfrwt beam="1">  1        2 0.17231242E-02 0.77048328E+02</pdfrwt>
<pdfrwt beam="2">  1       -1 0.20385584E-01 0.77048328E+02</pdfrwt>
<totfact> 0.12226934E+05</totfact>
</mgrwt>
</event>
<event>
 8    1  0.2676873E-024  0.8214753E+02  0.7818608E-02  0.1323065E+00
          2   -1    0    0  501    0  0.00000000000E+00  0.00000000000E+00  0.42064126632E+03  0.42064126632E+03  0.25500000000E-02 0. -1.
         -1   -1    0    0    0  501 -0.00000000000E+00 -0.00000000000E+00 -0.40106701818E+01  0.40106733485E+01  0.50400000000E-02 0.  1.
         24    2    1    2    0    0  0.00000000000E+00  0.35527136788E-14  0.41663059613E+03  0.42465193967E+03  0.82147527244E+02 0.  0.
         66    2    3    3    0    0 -0.31372220961E+02  0.20005204045E+02  0.29806791569E+03  0.30038792721E+03  0.20000020613E+01 0.  0.
        -13    1    3    3    0    0  0.31372220961E+02 -0.20005204045E+02  0.11856268044E+03  0.12426401247E+03  0.10566000000E+00 0.  1.
         13    1    4    4    0    0 -0.10202755006E+02  0.66774983462E+01  0.96162035546E+02  0.96932107365E+02  0.10566000000E+00 0. -1.
        -13    1    4    4    0    0 -0.20086083918E+02  0.12626527343E+02  0.19398962260E+03  0.19543506543E+03  0.10566000000E+00 0.  1.
        -14    1    4    4    0    0 -0.10833820371E+01  0.70117835591E+00  0.79162575535E+01  0.80207544146E+01  0.00000000000E+00 0.  1.
<mgrwt>
<rscale>  0 0.82147527E+02</rscale>
<asrwt>0</asrwt>
<pdfrwt beam="1">  1        2 0.64713994E-01 0.82147527E+02</pdfrwt>
<pdfrwt beam="2">  1       -1 0.61702687E-03 0.82147527E+02</pdfrwt>
<totfact> 0.26827566E+05</totfact>
</mgrwt>
</event>
<event>
 8    1  0.2676873E-024  0.8689776E+02  0.7818608E-02  0.1310543E+00
         -1   -1    0    0    0  501 -0.00000000000E+00  0.00000000000E+00  0.30483795174E+01  0.30483836838E+01  0.50400000000E-02 0.  1.
          2   -1    0    0  501    0  0.00000000000E+00 -0.00000000000E+00 -0.61928116879E+03  0.61928116879E+03  0.25500000000E-02 0. -1.
         24    2    1    2    0    0  0.00000000000E+00  0.00000000000E+00 -0.61623278927E+03  0.62232955248E+03  0.86897763573E+02 0.  0.
         66    2    3    3    0    0 -0.15166593233E+02  0.21469892292E+02 -0.55582906918E+03  0.55645389392E+03  0.20000224266E+01 0.  0.
        -13    1    3    3    0    0  0.15166593233E+02 -0.21469892292E+02 -0.60403720092E+02  0.65875658557E+02  0.10566000000E+00 0.  1.
         13    1    4    4    0    0 -0.25477392388E+01  0.49263136314E+01 -0.11971074709E+03  0.11983919924E+03  0.10566000000E+00 0. -1.
        -13    1    4    4    0    0 -0.60897558152E+01  0.77182127993E+01 -0.20203130764E+03  0.20227040408E+03  0.10566000000E+00 0.  1.
        -14    1    4    4    0    0 -0.65290981786E+01  0.88253658612E+01 -0.23408701444E+03  0.23434429060E+03  0.00000000000E+00 0.  1.
<mgrwt>
<rscale>  0 0.86897764E+02</rscale>
<asrwt>0</asrwt>
<pdfrwt beam="1">  1        2 0.95273926E-01 0.86897764E+02</pdfrwt>
<pdfrwt beam="2">  1       -1 0.46898228E-03 0.86897764E+02</pdfrwt>
<totfact> 0.26139684E+05</totfact>
</mgrwt>
</event>
<event>
 8    1  0.2676873E-024  0.7903291E+02  0.7818608E-02  0.1331819E+00
          2   -1    0    0  501    0  0.00000000000E+00  0.00000000000E+00  0.30215181769E+02  0.30215181876E+02  0.25500000000E-02 0. -1.
         -1   -1    0    0    0  501 -0.00000000000E+00 -0.00000000000E+00 -0.51680974397E+02  0.51680974643E+02  0.50400000000E-02 0.  1.
         24    2    1    2    0    0  0.00000000000E+00  0.00000000000E+00 -0.21465792628E+02  0.81896156519E+02  0.79032905802E+02 0.  0.
         66    2    3    3    0    0 -0.14376349815E+01 -0.28578030283E+02  0.17463462610E+02  0.33581886508E+02  0.19999914775E+01 0.  0.
        -13    1    3    3    0    0  0.14376349815E+01  0.28578030283E+02 -0.38929255239E+02  0.48314270011E+02  0.10566000000E+00 0.  1.
         13    1    4    4    0    0 -0.56861102836E+00 -0.13462047805E+02  0.87615725515E+01  0.16072534561E+02  0.10566000000E+00 0. -1.
        -13    1    4    4    0    0  0.60333752309E-01 -0.95539484501E+01  0.54894645814E+01  0.11019390027E+02  0.10566000000E+00 0.  1.
         14    1    4    4    0    0 -0.92935770540E+00 -0.55620340278E+01  0.32124254773E+01  0.64899619196E+01  0.00000000000E+00 0. -1.
<mgrwt>
<rscale>  0 0.79032906E+02</rscale>
<asrwt>0</asrwt>
<pdfrwt beam="1">  1        2 0.46484895E-02 0.79032906E+02</pdfrwt>
<pdfrwt beam="2">  1       -1 0.79509192E-02 0.79032906E+02</pdfrwt>
<totfact> 0.13940801E+05</totfact>
</mgrwt>
</event>
<event>
 8    1  0.2676873E-024  0.7859844E+02  0.7818608E-02  0.1333077E+00
         -1   -1    0    0    0  501 -0.00000000000E+00  0.00000000000E+00  0.52446328240E+02  0.52446328482E+02  0.50400000000E-02 0.  1.
          2   -1    0    0  501    0  0.00000000000E+00 -0.00000000000E+00 -0.29447795626E+02  0.29447795737E+02  0.25500000000E-02 0. -1.
         24    2    1    2    0    0 -0.35527136788E-14  0.88817841970E-15  0.22998532614E+02  0.81894124219E+02  0.78598441964E+02 0.  0.
         66    2    3    3    0    0 -0.29555336625E+02  0.49937966046E+01 -0.14933885176E+02  0.33548127374E+02  0.19999990723E+01 0.  0.
        -13    1    3    3    0    0  0.29555336625E+02 -0.49937966046E+01  0.37932417790E+02  0.48345996845E+02  0.10566000000E+00 0.  1.
         13    1    4    4    0    0 -0.59564347040E+01  0.61118214533E+00 -0.26736872894E+01  0.65583859108E+01  0.10566000000E+00 0. -1.
        -13    1    4    4    0    0 -0.18250862506E+02  0.34969859741E+01 -0.88260133602E+01  0.20572616970E+02  0.10566000000E+00 0.  1.
        -14    1    4    4    0    0 -0.53480394142E+01  0.88562848516E+00 -0.34341845268E+01  0.64171244927E+01  0.00000000000E+00 0.  1.
<mgrwt>
<rscale>  0 0.78598442E+02</rscale>
<asrwt>0</asrwt>
<pdfrwt beam="1">  1        2 0.45304301E-02 0.78598442E+02</pdfrwt>
<pdfrwt beam="2">  1       -1 0.80686659E-02 0.78598442E+02</pdfrwt>
<totfact> 0.14086474E+05</totfact>
</mgrwt>
</event>
<event>
 8    1  0.2676873E-024  0.7817550E+02  0.7818608E-02  0.1334310E+00
          2   -1    0    0  501    0  0.00000000000E+00  0.00000000000E+00  0.42278597607E+03  0.42278597608E+03  0.25500000000E-02 0. -1.
         -1   -1    0    0    0  501 -0.00000000000E+00 -0.00000000000E+00 -0.36137704228E+01  0.36137739373E+01  0.50400000000E-02 0.  1.
         24    2    1    2    0    0  0.00000000000E+00  0.00000000000E+00  0.41917220565E+03  0.42639975001E+03  0.78175500163E+02 0.  0.
         66    2    3    3    0    0  0.19314771505E+02 -0.30253034313E+02  0.29378792716E+03  0.29597914221E+03  0.19999993005E+01 0.  0.
        -13    1    3    3    0    0 -0.19314771505E+02  0.30253034313E+02  0.12538427849E+03  0.13042060780E+03  0.10566000000E+00 0.  1.
         13    1    4    4    0    0  0.13766491332E+02 -0.22880011911E+02  0.21857177126E+03  0.22019682465E+03  0.10566000000E+00 0. -1.
        -13    1    4    4    0    0  0.17814585561E+01 -0.22390904553E+01  0.21367932052E+02  0.21558914742E+02  0.10566000000E+00 0.  1.
         14    1    4    4    0    0  0.37668216169E+01 -0.51339319471E+01  0.53848223842E+02  0.54223402819E+02  0.00000000000E+00 0. -1.
<mgrwt>
<rscale>  0 0.78175500E+02</rscale>
<asrwt>0</asrwt>
<pdfrwt beam="1">  1        2 0.65043965E-01 0.78175500E+02</pdfrwt>
<pdfrwt beam="2">  1       -1 0.55596522E-03 0.78175500E+02</pdfrwt>
<totfact> 0.30587384E+05</totfact>
</mgrwt>
</event>
<event>
 8    1  0.2676873E-024  0.7226638E+02  0.7818608E-02  0.1352551E+00
          2   -1    0    0  501    0  0.00000000000E+00  0.00000000000E+00  0.62159210527E+01  0.62159215757E+01  0.25500000000E-02 0. -1.
         -1   -1    0    0    0  501 -0.00000000000E+00 -0.00000000000E+00 -0.21004246656E+03  0.21004246662E+03  0.50400000000E-02 0.  1.
         24    2    1    2    0    0  0.00000000000E+00  0.00000000000E+00 -0.20382654551E+03  0.21625838820E+03  0.72266380924E+02 0.  0.
         66    2    3    3    0    0 -0.64601256889E+01  0.35250076880E+02 -0.88843948969E+02  0.95820396621E+02  0.19999990648E+01 0.  0.
        -13    1    3    3    0    0  0.64601256889E+01 -0.35250076880E+02 -0.11498259654E+03  0.12043799158E+03  0.10566000000E+00 0.  1.
         13    1    4    4    0    0 -0.16704144795E+01  0.74733788069E+01 -0.18794822798E+02  0.20295275395E+02  0.10566000000E+00 0. -1.
        -13    1    4    4    0    0 -0.26810745648E+01  0.11415243718E+02 -0.30146744221E+02  0.32347075619E+02  0.10566000000E+00 0.  1.
        -14    1    4    4    0    0 -0.21086366445E+01  0.16361454355E+02 -0.39902381950E+02  0.43178045607E+02  0.00000000000E+00 0.  1.
<mgrwt>
<rscale>  0 0.72266381E+02</rscale>
<asrwt>0</asrwt>
<pdfrwt beam="1">  1        2 0.95629575E-03 0.72266381E+02</pdfrwt>
<pdfrwt beam="2">  1       -1 0.32314220E-01 0.72266381E+02</pdfrwt>
<totfact> 0.12703205E+05</totfact>
</mgrwt>
</event>
<event>
 8    1  0.2676873E-024  0.8931707E+02  0.7818608E-02  0.1304514E+00
         -1   -1    0    0    0  501 -0.00000000000E+00  0.00000000000E+00  0.68025912179E+01  0.68025930849E+01  0.50400000000E-02 0.  1.
          2   -1    0    0  501    0  0.00000000000E+00 -0.00000000000E+00 -0.29318009906E+03  0.29318009907E+03  0.25500000000E-02 0. -1.
         24    2    1    2    0    0  0.00000000000E+00 -0.88817841970E-15 -0.28637750784E+03  0.29998269215E+03  0.89317067771E+02 0.  0.
         66    2    3    3    0    0 -0.94791386280E+01 -0.58763561204E+01 -0.28842118935E+03  0.28864366977E+03  0.20000000430E+01 0.  0.
        -13    1    3    3    0    0  0.94791386280E+01  0.58763561204E+01  0.20436815158E+01  0.11339022381E+02  0.10566000000E+00 0.  1.
         13    1    4    4    0    0 -0.40612680738E+01 -0.24222765113E+01 -0.13608973189E+03  0.13617190463E+03  0.10566000000E+00 0.  1.
        -13    1    4    4    0    0 -0.18247718348E+01 -0.18492617148E+01 -0.57936377083E+02  0.57994693850E+02  0.10566000000E+00 0. -1.
         14    1    4    4    0    0 -0.35930987194E+01 -0.16048178943E+01 -0.94395080381E+02  0.94477071287E+02  0.00000000000E+00 0. -1.
<mgrwt>
<rscale>  0 0.89317068E+02</rscale>
<asrwt>0</asrwt>
<pdfrwt beam="1">  1        2 0.45104621E-01 0.89317068E+02</pdfrwt>
<pdfrwt beam="2">  1       -1 0.10465529E-02 0.89317068E+02</pdfrwt>
<totfact> 0.18908580E+05</totfact>
</mgrwt>
</event>
<event>
 8    1  0.2676873E-024  0.7376925E+02  0.7818608E-02  0.1347725E+00
          2   -1    0    0  501    0  0.00000000000E+00  0.00000000000E+00  0.16551674398E+02  0.16551674595E+02  0.25500000000E-02 0. -1.
         -1   -1    0    0    0  501 -0.00000000000E+00 -0.00000000000E+00 -0.82195643414E+02  0.82195643569E+02  0.50400000000E-02 0.  1.
         24    2    1    2    0    0  0.00000000000E+00 -0.35527136788E-14 -0.65643969016E+02  0.98747318163E+02  0.73769249530E+02 0.  0.
         66    2    3    3    0    0 -0.18102445725E+01  0.28917862797E+02 -0.63339950572E+02  0.69681196317E+02  0.20000019123E+01 0.  0.
        -13    1    3    3    0    0  0.18102445725E+01 -0.28917862797E+02 -0.23040184444E+01  0.29066121846E+02  0.10566000000E+00 0.  1.
         13    1    4    4    0    0 -0.10110747404E+01  0.19361583857E+02 -0.44182677023E+02  0.48249490303E+02  0.10566000000E+00 0. -1.
        -13    1    4    4    0    0 -0.27482113998E+00  0.25829600762E+01 -0.57465594866E+01  0.63072434061E+01  0.10566000000E+00 0.  1.
        -14    1    4    4    0    0 -0.52434869211E+00  0.69733188636E+01 -0.13410714062E+02  0.15124462608E+02  0.00000000000E+00 0.  1.
<mgrwt>
<rscale>  0 0.73769250E+02</rscale>
<asrwt>0</asrwt>
<pdfrwt beam="1">  1        2 0.25464115E-02 0.73769250E+02</pdfrwt>
<pdfrwt beam="2">  1       -1 0.12645483E-01 0.73769250E+02</pdfrwt>
<totfact> 0.15086444E+05</totfact>
</mgrwt>
</event>
<event>
 8    1  0.2676873E-024  0.8126339E+02  0.7818608E-02  0.1325504E+00
         -1   -1    0    0    0  501 -0.00000000000E+00  0.00000000000E+00  0.37982793286E+02  0.37982793620E+02  0.50400000000E-02 0.  1.
          2   -1    0    0  501    0  0.00000000000E+00 -0.00000000000E+00 -0.43465326393E+02  0.43465326468E+02  0.25500000000E-02 0. -1.
         24    2    1    2    0    0  0.00000000000E+00  0.00000000000E+00 -0.54825331068E+01  0.81448120088E+02  0.81263387184E+02 0.  0.
         66    2    3    3    0    0 -0.91981816247E+01  0.15097820106E+02 -0.39382540526E+02  0.43214988066E+02  0.19999945308E+01 0.  0.
        -13    1    3    3    0    0  0.91981816247E+01 -0.15097820106E+02  0.33900007419E+02  0.38233132022E+02  0.10566000000E+00 0.  1.
         13    1    4    4    0    0 -0.24134140173E+01  0.40418833561E+01 -0.10197480586E+02  0.11232148620E+02  0.10566000000E+00 0. -1.
        -13    1    4    4    0    0 -0.47104580305E+01  0.65662814966E+01 -0.19489886233E+02  0.21099082847E+02  0.10566000000E+00 0.  1.
        -14    1    4    4    0    0 -0.20743095769E+01  0.44896552532E+01 -0.96951737064E+01  0.10883756599E+02  0.00000000000E+00 0.  1.
<mgrwt>
<rscale>  0 0.81263387E+02</rscale>
<asrwt>0</asrwt>
<pdfrwt beam="1">  1        2 0.66869733E-02 0.81263387E+02</pdfrwt>
<pdfrwt beam="2">  1       -1 0.58435067E-02 0.81263387E+02</pdfrwt>
<totfact> 0.13889640E+05</totfact>
</mgrwt>
</event>
<event>
 8    1  0.2676873E-024  0.7902720E+02  0.7818608E-02  0.1331835E+00
          2   -1    0    0  501    0  0.00000000000E+00  0.00000000000E+00  0.38277325514E+02  0.38277325599E+02  0.25500000000E-02 0. -1.
         -1   -1    0    0    0  501 -0.00000000000E+00 -0.00000000000E+00 -0.40789800082E+02  0.40789800394E+02  0.50400000000E-02 0.  1.
         24    2    1    2    0    0  0.11102230246E-15  0.17763568394E-14 -0.25124745687E+01  0.79067125993E+02  0.79027197118E+02 0.  0.
         66    2    3    3    0    0 -0.67820780445E+00 -0.10615560245E+02  0.36790709031E+02  0.38349789510E+02  0.19999998400E+01 0.  0.
        -13    1    3    3    0    0  0.67820780445E+00  0.10615560245E+02 -0.39303183599E+02  0.40717336482E+02  0.10566000000E+00 0.  1.
         13    1    4    4    0    0 -0.22770765001E+00 -0.27134628198E+01  0.75416321220E+01  0.80188596663E+01  0.10566000000E+00 0. -1.
        -13    1    4    4    0    0  0.21885200932E+00 -0.59035241906E+01  0.20798538541E+02  0.21621513905E+02  0.10566000000E+00 0.  1.
         14    1    4    4    0    0 -0.66935216376E+00 -0.19985732349E+01  0.84505383673E+01  0.87094159386E+01  0.00000000000E+00 0. -1.
<mgrwt>
<rscale>  0 0.79027197E+02</rscale>
<asrwt>0</asrwt>
<pdfrwt beam="1">  1        2 0.58888193E-02 0.79027197E+02</pdfrwt>
<pdfrwt beam="2">  1       -1 0.62753539E-02 0.79027197E+02</pdfrwt>
<totfact> 0.14613894E+05</totfact>
</mgrwt>
</event>
<event>
 8    1  0.2676873E-024  0.8189689E+02  0.7818608E-02  0.1323753E+00
         -1   -1    0    0    0  501 -0.00000000000E+00  0.00000000000E+00  0.20644302505E+01  0.20644364027E+01  0.50400000000E-02 0.  1.
          2   -1    0    0  501    0  0.00000000000E+00 -0.00000000000E+00 -0.81222055609E+03  0.81222055609E+03  0.25500000000E-02 0. -1.
         24    2    1    2    0    0 -0.44408920985E-15 -0.17763568394E-14 -0.81015612584E+03  0.81428499250E+03  0.81896891088E+02 0.  0.
         66    2    3    3    0    0 -0.39836536685E+01 -0.95754002034E+01 -0.79893515466E+03  0.79900496815E+03  0.20000005056E+01 0.  0.
        -13    1    3    3    0    0  0.39836536685E+01  0.95754002034E+01 -0.11220971183E+02  0.15280024343E+02  0.10566000000E+00 0.  1.
         13    1    4    4    0    0 -0.38689275080E+01 -0.73053807330E+01 -0.62046764999E+03  0.62052272564E+03  0.10566000000E+00 0. -1.
        -13    1    4    4    0    0  0.84241172164E-02 -0.51593139584E+00 -0.35015715555E+02  0.35019676698E+02  0.10566000000E+00 0.  1.
         14    1    4    4    0    0 -0.12315027773E+00 -0.17540880745E+01 -0.14345178911E+03  0.14346256582E+03  0.00000000000E+00 0. -1.
<mgrwt>
<rscale>  0 0.81896891E+02</rscale>
<asrwt>0</asrwt>
<pdfrwt beam="1">  1        2 0.12495675E+00 0.81896891E+02</pdfrwt>
<pdfrwt beam="2">  1       -1 0.31760578E-03 0.81896891E+02</pdfrwt>
<totfact> 0.32416673E+05</totfact>
</mgrwt>
</event>
<event>
 8    1  0.2676873E-024  0.7136591E+02  0.7818608E-02  0.1355509E+00
          2   -1    0    0  501    0  0.00000000000E+00  0.00000000000E+00  0.12720358134E+03  0.12720358136E+03  0.25500000000E-02 0. -1.
         -1   -1    0    0    0  501 -0.00000000000E+00 -0.00000000000E+00 -0.10009727071E+02  0.10009728340E+02  0.50400000000E-02 0.  1.
         24    2    1    2    0    0  0.00000000000E+00  0.88817841970E-15  0.11719385427E+03  0.13721330970E+03  0.71365908401E+02 0.  0.
         66    2    3    3    0    0 -0.17260526532E+02  0.56129470352E+01  0.11764844561E+03  0.11905707750E+03  0.19999994593E+01 0.  0.
        -13    1    3    3    0    0  0.17260526532E+02 -0.56129470352E+01 -0.45459134117E+00  0.18156232205E+02  0.10566000000E+00 0.  1.
         13    1    4    4    0    0 -0.18938474224E+01  0.43357813673E+00  0.11901342885E+02  0.12059343870E+02  0.10566000000E+00 0. -1.
        -13    1    4    4    0    0 -0.65315782003E+01  0.23877104141E+01  0.39847880609E+02  0.40450308131E+02  0.10566000000E+00 0.  1.
         14    1    4    4    0    0 -0.88351009090E+01  0.27916584844E+01  0.65899222113E+02  0.66547425497E+02  0.00000000000E+00 0. -1.
<mgrwt>
<rscale>  0 0.71365908E+02</rscale>
<asrwt>0</asrwt>
<pdfrwt beam="1">  1        2 0.19569782E-01 0.71365908E+02</pdfrwt>
<pdfrwt beam="2">  1       -1 0.15399581E-02 0.71365908E+02</pdfrwt>
<totfact> 0.25722348E+05</totfact>
</mgrwt>
</event>
<event>
 8    1  0.2676873E-024  0.7565111E+02  0.7818608E-02  0.1341867E+00
          2   -1    0    0  501    0  0.00000000000E+00  0.00000000000E+00  0.28037256331E+03  0.28037256332E+03  0.25500000000E-02 0. -1.
         -1   -1    0    0    0  501 -0.00000000000E+00 -0.00000000000E+00 -0.51031113934E+01  0.51031138823E+01  0.50400000000E-02 0.  1.
         24    2    1    2    0    0 -0.35527136788E-14  0.00000000000E+00  0.27526945192E+03  0.28547567721E+03  0.75651114444E+02 0.  0.
         66    2    3    3    0    0  0.27146604969E+02  0.10103490478E+01  0.23691262847E+03  0.23847337901E+03  0.20000004111E+01 0.  0.
        -13    1    3    3    0    0 -0.27146604969E+02 -0.10103490478E+01  0.38356823449E+02  0.47002298195E+02  0.10566000000E+00 0.  1.
         13    1    4    4    0    0  0.19918854530E+02  0.11867344995E+01  0.17127454549E+03  0.17243303106E+03  0.10566000000E+00 0. -1.
        -13    1    4    4    0    0  0.79342820265E+00  0.12977701141E+00  0.57662921450E+01  0.58230283807E+01  0.10566000000E+00 0.  1.
         14    1    4    4    0    0  0.64343222361E+01 -0.30616246314E+00  0.59871790836E+02  0.60217319569E+02  0.00000000000E+00 0. -1.
<mgrwt>
<rscale>  0 0.75651114E+02</rscale>
<asrwt>0</asrwt>
<pdfrwt beam="1">  1        2 0.43134252E-01 0.75651114E+02</pdfrwt>
<pdfrwt beam="2">  1       -1 0.78509405E-03 0.75651114E+02</pdfrwt>
<totfact> 0.28795614E+05</totfact>
</mgrwt>
</event>
<event>
 8    1  0.2676873E-024  0.7680419E+02  0.7818608E-02  0.1338373E+00
          2   -1    0    0  501    0  0.00000000000E+00  0.00000000000E+00  0.57722607205E+02  0.57722607261E+02  0.25500000000E-02 0. -1.
         -1   -1    0    0    0  501 -0.00000000000E+00 -0.00000000000E+00 -0.25548407605E+02  0.25548408103E+02  0.50400000000E-02 0.  1.
         24    2    1    2    0    0  0.00000000000E+00  0.00000000000E+00  0.32174199599E+02  0.83271015364E+02  0.76804185302E+02 0.  0.
         66    2    3    3    0    0  0.22950702451E+02 -0.29747392498E+02  0.24570956649E+02  0.44937445601E+02  0.20000007726E+01 0.  0.
        -13    1    3    3    0    0 -0.22950702451E+02  0.29747392498E+02  0.76032429508E+01  0.38333569763E+02  0.10566000000E+00 0.  1.
         13    1    4    4    0    0  0.14889838747E+02 -0.20117839492E+02  0.15954808359E+02  0.29681675114E+02  0.10566000000E+00 0. -1.
        -13    1    4    4    0    0  0.53530358201E+01 -0.63754951999E+01  0.51997837575E+01  0.98158467131E+01  0.10566000000E+00 0.  1.
         14    1    4    4    0    0  0.27078278832E+01 -0.32540578057E+01  0.34163645318E+01  0.54399237735E+01  0.00000000000E+00 0. -1.
<mgrwt>
<rscale>  0 0.76804185E+02</rscale>
<asrwt>0</asrwt>
<pdfrwt beam="1">  1        2 0.88804011E-02 0.76804185E+02</pdfrwt>
<pdfrwt beam="2">  1       -1 0.39305243E-02 0.76804185E+02</pdfrwt>
<totfact> 0.17235685E+05</totfact>
</mgrwt>
</event>
<event>
 8    1  0.2676873E-024  0.7893639E+02  0.7818608E-02  0.1332097E+00
          2   -1    0    0  501    0  0.00000000000E+00  0.00000000000E+00  0.15931886383E+03  0.15931886385E+03  0.25500000000E-02 0. -1.
         -1   -1    0    0    0  501 -0.00000000000E+00 -0.00000000000E+00 -0.97774883918E+01  0.97774896908E+01  0.50400000000E-02 0.  1.
         24    2    1    2    0    0  0.00000000000E+00  0.00000000000E+00  0.14954137544E+03  0.16909635354E+03  0.78936390930E+02 0.  0.
         66    2    3    3    0    0 -0.37098509747E+02 -0.45650121315E+01  0.10179603320E+03  0.10845999786E+03  0.19999996844E+01 0.  0.
        -13    1    3    3    0    0  0.37098509747E+02  0.45650121315E+01  0.47745342240E+02  0.60636355686E+02  0.10566000000E+00 0.  1.
         13    1    4    4    0    0 -0.24827871712E+02 -0.24264199537E+01  0.65975853919E+02  0.70534638242E+02  0.10566000000E+00 0. -1.
        -13    1    4    4    0    0 -0.44431604239E+01 -0.76289799124E+00  0.13367631747E+02  0.14107743634E+02  0.10566000000E+00 0.  1.
         14    1    4    4    0    0 -0.78274776113E+01 -0.13756941866E+01  0.22452547533E+02  0.23817615980E+02  0.00000000000E+00 0. -1.
<mgrwt>
<rscale>  0 0.78936391E+02</rscale>
<asrwt>0</asrwt>
<pdfrwt beam="1">  1        2 0.24510596E-01 0.78936391E+02</pdfrwt>
<pdfrwt beam="2">  1       -1 0.15042290E-02 0.78936391E+02</pdfrwt>
<totfact> 0.21163284E+05</totfact>
</mgrwt>
</event>
<event>
 8    1  0.2676873E-024  0.8923917E+02  0.7818608E-02  0.1304705E+00
          2   -1    0    0  501    0  0.00000000000E+00  0.00000000000E+00  0.37777322417E+02  0.37777322503E+02  0.25500000000E-02 0. -1.
         -1   -1    0    0    0  501 -0.00000000000E+00 -0.00000000000E+00 -0.52701124708E+02  0.52701124949E+02  0.50400000000E-02 0.  1.
         24    2    1    2    0    0  0.17763568394E-14  0.00000000000E+00 -0.14923802291E+02  0.90478447452E+02  0.89239170651E+02 0.  0.
         66    2    3    3    0    0  0.13751191163E+02  0.39507300458E+02  0.82080289429E+01  0.42676618740E+02  0.20000000244E+01 0.  0.
        -13    1    3    3    0    0 -0.13751191163E+02 -0.39507300458E+02 -0.23131831234E+02  0.47801828711E+02  0.10566000000E+00 0.  1.
         13    1    4    4    0    0  0.33142731725E+01  0.10457883325E+02  0.28603927301E+01  0.11337757314E+02  0.10566000000E+00 0. -1.
        -13    1    4    4    0    0  0.33921854539E+00  0.11075187820E+01  0.31642941769E+00  0.12053873593E+01  0.10566000000E+00 0.  1.
         14    1    4    4    0    0  0.10097699445E+02  0.27941898351E+02  0.50312067952E+01  0.30133474067E+02  0.00000000000E+00 0. -1.
<mgrwt>
<rscale>  0 0.89239171E+02</rscale>
<asrwt>0</asrwt>
<pdfrwt beam="1">  1        2 0.58118958E-02 0.89239171E+02</pdfrwt>
<pdfrwt beam="2">  1       -1 0.81078654E-02 0.89239171E+02</pdfrwt>
<totfact> 0.10379612E+05</totfact>
</mgrwt>
</event>
<event>
 8    1  0.2676873E-024  0.7937780E+02  0.7818608E-02  0.1330826E+00
         -1   -1    0    0    0  501 -0.00000000000E+00  0.00000000000E+00  0.26862057038E+01  0.26862104319E+01  0.50400000000E-02 0.  1.
          2   -1    0    0  501    0  0.00000000000E+00 -0.00000000000E+00 -0.58640606998E+03  0.58640606999E+03  0.25500000000E-02 0. -1.
         24    2    1    2    0    0  0.17763568394E-14 -0.17763568394E-14 -0.58371986428E+03  0.58909228042E+03  0.79377798513E+02 0.  0.
         66    2    3    3    0    0 -0.14933566821E+02  0.62170535648E+01 -0.56081120802E+03  0.56104801419E+03  0.20000015073E+01 0.  0.
        -13    1    3    3    0    0  0.14933566821E+02 -0.62170535648E+01 -0.22908656252E+02  0.28044266229E+02  0.10566000000E+00 0.  1.
         13    1    4    4    0    0 -0.52474128785E+01  0.17930325773E+01 -0.20241038962E+03  0.20248636324E+03  0.10566000000E+00 0. -1.
        -13    1    4    4    0    0 -0.62549995746E+01  0.29925860315E+01 -0.21089165967E+03  0.21100564891E+03  0.10566000000E+00 0.  1.
        -14    1    4    4    0    0 -0.34311543680E+01  0.14314349561E+01 -0.14750915874E+03  0.14755600204E+03  0.00000000000E+00 0.  1.
<mgrwt>
<rscale>  0 0.79377799E+02</rscale>
<asrwt>0</asrwt>
<pdfrwt beam="1">  1        2 0.90216217E-01 0.79377799E+02</pdfrwt>
<pdfrwt beam="2">  1       -1 0.41326325E-03 0.79377799E+02</pdfrwt>
<totfact> 0.32612528E+05</totfact>
</mgrwt>
</event>
<event>
 8    1  0.2676873E-024  0.8595401E+02  0.7818608E-02  0.1312956E+00
          2   -1    0    0  501    0  0.00000000000E+00  0.00000000000E+00  0.45795276155E+03  0.45795276155E+03  0.25500000000E-02 0. -1.
         -1   -1    0    0    0  501 -0.00000000000E+00 -0.00000000000E+00 -0.40332154927E+01  0.40332186417E+01  0.50400000000E-02 0.  1.
         24    2    1    2    0    0 -0.44408920985E-15  0.00000000000E+00  0.45391954605E+03  0.46198598020E+03  0.85954008675E+02 0.  0.
         66    2    3    3    0    0 -0.36176395753E+01  0.17739500098E+02  0.43644047198E+03  0.43682040104E+03  0.20000003656E+01 0.  0.
        -13    1    3    3    0    0  0.36176395753E+01 -0.17739500098E+02  0.17479074077E+02  0.25165579160E+02  0.10566000000E+00 0.  1.
         13    1    4    4    0    0 -0.48564799920E+00  0.38666102690E+01  0.90162367731E+02  0.90246607958E+02  0.10566000000E+00 0. -1.
        -13    1    4    4    0    0 -0.25119468900E+01  0.81277618525E+01  0.19564637139E+03  0.19583126459E+03  0.10566000000E+00 0.  1.
        -14    1    4    4    0    0 -0.62004468610E+00  0.57451279767E+01  0.15063173285E+03  0.15074252848E+03  0.00000000000E+00 0.  1.
<mgrwt>
<rscale>  0 0.85954009E+02</rscale>
<asrwt>0</asrwt>
<pdfrwt beam="1">  1        2 0.70454268E-01 0.85954009E+02</pdfrwt>
<pdfrwt beam="2">  1       -1 0.62049497E-03 0.85954009E+02</pdfrwt>
<totfact> 0.24522130E+05</totfact>
</mgrwt>
</event>
<event>
 8    1  0.2676873E-024  0.7565028E+02  0.7818608E-02  0.1341869E+00
          2   -1    0    0  501    0  0.00000000000E+00  0.00000000000E+00  0.49833509875E+02  0.49833509941E+02  0.25500000000E-02 0. -1.
         -1   -1    0    0    0  501 -0.00000000000E+00 -0.00000000000E+00 -0.28710421101E+02  0.28710421543E+02  0.50400000000E-02 0.  1.
         24    2    1    2    0    0  0.35527136788E-14  0.00000000000E+00  0.21123088774E+02  0.78543931484E+02  0.75650276230E+02 0.  0.
         66    2    3    3    0    0 -0.30309927691E+02  0.96518271377E+01  0.31767698915E+02  0.45000401962E+02  0.19999996650E+01 0.  0.
        -13    1    3    3    0    0  0.30309927691E+02 -0.96518271377E+01 -0.10644610140E+02  0.33543529522E+02  0.10566000000E+00 0.  1.
         13    1    4    4    0    0 -0.32859950290E+01  0.85823255897E+00  0.28630968694E+01  0.44432886667E+01  0.10566000000E+00 0.  1.
        -13    1    4    4    0    0 -0.57285277011E+01  0.16353234662E+01  0.53762496349E+01  0.80253060150E+01  0.10566000000E+00 0. -1.
         14    1    4    4    0    0 -0.21295404961E+02  0.71582711125E+01  0.23528352410E+02  0.32531807280E+02  0.00000000000E+00 0. -1.
<mgrwt>
<rscale>  0 0.75650276E+02</rscale>
<asrwt>0</asrwt>
<pdfrwt beam="1">  1        2 0.76666938E-02 0.75650276E+02</pdfrwt>
<pdfrwt beam="2">  1       -1 0.44169879E-02 0.75650276E+02</pdfrwt>
<totfact> 0.17393042E+05</totfact>
</mgrwt>
</event>
<event>
 8    1  0.2676873E-024  0.7939943E+02  0.7818608E-02  0.1330764E+00
         -1   -1    0    0    0  501 -0.00000000000E+00  0.00000000000E+00  0.23227961639E+01  0.23228016318E+01  0.50400000000E-02 0.  1.
          2   -1    0    0  501    0  0.00000000000E+00 -0.00000000000E+00 -0.67852085264E+03  0.67852085264E+03  0.25500000000E-02 0. -1.
         24    2    1    2    0    0  0.35527136788E-14 -0.71054273576E-14 -0.67619805647E+03  0.68084365427E+03  0.79399433163E+02 0.  0.
         66    2    3    3    0    0  0.27866526118E+02 -0.24788871053E+02 -0.45432216162E+03  0.45585486503E+03  0.20000057892E+01 0.  0.
        -13    1    3    3    0    0 -0.27866526118E+02  0.24788871053E+02 -0.22187589485E+03  0.22498878924E+03  0.10566000000E+00 0.  1.
         13    1    4    4    0    0  0.49946701395E+01 -0.40275794953E+01 -0.81742657308E+02  0.81994154147E+02  0.10566000000E+00 0. -1.
        -13    1    4    4    0    0  0.16820017033E+01 -0.20149273402E+01 -0.29658757453E+02  0.29774857172E+02  0.10566000000E+00 0.  1.
         14    1    4    4    0    0  0.21189854275E+02 -0.18746364218E+02 -0.34292074686E+03  0.34408585371E+03  0.00000000000E+00 0. -1.
<mgrwt>
<rscale>  0 0.79399433E+02</rscale>
<asrwt>0</asrwt>
<pdfrwt beam="1">  1        2 0.10438767E+00 0.79399433E+02</pdfrwt>
<pdfrwt beam="2">  1       -1 0.35735422E-03 0.79399433E+02</pdfrwt>
<totfact> 0.33864909E+05</totfact>
</mgrwt>
</event>
<event>
 8    1  0.2676873E-024  0.8157044E+02  0.7818608E-02  0.1324653E+00
          2   -1    0    0  501    0  0.00000000000E+00  0.00000000000E+00  0.46588692961E+03  0.46588692961E+03  0.25500000000E-02 0. -1.
         -1   -1    0    0    0  501 -0.00000000000E+00 -0.00000000000E+00 -0.35704657014E+01  0.35704692585E+01  0.50400000000E-02 0.  1.
         24    2    1    2    0    0  0.00000000000E+00  0.00000000000E+00  0.46231646390E+03  0.46945739887E+03  0.81570439241E+02 0.  0.
         66    2    3    3    0    0 -0.20979803429E+02  0.27061302937E+02  0.35855956991E+03  0.36019637891E+03  0.19999834991E+01 0.  0.
        -13    1    3    3    0    0  0.20979803429E+02 -0.27061302937E+02  0.10375689399E+03  0.10926101996E+03  0.10566000000E+00 0.  1.
         13    1    4    4    0    0 -0.14693220129E+02  0.17945805368E+02  0.24284236285E+03  0.24394746772E+03  0.10566000000E+00 0. -1.
        -13    1    4    4    0    0 -0.50600775338E+01  0.69368785305E+01  0.86701017007E+02  0.87125209798E+02  0.10566000000E+00 0.  1.
         14    1    4    4    0    0 -0.12265057668E+01  0.21786190382E+01  0.29016190056E+02  0.29123701391E+02  0.00000000000E+00 0. -1.
<mgrwt>
<rscale>  0 0.81570439E+02</rscale>
<asrwt>0</asrwt>
<pdfrwt beam="1">  1        2 0.71674917E-01 0.81570439E+02</pdfrwt>
<pdfrwt beam="2">  1       -1 0.54930265E-03 0.81570439E+02</pdfrwt>
<totfact> 0.28287863E+05</totfact>
</mgrwt>
</event>
<event>
 8    1  0.2676873E-024  0.8800757E+02  0.7818608E-02  0.1307750E+00
          2   -1    0    0  501    0  0.00000000000E+00  0.00000000000E+00  0.35824934385E+03  0.35824934386E+03  0.25500000000E-02 0. -1.
         -1   -1    0    0    0  501 -0.00000000000E+00 -0.00000000000E+00 -0.54049855246E+01  0.54049878744E+01  0.50400000000E-02 0.  1.
         24    2    1    2    0    0  0.00000000000E+00  0.00000000000E+00  0.35284435833E+03  0.36365433174E+03  0.88007566644E+02 0.  0.
         66    2    3    3    0    0  0.13760788482E+02  0.41772085385E+02  0.17548862286E+03  0.18092684479E+03  0.19999991190E+01 0.  0.
        -13    1    3    3    0    0 -0.13760788482E+02 -0.41772085385E+02  0.17735573547E+03  0.18272748695E+03  0.10566000000E+00 0.  1.
         13    1    4    4    0    0  0.52796768832E+01  0.15602597217E+02  0.66248902029E+02  0.68265981367E+02  0.10566000000E+00 0. -1.
        -13    1    4    4    0    0  0.35288086356E+01  0.13197658108E+02  0.52998591990E+02  0.54731093419E+02  0.10566000000E+00 0.  1.
         14    1    4    4    0    0  0.49523029628E+01  0.12971830059E+02  0.56241128839E+02  0.57929770005E+02  0.00000000000E+00 0. -1.
<mgrwt>
<rscale>  0 0.88007567E+02</rscale>
<asrwt>0</asrwt>
<pdfrwt beam="1">  1        2 0.55115308E-01 0.88007567E+02</pdfrwt>
<pdfrwt beam="2">  1       -1 0.83153605E-03 0.88007567E+02</pdfrwt>
<totfact> 0.21148532E+05</totfact>
</mgrwt>
</event>
<event>
 8    1  0.2676873E-024  0.8073578E+02  0.7818608E-02  0.1326976E+00
         -1   -1    0    0    0  501 -0.00000000000E+00  0.00000000000E+00  0.37881306861E+01  0.37881340389E+01  0.50400000000E-02 0.  1.
          2   -1    0    0  501    0  0.00000000000E+00 -0.00000000000E+00 -0.43017675011E+03  0.43017675012E+03  0.25500000000E-02 0. -1.
         24    2    1    2    0    0  0.00000000000E+00  0.00000000000E+00 -0.42638861943E+03  0.43396488416E+03  0.80735778356E+02 0.  0.
         66    2    3    3    0    0 -0.10098987272E+02 -0.27823151131E+02 -0.36067029032E+03  0.36188834687E+03  0.19999998145E+01 0.  0.
        -13    1    3    3    0    0  0.10098987272E+02  0.27823151131E+02 -0.65718329108E+02  0.72076537289E+02  0.10566000000E+00 0.  1.
         13    1    4    4    0    0 -0.58964758191E+01 -0.16047992122E+02 -0.19970915816E+03  0.20043968044E+03  0.10566000000E+00 0. -1.
        -13    1    4    4    0    0 -0.24797150065E+00 -0.11466653725E+01 -0.12735068367E+02  0.12789427731E+02  0.10566000000E+00 0.  1.
         14    1    4    4    0    0 -0.39545399527E+01 -0.10628493636E+02 -0.14822606379E+03  0.14865923869E+03  0.00000000000E+00 0. -1.
<mgrwt>
<rscale>  0 0.80735778E+02</rscale>
<asrwt>0</asrwt>
<pdfrwt beam="1">  1        2 0.66181000E-01 0.80735778E+02</pdfrwt>
<pdfrwt beam="2">  1       -1 0.58278994E-03 0.80735778E+02</pdfrwt>
<totfact> 0.28288601E+05</totfact>
</mgrwt>
</event>
<event>
 8    1  0.2676873E-024  0.8034040E+02  0.7818608E-02  0.1328088E+00
          2   -1    0    0  501    0  0.00000000000E+00  0.00000000000E+00  0.46246350891E+03  0.46246350892E+03  0.25500000000E-02 0. -1.
         -1   -1    0    0    0  501 -0.00000000000E+00 -0.00000000000E+00 -0.34892359518E+01  0.34892395918E+01  0.50400000000E-02 0.  1.
         24    2    1    2    0    0 -0.35527136788E-14  0.00000000000E+00  0.45897427296E+03  0.46595274851E+03  0.80340404563E+02 0.  0.
         66    2    3    3    0    0  0.20481198723E+02  0.58614135989E+01  0.42697366329E+03  0.42750946751E+03  0.20000000240E+01 0.  0.
        -13    1    3    3    0    0 -0.20481198723E+02 -0.58614135989E+01  0.32000609670E+02  0.38443280996E+02  0.10566000000E+00 0.  1.
         13    1    4    4    0    0  0.48303828894E+01  0.14598040471E+01  0.95184885217E+02  0.95318608700E+02  0.10566000000E+00 0. -1.
        -13    1    4    4    0    0  0.22983730427E+01  0.59439940004E+00  0.61144220739E+02  0.61190380968E+02  0.10566000000E+00 0.  1.
         14    1    4    4    0    0  0.13352442791E+02  0.38072101517E+01  0.27064455733E+03  0.27100047784E+03  0.00000000000E+00 0. -1.
<mgrwt>
<rscale>  0 0.80340405E+02</rscale>
<asrwt>0</asrwt>
<pdfrwt beam="1">  1        2 0.71148164E-01 0.80340405E+02</pdfrwt>
<pdfrwt beam="2">  1       -1 0.53680633E-03 0.80340405E+02</pdfrwt>
<totfact> 0.29360857E+05</totfact>
</mgrwt>
</event>
<event>
 8    1  0.2676873E-024  0.7944097E+02  0.7818608E-02  0.1330645E+00
         -1   -1    0    0    0  501 -0.00000000000E+00  0.00000000000E+00  0.20764144626E+01  0.20764205793E+01  0.50400000000E-02 0.  1.
          2   -1    0    0  501    0  0.00000000000E+00 -0.00000000000E+00 -0.75982639256E+03  0.75982639256E+03  0.25500000000E-02 0. -1.
         24    2    1    2    0    0  0.00000000000E+00  0.00000000000E+00 -0.75774997810E+03  0.76190281314E+03  0.79440967828E+02 0.  0.
         66    2    3    3    0    0  0.12808831464E+02 -0.20562932880E+02 -0.68070089886E+03  0.68113479876E+03  0.20000002525E+01 0.  0.
        -13    1    3    3    0    0 -0.12808831464E+02  0.20562932880E+02 -0.77049079238E+02  0.80768014384E+02  0.10566000000E+00 0.  1.
         13    1    4    4    0    0  0.22940946159E+01 -0.36670648800E+01 -0.12826827173E+03  0.12834122849E+03  0.10566000000E+00 0.  1.
        -13    1    4    4    0    0  0.78501856893E+01 -0.11256142345E+02 -0.37080965990E+03  0.37106352717E+03  0.10566000000E+00 0. -1.
        -14    1    4    4    0    0  0.26645511592E+01 -0.56397256546E+01 -0.18162296723E+03  0.18173004310E+03  0.00000000000E+00 0.  1.
<mgrwt>
<rscale>  0 0.79440968E+02</rscale>
<asrwt>0</asrwt>
<pdfrwt beam="1">  1        2 0.11689615E+00 0.79440968E+02</pdfrwt>
<pdfrwt beam="2">  1       -1 0.31944946E-03 0.79440968E+02</pdfrwt>
<totfact> 0.34666438E+05</totfact>
</mgrwt>
</event>
<event>
 8    1  0.2676873E-024  0.7714938E+02  0.7818608E-02  0.1337341E+00
          2   -1    0    0  501    0  0.00000000000E+00  0.00000000000E+00  0.96340212800E+02  0.96340212833E+02  0.25500000000E-02 0. -1.
         -1   -1    0    0    0  501 -0.00000000000E+00 -0.00000000000E+00 -0.15445331418E+02  0.15445332241E+02  0.50400000000E-02 0.  1.
         24    2    1    2    0    0  0.00000000000E+00  0.35527136788E-14  0.80894881381E+02  0.11178554507E+03  0.77149376237E+02 0.  0.
         66    2    3    3    0    0 -0.84782125123E+01 -0.21763155891E+02  0.84909992595E+02  0.88086445432E+02  0.19999961502E+01 0.  0.
        -13    1    3    3    0    0  0.84782125123E+01  0.21763155891E+02 -0.40151112139E+01  0.23699099642E+02  0.10566000000E+00 0.  1.
         13    1    4    4    0    0 -0.29792542673E+01 -0.78497790524E+01  0.28866478843E+02  0.30062929864E+02  0.10566000000E+00 0. -1.
        -13    1    4    4    0    0 -0.26118284281E+01 -0.50933934717E+01  0.19846088610E+02  0.20655331078E+02  0.10566000000E+00 0.  1.
         14    1    4    4    0    0 -0.28871298169E+01 -0.88199833667E+01  0.36197425142E+02  0.37368184490E+02  0.00000000000E+00 0. -1.
<mgrwt>
<rscale>  0 0.77149376E+02</rscale>
<asrwt>0</asrwt>
<pdfrwt beam="1">  1        2 0.14821571E-01 0.77149376E+02</pdfrwt>
<pdfrwt beam="2">  1       -1 0.23762049E-02 0.77149376E+02</pdfrwt>
<totfact> 0.19331651E+05</totfact>
</mgrwt>
</event>
<event>
 8    1  0.2676873E-024  0.8011269E+02  0.7818608E-02  0.1328732E+00
         -1   -1    0    0    0  501 -0.00000000000E+00  0.00000000000E+00  0.27176605198E+02  0.27176605665E+02  0.50400000000E-02 0.  1.
          2   -1    0    0  501    0  0.00000000000E+00 -0.00000000000E+00 -0.59040147870E+02  0.59040147925E+02  0.25500000000E-02 0. -1.
         24    2    1    2    0    0  0.00000000000E+00 -0.35527136788E-14 -0.31863542671E+02  0.86216753590E+02  0.80112690930E+02 0.  0.
         66    2    3    3    0    0 -0.22228313098E+02  0.29801905927E+02 -0.31913426179E+02  0.49037926921E+02  0.20000015336E+01 0.  0.
        -13    1    3    3    0    0  0.22228313098E+02 -0.29801905927E+02  0.49883507551E-01  0.37178826669E+02  0.10566000000E+00 0.  1.
         13    1    4    4    0    0 -0.32425256716E+01  0.37194656020E+01 -0.46347649421E+01  0.67705691932E+01  0.10566000000E+00 0. -1.
        -13    1    4    4    0    0 -0.91936208509E+01  0.11726746086E+02 -0.12137218472E+02  0.19218805228E+02  0.10566000000E+00 0.  1.
        -14    1    4    4    0    0 -0.97921665758E+01  0.14355694239E+02 -0.15141442764E+02  0.23048552500E+02  0.00000000000E+00 0.  1.
<mgrwt>
<rscale>  0 0.80112691E+02</rscale>
<asrwt>0</asrwt>
<pdfrwt beam="1">  1        2 0.90830997E-02 0.80112691E+02</pdfrwt>
<pdfrwt beam="2">  1       -1 0.41810162E-02 0.80112691E+02</pdfrwt>
<totfact> 0.15449170E+05</totfact>
</mgrwt>
</event>
<event>
 8    1  0.2676873E-024  0.7940194E+02  0.7818608E-02  0.1330757E+00
         -1   -1    0    0    0  501 -0.00000000000E+00  0.00000000000E+00  0.35479661735E+01  0.35479697533E+01  0.50400000000E-02 0.  1.
          2   -1    0    0  501    0  0.00000000000E+00 -0.00000000000E+00 -0.44424497191E+03  0.44424497192E+03  0.25500000000E-02 0. -1.
         24    2    1    2    0    0  0.00000000000E+00  0.00000000000E+00 -0.44069700574E+03  0.44779294167E+03  0.79401937917E+02 0.  0.
         66    2    3    3    0    0 -0.12224695715E+02 -0.83664889406E+01 -0.42806098793E+03  0.42832190080E+03  0.19999994433E+01 0.  0.
        -13    1    3    3    0    0  0.12224695715E+02  0.83664889406E+01 -0.12636017814E+02  0.19471040875E+02  0.10566000000E+00 0.  1.
         13    1    4    4    0    0 -0.51460530661E+01 -0.30448412401E+01 -0.15861166922E+03  0.15872437020E+03  0.10566000000E+00 0. -1.
        -13    1    4    4    0    0 -0.23916579969E+01 -0.24000886952E+01 -0.11252389634E+03  0.11257494776E+03  0.10566000000E+00 0.  1.
        -14    1    4    4    0    0 -0.46869846516E+01 -0.29215590053E+01 -0.15692542237E+03  0.15702258283E+03  0.00000000000E+00 0.  1.
<mgrwt>
<rscale>  0 0.79401938E+02</rscale>
<asrwt>0</asrwt>
<pdfrwt beam="1">  1        2 0.68345336E-01 0.79401938E+02</pdfrwt>
<pdfrwt beam="2">  1       -1 0.54584158E-03 0.79401938E+02</pdfrwt>
<totfact> 0.29870282E+05</totfact>
</mgrwt>
</event>
<event>
 8    1  0.2676873E-024  0.7804737E+02  0.7818608E-02  0.1334686E+00
         -1   -1    0    0    0  501 -0.00000000000E+00  0.00000000000E+00  0.11235439026E+02  0.11235440156E+02  0.50400000000E-02 0.  1.
          2   -1    0    0  501    0  0.00000000000E+00 -0.00000000000E+00 -0.13553968969E+03  0.13553968971E+03  0.25500000000E-02 0. -1.
         24    2    1    2    0    0  0.35527136788E-14 -0.35527136788E-14 -0.12430425066E+03  0.14677512987E+03  0.78047370328E+02 0.  0.
         66    2    3    3    0    0 -0.24706482450E+02  0.24290467584E+02 -0.95855179991E+02  0.10194436056E+03  0.20000072220E+01 0.  0.
        -13    1    3    3    0    0  0.24706482450E+02 -0.24290467584E+02 -0.28449070671E+02  0.44830769306E+02  0.10566000000E+00 0.  1.
         13    1    4    4    0    0 -0.67290880988E+01  0.73308611900E+01 -0.28117908142E+02  0.29827002443E+02  0.10566000000E+00 0. -1.
        -13    1    4    4    0    0 -0.94853202111E+00  0.12982456707E+01 -0.47068890292E+01  0.49750500687E+01  0.10566000000E+00 0.  1.
        -14    1    4    4    0    0 -0.17028862330E+02  0.15661360723E+02 -0.63030382820E+02  0.67142308051E+02  0.00000000000E+00 0.  1.
<mgrwt>
<rscale>  0 0.78047370E+02</rscale>
<asrwt>0</asrwt>
<pdfrwt beam="1">  1        2 0.20852259E-01 0.78047370E+02</pdfrwt>
<pdfrwt beam="2">  1       -1 0.17285293E-02 0.78047370E+02</pdfrwt>
<totfact> 0.20711445E+05</totfact>
</mgrwt>
</event>
<event>
 8    1  0.2676873E-024  0.7991820E+02  0.7818608E-02  0.1329284E+00
          2   -1    0    0  501    0  0.00000000000E+00  0.00000000000E+00  0.30442396391E+02  0.30442396497E+02  0.25500000000E-02 0. -1.
         -1   -1    0    0    0  501 -0.00000000000E+00 -0.00000000000E+00 -0.52450852377E+02  0.52450852619E+02  0.50400000000E-02 0.  1.
         24    2    1    2    0    0 -0.71054273576E-14 -0.44408920985E-15 -0.22008455986E+02  0.82893249116E+02  0.79918199518E+02 0.  0.
         66    2    3    3    0    0 -0.38234439392E+02 -0.21300104924E+01  0.73822277562E+00  0.38353021692E+02  0.19999999237E+01 0.  0.
        -13    1    3    3    0    0  0.38234439392E+02  0.21300104924E+01 -0.22746678762E+02  0.44540227425E+02  0.10566000000E+00 0.  1.
         13    1    4    4    0    0 -0.11231866685E+02 -0.10235022045E+01 -0.28695281496E+00  0.11282548114E+02  0.10566000000E+00 0. -1.
        -13    1    4    4    0    0 -0.16760454420E+02 -0.59611051706E+00  0.11988174309E+01  0.16814175787E+02  0.10566000000E+00 0. -1.
        -14    1    4    4    0    0 -0.10242118287E+02 -0.51039777086E+00 -0.17364184033E+00  0.10256297791E+02  0.00000000000E+00 0.  1.
<mgrwt>
<rscale>  0 0.79918200E+02</rscale>
<asrwt>0</asrwt>
<pdfrwt beam="1">  1        2 0.46834456E-02 0.79918200E+02</pdfrwt>
<pdfrwt beam="2">  1       -1 0.80693620E-02 0.79918200E+02</pdfrwt>
<totfact> 0.13532895E+05</totfact>
</mgrwt>
</event>
<event>
 8    1  0.2676873E-024  0.8232945E+02  0.7818608E-02  0.1322568E+00
         -1   -1    0    0    0  501 -0.00000000000E+00  0.00000000000E+00  0.20003854677E+01  0.20003918169E+01  0.50400000000E-02 0.  1.
          2   -1    0    0  501    0  0.00000000000E+00 -0.00000000000E+00 -0.84710275315E+03  0.84710275315E+03  0.25500000000E-02 0. -1.
         24    2    1    2    0    0 -0.35527136788E-14  0.35527136788E-14 -0.84510236768E+03  0.84910314497E+03  0.82329453641E+02 0.  0.
         66    2    3    3    0    0 -0.20983652094E+02  0.24724554074E+02 -0.68389847741E+03  0.68466980701E+03  0.20000001119E+01 0.  0.
        -13    1    3    3    0    0  0.20983652094E+02 -0.24724554074E+02 -0.16120389027E+03  0.16443333796E+03  0.10566000000E+00 0.  1.
         13    1    4    4    0    0 -0.64432229931E+01  0.66533953314E+01 -0.18324558654E+03  0.18347953276E+03  0.10566000000E+00 0. -1.
        -13    1    4    4    0    0 -0.10871513423E+02  0.13917252325E+02 -0.38207788600E+03  0.38248581915E+03  0.10566000000E+00 0.  1.
         14    1    4    4    0    0 -0.36689156774E+01  0.41539064172E+01 -0.11857500487E+03  0.11870445510E+03  0.00000000000E+00 0. -1.
<mgrwt>
<rscale>  0 0.82329454E+02</rscale>
<asrwt>0</asrwt>
<pdfrwt beam="1">  1        2 0.13032321E+00 0.82329454E+02</pdfrwt>
<pdfrwt beam="2">  1       -1 0.30775278E-03 0.82329454E+02</pdfrwt>
<totfact> 0.32183884E+05</totfact>
</mgrwt>
</event>
<event>
 8    1  0.2676873E-024  0.7504246E+02  0.7818608E-02  0.1343740E+00
          2   -1    0    0  501    0  0.00000000000E+00  0.00000000000E+00  0.36788149807E+03  0.36788149808E+03  0.25500000000E-02 0. -1.
         -1   -1    0    0    0  501 -0.00000000000E+00 -0.00000000000E+00 -0.38268903218E+01  0.38268936406E+01  0.50400000000E-02 0.  1.
         24    2    1    2    0    0  0.00000000000E+00 -0.35527136788E-14  0.36405460775E+03  0.37170839172E+03  0.75042461660E+02 0.  0.
         66    2    3    3    0    0  0.54128423956E+01 -0.26206206454E+02  0.31224765126E+03  0.31339856387E+03  0.19999993120E+01 0.  0.
        -13    1    3    3    0    0 -0.54128423956E+01  0.26206206454E+02  0.51806956487E+02  0.58309827851E+02  0.10566000000E+00 0.  1.
         13    1    4    4    0    0  0.25352652424E+01 -0.11829730051E+02  0.14049931034E+03  0.14101928043E+03  0.10566000000E+00 0. -1.
        -13    1    4    4    0    0  0.18369446231E+01 -0.77314904854E+01  0.10081845379E+03  0.10113121229E+03  0.10566000000E+00 0.  1.
        -14    1    4    4    0    0  0.10406325301E+01 -0.66449859175E+01  0.70929887136E+02  0.71248071153E+02  0.00000000000E+00 0.  1.
<mgrwt>
<rscale>  0 0.75042462E+02</rscale>
<asrwt>0</asrwt>
<pdfrwt beam="1">  1        2 0.56597178E-01 0.75042462E+02</pdfrwt>
<pdfrwt beam="2">  1       -1 0.58875236E-03 0.75042462E+02</pdfrwt>
<totfact> 0.32408387E+05</totfact>
</mgrwt>
</event>
<event>
 8    1  0.2676873E-024  0.7874708E+02  0.7818608E-02  0.1332645E+00
          2   -1    0    0  501    0  0.00000000000E+00  0.00000000000E+00  0.83431985845E+03  0.83431985845E+03  0.25500000000E-02 0. -1.
         -1   -1    0    0    0  501 -0.00000000000E+00 -0.00000000000E+00 -0.18581276237E+01  0.18581344589E+01  0.50400000000E-02 0.  1.
         24    2    1    2    0    0  0.00000000000E+00 -0.17763568394E-14  0.83246173082E+03  0.83617799291E+03  0.78747079573E+02 0.  0.
         66    2    3    3    0    0  0.16761487609E+02 -0.99811295182E+01  0.77935097874E+03  0.77959766449E+03  0.20000001116E+01 0.  0.
        -13    1    3    3    0    0 -0.16761487609E+02  0.99811295182E+01  0.53110752084E+02  0.56580328422E+02  0.10566000000E+00 0.  1.
         13    1    4    4    0    0  0.33536412633E+01 -0.23497866651E+01  0.15780587650E+03  0.15785903278E+03  0.10566000000E+00 0. -1.
        -13    1    4    4    0    0  0.20224537288E+01 -0.56614477552E+00  0.77167270615E+02  0.77195917361E+02  0.10566000000E+00 0.  1.
        -14    1    4    4    0    0  0.11385392617E+02 -0.70651980775E+01  0.54437783162E+03  0.54454271435E+03  0.00000000000E+00 0.  1.
<mgrwt>
<rscale>  0 0.78747080E+02</rscale>
<asrwt>0</asrwt>
<pdfrwt beam="1">  1        2 0.12835719E+00 0.78747080E+02</pdfrwt>
<pdfrwt beam="2">  1       -1 0.28586567E-03 0.78747080E+02</pdfrwt>
<totfact> 0.36047444E+05</totfact>
</mgrwt>
</event>
<event>
 8    1  0.2676873E-024  0.8365914E+02  0.7818608E-02  0.1318977E+00
          2   -1    0    0  501    0  0.00000000000E+00  0.00000000000E+00  0.14428817981E+02  0.14428818206E+02  0.25500000000E-02 0. -1.
         -1   -1    0    0    0  501 -0.00000000000E+00 -0.00000000000E+00 -0.12126515239E+03  0.12126515250E+03  0.50400000000E-02 0.  1.
         24    2    1    2    0    0  0.17763568394E-14  0.00000000000E+00 -0.10683633441E+03  0.13569397070E+03  0.83659137784E+02 0.  0.
         66    2    3    3    0    0 -0.10300923125E+02 -0.35559982857E+02 -0.84945497291E+02  0.92684189119E+02  0.20000011648E+01 0.  0.
        -13    1    3    3    0    0  0.10300923125E+02  0.35559982857E+02 -0.21890837122E+02  0.43009781585E+02  0.10566000000E+00 0.  1.
         13    1    4    4    0    0 -0.47823806717E+01 -0.17878248745E+02 -0.42738119619E+02  0.46573178716E+02  0.10566000000E+00 0. -1.
        -13    1    4    4    0    0 -0.37649688185E+01 -0.13824149978E+02 -0.32873934096E+02  0.35860686270E+02  0.10566000000E+00 0.  1.
        -14    1    4    4    0    0 -0.17535736351E+01 -0.38575841350E+01 -0.93334435759E+01  0.10250324133E+02  0.00000000000E+00 0.  1.
<mgrwt>
<rscale>  0 0.83659138E+02</rscale>
<asrwt>0</asrwt>
<pdfrwt beam="1">  1        2 0.22198183E-02 0.83659138E+02</pdfrwt>
<pdfrwt beam="2">  1       -1 0.18656177E-01 0.83659138E+02</pdfrwt>
<totfact> 0.10150565E+05</totfact>
</mgrwt>
</event>
<event>
 8    1  0.2676873E-024  0.7772356E+02  0.7818608E-02  0.1335639E+00
          2   -1    0    0  501    0  0.00000000000E+00  0.00000000000E+00  0.18662009178E+04  0.18662009178E+04  0.25500000000E-02 0. -1.
         -1   -1    0    0    0  501 -0.00000000000E+00 -0.00000000000E+00 -0.80925016953E+00  0.80926586391E+00  0.50400000000E-02 0.  1.
         24    2    1    2    0    0  0.00000000000E+00  0.17763568394E-14  0.18653916676E+04  0.18670101837E+04  0.77723563004E+02 0.  0.
         66    2    3    3    0    0 -0.10110229355E+02  0.11730687346E+02  0.17888182933E+04  0.17888864448E+04  0.19999916361E+01 0.  0.
        -13    1    3    3    0    0  0.10110229355E+02 -0.11730687346E+02  0.76573374291E+02  0.78123738887E+02  0.10566000000E+00 0.  1.
         13    1    4    4    0    0 -0.27775272098E+01  0.25472193066E+01  0.47762032405E+03  0.47763520400E+03  0.10566000000E+00 0. -1.
        -13    1    4    4    0    0 -0.26602458235E+01  0.31282053189E+01  0.39556919328E+03  0.39559052113E+03  0.10566000000E+00 0.  1.
        -14    1    4    4    0    0 -0.46724563218E+01  0.60552627202E+01  0.91562877601E+03  0.91566071965E+03  0.00000000000E+00 0.  1.
<mgrwt>
<rscale>  0 0.77723563E+02</rscale>
<asrwt>0</asrwt>
<pdfrwt beam="1">  1        2 0.28710961E+00 0.77723563E+02</pdfrwt>
<pdfrwt beam="2">  1       -1 0.12450047E-03 0.77723563E+02</pdfrwt>
<totfact> 0.31729892E+05</totfact>
</mgrwt>
</event>
<event>
 8    1  0.2676873E-024  0.8295660E+02  0.7818608E-02  0.1320864E+00
         -1   -1    0    0    0  501 -0.00000000000E+00  0.00000000000E+00  0.84494509370E+02  0.84494509521E+02  0.50400000000E-02 0.  1.
          2   -1    0    0  501    0  0.00000000000E+00 -0.00000000000E+00 -0.20361668608E+02  0.20361668768E+02  0.25500000000E-02 0. -1.
         24    2    1    2    0    0  0.00000000000E+00  0.00000000000E+00  0.64132840762E+02  0.10485617829E+03  0.82956596247E+02 0.  0.
         66    2    3    3    0    0  0.17154755053E+02  0.37465002165E+02  0.37812451288E+02  0.55961535695E+02  0.19999991890E+01 0.  0.
        -13    1    3    3    0    0 -0.17154755053E+02 -0.37465002165E+02  0.26320389474E+02  0.48894642593E+02  0.10566000000E+00 0.  1.
         13    1    4    4    0    0  0.54561819335E+01  0.12355354312E+02  0.11301619901E+02  0.17611430319E+02  0.10566000000E+00 0. -1.
        -13    1    4    4    0    0  0.10773538813E+02  0.23492222979E+02  0.24588077202E+02  0.35672655965E+02  0.10566000000E+00 0.  1.
         14    1    4    4    0    0  0.92503430670E+00  0.16174248739E+01  0.19227541855E+01  0.26774494111E+01  0.00000000000E+00 0. -1.
<mgrwt>
<rscale>  0 0.82956596E+02</rscale>
<asrwt>0</asrwt>
<pdfrwt beam="1">  1        2 0.31325644E-02 0.82956596E+02</pdfrwt>
<pdfrwt beam="2">  1       -1 0.12999155E-01 0.82956596E+02</pdfrwt>
<totfact> 0.11224377E+05</totfact>
</mgrwt>
</event>
<event>
 8    1  0.2676873E-024  0.7823295E+02  0.7818608E-02  0.1334142E+00
         -1   -1    0    0    0  501 -0.00000000000E+00  0.00000000000E+00  0.88243517970E+01  0.88243532363E+01  0.50400000000E-02 0.  1.
          2   -1    0    0  501    0  0.00000000000E+00 -0.00000000000E+00 -0.17339498702E+03  0.17339498704E+03  0.25500000000E-02 0. -1.
         24    2    1    2    0    0  0.22204460493E-15  0.00000000000E+00 -0.16457063522E+03  0.18221934027E+03  0.78232946975E+02 0.  0.
         66    2    3    3    0    0  0.82700185202E+00  0.17028072181E+02 -0.16427393068E+03  0.16516828834E+03  0.20000001565E+01 0.  0.
        -13    1    3    3    0    0 -0.82700185202E+00 -0.17028072181E+02 -0.29670454559E+00  0.17051051929E+02  0.10566000000E+00 0.  1.
         13    1    4    4    0    0  0.12948239257E+01  0.13193269575E+02 -0.12609572876E+03  0.12679070512E+03  0.10566000000E+00 0. -1.
        -13    1    4    4    0    0 -0.31100217960E+00  0.28031180547E+01 -0.30159188726E+02  0.30290956106E+02  0.10566000000E+00 0.  1.
         14    1    4    4    0    0 -0.15681989406E+00  0.10316845516E+01 -0.80190131929E+01  0.80866271140E+01  0.00000000000E+00 0. -1.
<mgrwt>
<rscale>  0 0.78232947E+02</rscale>
<asrwt>0</asrwt>
<pdfrwt beam="1">  1        2 0.26676149E-01 0.78232947E+02</pdfrwt>
<pdfrwt beam="2">  1       -1 0.13575928E-02 0.78232947E+02</pdfrwt>
<totfact> 0.22285065E+05</totfact>
</mgrwt>
</event>
<event>
 8    1  0.2676873E-024  0.8043722E+02  0.7818608E-02  0.1327815E+00
         -1   -1    0    0    0  501 -0.00000000000E+00  0.00000000000E+00  0.74885320965E+01  0.74885337926E+01  0.50400000000E-02 0.  1.
          2   -1    0    0  501    0  0.00000000000E+00 -0.00000000000E+00 -0.21600177736E+03  0.21600177737E+03  0.25500000000E-02 0. -1.
         24    2    1    2    0    0 -0.14210854715E-13 -0.88817841970E-15 -0.20851324526E+03  0.22349031116E+03  0.80437216109E+02 0.  0.
         66    2    3    3    0    0 -0.36562985464E+02 -0.29375701545E+01 -0.14997964014E+03  0.15441299711E+03  0.19999989326E+01 0.  0.
        -13    1    3    3    0    0  0.36562985464E+02  0.29375701545E+01 -0.58533605118E+02  0.69077314052E+02  0.10566000000E+00 0.  1.
         13    1    4    4    0    0 -0.32910949525E+02 -0.28282399606E+01 -0.13557477991E+03  0.13954089598E+03  0.10566000000E+00 0. -1.
        -13    1    4    4    0    0 -0.10863271000E+01 -0.20694657794E+00 -0.36695480008E+01  0.38340161737E+01  0.10566000000E+00 0.  1.
        -14    1    4    4    0    0 -0.25657088385E+01  0.97616384131E-01 -0.10735312230E+02  0.11038084955E+02  0.00000000000E+00 0.  1.
<mgrwt>
<rscale>  0 0.80437216E+02</rscale>
<asrwt>0</asrwt>
<pdfrwt beam="1">  1        2 0.33231038E-01 0.80437216E+02</pdfrwt>
<pdfrwt beam="2">  1       -1 0.11520822E-02 0.80437216E+02</pdfrwt>
<totfact> 0.22337060E+05</totfact>
</mgrwt>
</event>
<event>
 8    1  0.2676873E-024  0.7908404E+02  0.7818608E-02  0.1331671E+00
         -1   -1    0    0    0  501 -0.00000000000E+00  0.00000000000E+00  0.72606292445E+02  0.72606292619E+02  0.50400000000E-02 0.  1.
          2   -1    0    0  501    0  0.00000000000E+00 -0.00000000000E+00 -0.21534931086E+02  0.21534931237E+02  0.25500000000E-02 0. -1.
         24    2    1    2    0    0 -0.35527136788E-14  0.00000000000E+00  0.51071361359E+02  0.94141223856E+02  0.79084044397E+02 0.  0.
         66    2    3    3    0    0 -0.14932837601E+02  0.21884095297E+02 -0.93504237474E+01  0.28166178989E+02  0.19999872008E+01 0.  0.
        -13    1    3    3    0    0  0.14932837601E+02 -0.21884095297E+02  0.60421785106E+02  0.65975044867E+02  0.10566000000E+00 0.  1.
         13    1    4    4    0    0 -0.26259187271E+01  0.36548056937E+01 -0.21723480211E+01  0.49983310996E+01  0.10566000000E+00 0. -1.
        -13    1    4    4    0    0 -0.10924111404E+01  0.21813943897E+01 -0.60394034462E+00  0.25155022477E+01  0.10566000000E+00 0.  1.
         14    1    4    4    0    0 -0.11214507734E+02  0.16047895213E+02 -0.65741353817E+01  0.20652345642E+02  0.00000000000E+00 0. -1.
<mgrwt>
<rscale>  0 0.79084044E+02</rscale>
<asrwt>0</asrwt>
<pdfrwt beam="1">  1        2 0.33130663E-02 0.79084044E+02</pdfrwt>
<pdfrwt beam="2">  1       -1 0.11170199E-01 0.79084044E+02</pdfrwt>
<totfact> 0.13022873E+05</totfact>
</mgrwt>
</event>
<event>
 8    1  0.2676873E-024  0.8194883E+02  0.7818608E-02  0.1323610E+00
         -1   -1    0    0    0  501 -0.00000000000E+00  0.00000000000E+00  0.25992185882E+01  0.25992234746E+01  0.50400000000E-02 0.  1.
          2   -1    0    0  501    0  0.00000000000E+00 -0.00000000000E+00 -0.64592532732E+03  0.64592532732E+03  0.25500000000E-02 0. -1.
         24    2    1    2    0    0  0.35527136788E-14 -0.88817841970E-15 -0.64332610873E+03  0.64852455080E+03  0.81948830460E+02 0.  0.
         66    2    3    3    0    0  0.23280682532E+02 -0.44768697020E+01 -0.58609184500E+03  0.58657453344E+03  0.19999918338E+01 0.  0.
        -13    1    3    3    0    0 -0.23280682532E+02  0.44768697020E+01 -0.57234263731E+02  0.61950017356E+02  0.10566000000E+00 0.  1.
         13    1    4    4    0    0  0.12701143111E+02 -0.20882618086E+01 -0.30164991479E+03  0.30192443116E+03  0.10566000000E+00 0. -1.
        -13    1    4    4    0    0  0.76942678443E+01 -0.16981381771E+01 -0.19567214060E+03  0.19583075142E+03  0.10566000000E+00 0.  1.
         14    1    4    4    0    0  0.28852715760E+01 -0.69046971635E+00 -0.88769789602E+02  0.88819350856E+02  0.00000000000E+00 0. -1.
<mgrwt>
<rscale>  0 0.81948830E+02</rscale>
<asrwt>0</asrwt>
<pdfrwt beam="1">  1        2 0.99373000E-01 0.81948830E+02</pdfrwt>
<pdfrwt beam="2">  1       -1 0.39988067E-03 0.81948830E+02</pdfrwt>
<totfact> 0.30811773E+05</totfact>
</mgrwt>
</event>
<event>
 8    1  0.2676873E-024  0.8156273E+02  0.7818608E-02  0.1324674E+00
          2   -1    0    0  501    0  0.00000000000E+00  0.00000000000E+00  0.19300942984E+03  0.19300942986E+03  0.25500000000E-02 0. -1.
         -1   -1    0    0    0  501 -0.00000000000E+00 -0.00000000000E+00 -0.86167790015E+01  0.86167804755E+01  0.50400000000E-02 0.  1.
         24    2    1    2    0    0 -0.35527136788E-14  0.00000000000E+00  0.18439265084E+03  0.20162621033E+03  0.81562730519E+02 0.  0.
         66    2    3    3    0    0 -0.27417776273E+02  0.29335756485E+02  0.10951941110E+03  0.11666542963E+03  0.19999997801E+01 0.  0.
        -13    1    3    3    0    0  0.27417776273E+02 -0.29335756485E+02  0.74873239737E+02  0.84960780699E+02  0.10566000000E+00 0.  1.
         13    1    4    4    0    0 -0.15045818059E+01  0.21012258499E+01  0.72361329929E+01  0.76845104730E+01  0.10566000000E+00 0. -1.
        -13    1    4    4    0    0 -0.13359034836E+02  0.14848043541E+02  0.55333354344E+02  0.58827880089E+02  0.10566000000E+00 0.  1.
        -14    1    4    4    0    0 -0.12554159631E+02  0.12386487094E+02  0.46949923764E+02  0.50153039070E+02  0.00000000000E+00 0.  1.
<mgrwt>
<rscale>  0 0.81562731E+02</rscale>
<asrwt>0</asrwt>
<pdfrwt beam="1">  1        2 0.29693755E-01 0.81562731E+02</pdfrwt>
<pdfrwt beam="2">  1       -1 0.13256586E-02 0.81562731E+02</pdfrwt>
<totfact> 0.20702562E+05</totfact>
</mgrwt>
</event>
<event>
 8    1  0.2676873E-024  0.7978861E+02  0.7818608E-02  0.1329652E+00
          2   -1    0    0  501    0  0.00000000000E+00  0.00000000000E+00  0.36678767743E+03  0.36678767744E+03  0.25500000000E-02 0. -1.
         -1   -1    0    0    0  501 -0.00000000000E+00 -0.00000000000E+00 -0.43391730590E+01  0.43391759860E+01  0.50400000000E-02 0.  1.
         24    2    1    2    0    0  0.00000000000E+00  0.00000000000E+00  0.36244850437E+03  0.37112685342E+03  0.79788614552E+02 0.  0.
         66    2    3    3    0    0  0.44034009279E+01 -0.94659210703E+01  0.36031349234E+03  0.36047025726E+03  0.20000013640E+01 0.  0.
        -13    1    3    3    0    0 -0.44034009279E+01  0.94659210703E+01  0.21350120328E+01  0.10656596167E+02  0.10566000000E+00 0.  1.
         13    1    4    4    0    0  0.16696371208E+00 -0.26571420412E+00  0.19914883707E+02  0.19917636357E+02  0.10566000000E+00 0. -1.
        -13    1    4    4    0    0  0.17283651856E+01 -0.22611143505E+01  0.86912990031E+02  0.86959639400E+02  0.10566000000E+00 0.  1.
        -14    1    4    4    0    0  0.25080720303E+01 -0.69390925156E+01  0.25348561860E+03  0.25359298150E+03  0.00000000000E+00 0.  1.
<mgrwt>
<rscale>  0 0.79788615E+02</rscale>
<asrwt>0</asrwt>
<pdfrwt beam="1">  1        2 0.56428861E-01 0.79788615E+02</pdfrwt>
<pdfrwt beam="2">  1       -1 0.66756546E-03 0.79788615E+02</pdfrwt>
<totfact> 0.27592707E+05</totfact>
</mgrwt>
</event>
<event>
 8    1  0.2676873E-024  0.8092540E+02  0.7818608E-02  0.1326446E+00
          2   -1    0    0  501    0  0.00000000000E+00  0.00000000000E+00  0.24589421171E+02  0.24589421303E+02  0.25500000000E-02 0. -1.
         -1   -1    0    0    0  501 -0.00000000000E+00 -0.00000000000E+00 -0.66582706387E+02  0.66582706578E+02  0.50400000000E-02 0.  1.
         24    2    1    2    0    0  0.00000000000E+00  0.00000000000E+00 -0.41993285216E+02  0.91172127882E+02  0.80925403300E+02 0.  0.
         66    2    3    3    0    0  0.14364268238E+02 -0.27737759407E+02  0.79231931130E+01  0.32287652239E+02  0.19999997666E+01 0.  0.
        -13    1    3    3    0    0 -0.14364268238E+02  0.27737759407E+02 -0.49916478329E+02  0.58884475643E+02  0.10566000000E+00 0.  1.
         13    1    4    4    0    0  0.69128754136E+01 -0.13833355875E+02  0.41295423112E+01  0.16006681885E+02  0.10566000000E+00 0. -1.
        -13    1    4    4    0    0  0.22496977231E+01 -0.50263035472E+01  0.80738844186E+00  0.55666783027E+01  0.10566000000E+00 0.  1.
        -14    1    4    4    0    0  0.52016951013E+01 -0.88780999844E+01  0.29862623599E+01  0.10714292050E+02  0.00000000000E+00 0.  1.
<mgrwt>
<rscale>  0 0.80925403E+02</rscale>
<asrwt>0</asrwt>
<pdfrwt beam="1">  1        2 0.37829879E-02 0.80925403E+02</pdfrwt>
<pdfrwt beam="2">  1       -1 0.10243493E-01 0.80925403E+02</pdfrwt>
<totfact> 0.12522603E+05</totfact>
</mgrwt>
</event>
<event>
 8    1  0.2676873E-024  0.7811765E+02  0.7818608E-02  0.1334480E+00
         -1   -1    0    0    0  501 -0.00000000000E+00  0.00000000000E+00  0.48298012067E+01  0.48298038364E+01  0.50400000000E-02 0.  1.
          2   -1    0    0  501    0  0.00000000000E+00 -0.00000000000E+00 -0.31587041633E+03  0.31587041634E+03  0.25500000000E-02 0. -1.
         24    2    1    2    0    0 -0.17763568394E-14  0.17763568394E-14 -0.31104061513E+03  0.32070022018E+03  0.78117648231E+02 0.  0.
         66    2    3    3    0    0 -0.91514631739E+01 -0.11445957242E+02 -0.30414414552E+03  0.30450356396E+03  0.19999999893E+01 0.  0.
        -13    1    3    3    0    0  0.91514631739E+01  0.11445957242E+02 -0.68964696092E+01  0.16196656214E+02  0.10566000000E+00 0.  1.
         13    1    4    4    0    0 -0.51765564950E+00 -0.32571227413E+00 -0.16649378695E+02  0.16660943275E+02  0.10566000000E+00 0. -1.
        -13    1    4    4    0    0 -0.46462376908E+01 -0.51150158096E+01 -0.14965913561E+03  0.14981862016E+03  0.10566000000E+00 0.  1.
         14    1    4    4    0    0 -0.39875698336E+01 -0.60052291585E+01 -0.13783563121E+03  0.13802400053E+03  0.00000000000E+00 0. -1.
<mgrwt>
<rscale>  0 0.78117648E+02</rscale>
<asrwt>0</asrwt>
<pdfrwt beam="1">  1        2 0.48595433E-01 0.78117648E+02</pdfrwt>
<pdfrwt beam="2">  1       -1 0.74304679E-03 0.78117648E+02</pdfrwt>
<totfact> 0.27644114E+05</totfact>
</mgrwt>
</event>
<event>
 8    1  0.2676873E-024  0.7898630E+02  0.7818608E-02  0.1331953E+00
          2   -1    0    0  501    0  0.00000000000E+00  0.00000000000E+00  0.28112265364E+02  0.28112265480E+02  0.25500000000E-02 0. -1.
         -1   -1    0    0    0  501 -0.00000000000E+00 -0.00000000000E+00 -0.55481435799E+02  0.55481436028E+02  0.50400000000E-02 0.  1.
         24    2    1    2    0    0 -0.71054273576E-14  0.17763568394E-14 -0.27369170435E+02  0.83593701508E+02  0.78986299074E+02 0.  0.
         66    2    3    3    0    0 -0.33646109383E+02  0.71319340898E+01  0.67951234122E+01  0.35115507455E+02  0.20000002875E+01 0.  0.
        -13    1    3    3    0    0  0.33646109383E+02 -0.71319340898E+01 -0.34164293847E+02  0.48478194053E+02  0.10566000000E+00 0.  1.
         13    1    4    4    0    0 -0.15719207996E+02  0.28891273693E+01  0.36551968786E+01  0.16395492833E+02  0.10566000000E+00 0. -1.
        -13    1    4    4    0    0 -0.27915102653E+00  0.91038972936E-01 -0.36946619312E-01  0.31423315943E+00  0.10566000000E+00 0.  1.
        -14    1    4    4    0    0 -0.17647750361E+02  0.41517677475E+01  0.31768731529E+01  0.18405781463E+02  0.00000000000E+00 0.  1.
<mgrwt>
<rscale>  0 0.78986299E+02</rscale>
<asrwt>0</asrwt>
<pdfrwt beam="1">  1        2 0.43249639E-02 0.78986299E+02</pdfrwt>
<pdfrwt beam="2">  1       -1 0.85356056E-02 0.78986299E+02</pdfrwt>
<totfact> 0.13768541E+05</totfact>
</mgrwt>
</event>
<event>
 8    1  0.2676873E-024  0.8062332E+02  0.7818608E-02  0.1327292E+00
         -1   -1    0    0    0  501 -0.00000000000E+00  0.00000000000E+00  0.28956560015E+02  0.28956560453E+02  0.50400000000E-02 0.  1.
          2   -1    0    0  501    0  0.00000000000E+00 -0.00000000000E+00 -0.56119571523E+02  0.56119571581E+02  0.25500000000E-02 0. -1.
         24    2    1    2    0    0 -0.35527136788E-14  0.71054273576E-14 -0.27163011509E+02  0.85076132035E+02  0.80623315782E+02 0.  0.
         66    2    3    3    0    0  0.19336684429E+02 -0.21445470010E+02 -0.43234274154E+02  0.52029011196E+02  0.19999989474E+01 0.  0.
        -13    1    3    3    0    0 -0.19336684429E+02  0.21445470010E+02  0.16071262645E+02  0.33047120838E+02  0.10566000000E+00 0.  1.
         13    1    4    4    0    0  0.73511996049E+01 -0.86600732912E+01 -0.17515972727E+02  0.20877199756E+02  0.10566000000E+00 0. -1.
        -13    1    4    4    0    0  0.26984839318E+01 -0.22105154912E+01 -0.56308686973E+01  0.66246539977E+01  0.10566000000E+00 0.  1.
        -14    1    4    4    0    0  0.92870008926E+01 -0.10574881227E+02 -0.20087432729E+02  0.24527157443E+02  0.00000000000E+00 0.  1.
<mgrwt>
<rscale>  0 0.80623316E+02</rscale>
<asrwt>0</asrwt>
<pdfrwt beam="1">  1        2 0.86337802E-02 0.80623316E+02</pdfrwt>
<pdfrwt beam="2">  1       -1 0.44548554E-02 0.80623316E+02</pdfrwt>
<totfact> 0.15009044E+05</totfact>
</mgrwt>
</event>
<event>
 8    1  0.2676873E-024  0.7953637E+02  0.7818608E-02  0.1330372E+00
         -1   -1    0    0    0  501 -0.00000000000E+00  0.00000000000E+00  0.13588315573E+02  0.13588316507E+02  0.50400000000E-02 0.  1.
          2   -1    0    0  501    0  0.00000000000E+00 -0.00000000000E+00 -0.11638739037E+03  0.11638739039E+03  0.25500000000E-02 0. -1.
         24    2    1    2    0    0  0.00000000000E+00  0.00000000000E+00 -0.10279907479E+03  0.12997570690E+03  0.79536372850E+02 0.  0.
         66    2    3    3    0    0  0.32924255823E+02  0.17017560282E+02 -0.27982949089E+02  0.46482786191E+02  0.19999982262E+01 0.  0.
        -13    1    3    3    0    0 -0.32924255823E+02 -0.17017560282E+02 -0.74816125704E+02  0.83492920710E+02  0.10566000000E+00 0.  1.
         13    1    4    4    0    0  0.16312185066E+02  0.82104280359E+01 -0.13321387392E+02  0.22604624223E+02  0.10566000000E+00 0. -1.
        -13    1    4    4    0    0  0.10898990251E+02  0.64526566377E+01 -0.97206073218E+01  0.15966406512E+02  0.10566000000E+00 0.  1.
        -14    1    4    4    0    0  0.57130805058E+01  0.23544756080E+01 -0.49409543752E+01  0.79117554558E+01  0.00000000000E+00 0.  1.
<mgrwt>
<rscale>  0 0.79536373E+02</rscale>
<asrwt>0</asrwt>
<pdfrwt beam="1">  1        2 0.17905752E-01 0.79536373E+02</pdfrwt>
<pdfrwt beam="2">  1       -1 0.20905102E-02 0.79536373E+02</pdfrwt>
<totfact> 0.18806774E+05</totfact>
</mgrwt>
</event>
<event>
 8    1  0.2676873E-024  0.7890891E+02  0.7818608E-02  0.1332177E+00
          2   -1    0    0  501    0  0.00000000000E+00  0.00000000000E+00  0.63421902514E+03  0.63421902515E+03  0.25500000000E-02 0. -1.
         -1   -1    0    0    0  501 -0.00000000000E+00 -0.00000000000E+00 -0.24544396955E+01  0.24544448701E+01  0.50400000000E-02 0.  1.
         24    2    1    2    0    0  0.35527136788E-14  0.00000000000E+00  0.63176458545E+03  0.63667347002E+03  0.78908909505E+02 0.  0.
         66    2    3    3    0    0  0.19643202028E+02  0.17730170047E+02  0.55193154400E+03  0.55256913014E+03  0.20000009442E+01 0.  0.
        -13    1    3    3    0    0 -0.19643202028E+02 -0.17730170047E+02  0.79833041445E+02  0.84104339878E+02  0.10566000000E+00 0.  1.
         13    1    4    4    0    0  0.10888586227E+02  0.87184031410E+01  0.29396806983E+03  0.29429884320E+03  0.10566000000E+00 0. -1.
        -13    1    4    4    0    0  0.54447137434E+01  0.60955206757E+01  0.16778647106E+03  0.16798544972E+03  0.10566000000E+00 0.  1.
        -14    1    4    4    0    0  0.33099020575E+01  0.29162462301E+01  0.90177003105E+02  0.90284837225E+02  0.00000000000E+00 0.  1.
<mgrwt>
<rscale>  0 0.78908910E+02</rscale>
<asrwt>0</asrwt>
<pdfrwt beam="1">  1        2 0.97572233E-01 0.78908910E+02</pdfrwt>
<pdfrwt beam="2">  1       -1 0.37760621E-03 0.78908910E+02</pdfrwt>
<totfact> 0.33835938E+05</totfact>
</mgrwt>
</event>
<event>
 8    1  0.2676873E-024  0.7904713E+02  0.7818608E-02  0.1331777E+00
          2   -1    0    0  501    0  0.00000000000E+00  0.00000000000E+00  0.63258754033E+03  0.63258754034E+03  0.25500000000E-02 0. -1.
         -1   -1    0    0    0  501 -0.00000000000E+00 -0.00000000000E+00 -0.24693985255E+01  0.24694036688E+01  0.50400000000E-02 0.  1.
         24    2    1    2    0    0  0.00000000000E+00  0.00000000000E+00  0.63011814181E+03  0.63505694401E+03  0.79047134651E+02 0.  0.
         66    2    3    3    0    0  0.19576268631E+02  0.26497274718E+02  0.49031292623E+03  0.49142252847E+03  0.19999987646E+01 0.  0.
        -13    1    3    3    0    0 -0.19576268631E+02 -0.26497274718E+02  0.13980521558E+03  0.14363441554E+03  0.10566000000E+00 0.  1.
         13    1    4    4    0    0  0.88468626785E+01  0.10403198954E+02  0.20269780356E+03  0.20315733868E+03  0.10566000000E+00 0. -1.
        -13    1    4    4    0    0  0.50859577740E+01  0.78947009475E+01  0.14211593970E+03  0.14242592724E+03  0.10566000000E+00 0.  1.
         14    1    4    4    0    0  0.56434481781E+01  0.81993748167E+01  0.14549918297E+03  0.14583926255E+03  0.00000000000E+00 0. -1.
<mgrwt>
<rscale>  0 0.79047135E+02</rscale>
<asrwt>0</asrwt>
<pdfrwt beam="1">  1        2 0.97321122E-01 0.79047135E+02</pdfrwt>
<pdfrwt beam="2">  1       -1 0.37990801E-03 0.79047135E+02</pdfrwt>
<totfact> 0.33659691E+05</totfact>
</mgrwt>
</event>
<event>
 8    1  0.2676873E-024  0.7727993E+02  0.7818608E-02  0.1336953E+00
         -1   -1    0    0    0  501 -0.00000000000E+00  0.00000000000E+00  0.97322919544E+01  0.97322932595E+01  0.50400000000E-02 0.  1.
          2   -1    0    0  501    0  0.00000000000E+00 -0.00000000000E+00 -0.15341164379E+03  0.15341164381E+03  0.25500000000E-02 0. -1.
         24    2    1    2    0    0  0.00000000000E+00  0.00000000000E+00 -0.14367935183E+03  0.16314393707E+03  0.77279933094E+02 0.  0.
         66    2    3    3    0    0 -0.21199731210E+01  0.12593820323E+02 -0.14881735097E+03  0.14937771771E+03  0.20000003519E+01 0.  0.
        -13    1    3    3    0    0  0.21199731210E+01 -0.12593820323E+02  0.51379991354E+01  0.13766219362E+02  0.10566000000E+00 0.  1.
         13    1    4    4    0    0 -0.57313665457E+00  0.35425724927E+01 -0.44686953467E+02  0.44830941097E+02  0.10566000000E+00 0. -1.
        -13    1    4    4    0    0 -0.16255469272E+01  0.79254524148E+01 -0.85409371227E+02  0.85791765666E+02  0.10566000000E+00 0.  1.
        -14    1    4    4    0    0  0.78710460766E-01  0.11257954159E+01 -0.18721026276E+02  0.18755010944E+02  0.00000000000E+00 0.  1.
<mgrwt>
<rscale>  0 0.77279933E+02</rscale>
<asrwt>0</asrwt>
<pdfrwt beam="1">  1        2 0.23601790E-01 0.77279933E+02</pdfrwt>
<pdfrwt beam="2">  1       -1 0.14972759E-02 0.77279933E+02</pdfrwt>
<totfact> 0.22111068E+05</totfact>
</mgrwt>
</event>
<event>
 8    1  0.2676873E-024  0.8816070E+02  0.7818608E-02  0.1307368E+00
          2   -1    0    0  501    0  0.00000000000E+00  0.00000000000E+00  0.38532336694E+03  0.38532336695E+03  0.25500000000E-02 0. -1.
         -1   -1    0    0    0  501 -0.00000000000E+00 -0.00000000000E+00 -0.50427166230E+01  0.50427191416E+01  0.50400000000E-02 0.  1.
         24    2    1    2    0    0  0.00000000000E+00 -0.35527136788E-14  0.38028065032E+03  0.39036608609E+03  0.88160695119E+02 0.  0.
         66    2    3    3    0    0 -0.35563620573E+02 -0.25103250572E+02  0.22031098313E+03  0.22457932582E+03  0.19999999357E+01 0.  0.
        -13    1    3    3    0    0  0.35563620573E+02  0.25103250572E+02  0.15996966719E+03  0.16578676027E+03  0.10566000000E+00 0.  1.
         13    1    4    4    0    0 -0.23277413107E+02 -0.16139624030E+02  0.14628518126E+03  0.14900231825E+03  0.10566000000E+00 0. -1.
        -13    1    4    4    0    0 -0.94086761299E+01 -0.72691591936E+01  0.57050560167E+02  0.58276422688E+02  0.10566000000E+00 0.  1.
        -14    1    4    4    0    0 -0.28775313364E+01 -0.16944673483E+01  0.16975241706E+02  0.17300584879E+02  0.00000000000E+00 0.  1.
<mgrwt>
<rscale>  0 0.88160695E+02</rscale>
<asrwt>0</asrwt>
<pdfrwt beam="1">  1        2 0.59280527E-01 0.88160695E+02</pdfrwt>
<pdfrwt beam="2">  1       -1 0.77580264E-03 0.88160695E+02</pdfrwt>
<totfact> 0.21607233E+05</totfact>
</mgrwt>
</event>
<event>
 8    1  0.2676873E-024  0.8142979E+02  0.7818608E-02  0.1325042E+00
         -1   -1    0    0    0  501 -0.00000000000E+00  0.00000000000E+00  0.26295386741E+01  0.26295435042E+01  0.50400000000E-02 0.  1.
          2   -1    0    0  501    0  0.00000000000E+00 -0.00000000000E+00 -0.63041526436E+03  0.63041526437E+03  0.25500000000E-02 0. -1.
         24    2    1    2    0    0  0.00000000000E+00  0.00000000000E+00 -0.62778572569E+03  0.63304480787E+03  0.81429794274E+02 0.  0.
         66    2    3    3    0    0  0.96990088502E+01 -0.19917138743E+02 -0.57942118491E+03  0.57984797379E+03  0.19999971486E+01 0.  0.
        -13    1    3    3    0    0 -0.96990088502E+01  0.19917138743E+02 -0.48364540775E+02  0.53196834086E+02  0.10566000000E+00 0.  1.
         13    1    4    4    0    0  0.55008975876E+01 -0.10416773296E+02 -0.29338244514E+03  0.29361886745E+03  0.10566000000E+00 0.  1.
        -13    1    4    4    0    0  0.19451138622E+01 -0.41456357146E+01 -0.11270381510E+03  0.11279685663E+03  0.10566000000E+00 0. -1.
        -14    1    4    4    0    0  0.22529974005E+01 -0.53547297327E+01 -0.17333492467E+03  0.17343224971E+03  0.00000000000E+00 0.  1.
<mgrwt>
<rscale>  0 0.81429794E+02</rscale>
<asrwt>0</asrwt>
<pdfrwt beam="1">  1        2 0.96986843E-01 0.81429794E+02</pdfrwt>
<pdfrwt beam="2">  1       -1 0.40454529E-03 0.81429794E+02</pdfrwt>
<totfact> 0.31128532E+05</totfact>
</mgrwt>
</event>
<event>
 8    1  0.2676873E-024  0.7638963E+02  0.7818608E-02  0.1339621E+00
          2   -1    0    0  501    0  0.00000000000E+00  0.00000000000E+00  0.76697723354E+03  0.76697723355E+03  0.25500000000E-02 0. -1.
         -1   -1    0    0    0  501 -0.00000000000E+00 -0.00000000000E+00 -0.19020658808E+01  0.19020725582E+01  0.50400000000E-02 0.  1.
         24    2    1    2    0    0 -0.17763568394E-14  0.00000000000E+00  0.76507516766E+03  0.76887930611E+03  0.76389627463E+02 0.  0.
         66    2    3    3    0    0 -0.86013182129E+01 -0.16901847025E+02  0.71619744084E+03  0.71645127495E+03  0.19999997297E+01 0.  0.
        -13    1    3    3    0    0  0.86013182129E+01  0.16901847025E+02  0.48877726822E+02  0.52428031158E+02  0.10566000000E+00 0.  1.
         13    1    4    4    0    0 -0.23774979144E+01 -0.39524134791E+01  0.19576972903E+03  0.19582408441E+03  0.10566000000E+00 0. -1.
        -13    1    4    4    0    0 -0.25572558825E+01 -0.45664802598E+01  0.17456903665E+03  0.17464750791E+03  0.10566000000E+00 0.  1.
        -14    1    4    4    0    0 -0.36665644161E+01 -0.83829532860E+01  0.34585867516E+03  0.34597968262E+03  0.00000000000E+00 0.  1.
<mgrwt>
<rscale>  0 0.76389627E+02</rscale>
<asrwt>0</asrwt>
<pdfrwt beam="1">  1        2 0.11799653E+00 0.76389627E+02</pdfrwt>
<pdfrwt beam="2">  1       -1 0.29262596E-03 0.76389627E+02</pdfrwt>
<totfact> 0.38439176E+05</totfact>
</mgrwt>
</event>
<event>
 8    1  0.2676873E-024  0.8001801E+02  0.7818608E-02  0.1329000E+00
          2   -1    0    0  501    0  0.00000000000E+00  0.00000000000E+00  0.95065726399E+03  0.95065726400E+03  0.25500000000E-02 0. -1.
         -1   -1    0    0    0  501 -0.00000000000E+00 -0.00000000000E+00 -0.16838004057E+01  0.16838079486E+01  0.50400000000E-02 0.  1.
         24    2    1    2    0    0  0.00000000000E+00  0.00000000000E+00  0.94897346359E+03  0.95234107194E+03  0.80018014974E+02 0.  0.
         66    2    3    3    0    0 -0.80936625257E+00 -0.10838293787E+02  0.93273694581E+03  0.93280240874E+03  0.20000006427E+01 0.  0.
        -13    1    3    3    0    0  0.80936625257E+00  0.10838293787E+02  0.16236517781E+02  0.19538663200E+02  0.10566000000E+00 0.  1.
         13    1    4    4    0    0  0.46410944952E-01 -0.89440366387E+00  0.86223183436E+02  0.86227899416E+02  0.10566000000E+00 0. -1.
        -13    1    4    4    0    0 -0.80862271330E+00 -0.27411489911E+01  0.19584120570E+03  0.19586208612E+03  0.10566000000E+00 0.  1.
        -14    1    4    4    0    0 -0.47154484220E-01 -0.72027411324E+01  0.65067255667E+03  0.65071242320E+03  0.00000000000E+00 0.  1.
<mgrwt>
<rscale>  0 0.80018015E+02</rscale>
<asrwt>0</asrwt>
<pdfrwt beam="1">  1        2 0.14625497E+00 0.80018015E+02</pdfrwt>
<pdfrwt beam="2">  1       -1 0.25904678E-03 0.80018015E+02</pdfrwt>
<totfact> 0.35105156E+05</totfact>
</mgrwt>
</event>
<event>
 8    1  0.2676873E-024  0.7958392E+02  0.7818608E-02  0.1330236E+00
         -1   -1    0    0    0  501 -0.00000000000E+00  0.00000000000E+00  0.64142954320E+01  0.64142974120E+01  0.50400000000E-02 0.  1.
          2   -1    0    0  501    0  0.00000000000E+00 -0.00000000000E+00 -0.24685482992E+03  0.24685482993E+03  0.25500000000E-02 0. -1.
         24    2    1    2    0    0  0.35527136788E-14  0.00000000000E+00 -0.24044053449E+03  0.25326912734E+03  0.79583919489E+02 0.  0.
         66    2    3    3    0    0 -0.29891146824E+02  0.21909553236E+02 -0.74411114286E+02  0.83153611538E+02  0.20000002973E+01 0.  0.
        -13    1    3    3    0    0  0.29891146824E+02 -0.21909553236E+02 -0.16602942020E+03  0.17011551580E+03  0.10566000000E+00 0.  1.
         13    1    4    4    0    0 -0.82307338642E+01  0.54102079121E+01 -0.21261501462E+02  0.23432412126E+02  0.10566000000E+00 0. -1.
        -13    1    4    4    0    0 -0.13553412780E+02  0.10142005981E+02 -0.32527584811E+02  0.36668927186E+02  0.10566000000E+00 0.  1.
         14    1    4    4    0    0 -0.81070001802E+01  0.63573393431E+01 -0.20622028013E+02  0.23052272227E+02  0.00000000000E+00 0. -1.
<mgrwt>
<rscale>  0 0.79583919E+02</rscale>
<asrwt>0</asrwt>
<pdfrwt beam="1">  1        2 0.37977659E-01 0.79583919E+02</pdfrwt>
<pdfrwt beam="2">  1       -1 0.98681503E-03 0.79583919E+02</pdfrwt>
<totfact> 0.24088386E+05</totfact>
</mgrwt>
</event>
<event>
 8    1  0.2676873E-024  0.8014162E+02  0.7818608E-02  0.1328650E+00
          2   -1    0    0  501    0  0.00000000000E+00  0.00000000000E+00  0.14587227340E+03  0.14587227343E+03  0.25500000000E-02 0. -1.
         -1   -1    0    0    0  501 -0.00000000000E+00 -0.00000000000E+00 -0.11007368612E+02  0.11007369766E+02  0.50400000000E-02 0.  1.
         24    2    1    2    0    0  0.00000000000E+00  0.00000000000E+00  0.13486490479E+03  0.15687964319E+03  0.80141624038E+02 0.  0.
         66    2    3    3    0    0 -0.23776541299E+02  0.23816729525E+02  0.24986254572E+02  0.41962762537E+02  0.20000001813E+01 0.  0.
        -13    1    3    3    0    0  0.23776541299E+02 -0.23816729525E+02  0.10987865022E+03  0.11491688066E+03  0.10566000000E+00 0.  1.
         13    1    4    4    0    0 -0.12215706930E+02  0.11743548360E+02  0.12015633671E+02  0.20773084519E+02  0.10566000000E+00 0. -1.
        -13    1    4    4    0    0 -0.43997390401E+01  0.49173885404E+01  0.44714774399E+01  0.79714294960E+01  0.10566000000E+00 0.  1.
        -14    1    4    4    0    0 -0.71610953295E+01  0.71557926245E+01  0.84991434619E+01  0.13218248522E+02  0.00000000000E+00 0.  1.
<mgrwt>
<rscale>  0 0.80141624E+02</rscale>
<asrwt>0</asrwt>
<pdfrwt beam="1">  1        2 0.22441890E-01 0.80141624E+02</pdfrwt>
<pdfrwt beam="2">  1       -1 0.16934413E-02 0.80141624E+02</pdfrwt>
<totfact> 0.19758455E+05</totfact>
</mgrwt>
</event>
<event>
 8    1  0.2676873E-024  0.8206153E+02  0.7818608E-02  0.1323301E+00
          2   -1    0    0  501    0  0.00000000000E+00  0.00000000000E+00  0.25938127615E+02  0.25938127740E+02  0.25500000000E-02 0. -1.
         -1   -1    0    0    0  501 -0.00000000000E+00 -0.00000000000E+00 -0.64905367304E+02  0.64905367499E+02  0.50400000000E-02 0.  1.
         24    2    1    2    0    0 -0.71054273576E-14  0.00000000000E+00 -0.38967239689E+02  0.90843495239E+02  0.82061530928E+02 0.  0.
         66    2    3    3    0    0  0.37670327846E+02  0.16197911833E+02 -0.19832348005E+02  0.45593288703E+02  0.19999999143E+01 0.  0.
        -13    1    3    3    0    0 -0.37670327846E+02 -0.16197911833E+02 -0.19134891684E+02  0.45250206536E+02  0.10566000000E+00 0.  1.
         13    1    4    4    0    0  0.13628524860E+02  0.54284683343E+01 -0.77296748601E+01  0.16582038348E+02  0.10566000000E+00 0.  1.
        -13    1    4    4    0    0  0.30790166416E+01  0.15677832818E+01 -0.19345699670E+01  0.39613145408E+01  0.10566000000E+00 0. -1.
         14    1    4    4    0    0  0.20962786344E+02  0.92016602169E+01 -0.10168103177E+02  0.25049935814E+02  0.00000000000E+00 0. -1.
<mgrwt>
<rscale>  0 0.82061531E+02</rscale>
<asrwt>0</asrwt>
<pdfrwt beam="1">  1        2 0.39904812E-02 0.82061531E+02</pdfrwt>
<pdfrwt beam="2">  1       -1 0.99854411E-02 0.82061531E+02</pdfrwt>
<totfact> 0.12166002E+05</totfact>
</mgrwt>
</event>
<event>
 8    1  0.2676873E-024  0.7765548E+02  0.7818608E-02  0.1335840E+00
          2   -1    0    0  501    0  0.00000000000E+00  0.00000000000E+00  0.10727338114E+04  0.10727338114E+04  0.25500000000E-02 0. -1.
         -1   -1    0    0    0  501 -0.00000000000E+00 -0.00000000000E+00 -0.14053704320E+01  0.14053794693E+01  0.50400000000E-02 0.  1.
         24    2    1    2    0    0  0.00000000000E+00 -0.88817841970E-15  0.10713284409E+04  0.10741391908E+04  0.77655475922E+02 0.  0.
         66    2    3    3    0    0 -0.26788971799E+02 -0.68253082878E+01  0.91263685095E+03  0.91305764087E+03  0.20000007354E+01 0.  0.
        -13    1    3    3    0    0  0.26788971799E+02  0.68253082878E+01  0.15869158998E+03  0.16108154996E+03  0.10566000000E+00 0.  1.
         13    1    4    4    0    0 -0.13303193961E+02 -0.35365580836E+01  0.44045932887E+03  0.44067438520E+03  0.10566000000E+00 0. -1.
        -13    1    4    4    0    0 -0.32876885434E+01 -0.13689392396E+01  0.12129669119E+03  0.12134900637E+03  0.10566000000E+00 0.  1.
         14    1    4    4    0    0 -0.10198089295E+02 -0.19198109646E+01  0.35088083088E+03  0.35103424930E+03  0.00000000000E+00 0. -1.
<mgrwt>
<rscale>  0 0.77655476E+02</rscale>
<asrwt>0</asrwt>
<pdfrwt beam="1">  1        2 0.16503587E+00 0.77655476E+02</pdfrwt>
<pdfrwt beam="2">  1       -1 0.21621167E-03 0.77655476E+02</pdfrwt>
<totfact> 0.38097732E+05</totfact>
</mgrwt>
</event>
<event>
 8    1  0.2676873E-024  0.8046906E+02  0.7818608E-02  0.1327726E+00
         -1   -1    0    0    0  501 -0.00000000000E+00  0.00000000000E+00  0.16797236085E+01  0.16797311698E+01  0.50400000000E-02 0.  1.
          2   -1    0    0  501    0  0.00000000000E+00 -0.00000000000E+00 -0.96373813210E+03  0.96373813210E+03  0.25500000000E-02 0. -1.
         24    2    1    2    0    0 -0.35527136788E-14  0.00000000000E+00 -0.96205840849E+03  0.96541786327E+03  0.80469058512E+02 0.  0.
         66    2    3    3    0    0 -0.24425821979E+02  0.16905248421E+02 -0.80645322848E+03  0.80700261333E+03  0.19999988076E+01 0.  0.
        -13    1    3    3    0    0  0.24425821979E+02 -0.16905248421E+02 -0.15560518001E+03  0.15841524994E+03  0.10566000000E+00 0.  1.
         13    1    4    4    0    0 -0.18865782770E+02  0.12248467659E+02 -0.62209828624E+03  0.62250480450E+03  0.10566000000E+00 0. -1.
        -13    1    4    4    0    0 -0.31337366231E+01  0.27784592267E+01 -0.10821902610E+03  0.10830008733E+03  0.10566000000E+00 0.  1.
         14    1    4    4    0    0 -0.24263025856E+01  0.18783215353E+01 -0.76135916136E+02  0.76197721501E+02  0.00000000000E+00 0. -1.
<mgrwt>
<rscale>  0 0.80469059E+02</rscale>
<asrwt>0</asrwt>
<pdfrwt beam="1">  1        2 0.14826696E+00 0.80469059E+02</pdfrwt>
<pdfrwt beam="2">  1       -1 0.25842037E-03 0.80469059E+02</pdfrwt>
<totfact> 0.34630319E+05</totfact>
</mgrwt>
</event>
<event>
 8    1  0.2676873E-024  0.7596163E+02  0.7818608E-02  0.1340919E+00
         -1   -1    0    0    0  501 -0.00000000000E+00  0.00000000000E+00  0.26575105012E+02  0.26575105490E+02  0.50400000000E-02 0.  1.
          2   -1    0    0  501    0  0.00000000000E+00 -0.00000000000E+00 -0.54281719818E+02  0.54281719878E+02  0.25500000000E-02 0. -1.
         24    2    1    2    0    0  0.00000000000E+00  0.00000000000E+00 -0.27706614806E+02  0.80856825367E+02  0.75961633108E+02 0.  0.
         66    2    3    3    0    0  0.26317449960E+02  0.18842920646E+02 -0.34961252425E+02  0.47685983324E+02  0.20000009019E+01 0.  0.
        -13    1    3    3    0    0 -0.26317449960E+02 -0.18842920646E+02  0.72546376186E+01  0.33170842043E+02  0.10566000000E+00 0.  1.
         13    1    4    4    0    0  0.49203258767E+01  0.34345301081E+01 -0.55608248149E+01  0.81816587837E+01  0.10566000000E+00 0. -1.
        -13    1    4    4    0    0  0.63725312780E+00  0.60696280032E+00 -0.88039309711E+00  0.12493003766E+01  0.10566000000E+00 0. -1.
         14    1    4    4    0    0  0.20759870956E+02  0.14801427737E+02 -0.28520034513E+02  0.38255024164E+02  0.00000000000E+00 0. -1.
<mgrwt>
<rscale>  0 0.75961633E+02</rscale>
<asrwt>0</asrwt>
<pdfrwt beam="1">  1        2 0.83510338E-02 0.75961633E+02</pdfrwt>
<pdfrwt beam="2">  1       -1 0.40884778E-02 0.75961633E+02</pdfrwt>
<totfact> 0.17519160E+05</totfact>
</mgrwt>
</event>
<event>
 8    1  0.2676873E-024  0.8214454E+02  0.7818608E-02  0.1323073E+00
         -1   -1    0    0    0  501 -0.00000000000E+00  0.00000000000E+00  0.28760637583E+02  0.28760638024E+02  0.50400000000E-02 0.  1.
          2   -1    0    0  501    0  0.00000000000E+00 -0.00000000000E+00 -0.58654170884E+02  0.58654170939E+02  0.25500000000E-02 0. -1.
         24    2    1    2    0    0 -0.35527136788E-14  0.00000000000E+00 -0.29893533301E+02  0.87414808963E+02  0.82144540250E+02 0.  0.
         66    2    3    3    0    0  0.21699869984E+02 -0.32504050910E+02 -0.28311901736E+02  0.48300739815E+02  0.20000009694E+01 0.  0.
        -13    1    3    3    0    0 -0.21699869984E+02  0.32504050910E+02 -0.15816315652E+01  0.39114069148E+02  0.10566000000E+00 0.  1.
         13    1    4    4    0    0  0.49482536999E+01 -0.84600640566E+01 -0.67035687099E+01  0.11874632458E+02  0.10566000000E+00 0. -1.
        -13    1    4    4    0    0  0.36783029879E+01 -0.48890912987E+01 -0.40502594205E+01  0.73381804289E+01  0.10566000000E+00 0.  1.
        -14    1    4    4    0    0  0.13073313296E+02 -0.19154895555E+02 -0.17558073606E+02  0.29087926929E+02  0.00000000000E+00 0.  1.
<mgrwt>
<rscale>  0 0.82144540E+02</rscale>
<asrwt>0</asrwt>
<pdfrwt beam="1">  1        2 0.90237186E-02 0.82144540E+02</pdfrwt>
<pdfrwt beam="2">  1       -1 0.44247136E-02 0.82144540E+02</pdfrwt>
<totfact> 0.14406980E+05</totfact>
</mgrwt>
</event>
<event>
 8    1  0.2676873E-024  0.8065935E+02  0.7818608E-02  0.1327191E+00
         -1   -1    0    0    0  501 -0.00000000000E+00  0.00000000000E+00  0.42649798418E+02  0.42649798716E+02  0.50400000000E-02 0.  1.
          2   -1    0    0  501    0  0.00000000000E+00 -0.00000000000E+00 -0.38135768642E+02  0.38135768727E+02  0.25500000000E-02 0. -1.
         24    2    1    2    0    0  0.00000000000E+00  0.00000000000E+00  0.45140297761E+01  0.80785567443E+02  0.80659354338E+02 0.  0.
         66    2    3    3    0    0  0.43011317841E+01 -0.35557012426E+02 -0.16255032900E+02  0.39383079646E+02  0.20000001174E+01 0.  0.
        -13    1    3    3    0    0 -0.43011317841E+01  0.35557012426E+02  0.20769062676E+02  0.41402487797E+02  0.10566000000E+00 0.  1.
         13    1    4    4    0    0  0.20237916289E+01 -0.16236755154E+02 -0.69957433891E+01  0.17795492128E+02  0.10566000000E+00 0. -1.
        -13    1    4    4    0    0  0.22401738244E+01 -0.16466300830E+02 -0.83057322289E+01  0.18578315147E+02  0.10566000000E+00 0.  1.
        -14    1    4    4    0    0  0.37166330854E-01 -0.28539564423E+01 -0.95355728224E+00  0.30092723707E+01  0.00000000000E+00 0.  1.
<mgrwt>
<rscale>  0 0.80659354E+02</rscale>
<asrwt>0</asrwt>
<pdfrwt beam="1">  1        2 0.58670414E-02 0.80659354E+02</pdfrwt>
<pdfrwt beam="2">  1       -1 0.65615075E-02 0.80659354E+02</pdfrwt>
<totfact> 0.13799108E+05</totfact>
</mgrwt>
</event>
<event>
 8    1  0.2676873E-024  0.7949803E+02  0.7818608E-02  0.1330482E+00
          2   -1    0    0  501    0  0.00000000000E+00  0.00000000000E+00  0.27147332095E+03  0.27147332096E+03  0.25500000000E-02 0. -1.
         -1   -1    0    0    0  501 -0.00000000000E+00 -0.00000000000E+00 -0.58200331264E+01  0.58200353087E+01  0.50400000000E-02 0.  1.
         24    2    1    2    0    0  0.35527136788E-14  0.00000000000E+00  0.26565328782E+03  0.27729335627E+03  0.79498025763E+02 0.  0.
         66    2    3    3    0    0  0.17576552655E+02 -0.18899112958E+02  0.23823972121E+03  0.23964197552E+03  0.19999986658E+01 0.  0.
        -13    1    3    3    0    0 -0.17576552655E+02  0.18899112958E+02  0.27413566606E+02  0.37651380744E+02  0.10566000000E+00 0.  1.
         13    1    4    4    0    0  0.97482509477E+01 -0.11047108128E+02  0.13172670190E+03  0.13254811259E+03  0.10566000000E+00 0. -1.
        -13    1    4    4    0    0  0.33380110757E+01 -0.39891007103E+01  0.47234443589E+02  0.47520091200E+02  0.10566000000E+00 0.  1.
         14    1    4    4    0    0  0.44902906313E+01 -0.38629041197E+01  0.59278575724E+02  0.59573771729E+02  0.00000000000E+00 0. -1.
<mgrwt>
<rscale>  0 0.79498026E+02</rscale>
<asrwt>0</asrwt>
<pdfrwt beam="1">  1        2 0.41765120E-01 0.79498026E+02</pdfrwt>
<pdfrwt beam="2">  1       -1 0.89539002E-03 0.79498026E+02</pdfrwt>
<totfact> 0.24997837E+05</totfact>
</mgrwt>
</event>
<event>
 8    1  0.2676873E-024  0.8095497E+02  0.7818608E-02  0.1326363E+00
         -1   -1    0    0    0  501 -0.00000000000E+00  0.00000000000E+00  0.78265664569E+01  0.78265680797E+01  0.50400000000E-02 0.  1.
          2   -1    0    0  501    0  0.00000000000E+00 -0.00000000000E+00 -0.20934166078E+03  0.20934166080E+03  0.25500000000E-02 0. -1.
         24    2    1    2    0    0 -0.71054273576E-14  0.00000000000E+00 -0.20151509432E+03  0.21716822887E+03  0.80954965214E+02 0.  0.
         66    2    3    3    0    0 -0.36269426076E+02  0.88495418392E+01 -0.14260483210E+03  0.14742429855E+03  0.20000011174E+01 0.  0.
        -13    1    3    3    0    0  0.36269426076E+02 -0.88495418392E+01 -0.58910262219E+02  0.69743930326E+02  0.10566000000E+00 0.  1.
         13    1    4    4    0    0 -0.31161408568E+01  0.90555767851E+00 -0.11179875950E+02  0.11641785036E+02  0.10566000000E+00 0. -1.
        -13    1    4    4    0    0 -0.74690236892E+01  0.22732653176E+01 -0.31624729761E+02  0.32574357194E+02  0.10566000000E+00 0.  1.
         14    1    4    4    0    0 -0.25684261530E+02  0.56707188431E+01 -0.99800226393E+02  0.10320815632E+03  0.00000000000E+00 0. -1.
<mgrwt>
<rscale>  0 0.80954965E+02</rscale>
<asrwt>0</asrwt>
<pdfrwt beam="1">  1        2 0.32206405E-01 0.80954965E+02</pdfrwt>
<pdfrwt beam="2">  1       -1 0.12040874E-02 0.80954965E+02</pdfrwt>
<totfact> 0.21721751E+05</totfact>
</mgrwt>
</event>
<event>
 8    1  0.2676873E-024  0.7973470E+02  0.7818608E-02  0.1329806E+00
         -1   -1    0    0    0  501 -0.00000000000E+00  0.00000000000E+00  0.10744039538E+01  0.10744157750E+01  0.50400000000E-02 0.  1.
          2   -1    0    0  501    0  0.00000000000E+00 -0.00000000000E+00 -0.14793288518E+04  0.14793288518E+04  0.25500000000E-02 0. -1.
         24    2    1    2    0    0  0.00000000000E+00  0.00000000000E+00 -0.14782544478E+04  0.14804032675E+04  0.79734698069E+02 0.  0.
         66    2    3    3    0    0  0.17299774857E+02  0.11239889173E+02 -0.13724328736E+04  0.13725893814E+04  0.19999985620E+01 0.  0.
        -13    1    3    3    0    0 -0.17299774857E+02 -0.11239889173E+02 -0.10582157417E+03  0.10781388613E+03  0.10566000000E+00 0.  1.
         13    1    4    4    0    0  0.13211990677E+02  0.84498123511E+01 -0.10501301831E+04  0.10502472893E+04  0.10566000000E+00 0. -1.
        -13    1    4    4    0    0  0.13578481192E+01  0.85576410660E+00 -0.13430904766E+03  0.13431867901E+03  0.10566000000E+00 0.  1.
         14    1    4    4    0    0  0.27299360609E+01  0.19343127154E+01 -0.18799364285E+03  0.18802341308E+03  0.00000000000E+00 0. -1.
<mgrwt>
<rscale>  0 0.79734698E+02</rscale>
<asrwt>0</asrwt>
<pdfrwt beam="1">  1        2 0.22758743E+00 0.79734698E+02</pdfrwt>
<pdfrwt beam="2">  1       -1 0.16529501E-03 0.79734698E+02</pdfrwt>
<totfact> 0.33710937E+05</totfact>
</mgrwt>
</event>
<event>
 8    1  0.2676873E-024  0.7883940E+02  0.7818608E-02  0.1332378E+00
          2   -1    0    0  501    0  0.00000000000E+00  0.00000000000E+00  0.75822838604E+02  0.75822838647E+02  0.25500000000E-02 0. -1.
         -1   -1    0    0    0  501 -0.00000000000E+00 -0.00000000000E+00 -0.20493990972E+02  0.20493991592E+02  0.50400000000E-02 0.  1.
         24    2    1    2    0    0 -0.44408920985E-15 -0.71054273576E-14  0.55328847632E+02  0.96316830239E+02  0.78839396287E+02 0.  0.
         66    2    3    3    0    0  0.17428378880E+01  0.35141439810E+02  0.49328728194E+02  0.60624101663E+02  0.20000003577E+01 0.  0.
        -13    1    3    3    0    0 -0.17428378880E+01 -0.35141439810E+02  0.60001194384E+01  0.35692728575E+02  0.10566000000E+00 0.  1.
         13    1    4    4    0    0 -0.63074217282E-01  0.91133548213E+01  0.13409400856E+02  0.16213587197E+02  0.10566000000E+00 0. -1.
        -13    1    4    4    0    0  0.16465250509E+00  0.10695483334E+01  0.18414306773E+01  0.21384749378E+01  0.10566000000E+00 0. -1.
        -14    1    4    4    0    0  0.16412596002E+01  0.24958536656E+02  0.34077896661E+02  0.42272039528E+02  0.00000000000E+00 0.  1.
<mgrwt>
<rscale>  0 0.78839396E+02</rscale>
<asrwt>0</asrwt>
<pdfrwt beam="1">  1        2 0.11665052E-01 0.78839396E+02</pdfrwt>
<pdfrwt beam="2">  1       -1 0.31529217E-02 0.78839396E+02</pdfrwt>
<totfact> 0.17131803E+05</totfact>
</mgrwt>
</event>
<event>
 8    1  0.2676873E-024  0.7948521E+02  0.7818608E-02  0.1330519E+00
         -1   -1    0    0    0  501 -0.00000000000E+00  0.00000000000E+00  0.67222244494E+02  0.67222244683E+02  0.50400000000E-02 0.  1.
          2   -1    0    0  501    0  0.00000000000E+00 -0.00000000000E+00 -0.23496310031E+02  0.23496310169E+02  0.25500000000E-02 0. -1.
         24    2    1    2    0    0  0.17763568394E-14  0.88817841970E-15  0.43725934464E+02  0.90718554852E+02  0.79485211516E+02 0.  0.
         66    2    3    3    0    0 -0.14910588752E+02  0.77942922879E+01 -0.19185492933E+02  0.25596089371E+02  0.20000007000E+01 0.  0.
        -13    1    3    3    0    0  0.14910588752E+02 -0.77942922879E+01  0.62911427397E+02  0.65122465481E+02  0.10566000000E+00 0.  1.
         13    1    4    4    0    0 -0.53318118995E+01  0.31945348348E+01 -0.70653309402E+01  0.94108095440E+01  0.10566000000E+00 0. -1.
        -13    1    4    4    0    0 -0.32425129660E+01  0.23377773480E+01 -0.44783151394E+01  0.60037957816E+01  0.10566000000E+00 0.  1.
         14    1    4    4    0    0 -0.63362638863E+01  0.22619801051E+01 -0.76418468538E+01  0.10181484046E+02  0.00000000000E+00 0. -1.
<mgrwt>
<rscale>  0 0.79485212E+02</rscale>
<asrwt>0</asrwt>
<pdfrwt beam="1">  1        2 0.36148170E-02 0.79485212E+02</pdfrwt>
<pdfrwt beam="2">  1       -1 0.10341884E-01 0.79485212E+02</pdfrwt>
<totfact> 0.13059469E+05</totfact>
</mgrwt>
</event>
<event>
 8    1  0.2676873E-024  0.8048293E+02  0.7818608E-02  0.1327687E+00
          2   -1    0    0  501    0  0.00000000000E+00  0.00000000000E+00  0.25108797970E+02  0.25108798100E+02  0.25500000000E-02 0. -1.
         -1   -1    0    0    0  501 -0.00000000000E+00 -0.00000000000E+00 -0.64494351463E+02  0.64494351660E+02  0.50400000000E-02 0.  1.
         24    2    1    2    0    0  0.00000000000E+00  0.00000000000E+00 -0.39385553493E+02  0.89603149760E+02  0.80482933738E+02 0.  0.
         66    2    3    3    0    0 -0.24702751137E+02  0.15892912121E+02  0.10877132816E+02  0.31386662676E+02  0.20000015672E+01 0.  0.
        -13    1    3    3    0    0  0.24702751137E+02 -0.15892912121E+02 -0.50262686308E+02  0.58216487084E+02  0.10566000000E+00 0.  1.
         13    1    4    4    0    0 -0.13036965528E+02  0.82268667293E+01  0.57164621031E+01  0.16441803714E+02  0.10566000000E+00 0. -1.
        -13    1    4    4    0    0 -0.44247324793E+01  0.21409175397E+01  0.18818332440E+01  0.52644321459E+01  0.10566000000E+00 0.  1.
        -14    1    4    4    0    0 -0.72410531292E+01  0.55251278521E+01  0.32788374685E+01  0.96804268164E+01  0.00000000000E+00 0.  1.
<mgrwt>
<rscale>  0 0.80482934E+02</rscale>
<asrwt>0</asrwt>
<pdfrwt beam="1">  1        2 0.38628920E-02 0.80482934E+02</pdfrwt>
<pdfrwt beam="2">  1       -1 0.99222079E-02 0.80482934E+02</pdfrwt>
<totfact> 0.12771911E+05</totfact>
</mgrwt>
</event>
<event>
 8    1  0.2676873E-024  0.7879536E+02  0.7818608E-02  0.1332505E+00
          2   -1    0    0  501    0  0.00000000000E+00  0.00000000000E+00  0.16021757706E+04  0.16021757706E+04  0.25500000000E-02 0. -1.
         -1   -1    0    0    0  501 -0.00000000000E+00 -0.00000000000E+00 -0.96878664645E+00  0.96879975637E+00  0.50400000000E-02 0.  1.
         24    2    1    2    0    0 -0.17763568394E-14  0.00000000000E+00  0.16012069840E+04  0.16031445704E+04  0.78795355245E+02 0.  0.
         66    2    3    3    0    0 -0.13198399426E+02  0.11201604815E+02  0.15205894112E+04  0.15206892619E+04  0.20000015765E+01 0.  0.
        -13    1    3    3    0    0  0.13198399426E+02 -0.11201604815E+02  0.80617572798E+02  0.82455308536E+02  0.10566000000E+00 0.  1.
         13    1    4    4    0    0 -0.58471280195E+01  0.45674774719E+01  0.66156231920E+03  0.66160393296E+03  0.10566000000E+00 0. -1.
        -13    1    4    4    0    0 -0.38007571057E+01  0.42607714298E+01  0.51909812211E+03  0.51912953246E+03  0.10566000000E+00 0.  1.
         14    1    4    4    0    0 -0.35505143013E+01  0.23733559136E+01  0.33992896988E+03  0.33995579644E+03  0.00000000000E+00 0. -1.
<mgrwt>
<rscale>  0 0.78795355E+02</rscale>
<asrwt>0</asrwt>
<pdfrwt beam="1">  1        2 0.24648940E+00 0.78795355E+02</pdfrwt>
<pdfrwt beam="2">  1       -1 0.14904461E-03 0.78795355E+02</pdfrwt>
<totfact> 0.33631155E+05</totfact>
</mgrwt>
</event>
<event>
 8    1  0.2700106E-024  0.7745157E+02  0.7818608E-02  0.1336443E+00
         -1   -1    0    0    0  501 -0.00000000000E+00  0.00000000000E+00  0.12084334049E+02  0.12084335100E+02  0.50400000000E-02 0.  1.
          2   -1    0    0  501    0  0.00000000000E+00 -0.00000000000E+00 -0.12410168608E+03  0.12410168611E+03  0.25500000000E-02 0. -1.
         24    2    1    2    0    0 -0.17763568394E-14 -0.35527136788E-14 -0.11201735203E+03  0.13618602121E+03  0.77451566906E+02 0.  0.
         66    2    3    3    0    0 -0.95890166628E+01 -0.23498011446E+02 -0.10741754563E+03  0.11039309262E+03  0.20000013858E+01 0.  0.
        -13    1    3    3    0    0  0.95890166628E+01  0.23498011446E+02 -0.45998064045E+01  0.25792928595E+02  0.10566000000E+00 0.  1.
         13    1    4    4    0    0 -0.63488028290E+01 -0.14756108301E+02 -0.66005345458E+02  0.67932075065E+02  0.10566000000E+00 0. -1.
        -13    1    4    4    0    0 -0.16004330448E+01 -0.38623003974E+01 -0.16423967486E+02  0.16948056594E+02  0.10566000000E+00 0.  1.
        -14    1    4    4    0    0 -0.16397807890E+01 -0.48796027485E+01 -0.24988232686E+02  0.25512960957E+02  0.00000000000E+00 0.  1.
<mgrwt>
<rscale>  0 0.77451567E+02</rscale>
<asrwt>0</asrwt>
<pdfrwt beam="1">  1        2 0.19092566E-01 0.77451567E+02</pdfrwt>
<pdfrwt beam="2">  1       -1 0.18591285E-02 0.77451567E+02</pdfrwt>
<totfact> 0.20574023E+05</totfact>
</mgrwt>
</event>
<event>
 8    1  0.2676873E-024  0.7823638E+02  0.7818608E-02  0.1334132E+00
          2   -1    0    0  501    0  0.00000000000E+00  0.00000000000E+00  0.91102276252E+03  0.91102276252E+03  0.25500000000E-02 0. -1.
         -1   -1    0    0    0  501 -0.00000000000E+00 -0.00000000000E+00 -0.16796829980E+01  0.16796905595E+01  0.50400000000E-02 0.  1.
         24    2    1    2    0    0  0.88817841970E-15  0.00000000000E+00  0.90934307952E+03  0.91270245308E+03  0.78236382772E+02 0.  0.
         66    2    3    3    0    0 -0.69844760762E+01  0.25602851979E+02  0.78983147534E+03  0.79027972793E+03  0.20000012580E+01 0.  0.
        -13    1    3    3    0    0  0.69844760762E+01 -0.25602851979E+02  0.11951160418E+03  0.12242272515E+03  0.10566000000E+00 0.  1.
         13    1    4    4    0    0 -0.16681576794E+01  0.87365148595E+01  0.27809448481E+03  0.27823670334E+03  0.10566000000E+00 0. -1.
        -13    1    4    4    0    0 -0.46231689989E+01  0.15314642074E+02  0.45949458814E+03  0.45977298708E+03  0.10566000000E+00 0.  1.
        -14    1    4    4    0    0 -0.69314939797E+00  0.15516950453E+01  0.52242402394E+02  0.52270037512E+02  0.00000000000E+00 0.  1.
<mgrwt>
<rscale>  0 0.78236383E+02</rscale>
<asrwt>0</asrwt>
<pdfrwt beam="1">  1        2 0.14015793E+00 0.78236383E+02</pdfrwt>
<pdfrwt beam="2">  1       -1 0.25841229E-03 0.78236383E+02</pdfrwt>
<totfact> 0.37074599E+05</totfact>
</mgrwt>
</event>
<event>
 8    1  0.2676873E-024  0.7513725E+02  0.7818608E-02  0.1343447E+00
         -1   -1    0    0    0  501 -0.00000000000E+00  0.00000000000E+00  0.38570040069E+02  0.38570040398E+02  0.50400000000E-02 0.  1.
          2   -1    0    0  501    0  0.00000000000E+00 -0.00000000000E+00 -0.36593209165E+02  0.36593209254E+02  0.25500000000E-02 0. -1.
         24    2    1    2    0    0  0.35527136788E-14  0.17763568394E-14  0.19768309038E+01  0.75163249652E+02  0.75137249336E+02 0.  0.
         66    2    3    3    0    0 -0.16330259095E+02 -0.10390263693E+02 -0.31189730086E+02  0.36761858094E+02  0.20000014968E+01 0.  0.
        -13    1    3    3    0    0  0.16330259095E+02  0.10390263693E+02  0.33166560989E+02  0.38401391558E+02  0.10566000000E+00 0.  1.
         13    1    4    4    0    0 -0.97541778473E+01 -0.56310664366E+01 -0.17918002057E+02  0.21164093565E+02  0.10566000000E+00 0. -1.
        -13    1    4    4    0    0 -0.38182965999E+01 -0.28193325227E+01 -0.66996035078E+01  0.82112042963E+01  0.10566000000E+00 0.  1.
        -14    1    4    4    0    0 -0.27577846475E+01 -0.19398647336E+01 -0.65721245210E+01  0.73865602323E+01  0.00000000000E+00 0.  1.
<mgrwt>
<rscale>  0 0.75137249E+02</rscale>
<asrwt>0</asrwt>
<pdfrwt beam="1">  1        2 0.56297246E-02 0.75137249E+02</pdfrwt>
<pdfrwt beam="2">  1       -1 0.59338523E-02 0.75137249E+02</pdfrwt>
<totfact> 0.16645926E+05</totfact>
</mgrwt>
</event>
<event>
 8    1  0.2676873E-024  0.7750239E+02  0.7818608E-02  0.1336292E+00
          2   -1    0    0  501    0  0.00000000000E+00  0.00000000000E+00  0.64623963340E+03  0.64623963341E+03  0.25500000000E-02 0. -1.
         -1   -1    0    0    0  501 -0.00000000000E+00 -0.00000000000E+00 -0.23236790047E+01  0.23236844705E+01  0.50400000000E-02 0.  1.
         24    2    1    2    0    0  0.00000000000E+00  0.00000000000E+00  0.64391595440E+03  0.64856331788E+03  0.77502393311E+02 0.  0.
         66    2    3    3    0    0 -0.12138623462E+02  0.44491507884E+01  0.62764446142E+03  0.62778078266E+03  0.20000013984E+01 0.  0.
        -13    1    3    3    0    0  0.12138623462E+02 -0.44491507884E+01  0.16271492981E+02  0.20782535220E+02  0.10566000000E+00 0.  1.
         13    1    4    4    0    0 -0.47183404478E+01  0.22128565967E+01  0.22712737408E+03  0.22718717986E+03  0.10566000000E+00 0. -1.
        -13    1    4    4    0    0 -0.11065257424E+00 -0.60476269403E-01  0.10090163546E+02  0.10091504635E+02  0.10566000000E+00 0. -1.
         14    1    4    4    0    0 -0.73096304402E+01  0.22967704610E+01  0.39042692379E+03  0.39050209817E+03  0.00000000000E+00 0. -1.
<mgrwt>
<rscale>  0 0.77502393E+02</rscale>
<asrwt>0</asrwt>
<pdfrwt beam="1">  1        2 0.99421654E-01 0.77502393E+02</pdfrwt>
<pdfrwt beam="2">  1       -1 0.35748888E-03 0.77502393E+02</pdfrwt>
<totfact> 0.35625279E+05</totfact>
</mgrwt>
</event>
<event>
 8    1  0.2676873E-024  0.7745583E+02  0.7818608E-02  0.1336430E+00
          2   -1    0    0  501    0  0.00000000000E+00  0.00000000000E+00  0.98742869361E+01  0.98742872653E+01  0.25500000000E-02 0. -1.
         -1   -1    0    0    0  501 -0.00000000000E+00 -0.00000000000E+00 -0.15189463274E+03  0.15189463282E+03  0.50400000000E-02 0.  1.
         24    2    1    2    0    0  0.00000000000E+00  0.00000000000E+00 -0.14202034580E+03  0.16176892009E+03  0.77455825374E+02 0.  0.
         66    2    3    3    0    0  0.35012260343E+02  0.22229215901E+01 -0.10518724379E+03  0.11090156000E+03  0.19999996504E+01 0.  0.
        -13    1    3    3    0    0 -0.35012260343E+02 -0.22229215901E+01 -0.36833102009E+02  0.50867360089E+02  0.10566000000E+00 0.  1.
         13    1    4    4    0    0  0.15052154460E+02  0.15687900252E+01 -0.47374137121E+02  0.49732770765E+02  0.10566000000E+00 0. -1.
        -13    1    4    4    0    0  0.24845345135E+01  0.34810747278E-01 -0.77901199657E+01  0.81774847388E+01  0.10566000000E+00 0.  1.
         14    1    4    4    0    0  0.17475571370E+02  0.61932081756E+00 -0.50022986707E+02  0.52991304495E+02  0.00000000000E+00 0. -1.
<mgrwt>
<rscale>  0 0.77455825E+02</rscale>
<asrwt>0</asrwt>
<pdfrwt beam="1">  1        2 0.15191212E-02 0.77455825E+02</pdfrwt>
<pdfrwt beam="2">  1       -1 0.23368403E-01 0.77455825E+02</pdfrwt>
<totfact> 0.11667857E+05</totfact>
</mgrwt>
</event>
<event>
 8    1  0.2676873E-024  0.7858604E+02  0.7818608E-02  0.1333113E+00
          2   -1    0    0  501    0  0.00000000000E+00  0.00000000000E+00  0.88600176117E+03  0.88600176118E+03  0.25500000000E-02 0. -1.
         -1   -1    0    0    0  501 -0.00000000000E+00 -0.00000000000E+00 -0.17425905906E+01  0.17425978790E+01  0.50400000000E-02 0.  1.
         24    2    1    2    0    0  0.88817841970E-15  0.00000000000E+00  0.88425917058E+03  0.88774435906E+03  0.78586043775E+02 0.  0.
         66    2    3    3    0    0 -0.74733188981E+01  0.13210023734E+02  0.85152517500E+03  0.85166277299E+03  0.20000028127E+01 0.  0.
        -13    1    3    3    0    0  0.74733188981E+01 -0.13210023734E+02  0.32733995583E+02  0.36081586069E+02  0.10566000000E+00 0.  1.
         13    1    4    4    0    0 -0.50940518248E+01  0.82416506776E+01  0.49371948492E+03  0.49381455539E+03  0.10566000000E+00 0. -1.
        -13    1    4    4    0    0 -0.66847750595E+00  0.14110319550E+01  0.10823371526E+03  0.10824502833E+03  0.10566000000E+00 0.  1.
         14    1    4    4    0    0 -0.17107895674E+01  0.35573411009E+01  0.24957197482E+03  0.24960318927E+03  0.00000000000E+00 0. -1.
<mgrwt>
<rscale>  0 0.78586044E+02</rscale>
<asrwt>0</asrwt>
<pdfrwt beam="1">  1        2 0.13630799E+00 0.78586044E+02</pdfrwt>
<pdfrwt beam="2">  1       -1 0.26809136E-03 0.78586044E+02</pdfrwt>
<totfact> 0.36535653E+05</totfact>
</mgrwt>
</event>
<event>
 8    1  0.2676873E-024  0.8072765E+02  0.7818608E-02  0.1326999E+00
         -1   -1    0    0    0  501 -0.00000000000E+00  0.00000000000E+00  0.46963536064E+01  0.46963563108E+01  0.50400000000E-02 0.  1.
          2   -1    0    0  501    0  0.00000000000E+00 -0.00000000000E+00 -0.34691547373E+03  0.34691547374E+03  0.25500000000E-02 0. -1.
         24    2    1    2    0    0 -0.35527136788E-14  0.26645352591E-14 -0.34221912013E+03  0.35161183005E+03  0.80727646151E+02 0.  0.
         66    2    3    3    0    0 -0.29796851631E+02  0.69311637589E+01 -0.28573577916E+03  0.28737576255E+03  0.20000018921E+01 0.  0.
        -13    1    3    3    0    0  0.29796851631E+02 -0.69311637589E+01 -0.56483340965E+02  0.64236067507E+02  0.10566000000E+00 0.  1.
         13    1    4    4    0    0 -0.16305242885E+02  0.42729690814E+01 -0.15495543121E+03  0.15586954813E+03  0.10566000000E+00 0. -1.
        -13    1    4    4    0    0 -0.85984807464E+01  0.22102792506E+01 -0.85995045566E+02  0.86452173087E+02  0.10566000000E+00 0.  1.
        -14    1    4    4    0    0 -0.48931280003E+01  0.44791542682E+00 -0.44785302390E+02  0.45054041328E+02  0.00000000000E+00 0.  1.
<mgrwt>
<rscale>  0 0.80727646E+02</rscale>
<asrwt>0</asrwt>
<pdfrwt beam="1">  1        2 0.53371591E-01 0.80727646E+02</pdfrwt>
<pdfrwt beam="2">  1       -1 0.72251642E-03 0.80727646E+02</pdfrwt>
<totfact> 0.26235172E+05</totfact>
</mgrwt>
</event>
<event>
 8    1  0.2676873E-024  0.7928134E+02  0.7818608E-02  0.1331103E+00
         -1   -1    0    0    0  501 -0.00000000000E+00  0.00000000000E+00  0.38586126462E+02  0.38586126791E+02  0.50400000000E-02 0.  1.
          2   -1    0    0  501    0  0.00000000000E+00 -0.00000000000E+00 -0.40724030480E+02  0.40724030560E+02  0.25500000000E-02 0. -1.
         24    2    1    2    0    0  0.00000000000E+00  0.00000000000E+00 -0.21379040180E+01  0.79310157352E+02  0.79281337183E+02 0.  0.
         66    2    3    3    0    0  0.17276121884E+02  0.10931969061E+02 -0.35014329336E+02  0.40595265635E+02  0.19999995381E+01 0.  0.
        -13    1    3    3    0    0 -0.17276121884E+02 -0.10931969061E+02  0.32876425318E+02  0.38714891717E+02  0.10566000000E+00 0.  1.
         13    1    4    4    0    0  0.36157411437E+01  0.25571648635E+01 -0.82738670315E+01  0.93851327028E+01  0.10566000000E+00 0. -1.
        -13    1    4    4    0    0  0.12754538520E+02  0.81804852820E+01 -0.25490578926E+02  0.29654331392E+02  0.10566000000E+00 0.  1.
        -14    1    4    4    0    0  0.90584222085E+00  0.19431891574E+00 -0.12498833789E+01  0.15558015397E+01  0.00000000000E+00 0.  1.
<mgrwt>
<rscale>  0 0.79281337E+02</rscale>
<asrwt>0</asrwt>
<pdfrwt beam="1">  1        2 0.62652355E-02 0.79281337E+02</pdfrwt>
<pdfrwt beam="2">  1       -1 0.59363272E-02 0.79281337E+02</pdfrwt>
<totfact> 0.14668855E+05</totfact>
</mgrwt>
</event>
<event>
 8    1  0.2676873E-024  0.7962409E+02  0.7818608E-02  0.1330122E+00
         -1   -1    0    0    0  501 -0.00000000000E+00  0.00000000000E+00  0.10447812990E+02  0.10447814206E+02  0.50400000000E-02 0.  1.
          2   -1    0    0  501    0  0.00000000000E+00 -0.00000000000E+00 -0.15170626217E+03  0.15170626219E+03  0.25500000000E-02 0. -1.
         24    2    1    2    0    0  0.00000000000E+00  0.00000000000E+00 -0.14125844918E+03  0.16215407640E+03  0.79624085724E+02 0.  0.
         66    2    3    3    0    0 -0.18087654281E+02  0.30692532917E+02 -0.10674889735E+03  0.11255452856E+03  0.19999997570E+01 0.  0.
        -13    1    3    3    0    0  0.18087654281E+02 -0.30692532917E+02 -0.34509551824E+02  0.49599547834E+02  0.10566000000E+00 0.  1.
         13    1    4    4    0    0 -0.65230044812E+01  0.10743829405E+02 -0.38821750137E+02  0.40805868518E+02  0.10566000000E+00 0.  1.
        -13    1    4    4    0    0 -0.95797213434E+01  0.15395922774E+02 -0.52798966092E+02  0.55826046641E+02  0.10566000000E+00 0. -1.
        -14    1    4    4    0    0 -0.19849284564E+01  0.45527807376E+01 -0.15128181125E+02  0.15922613403E+02  0.00000000000E+00 0.  1.
<mgrwt>
<rscale>  0 0.79624086E+02</rscale>
<asrwt>0</asrwt>
<pdfrwt beam="1">  1        2 0.23339423E-01 0.79624086E+02</pdfrwt>
<pdfrwt beam="2">  1       -1 0.16073561E-02 0.79624086E+02</pdfrwt>
<totfact> 0.20355966E+05</totfact>
</mgrwt>
</event>
<event>
 8    1  0.2676873E-024  0.8213025E+02  0.7818608E-02  0.1323113E+00
          2   -1    0    0  501    0  0.00000000000E+00  0.00000000000E+00  0.13072826077E+03  0.13072826080E+03  0.25500000000E-02 0. -1.
         -1   -1    0    0    0  501 -0.00000000000E+00 -0.00000000000E+00 -0.12899616817E+02  0.12899617802E+02  0.50400000000E-02 0.  1.
         24    2    1    2    0    0  0.00000000000E+00  0.00000000000E+00  0.11782864396E+03  0.14362787860E+03  0.82130251275E+02 0.  0.
         66    2    3    3    0    0 -0.45768870727E+01  0.20025760563E+02  0.12108287326E+03  0.12282931726E+03  0.20000000970E+01 0.  0.
        -13    1    3    3    0    0  0.45768870727E+01 -0.20025760563E+02 -0.32542293034E+01  0.20798561340E+02  0.10566000000E+00 0.  1.
         13    1    4    4    0    0 -0.74323202019E+00  0.40425048792E+01  0.27225374658E+02  0.27534095751E+02  0.10566000000E+00 0. -1.
        -13    1    4    4    0    0 -0.48880539039E+00  0.18540621394E+01  0.87725487507E+01  0.89802701933E+01  0.10566000000E+00 0.  1.
         14    1    4    4    0    0 -0.33448496621E+01  0.14129193545E+02  0.85084949851E+02  0.86314951316E+02  0.00000000000E+00 0. -1.
<mgrwt>
<rscale>  0 0.82130251E+02</rscale>
<asrwt>0</asrwt>
<pdfrwt beam="1">  1        2 0.20112039E-01 0.82130251E+02</pdfrwt>
<pdfrwt beam="2">  1       -1 0.19845566E-02 0.82130251E+02</pdfrwt>
<totfact> 0.17882159E+05</totfact>
</mgrwt>
</event>
<event>
 8    1  0.2676873E-024  0.7931015E+02  0.7818608E-02  0.1331021E+00
          2   -1    0    0  501    0  0.00000000000E+00  0.00000000000E+00  0.27929766371E+02  0.27929766488E+02  0.25500000000E-02 0. -1.
         -1   -1    0    0    0  501 -0.00000000000E+00 -0.00000000000E+00 -0.56302839536E+02  0.56302839762E+02  0.50400000000E-02 0.  1.
         24    2    1    2    0    0  0.00000000000E+00  0.00000000000E+00 -0.28373073165E+02  0.84232606250E+02  0.79310154929E+02 0.  0.
         66    2    3    3    0    0  0.50946548980E+01  0.36404366464E+02  0.15318947334E+01  0.36845354006E+02  0.20000010583E+01 0.  0.
        -13    1    3    3    0    0 -0.50946548980E+01 -0.36404366464E+02 -0.29904967898E+02  0.47387252243E+02  0.10566000000E+00 0.  1.
         13    1    4    4    0    0  0.29333775850E+00  0.10148556750E+01 -0.83144507632E-01  0.10649207136E+01  0.10566000000E+00 0. -1.
        -13    1    4    4    0    0  0.43909731644E+00  0.28536628275E+01  0.51717768206E+00  0.29351038784E+01  0.10566000000E+00 0.  1.
         14    1    4    4    0    0  0.43622198230E+01  0.32535847961E+02  0.10978615589E+01  0.32845329414E+02  0.00000000000E+00 0. -1.
<mgrwt>
<rscale>  0 0.79310155E+02</rscale>
<asrwt>0</asrwt>
<pdfrwt beam="1">  1        2 0.42968872E-02 0.79310155E+02</pdfrwt>
<pdfrwt beam="2">  1       -1 0.86619753E-02 0.79310155E+02</pdfrwt>
<totfact> 0.13593970E+05</totfact>
</mgrwt>
</event>
<event>
 8    1  0.2676873E-024  0.7233684E+02  0.7818608E-02  0.1352322E+00
          2   -1    0    0  501    0  0.00000000000E+00  0.00000000000E+00  0.13791565507E+03  0.13791565509E+03  0.25500000000E-02 0. -1.
         -1   -1    0    0    0  501 -0.00000000000E+00 -0.00000000000E+00 -0.94851767005E+01  0.94851780395E+01  0.50400000000E-02 0.  1.
         24    2    1    2    0    0 -0.35527136788E-14  0.35527136788E-14  0.12843047837E+03  0.14740083313E+03  0.72336835941E+02 0.  0.
         66    2    3    3    0    0  0.20703498936E+02 -0.24274286998E+02  0.98861552579E+02  0.10390131114E+03  0.20000000236E+01 0.  0.
        -13    1    3    3    0    0 -0.20703498936E+02  0.24274286998E+02  0.29568925787E+02  0.43499521994E+02  0.10566000000E+00 0.  1.
         13    1    4    4    0    0  0.55262659243E+01 -0.58742151087E+01  0.23110168279E+02  0.24477276404E+02  0.10566000000E+00 0. -1.
        -13    1    4    4    0    0  0.50666403871E+01 -0.68726713427E+01  0.26854056449E+02  0.28178998705E+02  0.10566000000E+00 0.  1.
         14    1    4    4    0    0  0.10110592624E+02 -0.11527400546E+02  0.48897327851E+02  0.51245036028E+02  0.00000000000E+00 0. -1.
<mgrwt>
<rscale>  0 0.72336836E+02</rscale>
<asrwt>0</asrwt>
<pdfrwt beam="1">  1        2 0.21217793E-01 0.72336836E+02</pdfrwt>
<pdfrwt beam="2">  1       -1 0.14592581E-02 0.72336836E+02</pdfrwt>
<totfact> 0.25444145E+05</totfact>
</mgrwt>
</event>
<event>
 8    1  0.2676873E-024  0.7897108E+02  0.7818608E-02  0.1331997E+00
         -1   -1    0    0    0  501 -0.00000000000E+00  0.00000000000E+00  0.13651423662E+01  0.13651516698E+01  0.50400000000E-02 0.  1.
          2   -1    0    0  501    0  0.00000000000E+00 -0.00000000000E+00 -0.11420806162E+04  0.11420806162E+04  0.25500000000E-02 0. -1.
         24    2    1    2    0    0  0.00000000000E+00  0.00000000000E+00 -0.11407154738E+04  0.11434457679E+04  0.78971082188E+02 0.  0.
         66    2    3    3    0    0  0.11181435069E+02  0.10966755044E+02 -0.10951467733E+04  0.10952605851E+04  0.20000007151E+01 0.  0.
        -13    1    3    3    0    0 -0.11181435069E+02 -0.10966755044E+02 -0.45568700564E+02  0.48185182800E+02  0.10566000000E+00 0.  1.
         13    1    4    4    0    0  0.11927101351E+01  0.17004793133E+01 -0.17951032579E+03  0.17952237303E+03  0.10566000000E+00 0. -1.
        -13    1    4    4    0    0  0.71058304398E+01  0.70699120945E+01 -0.66376142754E+03  0.66383711883E+03  0.10566000000E+00 0.  1.
        -14    1    4    4    0    0  0.28828944940E+01  0.21963636359E+01 -0.25187501995E+03  0.25190109323E+03  0.00000000000E+00 0.  1.
<mgrwt>
<rscale>  0 0.78971082E+02</rscale>
<asrwt>0</asrwt>
<pdfrwt beam="1">  1        2 0.17570395E+00 0.78971082E+02</pdfrwt>
<pdfrwt beam="2">  1       -1 0.21002353E-03 0.78971082E+02</pdfrwt>
<totfact> 0.36390735E+05</totfact>
</mgrwt>
</event>
<event>
 8    1  0.2676873E-024  0.8003920E+02  0.7818608E-02  0.1328940E+00
         -1   -1    0    0    0  501 -0.00000000000E+00  0.00000000000E+00  0.59822983314E+02  0.59822983526E+02  0.50400000000E-02 0.  1.
          2   -1    0    0  501    0  0.00000000000E+00 -0.00000000000E+00 -0.26771790098E+02  0.26771790220E+02  0.25500000000E-02 0. -1.
         24    2    1    2    0    0  0.00000000000E+00  0.00000000000E+00  0.33051193215E+02  0.86594773746E+02  0.80039199566E+02 0.  0.
         66    2    3    3    0    0 -0.12846310672E+02 -0.32103967116E+02 -0.52066540938E+01  0.35025728309E+02  0.19999985666E+01 0.  0.
        -13    1    3    3    0    0  0.12846310672E+02  0.32103967116E+02  0.38257847309E+02  0.51569045437E+02  0.10566000000E+00 0.  1.
         13    1    4    4    0    0 -0.60490275238E+01 -0.16356292267E+02 -0.24635471707E+01  0.17612474539E+02  0.10566000000E+00 0. -1.
        -13    1    4    4    0    0 -0.17046515498E+01 -0.41074726168E+01 -0.18144116139E+00  0.44521065952E+01  0.10566000000E+00 0.  1.
        -14    1    4    4    0    0 -0.50926315982E+01 -0.11640202232E+02 -0.25616657618E+01  0.12961147175E+02  0.00000000000E+00 0.  1.
<mgrwt>
<rscale>  0 0.80039200E+02</rscale>
<asrwt>0</asrwt>
<pdfrwt beam="1">  1        2 0.41187370E-02 0.80039200E+02</pdfrwt>
<pdfrwt beam="2">  1       -1 0.92035358E-02 0.80039200E+02</pdfrwt>
<totfact> 0.13138625E+05</totfact>
</mgrwt>
</event>
<event>
 8    1  0.2676873E-024  0.8005712E+02  0.7818608E-02  0.1328889E+00
          2   -1    0    0  501    0  0.00000000000E+00  0.00000000000E+00  0.14306340145E+02  0.14306340372E+02  0.25500000000E-02 0. -1.
         -1   -1    0    0    0  501 -0.00000000000E+00 -0.00000000000E+00 -0.11199828259E+03  0.11199828271E+03  0.50400000000E-02 0.  1.
         24    2    1    2    0    0 -0.88817841970E-15  0.00000000000E+00 -0.97691942447E+02  0.12630462308E+03  0.80057118308E+02 0.  0.
         66    2    3    3    0    0 -0.40048552488E+01  0.26406622589E+02 -0.18908059710E+01  0.26850022901E+02  0.20000001197E+01 0.  0.
        -13    1    3    3    0    0  0.40048552488E+01 -0.26406622589E+02 -0.95801136476E+02  0.99454600176E+02  0.10566000000E+00 0.  1.
         13    1    4    4    0    0 -0.91821139881E+00  0.52208314906E+01 -0.12889396211E+00  0.53035809898E+01  0.10566000000E+00 0. -1.
        -13    1    4    4    0    0 -0.21601075911E+00  0.62475085545E+01 -0.20676930819E+00  0.62555528428E+01  0.10566000000E+00 0.  1.
        -14    1    4    4    0    0 -0.28706330909E+01  0.14938282544E+02 -0.15551427007E+01  0.15290889069E+02  0.00000000000E+00 0.  1.
<mgrwt>
<rscale>  0 0.80057118E+02</rscale>
<asrwt>0</asrwt>
<pdfrwt beam="1">  1        2 0.22009755E-02 0.80057118E+02</pdfrwt>
<pdfrwt beam="2">  1       -1 0.17230505E-01 0.80057118E+02</pdfrwt>
<totfact> 0.11542635E+05</totfact>
</mgrwt>
</event>
<event>
 8    1  0.2676873E-024  0.8628290E+02  0.7818608E-02  0.1312111E+00
          2   -1    0    0  501    0  0.00000000000E+00  0.00000000000E+00  0.26509107478E+02  0.26509107601E+02  0.25500000000E-02 0. -1.
         -1   -1    0    0    0  501 -0.00000000000E+00 -0.00000000000E+00 -0.70209249635E+02  0.70209249816E+02  0.50400000000E-02 0.  1.
         24    2    1    2    0    0 -0.88817841970E-15  0.35527136788E-14 -0.43700142157E+02  0.96718357417E+02  0.86282896549E+02 0.  0.
         66    2    3    3    0    0 -0.44143034689E+01  0.24910700732E+02  0.17277502813E+02  0.30700833711E+02  0.20000002647E+01 0.  0.
        -13    1    3    3    0    0  0.44143034689E+01 -0.24910700732E+02 -0.60977644970E+02  0.66017523706E+02  0.10566000000E+00 0.  1.
         13    1    4    4    0    0 -0.15706031166E+01  0.62669611992E+01  0.50133345846E+01  0.81784035432E+01  0.10566000000E+00 0.  1.
        -13    1    4    4    0    0 -0.14766541276E+00  0.27917793494E+01  0.21229969039E+01  0.35119961418E+01  0.10566000000E+00 0. -1.
        -14    1    4    4    0    0 -0.26960349395E+01  0.15851960183E+02  0.10141171324E+02  0.19010434026E+02  0.00000000000E+00 0.  1.
<mgrwt>
<rscale>  0 0.86282897E+02</rscale>
<asrwt>0</asrwt>
<pdfrwt beam="1">  1        2 0.40783243E-02 0.86282897E+02</pdfrwt>
<pdfrwt beam="2">  1       -1 0.10801423E-01 0.86282897E+02</pdfrwt>
<totfact> 0.10592501E+05</totfact>
</mgrwt>
</event>
<event>
 8    1  0.2676873E-024  0.8304461E+02  0.7818608E-02  0.1320627E+00
          2   -1    0    0  501    0  0.00000000000E+00  0.00000000000E+00  0.25097275416E+02  0.25097275545E+02  0.25500000000E-02 0. -1.
         -1   -1    0    0    0  501 -0.00000000000E+00 -0.00000000000E+00 -0.68696765676E+02  0.68696765861E+02  0.50400000000E-02 0.  1.
         24    2    1    2    0    0  0.00000000000E+00  0.00000000000E+00 -0.43599490260E+02  0.93794041406E+02  0.83044606401E+02 0.  0.
         66    2    3    3    0    0  0.40978348290E+02  0.60853707880E+01 -0.19082959534E+02  0.45655406100E+02  0.19999988581E+01 0.  0.
        -13    1    3    3    0    0 -0.40978348290E+02 -0.60853707880E+01 -0.24516530726E+02  0.48138635305E+02  0.10566000000E+00 0.  1.
         13    1    4    4    0    0  0.77327905407E+01  0.83908635340E+00 -0.38291662983E+01  0.86702822348E+01  0.10566000000E+00 0.  1.
        -13    1    4    4    0    0  0.32156889330E+02  0.53497500553E+01 -0.14792124481E+02  0.35798093074E+02  0.10566000000E+00 0. -1.
        -14    1    4    4    0    0  0.10886684193E+01 -0.10346562061E+00 -0.46166875439E+00  0.11870307918E+01  0.00000000000E+00 0.  1.
<mgrwt>
<rscale>  0 0.83044606E+02</rscale>
<asrwt>0</asrwt>
<pdfrwt beam="1">  1        2 0.38611193E-02 0.83044606E+02</pdfrwt>
<pdfrwt beam="2">  1       -1 0.10568733E-01 0.83044606E+02</pdfrwt>
<totfact> 0.11682534E+05</totfact>
</mgrwt>
</event>
<event>
 8    1  0.2676873E-024  0.8016767E+02  0.7818608E-02  0.1328576E+00
          2   -1    0    0  501    0  0.00000000000E+00  0.00000000000E+00  0.28501445386E+02  0.28501445500E+02  0.25500000000E-02 0. -1.
         -1   -1    0    0    0  501 -0.00000000000E+00 -0.00000000000E+00 -0.56373069766E+02  0.56373069991E+02  0.50400000000E-02 0.  1.
         24    2    1    2    0    0  0.00000000000E+00  0.00000000000E+00 -0.27871624380E+02  0.84874515491E+02  0.80167673873E+02 0.  0.
         66    2    3    3    0    0 -0.37375623544E+02 -0.13685870419E+02 -0.91545937164E+01  0.40890669759E+02  0.20000006976E+01 0.  0.
        -13    1    3    3    0    0  0.37375623544E+02  0.13685870419E+02 -0.18717030663E+02  0.43983845732E+02  0.10566000000E+00 0.  1.
         13    1    4    4    0    0 -0.22235828424E+02 -0.82888582469E+01 -0.57735251652E+01  0.24422980850E+02  0.10566000000E+00 0. -1.
        -13    1    4    4    0    0 -0.81166474335E+00 -0.38678267905E-01 -0.15666695317E+00  0.83426868203E+00  0.10566000000E+00 0.  1.
        -14    1    4    4    0    0 -0.14328130377E+02 -0.53583339045E+01 -0.32244015981E+01  0.15633420228E+02  0.00000000000E+00 0.  1.
<mgrwt>
<rscale>  0 0.80167674E+02</rscale>
<asrwt>0</asrwt>
<pdfrwt beam="1">  1        2 0.43848378E-02 0.80167674E+02</pdfrwt>
<pdfrwt beam="2">  1       -1 0.86727800E-02 0.80167674E+02</pdfrwt>
<totfact> 0.13241832E+05</totfact>
</mgrwt>
</event>
<event>
 8    1  0.2676873E-024  0.7863596E+02  0.7818608E-02  0.1332968E+00
          2   -1    0    0  501    0  0.00000000000E+00  0.00000000000E+00  0.49640470787E+03  0.49640470788E+03  0.25500000000E-02 0. -1.
         -1   -1    0    0    0  501 -0.00000000000E+00 -0.00000000000E+00 -0.31141978732E+01  0.31142019516E+01  0.50400000000E-02 0.  1.
         24    2    1    2    0    0  0.35527136788E-14 -0.17763568394E-14  0.49329051000E+03  0.49951890983E+03  0.78635958842E+02 0.  0.
         66    2    3    3    0    0 -0.16073701909E+02  0.10590472904E+02  0.46439962730E+03  0.46480268485E+03  0.20000008735E+01 0.  0.
        -13    1    3    3    0    0  0.16073701909E+02 -0.10590472904E+02  0.28890882704E+02  0.34716224979E+02  0.10566000000E+00 0.  1.
         13    1    4    4    0    0 -0.17923400361E+01  0.17352729574E+01  0.69224401129E+02  0.69269419882E+02  0.10566000000E+00 0. -1.
        -13    1    4    4    0    0 -0.46804456289E+00  0.36757873066E+00  0.16767422245E+02  0.16778313164E+02  0.10566000000E+00 0. -1.
         14    1    4    4    0    0 -0.13813317310E+02  0.84876212155E+01  0.37840780392E+03  0.37875495181E+03  0.00000000000E+00 0. -1.
<mgrwt>
<rscale>  0 0.78635959E+02</rscale>
<asrwt>0</asrwt>
<pdfrwt beam="1">  1        2 0.76369913E-01 0.78635959E+02</pdfrwt>
<pdfrwt beam="2">  1       -1 0.47910795E-03 0.78635959E+02</pdfrwt>
<totfact> 0.31772821E+05</totfact>
</mgrwt>
</event>
<event>
 8    1  0.2676873E-024  0.7976052E+02  0.7818608E-02  0.1329732E+00
         -1   -1    0    0    0  501 -0.00000000000E+00  0.00000000000E+00  0.36160283367E+01  0.36160318491E+01  0.50400000000E-02 0.  1.
          2   -1    0    0  501    0  0.00000000000E+00 -0.00000000000E+00 -0.43982909098E+03  0.43982909099E+03  0.25500000000E-02 0. -1.
         24    2    1    2    0    0  0.00000000000E+00  0.35527136788E-14 -0.43621306265E+03  0.44344512284E+03  0.79760522484E+02 0.  0.
         66    2    3    3    0    0  0.18731893072E+02  0.23896863515E+02 -0.36177488642E+03  0.36305235483E+03  0.20000002878E+01 0.  0.
        -13    1    3    3    0    0 -0.18731893072E+02 -0.23896863515E+02 -0.74438176225E+02  0.80392768006E+02  0.10566000000E+00 0.  1.
         13    1    4    4    0    0  0.28736147310E+01  0.42249087689E+01 -0.58991821882E+02  0.59212783491E+02  0.10566000000E+00 0.  1.
        -13    1    4    4    0    0  0.14973115231E+02  0.18740844787E+02 -0.29085627891E+03  0.29184379313E+03  0.10566000000E+00 0. -1.
         14    1    4    4    0    0  0.88516310919E+00  0.93110995898E+00 -0.11926785634E+02  0.11995778217E+02  0.00000000000E+00 0. -1.
<mgrwt>
<rscale>  0 0.79760522E+02</rscale>
<asrwt>0</asrwt>
<pdfrwt beam="1">  1        2 0.67665972E-01 0.79760522E+02</pdfrwt>
<pdfrwt beam="2">  1       -1 0.55631267E-03 0.79760522E+02</pdfrwt>
<totfact> 0.29421818E+05</totfact>
</mgrwt>
</event>
<event>
 8    1  0.2676873E-024  0.7994848E+02  0.7818608E-02  0.1329198E+00
          2   -1    0    0  501    0  0.00000000000E+00  0.00000000000E+00  0.17569943073E+03  0.17569943075E+03  0.25500000000E-02 0. -1.
         -1   -1    0    0    0  501 -0.00000000000E+00 -0.00000000000E+00 -0.90947358661E+01  0.90947372626E+01  0.50400000000E-02 0.  1.
         24    2    1    2    0    0  0.00000000000E+00  0.00000000000E+00  0.16660469487E+03  0.18479416801E+03  0.79948484541E+02 0.  0.
         66    2    3    3    0    0 -0.18786413720E+02  0.19236327012E+02  0.15164754710E+03  0.15402579056E+03  0.20000004467E+01 0.  0.
        -13    1    3    3    0    0  0.18786413720E+02 -0.19236327012E+02  0.14957147771E+02  0.30768377449E+02  0.10566000000E+00 0.  1.
         13    1    4    4    0    0 -0.46838543288E+01  0.50503861735E+01  0.41593578776E+02  0.42160192733E+02  0.10566000000E+00 0. -1.
        -13    1    4    4    0    0 -0.61997043293E+01  0.72093930029E+01  0.52315753472E+02  0.53172933967E+02  0.10566000000E+00 0.  1.
         14    1    4    4    0    0 -0.79028550618E+01  0.69765478352E+01  0.57738214847E+02  0.58692663864E+02  0.00000000000E+00 0. -1.
<mgrwt>
<rscale>  0 0.79948485E+02</rscale>
<asrwt>0</asrwt>
<pdfrwt beam="1">  1        2 0.27030678E-01 0.79948485E+02</pdfrwt>
<pdfrwt beam="2">  1       -1 0.13991905E-02 0.79948485E+02</pdfrwt>
<totfact> 0.21137089E+05</totfact>
</mgrwt>
</event>
<event>
 8    1  0.2676873E-024  0.8014847E+02  0.7818608E-02  0.1328631E+00
         -1   -1    0    0    0  501 -0.00000000000E+00  0.00000000000E+00  0.51386422620E+01  0.51386447336E+01  0.50400000000E-02 0.  1.
          2   -1    0    0  501    0  0.00000000000E+00 -0.00000000000E+00 -0.31252302023E+03  0.31252302024E+03  0.25500000000E-02 0. -1.
         24    2    1    2    0    0  0.00000000000E+00  0.22204460493E-15 -0.30738437797E+03  0.31766166497E+03  0.80148472071E+02 0.  0.
         66    2    3    3    0    0 -0.32203662954E+02  0.14114283498E+01 -0.24798620283E+03  0.25008043673E+03  0.20000004302E+01 0.  0.
        -13    1    3    3    0    0  0.32203662954E+02 -0.14114283498E+01 -0.59398175135E+02  0.67581228244E+02  0.10566000000E+00 0.  1.
         13    1    4    4    0    0 -0.19775889523E+01 -0.23410576808E-01 -0.14429407969E+02  0.14564696512E+02  0.10566000000E+00 0. -1.
        -13    1    4    4    0    0 -0.24131286727E+02  0.17126458298E+01 -0.18301024823E+03  0.18460231385E+03  0.10566000000E+00 0.  1.
        -14    1    4    4    0    0 -0.60947872743E+01 -0.27780690325E+00 -0.50546546630E+02  0.50913426371E+02  0.00000000000E+00 0.  1.
<mgrwt>
<rscale>  0 0.80148472E+02</rscale>
<asrwt>0</asrwt>
<pdfrwt beam="1">  1        2 0.48080450E-01 0.80148472E+02</pdfrwt>
<pdfrwt beam="2">  1       -1 0.79056079E-03 0.80148472E+02</pdfrwt>
<totfact> 0.25749011E+05</totfact>
</mgrwt>
</event>
<event>
 8    1  0.2676873E-024  0.7939348E+02  0.7818608E-02  0.1330781E+00
         -1   -1    0    0    0  501 -0.00000000000E+00  0.00000000000E+00  0.62500069271E+01  0.62500089592E+01  0.50400000000E-02 0.  1.
          2   -1    0    0  501    0  0.00000000000E+00 -0.00000000000E+00 -0.25213269443E+03  0.25213269444E+03  0.25500000000E-02 0. -1.
         24    2    1    2    0    0  0.11102230246E-15  0.00000000000E+00 -0.24588268750E+03  0.25838270340E+03  0.79393484643E+02 0.  0.
         66    2    3    3    0    0  0.90480168742E+00 -0.13953635562E+02 -0.24384254178E+03  0.24425132095E+03  0.19999976558E+01 0.  0.
        -13    1    3    3    0    0 -0.90480168742E+00  0.13953635562E+02 -0.20401457217E+01  0.14131382455E+02  0.10566000000E+00 0.  1.
         13    1    4    4    0    0  0.67088099638E+00 -0.13679867541E+02 -0.23791582362E+03  0.23830975463E+03  0.10566000000E+00 0. -1.
        -13    1    4    4    0    0  0.15967206137E+00 -0.22534234524E+00 -0.53408864861E+01  0.53490659776E+01  0.10566000000E+00 0. -1.
         14    1    4    4    0    0  0.74248629671E-01 -0.48425675817E-01 -0.58583166921E+00  0.59250033733E+00  0.00000000000E+00 0. -1.
<mgrwt>
<rscale>  0 0.79393485E+02</rscale>
<asrwt>0</asrwt>
<pdfrwt beam="1">  1        2 0.38789637E-01 0.79393485E+02</pdfrwt>
<pdfrwt beam="2">  1       -1 0.96153988E-03 0.79393485E+02</pdfrwt>
<totfact> 0.24424700E+05</totfact>
</mgrwt>
</event>
<event>
 8    1  0.2676873E-024  0.7880047E+02  0.7818608E-02  0.1332490E+00
          2   -1    0    0  501    0  0.00000000000E+00  0.00000000000E+00  0.16093372299E+02  0.16093372501E+02  0.25500000000E-02 0. -1.
         -1   -1    0    0    0  501 -0.00000000000E+00 -0.00000000000E+00 -0.96460739997E+02  0.96460740129E+02  0.50400000000E-02 0.  1.
         24    2    1    2    0    0  0.00000000000E+00  0.71054273576E-14 -0.80367367698E+02  0.11255411263E+03  0.78800472582E+02 0.  0.
         66    2    3    3    0    0  0.96048463674E+01  0.38182616945E+02 -0.39557504239E+02  0.55847662996E+02  0.20000024731E+01 0.  0.
        -13    1    3    3    0    0 -0.96048463674E+01 -0.38182616945E+02 -0.40809863459E+02  0.56706449634E+02  0.10566000000E+00 0.  1.
         13    1    4    4    0    0  0.45791914007E+01  0.20488072879E+02 -0.21090130465E+02  0.29757938290E+02  0.10566000000E+00 0. -1.
        -13    1    4    4    0    0  0.47925770455E+01  0.15583131532E+02 -0.16425013161E+02  0.23142925582E+02  0.10566000000E+00 0.  1.
        -14    1    4    4    0    0  0.23307792112E+00  0.21114125342E+01 -0.20423606128E+01  0.29467991244E+01  0.00000000000E+00 0.  1.
<mgrwt>
<rscale>  0 0.78800473E+02</rscale>
<asrwt>0</asrwt>
<pdfrwt beam="1">  1        2 0.24759035E-02 0.78800473E+02</pdfrwt>
<pdfrwt beam="2">  1       -1 0.14840114E-01 0.78800473E+02</pdfrwt>
<totfact> 0.12402051E+05</totfact>
</mgrwt>
</event>
<event>
 8    1  0.2676873E-024  0.8116975E+02  0.7818608E-02  0.1325764E+00
          2   -1    0    0  501    0  0.00000000000E+00  0.00000000000E+00  0.10264729651E+04  0.10264729651E+04  0.25500000000E-02 0. -1.
         -1   -1    0    0    0  501 -0.00000000000E+00 -0.00000000000E+00 -0.16046483957E+01  0.16046563107E+01  0.50400000000E-02 0.  1.
         24    2    1    2    0    0  0.00000000000E+00  0.00000000000E+00  0.10248683167E+04  0.10280776214E+04  0.81169754634E+02 0.  0.
         66    2    3    3    0    0  0.21685280311E+02  0.18488165356E+01  0.94625027864E+03  0.94650264622E+03  0.19999922707E+01 0.  0.
        -13    1    3    3    0    0 -0.21685280311E+02 -0.18488165356E+01  0.78618038044E+02  0.81574975174E+02  0.10566000000E+00 0.  1.
         13    1    4    4    0    0  0.15319432368E+02  0.13479116455E+01  0.64194461836E+03  0.64212880802E+03  0.10566000000E+00 0. -1.
        -13    1    4    4    0    0  0.20268844842E+01  0.45188201804E+00  0.86843334713E+02  0.86868224376E+02  0.10566000000E+00 0. -1.
         14    1    4    4    0    0  0.43389634592E+01  0.49022872121E-01  0.21746232556E+03  0.21750561382E+03  0.00000000000E+00 0. -1.
<mgrwt>
<rscale>  0 0.81169755E+02</rscale>
<asrwt>0</asrwt>
<pdfrwt beam="1">  1        2 0.15791884E+00 0.81169755E+02</pdfrwt>
<pdfrwt beam="2">  1       -1 0.24686972E-03 0.81169755E+02</pdfrwt>
<totfact> 0.33956036E+05</totfact>
</mgrwt>
</event>
<event>
 8    1  0.2676873E-024  0.7875181E+02  0.7818608E-02  0.1332631E+00
         -1   -1    0    0    0  501 -0.00000000000E+00  0.00000000000E+00  0.10534835081E+02  0.10534836286E+02  0.50400000000E-02 0.  1.
          2   -1    0    0  501    0  0.00000000000E+00 -0.00000000000E+00 -0.14717476694E+03  0.14717476697E+03  0.25500000000E-02 0. -1.
         24    2    1    2    0    0  0.35527136788E-14  0.00000000000E+00 -0.13663993186E+03  0.15770960325E+03  0.78751812540E+02 0.  0.
         66    2    3    3    0    0  0.21304687335E+02  0.26669339876E+02 -0.10757191091E+03  0.11287541543E+03  0.19999997311E+01 0.  0.
        -13    1    3    3    0    0 -0.21304687335E+02 -0.26669339876E+02 -0.29068020953E+02  0.44834187825E+02  0.10566000000E+00 0.  1.
         13    1    4    4    0    0  0.21798630454E+01  0.26092694501E+01 -0.95216230048E+01  0.10111011752E+02  0.10566000000E+00 0. -1.
        -13    1    4    4    0    0  0.21380922058E+01  0.21324189431E+01 -0.10386390760E+02  0.10816973971E+02  0.10566000000E+00 0.  1.
         14    1    4    4    0    0  0.16986732084E+02  0.21927651482E+02 -0.87663897146E+02  0.91947429704E+02  0.00000000000E+00 0. -1.
<mgrwt>
<rscale>  0 0.78751813E+02</rscale>
<asrwt>0</asrwt>
<pdfrwt beam="1">  1        2 0.22642270E-01 0.78751813E+02</pdfrwt>
<pdfrwt beam="2">  1       -1 0.16207441E-02 0.78751813E+02</pdfrwt>
<totfact> 0.20755884E+05</totfact>
</mgrwt>
</event>
<event>
 8    1  0.2676873E-024  0.7917657E+02  0.7818608E-02  0.1331405E+00
          2   -1    0    0  501    0  0.00000000000E+00  0.00000000000E+00  0.15335318409E+02  0.15335318621E+02  0.25500000000E-02 0. -1.
         -1   -1    0    0    0  501 -0.00000000000E+00 -0.00000000000E+00 -0.10219757148E+03  0.10219757160E+03  0.50400000000E-02 0.  1.
         24    2    1    2    0    0  0.00000000000E+00  0.71054273576E-14 -0.86862253067E+02  0.11753289022E+03  0.79176570246E+02 0.  0.
         66    2    3    3    0    0  0.52891504249E+00  0.38346371124E+02 -0.29028090059E+02  0.48138902698E+02  0.20000027478E+01 0.  0.
        -13    1    3    3    0    0 -0.52891504249E+00 -0.38346371124E+02 -0.57834163008E+02  0.69393987523E+02  0.10566000000E+00 0.  1.
         13    1    4    4    0    0  0.30227392377E+00  0.27689586154E+01 -0.16422526910E+01  0.32352216733E+01  0.10566000000E+00 0. -1.
        -13    1    4    4    0    0  0.38803983434E+00  0.25596364040E+02 -0.19398023233E+02  0.32118824642E+02  0.10566000000E+00 0.  1.
        -14    1    4    4    0    0 -0.16139871562E+00  0.99810484683E+01 -0.79878141345E+01  0.12784856382E+02  0.00000000000E+00 0.  1.
<mgrwt>
<rscale>  0 0.79176570E+02</rscale>
<asrwt>0</asrwt>
<pdfrwt beam="1">  1        2 0.23592798E-02 0.79176570E+02</pdfrwt>
<pdfrwt beam="2">  1       -1 0.15722703E-01 0.79176570E+02</pdfrwt>
<totfact> 0.12106216E+05</totfact>
</mgrwt>
</event>
<event>
 8    1  0.2676873E-024  0.8020109E+02  0.7818608E-02  0.1328482E+00
         -1   -1    0    0    0  501 -0.00000000000E+00  0.00000000000E+00  0.67398977495E+02  0.67398977683E+02  0.50400000000E-02 0.  1.
          2   -1    0    0  501    0  0.00000000000E+00 -0.00000000000E+00 -0.23858727270E+02  0.23858727406E+02  0.25500000000E-02 0. -1.
         24    2    1    2    0    0  0.00000000000E+00  0.00000000000E+00  0.43540250225E+02  0.91257705090E+02  0.80201093188E+02 0.  0.
         66    2    3    3    0    0  0.13304137311E+02 -0.80811540841E+01 -0.20236335143E+02  0.25608873218E+02  0.20000016352E+01 0.  0.
        -13    1    3    3    0    0 -0.13304137311E+02  0.80811540841E+01  0.63776585368E+02  0.65648831872E+02  0.10566000000E+00 0.  1.
         13    1    4    4    0    0  0.60486887581E+01 -0.37675772900E+01 -0.79165614836E+01  0.10651966208E+02  0.10566000000E+00 0. -1.
        -13    1    4    4    0    0  0.39704586513E+01 -0.27205558307E+01 -0.74601915468E+01  0.88787154409E+01  0.10566000000E+00 0.  1.
         14    1    4    4    0    0  0.32849899013E+01 -0.15930209634E+01 -0.48595821125E+01  0.60781915690E+01  0.00000000000E+00 0. -1.
<mgrwt>
<rscale>  0 0.80201093E+02</rscale>
<asrwt>0</asrwt>
<pdfrwt beam="1">  1        2 0.36705735E-02 0.80201093E+02</pdfrwt>
<pdfrwt beam="2">  1       -1 0.10369073E-01 0.80201093E+02</pdfrwt>
<totfact> 0.12769710E+05</totfact>
</mgrwt>
</event>
<event>
 8    1  0.2676873E-024  0.7968395E+02  0.7818608E-02  0.1329951E+00
          2   -1    0    0  501    0  0.00000000000E+00  0.00000000000E+00  0.57666233435E+03  0.57666233436E+03  0.25500000000E-02 0. -1.
         -1   -1    0    0    0  501 -0.00000000000E+00 -0.00000000000E+00 -0.27527057423E+01  0.27527103562E+01  0.50400000000E-02 0.  1.
         24    2    1    2    0    0 -0.35527136788E-14  0.00000000000E+00  0.57390962861E+03  0.57941504471E+03  0.79683952147E+02 0.  0.
         66    2    3    3    0    0 -0.20967120084E+02  0.13083339364E+02  0.51413650864E+03  0.51473405115E+03  0.20000006347E+01 0.  0.
        -13    1    3    3    0    0  0.20967120084E+02 -0.13083339364E+02  0.59773119971E+02  0.64680993566E+02  0.10566000000E+00 0.  1.
         13    1    4    4    0    0 -0.78644067307E+01  0.53329840332E+01  0.20305950026E+03  0.20328172919E+03  0.10566000000E+00 0. -1.
        -13    1    4    4    0    0 -0.72568707452E+01  0.47600081520E+01  0.16586404147E+03  0.16609097286E+03  0.10566000000E+00 0.  1.
        -14    1    4    4    0    0 -0.58458426084E+01  0.29903471791E+01  0.14521296691E+03  0.14536134910E+03  0.00000000000E+00 0.  1.
<mgrwt>
<rscale>  0 0.79683952E+02</rscale>
<asrwt>0</asrwt>
<pdfrwt beam="1">  1        2 0.88717274E-01 0.79683952E+02</pdfrwt>
<pdfrwt beam="2">  1       -1 0.42349359E-03 0.79683952E+02</pdfrwt>
<totfact> 0.32132944E+05</totfact>
</mgrwt>
</event>
<event>
 8    1  0.2676873E-024  0.7869757E+02  0.7818608E-02  0.1332789E+00
          2   -1    0    0  501    0  0.00000000000E+00  0.00000000000E+00  0.36178492411E+03  0.36178492412E+03  0.25500000000E-02 0. -1.
         -1   -1    0    0    0  501 -0.00000000000E+00 -0.00000000000E+00 -0.42796871397E+01  0.42796901074E+01  0.50400000000E-02 0.  1.
         24    2    1    2    0    0  0.00000000000E+00 -0.14210854715E-13  0.35750523697E+03  0.36606461423E+03  0.78697568752E+02 0.  0.
         66    2    3    3    0    0 -0.10475413914E+02 -0.37728638768E+02  0.16200798545E+03  0.16668464784E+03  0.19999990657E+01 0.  0.
        -13    1    3    3    0    0  0.10475413914E+02  0.37728638768E+02  0.19549725152E+03  0.19937996639E+03  0.10566000000E+00 0.  1.
         13    1    4    4    0    0 -0.13374431443E+01 -0.36026257588E+01  0.17273297587E+02  0.17695921566E+02  0.10566000000E+00 0.  1.
        -13    1    4    4    0    0 -0.26195376850E+01 -0.11949730587E+02  0.49986894200E+02  0.51462207440E+02  0.10566000000E+00 0. -1.
         14    1    4    4    0    0 -0.65184330844E+01 -0.22176282422E+02  0.94747793662E+02  0.97526518834E+02  0.00000000000E+00 0. -1.
<mgrwt>
<rscale>  0 0.78697569E+02</rscale>
<asrwt>0</asrwt>
<pdfrwt beam="1">  1        2 0.55659231E-01 0.78697569E+02</pdfrwt>
<pdfrwt beam="2">  1       -1 0.65841349E-03 0.78697569E+02</pdfrwt>
<totfact> 0.28464504E+05</totfact>
</mgrwt>
</event>
<event>
 8    1  0.2676873E-024  0.8165816E+02  0.7818608E-02  0.1324411E+00
          2   -1    0    0  501    0  0.00000000000E+00  0.00000000000E+00  0.45921196198E+02  0.45921196268E+02  0.25500000000E-02 0. -1.
         -1   -1    0    0    0  501 -0.00000000000E+00 -0.00000000000E+00 -0.36301615722E+02  0.36301616072E+02  0.50400000000E-02 0.  1.
         24    2    1    2    0    0 -0.17763568394E-14  0.00000000000E+00  0.96195804751E+01  0.82222812341E+02  0.81658156609E+02 0.  0.
         66    2    3    3    0    0  0.89825418375E+01 -0.16113901677E+02 -0.31834950165E+02  0.36848445571E+02  0.20000009649E+01 0.  0.
        -13    1    3    3    0    0 -0.89825418375E+01  0.16113901677E+02  0.41454530640E+02  0.45374366770E+02  0.10566000000E+00 0.  1.
         13    1    4    4    0    0  0.53141549590E+01 -0.96177009746E+01 -0.20382910925E+02  0.23156308790E+02  0.10566000000E+00 0. -1.
        -13    1    4    4    0    0  0.24594305489E+01 -0.48580954181E+01 -0.78438229268E+01  0.95491681239E+01  0.10566000000E+00 0.  1.
        -14    1    4    4    0    0  0.12089563296E+01 -0.16381052840E+01 -0.36082163138E+01  0.41429686573E+01  0.00000000000E+00 0.  1.
<mgrwt>
<rscale>  0 0.81658157E+02</rscale>
<asrwt>0</asrwt>
<pdfrwt beam="1">  1        2 0.70647994E-02 0.81658157E+02</pdfrwt>
<pdfrwt beam="2">  1       -1 0.55848640E-02 0.81658157E+02</pdfrwt>
<totfact> 0.13866532E+05</totfact>
</mgrwt>
</event>
<event>
 8    1  0.2676873E-024  0.8018248E+02  0.7818608E-02  0.1328534E+00
          2   -1    0    0  501    0  0.00000000000E+00  0.00000000000E+00  0.84965040056E+01  0.84965043882E+01  0.25500000000E-02 0. -1.
         -1   -1    0    0    0  501 -0.00000000000E+00 -0.00000000000E+00 -0.18917281017E+03  0.18917281023E+03  0.50400000000E-02 0.  1.
         24    2    1    2    0    0 -0.35527136788E-14  0.00000000000E+00 -0.18067630616E+03  0.19766931462E+03  0.80182481473E+02 0.  0.
         66    2    3    3    0    0 -0.25166590443E+02  0.24211377272E+02 -0.41975259332E+02  0.54639458929E+02  0.20000030369E+01 0.  0.
        -13    1    3    3    0    0  0.25166590443E+02 -0.24211377272E+02 -0.13870104683E+03  0.14302985569E+03  0.10566000000E+00 0.  1.
         13    1    4    4    0    0 -0.11761667498E+02  0.11543323542E+02 -0.19655996581E+02  0.25650623898E+02  0.10566000000E+00 0. -1.
        -13    1    4    4    0    0 -0.63681998008E+01  0.57939528278E+01 -0.93436041487E+01  0.12705823885E+02  0.10566000000E+00 0.  1.
        -14    1    4    4    0    0 -0.70367231445E+01  0.68741009025E+01 -0.12975658603E+02  0.16283011147E+02  0.00000000000E+00 0.  1.
<mgrwt>
<rscale>  0 0.80182481E+02</rscale>
<asrwt>0</asrwt>
<pdfrwt beam="1">  1        2 0.13071546E-02 0.80182481E+02</pdfrwt>
<pdfrwt beam="2">  1       -1 0.29103506E-01 0.80182481E+02</pdfrwt>
<totfact> 0.10068073E+05</totfact>
</mgrwt>
</event>
<event>
 8    1  0.2676873E-024  0.7957542E+02  0.7818608E-02  0.1330261E+00
         -1   -1    0    0    0  501 -0.00000000000E+00  0.00000000000E+00  0.51667396141E+02  0.51667396387E+02  0.50400000000E-02 0.  1.
          2   -1    0    0  501    0  0.00000000000E+00 -0.00000000000E+00 -0.30639473436E+02  0.30639473542E+02  0.25500000000E-02 0. -1.
         24    2    1    2    0    0  0.17763568394E-14  0.00000000000E+00  0.21027922705E+02  0.82306869929E+02  0.79575418970E+02 0.  0.
         66    2    3    3    0    0  0.11231817100E+02  0.32014074671E+02  0.31968864882E+02  0.46659007831E+02  0.19999993849E+01 0.  0.
        -13    1    3    3    0    0 -0.11231817100E+02 -0.32014074671E+02 -0.10940942177E+02  0.35647862098E+02  0.10566000000E+00 0.  1.
         13    1    4    4    0    0  0.71239965847E+00  0.19551040934E+01  0.16112131826E+01  0.26338407782E+01  0.10566000000E+00 0.  1.
        -13    1    4    4    0    0  0.15306058409E+01  0.53735012380E+01  0.46737147515E+01  0.72850561706E+01  0.10566000000E+00 0. -1.
         14    1    4    4    0    0  0.89888116003E+01  0.24685469340E+02  0.25683936948E+02  0.36740110882E+02  0.00000000000E+00 0. -1.
<mgrwt>
<rscale>  0 0.79575419E+02</rscale>
<asrwt>0</asrwt>
<pdfrwt beam="1">  1        2 0.47137652E-02 0.79575419E+02</pdfrwt>
<pdfrwt beam="2">  1       -1 0.79488301E-02 0.79575419E+02</pdfrwt>
<totfact> 0.13714119E+05</totfact>
</mgrwt>
</event>
<event>
 8    1  0.2676873E-024  0.7978602E+02  0.7818608E-02  0.1329660E+00
          2   -1    0    0  501    0  0.00000000000E+00  0.00000000000E+00  0.33893455126E+02  0.33893455222E+02  0.25500000000E-02 0. -1.
         -1   -1    0    0    0  501 -0.00000000000E+00 -0.00000000000E+00 -0.46954556407E+02  0.46954556677E+02  0.50400000000E-02 0.  1.
         24    2    1    2    0    0  0.35527136788E-14  0.00000000000E+00 -0.13061101281E+02  0.80848011899E+02  0.79786017957E+02 0.  0.
         66    2    3    3    0    0  0.22982025801E+02 -0.19152349036E+02  0.20168756931E+02  0.36135366884E+02  0.20000000414E+01 0.  0.
        -13    1    3    3    0    0 -0.22982025801E+02  0.19152349036E+02 -0.33229858211E+02  0.44712645016E+02  0.10566000000E+00 0.  1.
         13    1    4    4    0    0  0.83007290010E+01 -0.66369323418E+01  0.63691157456E+01  0.12390632440E+02  0.10566000000E+00 0. -1.
        -13    1    4    4    0    0  0.57025039753E+01 -0.49431482423E+01  0.60494291588E+01  0.96726430367E+01  0.10566000000E+00 0.  1.
        -14    1    4    4    0    0  0.89787928250E+01 -0.75722684515E+01  0.77502120264E+01  0.14072091406E+02  0.00000000000E+00 0.  1.
<mgrwt>
<rscale>  0 0.79786018E+02</rscale>
<asrwt>0</asrwt>
<pdfrwt beam="1">  1        2 0.52143777E-02 0.79786018E+02</pdfrwt>
<pdfrwt beam="2">  1       -1 0.72237780E-02 0.79786018E+02</pdfrwt>
<totfact> 0.13888257E+05</totfact>
</mgrwt>
</event>
<event>
 8    1  0.2676873E-024  0.7989135E+02  0.7818608E-02  0.1329360E+00
         -1   -1    0    0    0  501 -0.00000000000E+00  0.00000000000E+00  0.26452956457E+01  0.26453004470E+01  0.50400000000E-02 0.  1.
          2   -1    0    0  501    0  0.00000000000E+00 -0.00000000000E+00 -0.60320504476E+03  0.60320504476E+03  0.25500000000E-02 0. -1.
         24    2    1    2    0    0  0.00000000000E+00  0.22204460493E-15 -0.60055974911E+03  0.60585034521E+03  0.79891354587E+02 0.  0.
         66    2    3    3    0    0 -0.16478568460E+02  0.19384026540E+01 -0.57581506965E+03  0.57605754492E+03  0.20000001756E+01 0.  0.
        -13    1    3    3    0    0  0.16478568460E+02 -0.19384026540E+01 -0.24744679460E+02  0.29792800287E+02  0.10566000000E+00 0.  1.
         13    1    4    4    0    0 -0.45606993268E+01  0.72800248094E+00 -0.17552959776E+03  0.17559037792E+03  0.10566000000E+00 0. -1.
        -13    1    4    4    0    0 -0.45196448825E+01  0.37008089855E+00 -0.12980518016E+03  0.12988441057E+03  0.10566000000E+00 0.  1.
        -14    1    4    4    0    0 -0.73982242511E+01  0.84031927456E+00 -0.27048029173E+03  0.27058275642E+03  0.00000000000E+00 0.  1.
<mgrwt>
<rscale>  0 0.79891355E+02</rscale>
<asrwt>0</asrwt>
<pdfrwt beam="1">  1        2 0.92800667E-01 0.79891355E+02</pdfrwt>
<pdfrwt beam="2">  1       -1 0.40696941E-03 0.79891355E+02</pdfrwt>
<totfact> 0.32325210E+05</totfact>
</mgrwt>
</event>
<event>
 8    1  0.2676873E-024  0.8247056E+02  0.7818608E-02  0.1322183E+00
         -1   -1    0    0    0  501 -0.00000000000E+00  0.00000000000E+00  0.27500252651E+02  0.27500253112E+02  0.50400000000E-02 0.  1.
          2   -1    0    0  501    0  0.00000000000E+00 -0.00000000000E+00 -0.61830283384E+02  0.61830283437E+02  0.25500000000E-02 0. -1.
         24    2    1    2    0    0  0.00000000000E+00 -0.35527136788E-14 -0.34330030734E+02  0.89330536549E+02  0.82470562930E+02 0.  0.
         66    2    3    3    0    0 -0.23875485954E+02  0.13570611796E+02 -0.50457885433E+02  0.57482158328E+02  0.19999974125E+01 0.  0.
        -13    1    3    3    0    0  0.23875485954E+02 -0.13570611796E+02  0.16127854700E+02  0.31848378221E+02  0.10566000000E+00 0.  1.
         13    1    4    4    0    0 -0.16517461449E+02  0.88432893191E+01 -0.33889597438E+02  0.38723975483E+02  0.10566000000E+00 0. -1.
        -13    1    4    4    0    0 -0.28029760523E+01  0.19136235285E+01 -0.55156278412E+01  0.64770320577E+01  0.10566000000E+00 0.  1.
         14    1    4    4    0    0 -0.45550484526E+01  0.28136989482E+01 -0.11052660155E+02  0.12281150788E+02  0.00000000000E+00 0. -1.
<mgrwt>
<rscale>  0 0.82470563E+02</rscale>
<asrwt>0</asrwt>
<pdfrwt beam="1">  1        2 0.95123513E-02 0.82470563E+02</pdfrwt>
<pdfrwt beam="2">  1       -1 0.42308082E-02 0.82470563E+02</pdfrwt>
<totfact> 0.14429062E+05</totfact>
</mgrwt>
</event>
<event>
 8    1  0.2676873E-024  0.8054669E+02  0.7818608E-02  0.1327507E+00
         -1   -1    0    0    0  501 -0.00000000000E+00  0.00000000000E+00  0.13204173763E+01  0.13204269951E+01  0.50400000000E-02 0.  1.
          2   -1    0    0  501    0  0.00000000000E+00 -0.00000000000E+00 -0.12283511750E+04  0.12283511750E+04  0.25500000000E-02 0. -1.
         24    2    1    2    0    0  0.00000000000E+00  0.00000000000E+00 -0.12270307576E+04  0.12296716020E+04  0.80546685873E+02 0.  0.
         66    2    3    3    0    0 -0.12356737507E+02  0.13689954574E+02 -0.11600504347E+04  0.11601987393E+04  0.19999960129E+01 0.  0.
        -13    1    3    3    0    0  0.12356737507E+02 -0.13689954574E+02 -0.66980322961E+02  0.69472862659E+02  0.10566000000E+00 0.  1.
         13    1    4    4    0    0 -0.54518843036E+01  0.58947168483E+01 -0.46844862296E+03  0.46851744284E+03  0.10566000000E+00 0. -1.
        -13    1    4    4    0    0 -0.31730461145E+01  0.44933881545E+01 -0.35799721553E+03  0.35803948979E+03  0.10566000000E+00 0.  1.
         14    1    4    4    0    0 -0.37318070888E+01  0.33018495708E+01 -0.33360459618E+03  0.33364180672E+03  0.00000000000E+00 0. -1.
<mgrwt>
<rscale>  0 0.80546686E+02</rscale>
<asrwt>0</asrwt>
<pdfrwt beam="1">  1        2 0.18897619E+00 0.80546686E+02</pdfrwt>
<pdfrwt beam="2">  1       -1 0.20314286E-03 0.80546686E+02</pdfrwt>
<totfact> 0.34325988E+05</totfact>
</mgrwt>
</event>
<event>
 8    1  0.2676873E-024  0.8181294E+02  0.7818608E-02  0.1323984E+00
          2   -1    0    0  501    0  0.00000000000E+00  0.00000000000E+00  0.14026590178E+03  0.14026590180E+03  0.25500000000E-02 0. -1.
         -1   -1    0    0    0  501 -0.00000000000E+00 -0.00000000000E+00 -0.11929764668E+02  0.11929765732E+02  0.50400000000E-02 0.  1.
         24    2    1    2    0    0  0.71054273576E-14 -0.11102230246E-15  0.12833613711E+03  0.15219566754E+03  0.81812939854E+02 0.  0.
         66    2    3    3    0    0  0.40611092716E+02 -0.41088530887E+00  0.72912899092E+02  0.83484852120E+02  0.20000002909E+01 0.  0.
        -13    1    3    3    0    0 -0.40611092716E+02  0.41088530887E+00  0.55423238020E+02  0.68710815415E+02  0.10566000000E+00 0.  1.
         13    1    4    4    0    0  0.22647250951E+02 -0.53807066120E+00  0.40696271857E+02  0.46576659420E+02  0.10566000000E+00 0. -1.
        -13    1    4    4    0    0  0.17457262220E+02  0.28965666435E+00  0.31505401342E+02  0.36020013645E+02  0.10566000000E+00 0.  1.
        -14    1    4    4    0    0  0.50657954540E+00 -0.16247131202E+00  0.71122589319E+00  0.88817905525E+00  0.00000000000E+00 0.  1.
<mgrwt>
<rscale>  0 0.81812940E+02</rscale>
<asrwt>0</asrwt>
<pdfrwt beam="1">  1        2 0.21579370E-01 0.81812940E+02</pdfrwt>
<pdfrwt beam="2">  1       -1 0.18353484E-02 0.81812940E+02</pdfrwt>
<totfact> 0.18471168E+05</totfact>
</mgrwt>
</event>
<event>
 8    1  0.2676873E-024  0.7930037E+02  0.7818608E-02  0.1331049E+00
         -1   -1    0    0    0  501 -0.00000000000E+00  0.00000000000E+00  0.61857538216E+02  0.61857538421E+02  0.50400000000E-02 0.  1.
          2   -1    0    0  501    0  0.00000000000E+00 -0.00000000000E+00 -0.25415449118E+02  0.25415449246E+02  0.25500000000E-02 0. -1.
         24    2    1    2    0    0 -0.71054273576E-14  0.00000000000E+00  0.36442089098E+02  0.87272987667E+02  0.79300368968E+02 0.  0.
         66    2    3    3    0    0 -0.34555614610E+02 -0.58590511919E+01 -0.21113587594E+01  0.35169259512E+02  0.19999992079E+01 0.  0.
        -13    1    3    3    0    0  0.34555614610E+02  0.58590511919E+01  0.38553447857E+02  0.52103728155E+02  0.10566000000E+00 0.  1.
         13    1    4    4    0    0 -0.15830166896E+02 -0.34389573786E+01 -0.90360594587E+00  0.16224927721E+02  0.10566000000E+00 0. -1.
        -13    1    4    4    0    0 -0.22978106311E+01 -0.19915341116E+00  0.13617597500E+00  0.23128561800E+01  0.10566000000E+00 0.  1.
         14    1    4    4    0    0 -0.16427637084E+02 -0.22209404021E+01 -0.13439287886E+01  0.16631475611E+02  0.00000000000E+00 0. -1.
<mgrwt>
<rscale>  0 0.79300369E+02</rscale>
<asrwt>0</asrwt>
<pdfrwt beam="1">  1        2 0.39100691E-02 0.79300369E+02</pdfrwt>
<pdfrwt beam="2">  1       -1 0.95165444E-02 0.79300369E+02</pdfrwt>
<totfact> 0.13350046E+05</totfact>
</mgrwt>
</event>
<event>
 8    1  0.2676873E-024  0.8059882E+02  0.7818608E-02  0.1327361E+00
         -1   -1    0    0    0  501 -0.00000000000E+00  0.00000000000E+00  0.69620449977E+02  0.69620450159E+02  0.50400000000E-02 0.  1.
          2   -1    0    0  501    0  0.00000000000E+00 -0.00000000000E+00 -0.23327090059E+02  0.23327090198E+02  0.25500000000E-02 0. -1.
         24    2    1    2    0    0  0.00000000000E+00  0.71054273576E-14  0.46293359918E+02  0.92947540358E+02  0.80598821865E+02 0.  0.
         66    2    3    3    0    0  0.20274194130E+02 -0.32463516518E+02  0.87059085993E+01  0.39302871350E+02  0.19999998716E+01 0.  0.
        -13    1    3    3    0    0 -0.20274194130E+02  0.32463516518E+02  0.37587451319E+02  0.53644669008E+02  0.10566000000E+00 0.  1.
         13    1    4    4    0    0  0.11350172684E+02 -0.18722433070E+02  0.50660658002E+01  0.22472919409E+02  0.10566000000E+00 0.  1.
        -13    1    4    4    0    0  0.67781331540E+01 -0.10925192082E+02  0.24051210296E+01  0.13080469498E+02  0.10566000000E+00 0. -1.
        -14    1    4    4    0    0  0.21458882917E+01 -0.28158913655E+01  0.12347217696E+01  0.37494824431E+01  0.00000000000E+00 0.  1.
<mgrwt>
<rscale>  0 0.80598822E+02</rscale>
<asrwt>0</asrwt>
<pdfrwt beam="1">  1        2 0.35887832E-02 0.80598822E+02</pdfrwt>
<pdfrwt beam="2">  1       -1 0.10710838E-01 0.80598822E+02</pdfrwt>
<totfact> 0.12534980E+05</totfact>
</mgrwt>
</event>
<event>
 8    1  0.2676873E-024  0.8047204E+02  0.7818608E-02  0.1327717E+00
         -1   -1    0    0    0  501 -0.00000000000E+00  0.00000000000E+00  0.31226384890E+03  0.31226384895E+03  0.50400000000E-02 0.  1.
          2   -1    0    0  501    0  0.00000000000E+00 -0.00000000000E+00 -0.51845172413E+01  0.51845178684E+01  0.25500000000E-02 0. -1.
         24    2    1    2    0    0  0.00000000000E+00  0.71054273576E-14  0.30707933166E+03  0.31744836681E+03  0.80472042710E+02 0.  0.
         66    2    3    3    0    0 -0.12607581353E+02 -0.35570302311E+02  0.98868587416E+02  0.10584514685E+03  0.20000051134E+01 0.  0.
        -13    1    3    3    0    0  0.12607581353E+02  0.35570302311E+02  0.20821074425E+03  0.21160321996E+03  0.10566000000E+00 0.  1.
         13    1    4    4    0    0 -0.17021510862E+01 -0.31924476555E+01  0.94679761665E+01  0.10136211180E+02  0.10566000000E+00 0. -1.
        -13    1    4    4    0    0 -0.55368928119E+01 -0.15500544209E+02  0.43495348883E+02  0.46505704933E+02  0.10566000000E+00 0.  1.
        -14    1    4    4    0    0 -0.53685374551E+01 -0.16877310447E+02  0.45905262367E+02  0.49203230740E+02  0.00000000000E+00 0.  1.
<mgrwt>
<rscale>  0 0.80472043E+02</rscale>
<asrwt>0</asrwt>
<pdfrwt beam="1">  1        2 0.79761798E-03 0.80472043E+02</pdfrwt>
<pdfrwt beam="2">  1       -1 0.48040599E-01 0.80472043E+02</pdfrwt>
<totfact> 0.83744424E+04</totfact>
</mgrwt>
</event>
<event>
 8    1  0.2676873E-024  0.8023936E+02  0.7818608E-02  0.1328374E+00
         -1   -1    0    0    0  501 -0.00000000000E+00  0.00000000000E+00  0.10865723620E+02  0.10865724789E+02  0.50400000000E-02 0.  1.
          2   -1    0    0  501    0  0.00000000000E+00 -0.00000000000E+00 -0.14813450362E+03  0.14813450364E+03  0.25500000000E-02 0. -1.
         24    2    1    2    0    0 -0.17763568394E-14  0.71054273576E-14 -0.13726878000E+03  0.15900022843E+03  0.80239358661E+02 0.  0.
         66    2    3    3    0    0  0.15274553845E+02 -0.24582780266E+02 -0.12366188206E+03  0.12701923538E+03  0.20000004787E+01 0.  0.
        -13    1    3    3    0    0 -0.15274553845E+02  0.24582780266E+02 -0.13606897941E+02  0.31980993049E+02  0.10566000000E+00 0.  1.
         13    1    4    4    0    0  0.55991206346E+01 -0.95147907071E+01 -0.49415844776E+02  0.50634161127E+02  0.10566000000E+00 0. -1.
        -13    1    4    4    0    0  0.43118810330E+01 -0.78530032349E+01 -0.37299689940E+02  0.38360657078E+02  0.10566000000E+00 0.  1.
        -14    1    4    4    0    0  0.53635521776E+01 -0.72149863239E+01 -0.36946347343E+02  0.38024417176E+02  0.00000000000E+00 0.  1.
<mgrwt>
<rscale>  0 0.80239359E+02</rscale>
<asrwt>0</asrwt>
<pdfrwt beam="1">  1        2 0.22789922E-01 0.80239359E+02</pdfrwt>
<pdfrwt beam="2">  1       -1 0.16716500E-02 0.80239359E+02</pdfrwt>
<totfact> 0.19791968E+05</totfact>
</mgrwt>
</event>
<event>
 8    1  0.2676873E-024  0.8061736E+02  0.7818608E-02  0.1327309E+00
          2   -1    0    0  501    0  0.00000000000E+00  0.00000000000E+00  0.30300483213E+03  0.30300483215E+03  0.25500000000E-02 0. -1.
         -1   -1    0    0    0  501 -0.00000000000E+00 -0.00000000000E+00 -0.53622553866E+01  0.53622577552E+01  0.50400000000E-02 0.  1.
         24    2    1    2    0    0  0.00000000000E+00  0.00000000000E+00  0.29764257675E+03  0.30836708990E+03  0.80617359424E+02 0.  0.
         66    2    3    3    0    0  0.34754524475E+02  0.29780695659E+01  0.22598934802E+03  0.22867429085E+03  0.20000014724E+01 0.  0.
        -13    1    3    3    0    0 -0.34754524475E+02 -0.29780695659E+01  0.71653228726E+02  0.79692799052E+02  0.10566000000E+00 0.  1.
         13    1    4    4    0    0  0.24244853279E+02  0.20850781217E+01  0.15676316173E+03  0.15864066472E+03  0.10566000000E+00 0. -1.
        -13    1    4    4    0    0  0.31686735112E+00  0.19563325514E+00  0.26156021404E+01  0.26440907476E+01  0.10566000000E+00 0. -1.
         14    1    4    4    0    0  0.10192803845E+02  0.69735818909E+00  0.66610584148E+02  0.67389535383E+02  0.00000000000E+00 0. -1.
<mgrwt>
<rscale>  0 0.80617359E+02</rscale>
<asrwt>0</asrwt>
<pdfrwt beam="1">  1        2 0.46616139E-01 0.80617359E+02</pdfrwt>
<pdfrwt beam="2">  1       -1 0.82496236E-03 0.80617359E+02</pdfrwt>
<totfact> 0.25075980E+05</totfact>
</mgrwt>
</event>
<event>
 8    1  0.2676873E-024  0.7985600E+02  0.7818608E-02  0.1329461E+00
          2   -1    0    0  501    0  0.00000000000E+00  0.00000000000E+00  0.85148287017E+02  0.85148287056E+02  0.25500000000E-02 0. -1.
         -1   -1    0    0    0  501 -0.00000000000E+00 -0.00000000000E+00 -0.18723162635E+02  0.18723163314E+02  0.50400000000E-02 0.  1.
         24    2    1    2    0    0  0.00000000000E+00  0.00000000000E+00  0.66425124382E+02  0.10387145037E+03  0.79856001983E+02 0.  0.
         66    2    3    3    0    0  0.12285213284E+01  0.11036601967E+02  0.83086000009E+02  0.83848668636E+02  0.19999967240E+01 0.  0.
        -13    1    3    3    0    0 -0.12285213284E+01 -0.11036601967E+02 -0.16660875627E+02  0.20022781733E+02  0.10566000000E+00 0.  1.
         13    1    4    4    0    0  0.41829682712E+00  0.16686589755E+01  0.12590317572E+02  0.12707739988E+02  0.10566000000E+00 0. -1.
        -13    1    4    4    0    0  0.77006464815E+00  0.91094827585E+01  0.69825759224E+02  0.70421754387E+02  0.10566000000E+00 0.  1.
        -14    1    4    4    0    0  0.40159853117E-01  0.25846023328E+00  0.66992321327E+00  0.71917426099E+00  0.00000000000E+00 0.  1.
<mgrwt>
<rscale>  0 0.79856002E+02</rscale>
<asrwt>0</asrwt>
<pdfrwt beam="1">  1        2 0.13099736E-01 0.79856002E+02</pdfrwt>
<pdfrwt beam="2">  1       -1 0.28804867E-02 0.79856002E+02</pdfrwt>
<totfact> 0.17051069E+05</totfact>
</mgrwt>
</event>
<event>
 8    1  0.2676873E-024  0.7660994E+02  0.7818608E-02  0.1338957E+00
          2   -1    0    0  501    0  0.00000000000E+00  0.00000000000E+00  0.57386786332E+02  0.57386786389E+02  0.25500000000E-02 0. -1.
         -1   -1    0    0    0  501 -0.00000000000E+00 -0.00000000000E+00 -0.25568090433E+02  0.25568090930E+02  0.50400000000E-02 0.  1.
         24    2    1    2    0    0  0.00000000000E+00  0.00000000000E+00  0.31818695899E+02  0.82954877319E+02  0.76609935794E+02 0.  0.
         66    2    3    3    0    0  0.32499737523E+02 -0.14678339445E+00  0.37819167120E+02  0.49905349284E+02  0.20000002816E+01 0.  0.
        -13    1    3    3    0    0 -0.32499737523E+02  0.14678339445E+00 -0.60004712207E+01  0.33049528035E+02  0.10566000000E+00 0.  1.
         13    1    4    4    0    0  0.99443575274E+01 -0.56161330317E+00  0.12475457122E+02  0.15964142650E+02  0.10566000000E+00 0. -1.
        -13    1    4    4    0    0  0.34976318426E+00 -0.17775699266E-01  0.37252781988E+00  0.52210274155E+00  0.10566000000E+00 0. -1.
        -14    1    4    4    0    0  0.22205616811E+02  0.43260560798E+00  0.24971182178E+02  0.33419103892E+02  0.00000000000E+00 0.  1.
<mgrwt>
<rscale>  0 0.76609936E+02</rscale>
<asrwt>0</asrwt>
<pdfrwt beam="1">  1        2 0.88287363E-02 0.76609936E+02</pdfrwt>
<pdfrwt beam="2">  1       -1 0.39335524E-02 0.76609936E+02</pdfrwt>
<totfact> 0.17331714E+05</totfact>
</mgrwt>
</event>
<event>
 8    1  0.2676873E-024  0.8267881E+02  0.7818608E-02  0.1321617E+00
         -1   -1    0    0    0  501 -0.00000000000E+00  0.00000000000E+00  0.39738274408E+02  0.39738274728E+02  0.50400000000E-02 0.  1.
          2   -1    0    0  501    0  0.00000000000E+00 -0.00000000000E+00 -0.43005048574E+02  0.43005048649E+02  0.25500000000E-02 0. -1.
         24    2    1    2    0    0 -0.35527136788E-14  0.00000000000E+00 -0.32667741653E+01  0.82743323377E+02  0.82678810768E+02 0.  0.
         66    2    3    3    0    0  0.15106781790E+02 -0.13383108065E+01 -0.40095245731E+02  0.42914270994E+02  0.19999982168E+01 0.  0.
        -13    1    3    3    0    0 -0.15106781790E+02  0.13383108065E+01  0.36828471566E+02  0.39829052383E+02  0.10566000000E+00 0.  1.
         13    1    4    4    0    0  0.34984156707E+01 -0.34633366222E+00 -0.91016041089E+01  0.97575212324E+01  0.10566000000E+00 0. -1.
        -13    1    4    4    0    0  0.68784590245E+01  0.10415153264E+00 -0.19568804904E+02  0.20743031010E+02  0.10566000000E+00 0.  1.
         14    1    4    4    0    0  0.47299070944E+01 -0.10961286769E+01 -0.11424836718E+02  0.12413718751E+02  0.00000000000E+00 0. -1.
<mgrwt>
<rscale>  0 0.82678811E+02</rscale>
<asrwt>0</asrwt>
<pdfrwt beam="1">  1        2 0.66161614E-02 0.82678811E+02</pdfrwt>
<pdfrwt beam="2">  1       -1 0.61135807E-02 0.82678811E+02</pdfrwt>
<totfact> 0.13212142E+05</totfact>
</mgrwt>
</event>
<event>
 8    1  0.2676873E-024  0.7746707E+02  0.7818608E-02  0.1336397E+00
         -1   -1    0    0    0  501 -0.00000000000E+00  0.00000000000E+00  0.12044568913E+03  0.12044568923E+03  0.50400000000E-02 0.  1.
          2   -1    0    0  501    0  0.00000000000E+00 -0.00000000000E+00 -0.12456125012E+02  0.12456125273E+02  0.25500000000E-02 0. -1.
         24    2    1    2    0    0 -0.17763568394E-14  0.00000000000E+00  0.10798956412E+03  0.13290181451E+03  0.77467066170E+02 0.  0.
         66    2    3    3    0    0 -0.14886010305E+02  0.34522032852E+02  0.38221369584E+02  0.53649204535E+02  0.19999998195E+01 0.  0.
        -13    1    3    3    0    0  0.14886010305E+02 -0.34522032852E+02  0.69768194531E+02  0.79252609971E+02  0.10566000000E+00 0.  1.
         13    1    4    4    0    0 -0.46780807325E+01  0.92390190604E+01  0.10299218314E+02  0.14605785650E+02  0.10566000000E+00 0. -1.
        -13    1    4    4    0    0 -0.31559469757E+01  0.88263699180E+01  0.90542877375E+01  0.13032885241E+02  0.10566000000E+00 0.  1.
         14    1    4    4    0    0 -0.70519825968E+01  0.16456643874E+02  0.18867863533E+02  0.26010533644E+02  0.00000000000E+00 0. -1.
<mgrwt>
<rscale>  0 0.77467066E+02</rscale>
<asrwt>0</asrwt>
<pdfrwt beam="1">  1        2 0.19163268E-02 0.77467066E+02</pdfrwt>
<pdfrwt beam="2">  1       -1 0.18530107E-01 0.77467066E+02</pdfrwt>
<totfact> 0.12331346E+05</totfact>
</mgrwt>
</event>
<event>
 8    1  0.2676873E-024  0.7992330E+02  0.7818608E-02  0.1329269E+00
         -1   -1    0    0    0  501 -0.00000000000E+00  0.00000000000E+00  0.41635210230E+01  0.41635240735E+01  0.50400000000E-02 0.  1.
          2   -1    0    0  501    0  0.00000000000E+00 -0.00000000000E+00 -0.38355348886E+03  0.38355348887E+03  0.25500000000E-02 0. -1.
         24    2    1    2    0    0  0.00000000000E+00  0.00000000000E+00 -0.37938996784E+03  0.38771701295E+03  0.79923303419E+02 0.  0.
         66    2    3    3    0    0 -0.19528524985E+02  0.27380121436E+02 -0.29429771955E+03  0.29621982052E+03  0.20000001686E+01 0.  0.
        -13    1    3    3    0    0  0.19528524985E+02 -0.27380121436E+02 -0.85092248292E+02  0.91497192423E+02  0.10566000000E+00 0.  1.
         13    1    4    4    0    0 -0.15967880378E+02  0.22706253997E+02 -0.24812196657E+03  0.24966991936E+03  0.10566000000E+00 0. -1.
        -13    1    4    4    0    0 -0.14613166892E+01  0.19986961687E+01 -0.18052560868E+02  0.18221864635E+02  0.10566000000E+00 0.  1.
         14    1    4    4    0    0 -0.20993279178E+01  0.26751712702E+01 -0.28123192109E+02  0.28328036526E+02  0.00000000000E+00 0. -1.
<mgrwt>
<rscale>  0 0.79923303E+02</rscale>
<asrwt>0</asrwt>
<pdfrwt beam="1">  1        2 0.59008201E-01 0.79923303E+02</pdfrwt>
<pdfrwt beam="2">  1       -1 0.64054224E-03 0.79923303E+02</pdfrwt>
<totfact> 0.27909657E+05</totfact>
</mgrwt>
</event>
<event>
 8    1  0.2676873E-024  0.7838088E+02  0.7818608E-02  0.1333710E+00
          2   -1    0    0  501    0  0.00000000000E+00  0.00000000000E+00  0.24307270860E+03  0.24307270861E+03  0.25500000000E-02 0. -1.
         -1   -1    0    0    0  501 -0.00000000000E+00 -0.00000000000E+00 -0.63186453125E+01  0.63186473226E+01  0.50400000000E-02 0.  1.
         24    2    1    2    0    0 -0.71054273576E-14  0.00000000000E+00  0.23675406329E+03  0.24939135594E+03  0.78380877339E+02 0.  0.
         66    2    3    3    0    0 -0.39122015132E+02 -0.16705594606E+01  0.11606709816E+03  0.12251079181E+03  0.19999995050E+01 0.  0.
        -13    1    3    3    0    0  0.39122015132E+02  0.16705594606E+01  0.12068696513E+03  0.12688056413E+03  0.10566000000E+00 0.  1.
         13    1    4    4    0    0 -0.33848659192E+02 -0.18905627767E+01  0.10125369673E+03  0.10677840710E+03  0.10566000000E+00 0. -1.
        -13    1    4    4    0    0 -0.28847713392E+01  0.22801913475E+00  0.86809274571E+01  0.91511509635E+01  0.10566000000E+00 0.  1.
         14    1    4    4    0    0 -0.23885846010E+01 -0.80158187369E-02  0.61324739697E+01  0.65812337475E+01  0.00000000000E+00 0. -1.
<mgrwt>
<rscale>  0 0.78380877E+02</rscale>
<asrwt>0</asrwt>
<pdfrwt beam="1">  1        2 0.37395799E-01 0.78380877E+02</pdfrwt>
<pdfrwt beam="2">  1       -1 0.97209949E-03 0.78380877E+02</pdfrwt>
<totfact> 0.24933780E+05</totfact>
</mgrwt>
</event>
<event>
 8    1  0.2676873E-024  0.7936823E+02  0.7818608E-02  0.1330854E+00
          2   -1    0    0  501    0  0.00000000000E+00  0.00000000000E+00  0.23528978265E+02  0.23528978403E+02  0.25500000000E-02 0. -1.
         -1   -1    0    0    0  501 -0.00000000000E+00 -0.00000000000E+00 -0.66931458394E+02  0.66931458584E+02  0.50400000000E-02 0.  1.
         24    2    1    2    0    0 -0.17763568394E-14  0.71054273576E-14 -0.43402480129E+02  0.90460436987E+02  0.79368226504E+02 0.  0.
         66    2    3    3    0    0 -0.12902107677E+02  0.37427466796E+02 -0.19031287327E+02  0.43971235489E+02  0.19999999641E+01 0.  0.
        -13    1    3    3    0    0  0.12902107677E+02 -0.37427466796E+02 -0.24371192803E+02  0.46489201498E+02  0.10566000000E+00 0.  1.
         13    1    4    4    0    0 -0.64269215688E+01  0.16573424195E+02 -0.84199127917E+01  0.19669514632E+02  0.10566000000E+00 0. -1.
        -13    1    4    4    0    0 -0.70985583816E+00  0.35239904636E+01 -0.16140939070E+01  0.39419369952E+01  0.10566000000E+00 0.  1.
         14    1    4    4    0    0 -0.57653302700E+01  0.17330052137E+02 -0.89972806279E+01  0.20359783862E+02  0.00000000000E+00 0. -1.
<mgrwt>
<rscale>  0 0.79368227E+02</rscale>
<asrwt>0</asrwt>
<pdfrwt beam="1">  1        2 0.36198428E-02 0.79368227E+02</pdfrwt>
<pdfrwt beam="2">  1       -1 0.10297147E-01 0.79368227E+02</pdfrwt>
<totfact> 0.13117765E+05</totfact>
</mgrwt>
</event>
<event>
 8    1  0.2676873E-024  0.7850831E+02  0.7818608E-02  0.1333339E+00
         -1   -1    0    0    0  501 -0.00000000000E+00  0.00000000000E+00  0.77877270344E+01  0.77877286653E+01  0.50400000000E-02 0.  1.
          2   -1    0    0  501    0  0.00000000000E+00 -0.00000000000E+00 -0.19786112603E+03  0.19786112604E+03  0.25500000000E-02 0. -1.
         24    2    1    2    0    0  0.00000000000E+00  0.00000000000E+00 -0.19007339899E+03  0.20564885471E+03  0.78508308085E+02 0.  0.
         66    2    3    3    0    0 -0.11194805129E+01 -0.38743009331E+02 -0.79248960105E+02  0.88242119691E+02  0.20000003184E+01 0.  0.
        -13    1    3    3    0    0  0.11194805129E+01  0.38743009331E+02 -0.11082443889E+03  0.11740673502E+03  0.10566000000E+00 0.  1.
         13    1    4    4    0    0 -0.21091262118E+00 -0.40330068849E+01 -0.74927841827E+01  0.85124971373E+01  0.10566000000E+00 0. -1.
        -13    1    4    4    0    0 -0.84658288978E+00 -0.20393669059E+02 -0.43693801974E+02  0.48226319943E+02  0.10566000000E+00 0.  1.
        -14    1    4    4    0    0 -0.61985001933E-01 -0.14316333387E+02 -0.28062373948E+02  0.31503302611E+02  0.00000000000E+00 0.  1.
<mgrwt>
<rscale>  0 0.78508308E+02</rscale>
<asrwt>0</asrwt>
<pdfrwt beam="1">  1        2 0.30440169E-01 0.78508308E+02</pdfrwt>
<pdfrwt beam="2">  1       -1 0.11981121E-02 0.78508308E+02</pdfrwt>
<totfact> 0.23094561E+05</totfact>
</mgrwt>
</event>
<event>
 8    1  0.2676873E-024  0.7976464E+02  0.7818608E-02  0.1329721E+00
          2   -1    0    0  501    0  0.00000000000E+00  0.00000000000E+00  0.26748015353E+01  0.26748027508E+01  0.25500000000E-02 0. -1.
         -1   -1    0    0    0  501 -0.00000000000E+00 -0.00000000000E+00 -0.59466063038E+03  0.59466063040E+03  0.50400000000E-02 0.  1.
         24    2    1    2    0    0  0.00000000000E+00  0.00000000000E+00 -0.59198582884E+03  0.59733543315E+03  0.79764642204E+02 0.  0.
         66    2    3    3    0    0  0.35114802508E+02  0.10845338939E+02 -0.41169041371E+03  0.41333239346E+03  0.20000034655E+01 0.  0.
        -13    1    3    3    0    0 -0.35114802508E+02 -0.10845338939E+02 -0.18029541513E+03  0.18400303968E+03  0.10566000000E+00 0.  1.
         13    1    4    4    0    0  0.75548918468E+01  0.21993718295E+01 -0.81011848046E+02  0.81393146611E+02  0.10566000000E+00 0. -1.
        -13    1    4    4    0    0  0.16239549527E+02  0.48706007241E+01 -0.19923528374E+03  0.19995538295E+03  0.10566000000E+00 0.  1.
        -14    1    4    4    0    0  0.11320361135E+02  0.37753663856E+01 -0.13144328193E+03  0.13198386391E+03  0.00000000000E+00 0.  1.
<mgrwt>
<rscale>  0 0.79764642E+02</rscale>
<asrwt>0</asrwt>
<pdfrwt beam="1">  1        2 0.41150850E-03 0.79764642E+02</pdfrwt>
<pdfrwt beam="2">  1       -1 0.91486146E-01 0.79764642E+02</pdfrwt>
<totfact> 0.59856595E+04</totfact>
</mgrwt>
</event>
<event>
 8    1  0.2676873E-024  0.8034201E+02  0.7818608E-02  0.1328084E+00
          2   -1    0    0  501    0  0.00000000000E+00  0.00000000000E+00  0.17002026882E+03  0.17002026884E+03  0.25500000000E-02 0. -1.
         -1   -1    0    0    0  501 -0.00000000000E+00 -0.00000000000E+00 -0.94912772502E+01  0.94912785884E+01  0.50400000000E-02 0.  1.
         24    2    1    2    0    0  0.00000000000E+00  0.00000000000E+00  0.16052899157E+03  0.17951154743E+03  0.80342009718E+02 0.  0.
         66    2    3    3    0    0 -0.37483548575E+02 -0.90772908617E+01  0.10522385981E+03  0.11208690515E+03  0.20000024985E+01 0.  0.
        -13    1    3    3    0    0  0.37483548575E+02  0.90772908617E+01  0.55305131767E+02  0.67424642282E+02  0.10566000000E+00 0.  1.
         13    1    4    4    0    0 -0.94488475784E+01 -0.23562353862E+01  0.26147609515E+02  0.27902351391E+02  0.10566000000E+00 0. -1.
        -13    1    4    4    0    0 -0.91873035380E+01 -0.15203391456E+01  0.24293210106E+02  0.26017094356E+02  0.10566000000E+00 0.  1.
        -14    1    4    4    0    0 -0.18847397459E+02 -0.52007163299E+01  0.54783040184E+02  0.58167459400E+02  0.00000000000E+00 0.  1.
<mgrwt>
<rscale>  0 0.80342010E+02</rscale>
<asrwt>0</asrwt>
<pdfrwt beam="1">  1        2 0.26156964E-01 0.80342010E+02</pdfrwt>
<pdfrwt beam="2">  1       -1 0.14601966E-02 0.80342010E+02</pdfrwt>
<totfact> 0.20635776E+05</totfact>
</mgrwt>
</event>
<event>
 8    1  0.2676873E-024  0.7995657E+02  0.7818608E-02  0.1329175E+00
          2   -1    0    0  501    0  0.00000000000E+00  0.00000000000E+00  0.60717943053E+03  0.60717943054E+03  0.25500000000E-02 0. -1.
         -1   -1    0    0    0  501 -0.00000000000E+00 -0.00000000000E+00 -0.26322723128E+01  0.26322771379E+01  0.50400000000E-02 0.  1.
         24    2    1    2    0    0  0.88817841970E-15 -0.35527136788E-14  0.60454715822E+03  0.60981170768E+03  0.79956565127E+02 0.  0.
         66    2    3    3    0    0  0.60198124364E+01 -0.15603023103E+02  0.57919641190E+03  0.57944126193E+03  0.19999997484E+01 0.  0.
        -13    1    3    3    0    0 -0.60198124364E+01  0.15603023103E+02  0.25350746319E+02  0.30370445744E+02  0.10566000000E+00 0.  1.
         13    1    4    4    0    0  0.25047281202E+01 -0.65167524530E+01  0.23885068855E+03  0.23895272400E+03  0.10566000000E+00 0. -1.
        -13    1    4    4    0    0  0.25113879126E+01 -0.58751355095E+01  0.19812873349E+03  0.19823175952E+03  0.10566000000E+00 0.  1.
         14    1    4    4    0    0  0.10036964036E+01 -0.32111351400E+01  0.14221698987E+03  0.14225677841E+03  0.00000000000E+00 0. -1.
<mgrwt>
<rscale>  0 0.79956565E+02</rscale>
<asrwt>0</asrwt>
<pdfrwt beam="1">  1        2 0.93412337E-01 0.79956565E+02</pdfrwt>
<pdfrwt beam="2">  1       -1 0.40496484E-03 0.79956565E+02</pdfrwt>
<totfact> 0.32315179E+05</totfact>
</mgrwt>
</event>
<event>
 8    1  0.2676873E-024  0.7975452E+02  0.7818608E-02  0.1329750E+00
         -1   -1    0    0    0  501 -0.00000000000E+00  0.00000000000E+00  0.11525830247E+03  0.11525830258E+03  0.50400000000E-02 0.  1.
          2   -1    0    0  501    0  0.00000000000E+00 -0.00000000000E+00 -0.13796799297E+02  0.13796799533E+02  0.25500000000E-02 0. -1.
         24    2    1    2    0    0  0.17763568394E-14 -0.35527136788E-14  0.10146150317E+03  0.12905510211E+03  0.79754515579E+02 0.  0.
         66    2    3    3    0    0 -0.11464399570E+02  0.29561719907E+02  0.11696187640E+02  0.33854520298E+02  0.19999994826E+01 0.  0.
        -13    1    3    3    0    0  0.11464399570E+02 -0.29561719907E+02  0.89765315530E+02  0.95200581814E+02  0.10566000000E+00 0.  1.
         13    1    4    4    0    0 -0.30223129726E+01  0.83166833870E+01  0.26953068698E+01  0.92508076091E+01  0.10566000000E+00 0. -1.
        -13    1    4    4    0    0 -0.40444592631E+01  0.11673946948E+02  0.44961874883E+01  0.13147834576E+02  0.10566000000E+00 0.  1.
        -14    1    4    4    0    0 -0.43976273345E+01  0.95710895719E+01  0.45046932819E+01  0.11455878113E+02  0.00000000000E+00 0.  1.
<mgrwt>
<rscale>  0 0.79754516E+02</rscale>
<asrwt>0</asrwt>
<pdfrwt beam="1">  1        2 0.21225845E-02 0.79754516E+02</pdfrwt>
<pdfrwt beam="2">  1       -1 0.17732047E-01 0.79754516E+02</pdfrwt>
<totfact> 0.11578026E+05</totfact>
</mgrwt>
</event>
<event>
 8    1  0.2676873E-024  0.7963131E+02  0.7818608E-02  0.1330101E+00
         -1   -1    0    0    0  501 -0.00000000000E+00  0.00000000000E+00  0.17684832649E+03  0.17684832656E+03  0.50400000000E-02 0.  1.
          2   -1    0    0  501    0  0.00000000000E+00 -0.00000000000E+00 -0.89641010398E+01  0.89641014025E+01  0.25500000000E-02 0. -1.
         24    2    1    2    0    0  0.00000000000E+00  0.00000000000E+00  0.16788422545E+03  0.18581242796E+03  0.79631308108E+02 0.  0.
         66    2    3    3    0    0  0.99403357678E+01 -0.29485337538E+02  0.26124205668E+02  0.40677629320E+02  0.20000001010E+01 0.  0.
        -13    1    3    3    0    0 -0.99403357678E+01  0.29485337538E+02  0.14176001978E+03  0.14513479864E+03  0.10566000000E+00 0.  1.
         13    1    4    4    0    0  0.37300775879E+01 -0.13538272890E+02  0.11243574257E+02  0.17989648072E+02  0.10566000000E+00 0. -1.
        -13    1    4    4    0    0  0.31466660426E+01 -0.89350482377E+01  0.81262051307E+01  0.12481304742E+02  0.10566000000E+00 0.  1.
        -14    1    4    4    0    0  0.30635921372E+01 -0.70120164103E+01  0.67544262809E+01  0.10206676506E+02  0.00000000000E+00 0.  1.
<mgrwt>
<rscale>  0 0.79631308E+02</rscale>
<asrwt>0</asrwt>
<pdfrwt beam="1">  1        2 0.13790926E-02 0.79631308E+02</pdfrwt>
<pdfrwt beam="2">  1       -1 0.27207432E-01 0.79631308E+02</pdfrwt>
<totfact> 0.10445395E+05</totfact>
</mgrwt>
</event>
<event>
 8    1  0.2676873E-024  0.7933952E+02  0.7818608E-02  0.1330936E+00
         -1   -1    0    0    0  501 -0.00000000000E+00  0.00000000000E+00  0.28887921827E+02  0.28887922267E+02  0.50400000000E-02 0.  1.
          2   -1    0    0  501    0  0.00000000000E+00 -0.00000000000E+00 -0.54475702546E+02  0.54475702606E+02  0.25500000000E-02 0. -1.
         24    2    1    2    0    0  0.00000000000E+00  0.00000000000E+00 -0.25587780719E+02  0.83363624873E+02  0.79339519975E+02 0.  0.
         66    2    3    3    0    0  0.94678796913E+01  0.38165388679E+02 -0.18102384772E+02  0.43335135576E+02  0.20000005292E+01 0.  0.
        -13    1    3    3    0    0 -0.94678796913E+01 -0.38165388679E+02 -0.74853959471E+01  0.40028489297E+02  0.10566000000E+00 0.  1.
         13    1    4    4    0    0  0.27935988051E+01  0.11849495794E+02 -0.61689008269E+01  0.13648488792E+02  0.10566000000E+00 0. -1.
        -13    1    4    4    0    0  0.16700249072E+01  0.79294366564E+01 -0.41253039779E+01  0.90936376563E+01  0.10566000000E+00 0.  1.
        -14    1    4    4    0    0  0.50042559789E+01  0.18386456228E+02 -0.78081799673E+01  0.20593009128E+02  0.00000000000E+00 0.  1.
<mgrwt>
<rscale>  0 0.79339520E+02</rscale>
<asrwt>0</asrwt>
<pdfrwt beam="1">  1        2 0.83808773E-02 0.79339520E+02</pdfrwt>
<pdfrwt beam="2">  1       -1 0.44442957E-02 0.79339520E+02</pdfrwt>
<totfact> 0.15576716E+05</totfact>
</mgrwt>
</event>
<event>
 8    1  0.2676873E-024  0.8813396E+02  0.7818608E-02  0.1307435E+00
         -1   -1    0    0    0  501 -0.00000000000E+00  0.00000000000E+00  0.23119364469E+01  0.23119419405E+01  0.50400000000E-02 0.  1.
          2   -1    0    0  501    0  0.00000000000E+00 -0.00000000000E+00 -0.83994362232E+03  0.83994362232E+03  0.25500000000E-02 0. -1.
         24    2    1    2    0    0 -0.35527136788E-14 -0.35527136788E-14 -0.83763168587E+03  0.84225556426E+03  0.88133956882E+02 0.  0.
         66    2    3    3    0    0  0.28762451730E+02  0.25340970316E+02 -0.62631091829E+03  0.62748610325E+03  0.20000008542E+01 0.  0.
        -13    1    3    3    0    0 -0.28762451730E+02 -0.25340970316E+02 -0.21132076758E+03  0.21476946101E+03  0.10566000000E+00 0.  1.
         13    1    4    4    0    0  0.17424425432E+01  0.17478647683E+01 -0.37412731533E+02  0.37494196645E+02  0.10566000000E+00 0. -1.
        -13    1    4    4    0    0  0.12968796013E+02  0.10309672316E+02 -0.26736424171E+03  0.26787707614E+03  0.10566000000E+00 0.  1.
        -14    1    4    4    0    0  0.14051213174E+02  0.13283433232E+02 -0.32153394505E+03  0.32211483047E+03  0.00000000000E+00 0.  1.
<mgrwt>
<rscale>  0 0.88133957E+02</rscale>
<asrwt>0</asrwt>
<pdfrwt beam="1">  1        2 0.12922185E+00 0.88133957E+02</pdfrwt>
<pdfrwt beam="2">  1       -1 0.35568362E-03 0.88133957E+02</pdfrwt>
<totfact> 0.26901072E+05</totfact>
</mgrwt>
</event>
<event>
 8    1  0.2676873E-024  0.8011231E+02  0.7818608E-02  0.1328733E+00
         -1   -1    0    0    0  501 -0.00000000000E+00  0.00000000000E+00  0.48872721290E+01  0.48872747277E+01  0.50400000000E-02 0.  1.
          2   -1    0    0  501    0  0.00000000000E+00 -0.00000000000E+00 -0.32830077209E+03  0.32830077210E+03  0.25500000000E-02 0. -1.
         24    2    1    2    0    0  0.17763568394E-14  0.00000000000E+00 -0.32341349996E+03  0.33318804683E+03  0.80112312361E+02 0.  0.
         66    2    3    3    0    0 -0.90161988566E+01 -0.17489957490E+02 -0.30679521092E+03  0.30743209316E+03  0.20000012473E+01 0.  0.
        -13    1    3    3    0    0  0.90161988566E+01  0.17489957490E+02 -0.16618289045E+02  0.25755953674E+02  0.10566000000E+00 0.  1.
         13    1    4    4    0    0 -0.64412450185E-01 -0.52549224783E+00 -0.81481303623E+01  0.81659955611E+01  0.10566000000E+00 0. -1.
        -13    1    4    4    0    0 -0.35699422831E+01 -0.77977746603E+01 -0.12485028427E+03  0.12514453413E+03  0.10566000000E+00 0.  1.
         14    1    4    4    0    0 -0.53818441233E+01 -0.91666905823E+01 -0.17379679629E+03  0.17412156346E+03  0.00000000000E+00 0. -1.
<mgrwt>
<rscale>  0 0.80112312E+02</rscale>
<asrwt>0</asrwt>
<pdfrwt beam="1">  1        2 0.50507794E-01 0.80112312E+02</pdfrwt>
<pdfrwt beam="2">  1       -1 0.75188848E-03 0.80112312E+02</pdfrwt>
<totfact> 0.26241567E+05</totfact>
</mgrwt>
</event>
<event>
 8    1  0.2676873E-024  0.7659909E+02  0.7818608E-02  0.1338989E+00
         -1   -1    0    0    0  501 -0.00000000000E+00  0.00000000000E+00  0.63886456600E+01  0.63886476480E+01  0.50400000000E-02 0.  1.
          2   -1    0    0  501    0  0.00000000000E+00 -0.00000000000E+00 -0.22960344443E+03  0.22960344444E+03  0.25500000000E-02 0. -1.
         24    2    1    2    0    0  0.00000000000E+00  0.00000000000E+00 -0.22321479877E+03  0.23599209209E+03  0.76599093599E+02 0.  0.
         66    2    3    3    0    0 -0.35072449629E+02  0.13761006094E+02 -0.13244396244E+03  0.13771290862E+03  0.20000005688E+01 0.  0.
        -13    1    3    3    0    0  0.35072449629E+02 -0.13761006094E+02 -0.90770836328E+02  0.98279183469E+02  0.10566000000E+00 0.  1.
         13    1    4    4    0    0 -0.19579479010E+02  0.84102779883E+01 -0.74576884415E+02  0.77561663386E+02  0.10566000000E+00 0. -1.
        -13    1    4    4    0    0 -0.64917970774E+01  0.25669409511E+01 -0.25917188059E+02  0.26841095657E+02  0.10566000000E+00 0.  1.
        -14    1    4    4    0    0 -0.90011735423E+01  0.27837871544E+01 -0.31949889968E+02  0.33310149580E+02  0.00000000000E+00 0.  1.
<mgrwt>
<rscale>  0 0.76599094E+02</rscale>
<asrwt>0</asrwt>
<pdfrwt beam="1">  1        2 0.35323601E-01 0.76599094E+02</pdfrwt>
<pdfrwt beam="2">  1       -1 0.98286890E-03 0.76599094E+02</pdfrwt>
<totfact> 0.25953524E+05</totfact>
</mgrwt>
</event>
<event>
 8    1  0.2676873E-024  0.7584780E+02  0.7818608E-02  0.1341266E+00
          2   -1    0    0  501    0  0.00000000000E+00  0.00000000000E+00  0.49061419547E+02  0.49061419613E+02  0.25500000000E-02 0. -1.
         -1   -1    0    0    0  501 -0.00000000000E+00 -0.00000000000E+00 -0.29314726503E+02  0.29314726936E+02  0.50400000000E-02 0.  1.
         24    2    1    2    0    0  0.00000000000E+00 -0.17763568394E-14  0.19746693044E+02  0.78376146549E+02  0.75847798002E+02 0.  0.
         66    2    3    3    0    0 -0.35393059259E+02  0.12494863733E+02  0.44685410543E+01  0.37851791456E+02  0.19999984660E+01 0.  0.
        -13    1    3    3    0    0  0.35393059259E+02 -0.12494863733E+02  0.15278151989E+02  0.40524355093E+02  0.10566000000E+00 0.  1.
         13    1    4    4    0    0 -0.96162007212E+01  0.39247765151E+01  0.15344636634E+01  0.10499568076E+02  0.10566000000E+00 0. -1.
        -13    1    4    4    0    0 -0.61836925319E+01  0.25100078041E+01  0.38729762193E+00  0.66857576975E+01  0.10566000000E+00 0.  1.
        -14    1    4    4    0    0 -0.19593166006E+02  0.60600794137E+01  0.25467797690E+01  0.20666465683E+02  0.00000000000E+00 0.  1.
<mgrwt>
<rscale>  0 0.75847798E+02</rscale>
<asrwt>0</asrwt>
<pdfrwt beam="1">  1        2 0.75479106E-02 0.75847798E+02</pdfrwt>
<pdfrwt beam="2">  1       -1 0.45099580E-02 0.75847798E+02</pdfrwt>
<totfact> 0.17213239E+05</totfact>
</mgrwt>
</event>
