<event>
 8    1  0.1226832E-016  0.8670065E+02  0.7818608E-02  0.1311044E+00
          2   -1    0    0  501    0  0.00000000000E+00  0.00000000000E+00  0.45426828628E+02  0.45426828700E+02  0.25500000000E-02 0. -1.
         -1   -1    0    0    0  501 -0.00000000000E+00 -0.00000000000E+00 -0.41368739044E+02  0.41368739352E+02  0.50400000000E-02 0.  1.
         24    2    1    2    0    0  0.00000000000E+00  0.00000000000E+00  0.40580895839E+01  0.86795568051E+02  0.86700649030E+02 0.  0.
         66    2    3    3    0    0  0.17428384438E+02  0.24789885016E+02  0.33031080647E+02  0.44870249228E+02  0.19999984585E+01 0.  0.
        -13    1    3    3    0    0 -0.17428384438E+02 -0.24789885016E+02 -0.28972991064E+02  0.41925318823E+02  0.10566000000E+00 0.  1.
         13    1    4    4    0    0  0.54636147692E+01  0.88180297094E+01  0.11331036113E+02  0.15362691097E+02  0.10566000000E+00 0. -1.
        -13    1    4    4    0    0  0.44005059320E+00  0.43020146134E+00  0.94519050738E+00  0.11328137326E+01  0.10566000000E+00 0.  1.
         14    1    4    4    0    0  0.11524719076E+02  0.15541653845E+02  0.20754854027E+02  0.28374744399E+02  0.00000000000E+00 0. -1.
<mgrwt>
<rscale>  0 0.86700649E+02</rscale>
<asrwt>0</asrwt>
<pdfrwt beam="1">  1        2 0.69887429E-02 0.86700649E+02</pdfrwt>
<pdfrwt beam="2">  1       -1 0.63644214E-02 0.86700649E+02</pdfrwt>
<totfact> 0.11718262E+05</totfact>
</mgrwt>
</event>
<event>
 8    1  0.1226832E-016  0.8122677E+02  0.7818608E-02  0.1325606E+00
         -1   -1    0    0    0  501 -0.00000000000E+00  0.00000000000E+00  0.14914377006E+02  0.14914377857E+02  0.50400000000E-02 0.  1.
          2   -1    0    0  501    0  0.00000000000E+00 -0.00000000000E+00 -0.11059442224E+03  0.11059442227E+03  0.25500000000E-02 0. -1.
         24    2    1    2    0    0  0.00000000000E+00  0.00000000000E+00 -0.95680045234E+02  0.12550880013E+03  0.81226768083E+02 0.  0.
         66    2    3    3    0    0 -0.17553489342E+02 -0.25226205536E+02 -0.88836395712E+02  0.94023356876E+02  0.20000003311E+01 0.  0.
        -13    1    3    3    0    0  0.17553489342E+02  0.25226205536E+02 -0.68436495213E+01  0.31485443250E+02  0.10566000000E+00 0.  1.
         13    1    4    4    0    0 -0.20686674137E+01 -0.35291323057E+01 -0.10684185552E+02  0.11441029003E+02  0.10566000000E+00 0. -1.
        -13    1    4    4    0    0 -0.12947542752E+02 -0.18690764552E+02 -0.65674121921E+02  0.69498812917E+02  0.10566000000E+00 0.  1.
        -14    1    4    4    0    0 -0.25372791764E+01 -0.30063086782E+01 -0.12478088240E+02  0.13083514956E+02  0.00000000000E+00 0.  1.
<mgrwt>
<rscale>  0 0.81226768E+02</rscale>
<asrwt>0</asrwt>
<pdfrwt beam="1">  1        2 0.17014526E-01 0.81226768E+02</pdfrwt>
<pdfrwt beam="2">  1       -1 0.22945197E-02 0.81226768E+02</pdfrwt>
<totfact> 0.17514726E+05</totfact>
</mgrwt>
</event>
<event>
 8    1  0.1226832E-016  0.7704840E+02  0.7818608E-02  0.1337643E+00
         -1   -1    0    0    0  501 -0.00000000000E+00  0.00000000000E+00  0.22429673297E+02  0.22429673863E+02  0.50400000000E-02 0.  1.
          2   -1    0    0  501    0  0.00000000000E+00 -0.00000000000E+00 -0.66167443696E+02  0.66167443746E+02  0.25500000000E-02 0. -1.
         24    2    1    2    0    0  0.00000000000E+00  0.00000000000E+00 -0.43737770400E+02  0.88597117609E+02  0.77048404844E+02 0.  0.
         66    2    3    3    0    0  0.18483488381E+02 -0.16800477224E+02 -0.55569910843E+02  0.60958266526E+02  0.19999722553E+01 0.  0.
        -13    1    3    3    0    0 -0.18483488381E+02  0.16800477224E+02  0.11832140444E+02  0.27638851083E+02  0.10566000000E+00 0.  1.
         13    1    4    4    0    0  0.59996985593E+01 -0.63021094411E+01 -0.20528024679E+02  0.22296276089E+02  0.10566000000E+00 0. -1.
        -13    1    4    4    0    0  0.80998945911E+01 -0.70048168649E+01 -0.22088457191E+02  0.24547644629E+02  0.10566000000E+00 0.  1.
        -14    1    4    4    0    0  0.43838952306E+01 -0.34935509176E+01 -0.12953428974E+02  0.14114345808E+02  0.00000000000E+00 0.  1.
<mgrwt>
<rscale>  0 0.77048405E+02</rscale>
<asrwt>0</asrwt>
<pdfrwt beam="1">  1        2 0.10179607E-01 0.77048405E+02</pdfrwt>
<pdfrwt beam="2">  1       -1 0.34507191E-02 0.77048405E+02</pdfrwt>
<totfact> 0.17633273E+05</totfact>
</mgrwt>
</event>
<event>
 8    1  0.1226832E-016  0.7881348E+02  0.7818608E-02  0.1332453E+00
         -1   -1    0    0    0  501 -0.00000000000E+00  0.00000000000E+00  0.35639911986E+01  0.35639947622E+01  0.50400000000E-02 0.  1.
          2   -1    0    0  501    0  0.00000000000E+00 -0.00000000000E+00 -0.43571664378E+03  0.43571664379E+03  0.25500000000E-02 0. -1.
         24    2    1    2    0    0  0.00000000000E+00  0.00000000000E+00 -0.43215265259E+03  0.43928063855E+03  0.78813477727E+02 0.  0.
         66    2    3    3    0    0 -0.34491214664E+02 -0.78900284597E+01 -0.31259125510E+03  0.31459368907E+03  0.20000003346E+01 0.  0.
        -13    1    3    3    0    0  0.34491214664E+02  0.78900284597E+01 -0.11956139748E+03  0.12468694948E+03  0.10566000000E+00 0.  1.
         13    1    4    4    0    0 -0.32029928184E+01 -0.93129998636E+00 -0.31447130477E+02  0.31623719926E+02  0.10566000000E+00 0. -1.
        -13    1    4    4    0    0 -0.63273824397E+01 -0.80151548264E+00 -0.53825301881E+02  0.54201960133E+02  0.10566000000E+00 0.  1.
        -14    1    4    4    0    0 -0.24960839406E+02 -0.61572129907E+01 -0.22731882274E+03  0.22876800902E+03  0.00000000000E+00 0.  1.
<mgrwt>
<rscale>  0 0.78813478E+02</rscale>
<asrwt>0</asrwt>
<pdfrwt beam="1">  1        2 0.67033288E-01 0.78813478E+02</pdfrwt>
<pdfrwt beam="2">  1       -1 0.54830696E-03 0.78813478E+02</pdfrwt>
<totfact> 0.30256006E+05</totfact>
</mgrwt>
</event>
<event>
 8    1  0.1226832E-016  0.7049092E+02  0.7818608E-02  0.1358432E+00
         -1   -1    0    0    0  501 -0.00000000000E+00  0.00000000000E+00  0.19146771766E+01  0.19146838100E+01  0.50400000000E-02 0.  1.
          2   -1    0    0  501    0  0.00000000000E+00 -0.00000000000E+00 -0.64879883621E+03  0.64879883621E+03  0.25500000000E-02 0. -1.
         24    2    1    2    0    0  0.00000000000E+00  0.35527136788E-14 -0.64688415903E+03  0.65071352002E+03  0.70490920941E+02 0.  0.
         66    2    3    3    0    0 -0.59142966298E+01 -0.22831588861E+02 -0.56512409030E+03  0.56561956984E+03  0.19999988879E+01 0.  0.
        -13    1    3    3    0    0  0.59142966298E+01  0.22831588861E+02 -0.81760068733E+02  0.85093950183E+02  0.10566000000E+00 0.  1.
         13    1    4    4    0    0 -0.42490089772E+01 -0.15371236940E+02 -0.39001259653E+03  0.39033852695E+03  0.10566000000E+00 0. -1.
        -13    1    4    4    0    0 -0.10249227826E+01 -0.60358086728E+01 -0.14463833435E+03  0.14476788449E+03  0.10566000000E+00 0.  1.
        -14    1    4    4    0    0 -0.64036487007E+00 -0.14245432482E+01 -0.30473159413E+02  0.30513158395E+02  0.00000000000E+00 0.  1.
<mgrwt>
<rscale>  0 0.70490921E+02</rscale>
<asrwt>0</asrwt>
<pdfrwt beam="1">  1        2 0.99815030E-01 0.70490921E+02</pdfrwt>
<pdfrwt beam="2">  1       -1 0.29456675E-03 0.70490921E+02</pdfrwt>
<totfact> 0.45541748E+05</totfact>
</mgrwt>
</event>
<event>
 8    1  0.1226832E-016  0.8446891E+02  0.7818608E-02  0.1316827E+00
          2   -1    0    0  501    0  0.00000000000E+00  0.00000000000E+00  0.64129781244E+02  0.64129781295E+02  0.25500000000E-02 0. -1.
         -1   -1    0    0    0  501 -0.00000000000E+00 -0.00000000000E+00 -0.27814674986E+02  0.27814675442E+02  0.50400000000E-02 0.  1.
         24    2    1    2    0    0 -0.35527136788E-14  0.00000000000E+00  0.36315106259E+02  0.91944456737E+02  0.84468906600E+02 0.  0.
         66    2    3    3    0    0 -0.26337874392E+02 -0.32254776118E+01  0.53900655759E+02  0.60111297162E+02  0.20000054790E+01 0.  0.
        -13    1    3    3    0    0  0.26337874392E+02  0.32254776118E+01 -0.17585549500E+02  0.31833159576E+02  0.10566000000E+00 0.  1.
         13    1    4    4    0    0 -0.11195236894E+02 -0.83338424788E+00  0.21540139042E+02  0.24290257562E+02  0.10566000000E+00 0. -1.
        -13    1    4    4    0    0 -0.94147434626E+01 -0.15687542629E+01  0.19073241665E+02  0.21328340209E+02  0.10566000000E+00 0.  1.
         14    1    4    4    0    0 -0.57278940356E+01 -0.82333910101E+00  0.13287275051E+02  0.14492699392E+02  0.00000000000E+00 0. -1.
<mgrwt>
<rscale>  0 0.84468907E+02</rscale>
<asrwt>0</asrwt>
<pdfrwt beam="1">  1        2 0.98661200E-02 0.84468907E+02</pdfrwt>
<pdfrwt beam="2">  1       -1 0.42791809E-02 0.84468907E+02</pdfrwt>
<totfact> 0.13633926E+05</totfact>
</mgrwt>
</event>
<event>
 8    1  0.1226832E-016  0.9022950E+02  0.7818608E-02  0.1302297E+00
          2   -1    0    0  501    0  0.00000000000E+00  0.00000000000E+00  0.55534804919E+03  0.55534804920E+03  0.25500000000E-02 0. -1.
         -1   -1    0    0    0  501 -0.00000000000E+00 -0.00000000000E+00 -0.36649807490E+01  0.36649842144E+01  0.50400000000E-02 0.  1.
         24    2    1    2    0    0  0.00000000000E+00  0.35527136788E-14  0.55168306844E+03  0.55901303341E+03  0.90229504698E+02 0.  0.
         66    2    3    3    0    0  0.23885168217E+02  0.23736013000E+02  0.46178217306E+03  0.46301260774E+03  0.19999998169E+01 0.  0.
        -13    1    3    3    0    0 -0.23885168217E+02 -0.23736013000E+02  0.89900895382E+02  0.96000425668E+02  0.10566000000E+00 0.  1.
         13    1    4    4    0    0  0.76893578949E+01  0.75072254277E+01  0.14710227060E+03  0.14749431798E+03  0.10566000000E+00 0. -1.
        -13    1    4    4    0    0  0.90886699151E+01  0.84062228800E+01  0.17854901213E+03  0.17897773437E+03  0.10566000000E+00 0.  1.
        -14    1    4    4    0    0  0.71071404071E+01  0.78225646926E+01  0.13613089033E+03  0.13654055539E+03  0.00000000000E+00 0.  1.
<mgrwt>
<rscale>  0 0.90229505E+02</rscale>
<asrwt>0</asrwt>
<pdfrwt beam="1">  1        2 0.85438099E-01 0.90229505E+02</pdfrwt>
<pdfrwt beam="2">  1       -1 0.56384388E-03 0.90229505E+02</pdfrwt>
<totfact> 0.22951201E+05</totfact>
</mgrwt>
</event>
<event>
 8    1  0.1226832E-016  0.8022543E+02  0.7818608E-02  0.1328413E+00
         -1   -1    0    0    0  501 -0.00000000000E+00  0.00000000000E+00  0.28084406140E+01  0.28084451364E+01  0.50400000000E-02 0.  1.
          2   -1    0    0  501    0  0.00000000000E+00 -0.00000000000E+00 -0.57292591254E+03  0.57292591255E+03  0.25500000000E-02 0. -1.
         24    2    1    2    0    0  0.00000000000E+00  0.00000000000E+00 -0.57011747193E+03  0.57573435769E+03  0.80225425024E+02 0.  0.
         66    2    3    3    0    0  0.91564890970E+01  0.23913968593E+02 -0.50658061793E+03  0.50723134923E+03  0.19999997595E+01 0.  0.
        -13    1    3    3    0    0 -0.91564890970E+01 -0.23913968593E+02 -0.63536854002E+02  0.68503008452E+02  0.10566000000E+00 0.  1.
         13    1    4    4    0    0  0.23998925746E+01  0.52382194214E+01 -0.12176304184E+03  0.12189933531E+03  0.10566000000E+00 0.  1.
        -13    1    4    4    0    0  0.59306542113E+01  0.14882762788E+02 -0.31162218559E+03  0.31203375939E+03  0.10566000000E+00 0. -1.
         14    1    4    4    0    0  0.82594231117E+00  0.37929863837E+01 -0.73195390506E+02  0.73298254534E+02  0.00000000000E+00 0. -1.
<mgrwt>
<rscale>  0 0.80225425E+02</rscale>
<asrwt>0</asrwt>
<pdfrwt beam="1">  1        2 0.88142355E-01 0.80225425E+02</pdfrwt>
<pdfrwt beam="2">  1       -1 0.43206859E-03 0.80225425E+02</pdfrwt>
<totfact> 0.31512093E+05</totfact>
</mgrwt>
</event>
<event>
 8    1  0.1226832E-016  0.7952848E+02  0.7818608E-02  0.1330395E+00
          2   -1    0    0  501    0  0.00000000000E+00  0.00000000000E+00  0.10724315744E+03  0.10724315747E+03  0.25500000000E-02 0. -1.
         -1   -1    0    0    0  501 -0.00000000000E+00 -0.00000000000E+00 -0.14744016284E+02  0.14744017145E+02  0.50400000000E-02 0.  1.
         24    2    1    2    0    0  0.00000000000E+00  0.35527136788E-14  0.92499141158E+02  0.12198717462E+03  0.79528483300E+02 0.  0.
         66    2    3    3    0    0 -0.74068075814E+01 -0.28810800057E+02  0.86694868511E+02  0.91678368249E+02  0.19999950185E+01 0.  0.
        -13    1    3    3    0    0  0.74068075814E+01  0.28810800057E+02  0.58042726463E+01  0.30308806368E+02  0.10566000000E+00 0.  1.
         13    1    4    4    0    0 -0.66185320480E+01 -0.25329349077E+02  0.75434357032E+02  0.79848195196E+02  0.10566000000E+00 0. -1.
        -13    1    4    4    0    0 -0.22778100916E+00 -0.37487905042E+00  0.10505028971E+01  0.11433017375E+01  0.10566000000E+00 0. -1.
        -14    1    4    4    0    0 -0.56049452420E+00 -0.31065719290E+01  0.10210008582E+02  0.10686871315E+02  0.00000000000E+00 0.  1.
<mgrwt>
<rscale>  0 0.79528483E+02</rscale>
<asrwt>0</asrwt>
<pdfrwt beam="1">  1        2 0.16498947E-01 0.79528483E+02</pdfrwt>
<pdfrwt beam="2">  1       -1 0.22683103E-02 0.79528483E+02</pdfrwt>
<totfact> 0.18368844E+05</totfact>
</mgrwt>
</event>
<event>
 8    1  0.1226832E-016  0.8203464E+02  0.7818608E-02  0.1323375E+00
          2   -1    0    0  501    0  0.00000000000E+00  0.00000000000E+00  0.21843853748E+03  0.21843853749E+03  0.25500000000E-02 0. -1.
         -1   -1    0    0    0  501 -0.00000000000E+00 -0.00000000000E+00 -0.77020304918E+01  0.77020321409E+01  0.50400000000E-02 0.  1.
         24    2    1    2    0    0  0.17763568394E-14  0.00000000000E+00  0.21073650698E+03  0.22614056963E+03  0.82034638157E+02 0.  0.
         66    2    3    3    0    0 -0.12178137428E+02 -0.30584583508E+02  0.17276808714E+03  0.17588784981E+03  0.19999997198E+01 0.  0.
        -13    1    3    3    0    0  0.12178137428E+02  0.30584583508E+02  0.37968419846E+02  0.50252719819E+02  0.10566000000E+00 0.  1.
         13    1    4    4    0    0 -0.11586074509E+01 -0.30737539983E+01  0.15213102004E+02  0.15564060251E+02  0.10566000000E+00 0.  1.
        -13    1    4    4    0    0 -0.42413288410E+01 -0.93986106668E+01  0.52281520175E+02  0.53288753679E+02  0.10566000000E+00 0. -1.
        -14    1    4    4    0    0 -0.67782011363E+01 -0.18112218843E+02  0.10527346496E+03  0.10703503588E+03  0.00000000000E+00 0.  1.
<mgrwt>
<rscale>  0 0.82034638E+02</rscale>
<asrwt>0</asrwt>
<pdfrwt beam="1">  1        2 0.33605925E-01 0.82034638E+02</pdfrwt>
<pdfrwt beam="2">  1       -1 0.11849280E-02 0.82034638E+02</pdfrwt>
<totfact> 0.21291532E+05</totfact>
</mgrwt>
</event>
<event>
 8    1  0.1226832E-016  0.7962118E+02  0.7818608E-02  0.1330130E+00
          2   -1    0    0  501    0  0.00000000000E+00  0.00000000000E+00  0.17793159990E+02  0.17793160173E+02  0.25500000000E-02 0. -1.
         -1   -1    0    0    0  501 -0.00000000000E+00 -0.00000000000E+00 -0.89072611998E+02  0.89072612140E+02  0.50400000000E-02 0.  1.
         24    2    1    2    0    0  0.17763568394E-14  0.17763568394E-14 -0.71279452008E+02  0.10686577231E+03  0.79621184452E+02 0.  0.
         66    2    3    3    0    0 -0.11869193351E+02  0.14689996176E+02  0.11337156899E+02  0.22117976060E+02  0.20000000005E+01 0.  0.
        -13    1    3    3    0    0  0.11869193351E+02 -0.14689996176E+02 -0.82616608907E+02  0.84747796253E+02  0.10566000000E+00 0.  1.
         13    1    4    4    0    0 -0.51588932091E+01  0.68727027179E+01  0.48754007604E+01  0.98807347096E+01  0.10566000000E+00 0. -1.
        -13    1    4    4    0    0 -0.48335615478E+01  0.47784343194E+01  0.46166424824E+01  0.82171347577E+01  0.10566000000E+00 0.  1.
        -14    1    4    4    0    0 -0.18767385940E+01  0.30388591382E+01  0.18451136562E+01  0.40201065927E+01  0.00000000000E+00 0.  1.
<mgrwt>
<rscale>  0 0.79621184E+02</rscale>
<asrwt>0</asrwt>
<pdfrwt beam="1">  1        2 0.27374093E-02 0.79621184E+02</pdfrwt>
<pdfrwt beam="2">  1       -1 0.13703479E-01 0.79621184E+02</pdfrwt>
<totfact> 0.12289400E+05</totfact>
</mgrwt>
</event>
<event>
 8    1  0.1226832E-016  0.7903691E+02  0.7818608E-02  0.1331807E+00
          2   -1    0    0  501    0  0.00000000000E+00  0.00000000000E+00  0.21116937467E+02  0.21116937621E+02  0.25500000000E-02 0. -1.
         -1   -1    0    0    0  501 -0.00000000000E+00 -0.00000000000E+00 -0.73955250728E+02  0.73955250899E+02  0.50400000000E-02 0.  1.
         24    2    1    2    0    0  0.00000000000E+00  0.00000000000E+00 -0.52838313261E+02  0.95072188520E+02  0.79036913412E+02 0.  0.
         66    2    3    3    0    0 -0.26344549842E+02 -0.99909038917E+01  0.68525622348E+01  0.29065633933E+02  0.19999999399E+01 0.  0.
        -13    1    3    3    0    0  0.26344549842E+02  0.99909038917E+01 -0.59690875496E+02  0.66006554587E+02  0.10566000000E+00 0.  1.
         13    1    4    4    0    0 -0.62403432918E+01 -0.25521622187E+01  0.17290640592E+01  0.69610518563E+01  0.10566000000E+00 0. -1.
        -13    1    4    4    0    0 -0.12967723655E+02 -0.56127272837E+01  0.36058602903E+01  0.14583482328E+02  0.10566000000E+00 0.  1.
        -14    1    4    4    0    0 -0.71364828956E+01 -0.18260143893E+01  0.15176378854E+01  0.75210997480E+01  0.00000000000E+00 0.  1.
<mgrwt>
<rscale>  0 0.79036913E+02</rscale>
<asrwt>0</asrwt>
<pdfrwt beam="1">  1        2 0.32487596E-02 0.79036913E+02</pdfrwt>
<pdfrwt beam="2">  1       -1 0.11377731E-01 0.79036913E+02</pdfrwt>
<totfact> 0.12994502E+05</totfact>
</mgrwt>
</event>
<event>
 8    1  0.1226832E-016  0.7973135E+02  0.7818608E-02  0.1329816E+00
         -1   -1    0    0    0  501 -0.00000000000E+00  0.00000000000E+00  0.37830676289E+01  0.37830709861E+01  0.50400000000E-02 0.  1.
          2   -1    0    0  501    0  0.00000000000E+00 -0.00000000000E+00 -0.42010119774E+03  0.42010119774E+03  0.25500000000E-02 0. -1.
         24    2    1    2    0    0  0.00000000000E+00 -0.35527136788E-14 -0.41631813011E+03  0.42388426873E+03  0.79731347792E+02 0.  0.
         66    2    3    3    0    0 -0.22227480510E+02  0.26191912283E+02 -0.31556915717E+03  0.31743971100E+03  0.20000006136E+01 0.  0.
        -13    1    3    3    0    0  0.22227480510E+02 -0.26191912283E+02 -0.10074897293E+03  0.10644455773E+03  0.10566000000E+00 0.  1.
         13    1    4    4    0    0 -0.38502690404E+01  0.53579725453E+01 -0.64236253101E+02  0.64574296883E+02  0.10566000000E+00 0. -1.
        -13    1    4    4    0    0 -0.45512709372E+01  0.56937619142E+01 -0.64037243845E+02  0.64450855349E+02  0.10566000000E+00 0.  1.
        -14    1    4    4    0    0 -0.13825940533E+02  0.15140177823E+02 -0.18729566023E+03  0.18841455877E+03  0.00000000000E+00 0.  1.
<mgrwt>
<rscale>  0 0.79731348E+02</rscale>
<asrwt>0</asrwt>
<pdfrwt beam="1">  1        2 0.64630916E-01 0.79731348E+02</pdfrwt>
<pdfrwt beam="2">  1       -1 0.58201100E-03 0.79731348E+02</pdfrwt>
<totfact> 0.28991928E+05</totfact>
</mgrwt>
</event>
<event>
 8    1  0.1226832E-016  0.8004075E+02  0.7818608E-02  0.1328936E+00
         -1   -1    0    0    0  501 -0.00000000000E+00  0.00000000000E+00  0.40087106150E+01  0.40087137833E+01  0.50400000000E-02 0.  1.
          2   -1    0    0  501    0  0.00000000000E+00 -0.00000000000E+00 -0.39953736565E+03  0.39953736566E+03  0.25500000000E-02 0. -1.
         24    2    1    2    0    0  0.00000000000E+00  0.00000000000E+00 -0.39552865504E+03  0.40354607945E+03  0.80040747615E+02 0.  0.
         66    2    3    3    0    0 -0.11854703695E+02 -0.24063228335E+02 -0.34745462486E+03  0.34849431745E+03  0.19999993329E+01 0.  0.
        -13    1    3    3    0    0  0.11854703695E+02  0.24063228335E+02 -0.48074030176E+02  0.55051761997E+02  0.10566000000E+00 0.  1.
         13    1    4    4    0    0 -0.62758282856E+01 -0.11390382625E+02 -0.16811291318E+03  0.16861521159E+03  0.10566000000E+00 0. -1.
        -13    1    4    4    0    0 -0.20045055918E+01 -0.57635696085E+01 -0.75184446133E+02  0.75431749825E+02  0.10566000000E+00 0.  1.
        -14    1    4    4    0    0 -0.35743698173E+01 -0.69092761016E+01 -0.10415726555E+03  0.10444735603E+03  0.00000000000E+00 0.  1.
<mgrwt>
<rscale>  0 0.80040748E+02</rscale>
<asrwt>0</asrwt>
<pdfrwt beam="1">  1        2 0.61467256E-01 0.80040748E+02</pdfrwt>
<pdfrwt beam="2">  1       -1 0.61672527E-03 0.80040748E+02</pdfrwt>
<totfact> 0.28204638E+05</totfact>
</mgrwt>
</event>
<event>
 8    1  0.1226832E-016  0.8341524E+02  0.7818608E-02  0.1319630E+00
         -1   -1    0    0    0  501 -0.00000000000E+00  0.00000000000E+00  0.90262385649E+01  0.90262399720E+01  0.50400000000E-02 0.  1.
          2   -1    0    0  501    0  0.00000000000E+00 -0.00000000000E+00 -0.19271877334E+03  0.19271877335E+03  0.25500000000E-02 0. -1.
         24    2    1    2    0    0  0.00000000000E+00  0.00000000000E+00 -0.18369253477E+03  0.20174501333E+03  0.83415244835E+02 0.  0.
         66    2    3    3    0    0 -0.16036960791E+02  0.16427148692E+02 -0.17604563409E+03  0.17754746015E+03  0.19999995063E+01 0.  0.
        -13    1    3    3    0    0  0.16036960791E+02 -0.16427148692E+02 -0.76469006795E+01  0.24197553173E+02  0.10566000000E+00 0.  1.
         13    1    4    4    0    0 -0.42753505913E+01  0.52266694502E+01 -0.55086785083E+02  0.55499204959E+02  0.10566000000E+00 0.  1.
        -13    1    4    4    0    0 -0.28050723044E+01  0.26709040658E+01 -0.25926378561E+02  0.26214317242E+02  0.10566000000E+00 0. -1.
         14    1    4    4    0    0 -0.89565378949E+01  0.85295751755E+01 -0.95032470449E+02  0.95833937952E+02  0.00000000000E+00 0. -1.
<mgrwt>
<rscale>  0 0.83415245E+02</rscale>
<asrwt>0</asrwt>
<pdfrwt beam="1">  1        2 0.29649039E-01 0.83415245E+02</pdfrwt>
<pdfrwt beam="2">  1       -1 0.13886523E-02 0.83415245E+02</pdfrwt>
<totfact> 0.19496732E+05</totfact>
</mgrwt>
</event>
<event>
 8    1  0.1226832E-016  0.7479837E+02  0.7818608E-02  0.1344497E+00
          2   -1    0    0  501    0  0.00000000000E+00  0.00000000000E+00  0.15492920570E+04  0.15492920570E+04  0.25500000000E-02 0. -1.
         -1   -1    0    0    0  501 -0.00000000000E+00 -0.00000000000E+00 -0.90279185286E+00  0.90280592111E+00  0.50400000000E-02 0.  1.
         24    2    1    2    0    0  0.00000000000E+00 -0.88817841970E-15  0.15483892652E+04  0.15501948630E+04  0.74798373049E+02 0.  0.
         66    2    3    3    0    0 -0.17919257355E+02  0.77111388787E+01  0.14353934723E+04  0.14355274228E+04  0.19999994840E+01 0.  0.
        -13    1    3    3    0    0  0.17919257355E+02 -0.77111388787E+01  0.11299579290E+03  0.11466744012E+03  0.10566000000E+00 0.  1.
         13    1    4    4    0    0 -0.51756003284E+00  0.50640707519E-01  0.40179064430E+02  0.40182568551E+02  0.10566000000E+00 0. -1.
        -13    1    4    4    0    0 -0.24405625762E+01  0.15910110328E+01  0.23651952119E+03  0.23653748695E+03  0.10566000000E+00 0.  1.
        -14    1    4    4    0    0 -0.14961134746E+02  0.60694871384E+01  0.11586948867E+04  0.11588073673E+04  0.00000000000E+00 0.  1.
<mgrwt>
<rscale>  0 0.74798373E+02</rscale>
<asrwt>0</asrwt>
<pdfrwt beam="1">  1        2 0.23835284E+00 0.74798373E+02</pdfrwt>
<pdfrwt beam="2">  1       -1 0.13889201E-03 0.74798373E+02</pdfrwt>
<totfact> 0.39069791E+05</totfact>
</mgrwt>
</event>
<event>
 8    1  0.1226832E-016  0.7775491E+02  0.7818608E-02  0.1335546E+00
         -1   -1    0    0    0  501 -0.00000000000E+00  0.00000000000E+00  0.66788646111E+01  0.66788665127E+01  0.50400000000E-02 0.  1.
          2   -1    0    0  501    0  0.00000000000E+00 -0.00000000000E+00 -0.22630435800E+03  0.22630435802E+03  0.25500000000E-02 0. -1.
         24    2    1    2    0    0  0.00000000000E+00 -0.35527136788E-14 -0.21962549339E+03  0.23298322453E+03  0.77754907014E+02 0.  0.
         66    2    3    3    0    0  0.13087338362E+02 -0.29229824507E+02 -0.17579127533E+03  0.17869592488E+03  0.20000052183E+01 0.  0.
        -13    1    3    3    0    0 -0.13087338362E+02  0.29229824507E+02 -0.43834218064E+02  0.54287299651E+02  0.10566000000E+00 0.  1.
         13    1    4    4    0    0  0.64892748422E+01 -0.12912288665E+02 -0.78953475711E+02  0.80265187830E+02  0.10566000000E+00 0. -1.
        -13    1    4    4    0    0  0.26248222221E+01 -0.55903551391E+01 -0.31726298076E+02  0.32321988118E+02  0.10566000000E+00 0.  1.
        -14    1    4    4    0    0  0.39732412974E+01 -0.10727180703E+02 -0.65111501543E+02  0.66108748932E+02  0.00000000000E+00 0.  1.
<mgrwt>
<rscale>  0 0.77754907E+02</rscale>
<asrwt>0</asrwt>
<pdfrwt beam="1">  1        2 0.34816049E-01 0.77754907E+02</pdfrwt>
<pdfrwt beam="2">  1       -1 0.10275180E-02 0.77754907E+02</pdfrwt>
<totfact> 0.24826487E+05</totfact>
</mgrwt>
</event>
<event>
 8    1  0.1226832E-016  0.8080526E+02  0.7818608E-02  0.1326782E+00
          2   -1    0    0  501    0  0.00000000000E+00  0.00000000000E+00  0.19816047796E+03  0.19816047798E+03  0.25500000000E-02 0. -1.
         -1   -1    0    0    0  501 -0.00000000000E+00 -0.00000000000E+00 -0.82376288363E+01  0.82376303781E+01  0.50400000000E-02 0.  1.
         24    2    1    2    0    0  0.35527136788E-14  0.00000000000E+00  0.18992284913E+03  0.20639810836E+03  0.80805262905E+02 0.  0.
         66    2    3    3    0    0  0.24593797292E+02 -0.30620507065E+02  0.71072281669E+02  0.81226470726E+02  0.20000017247E+01 0.  0.
        -13    1    3    3    0    0 -0.24593797292E+02  0.30620507065E+02  0.11885056746E+03  0.12517163763E+03  0.10566000000E+00 0.  1.
         13    1    4    4    0    0  0.11498071580E+02 -0.15490934864E+02  0.34212902312E+02  0.39277328851E+02  0.10566000000E+00 0. -1.
        -13    1    4    4    0    0  0.75711932323E+01 -0.93448504338E+01  0.21889500573E+02  0.24976200591E+02  0.10566000000E+00 0.  1.
        -14    1    4    4    0    0  0.55245324801E+01 -0.57847217672E+01  0.14969878784E+02  0.16972941285E+02  0.00000000000E+00 0.  1.
<mgrwt>
<rscale>  0 0.80805263E+02</rscale>
<asrwt>0</asrwt>
<pdfrwt beam="1">  1        2 0.30486226E-01 0.80805263E+02</pdfrwt>
<pdfrwt beam="2">  1       -1 0.12673277E-02 0.80805263E+02</pdfrwt>
<totfact> 0.21414091E+05</totfact>
</mgrwt>
</event>
<event>
 8    1  0.1226832E-016  0.8071552E+02  0.7818608E-02  0.1327033E+00
         -1   -1    0    0    0  501 -0.00000000000E+00  0.00000000000E+00  0.12279029333E+02  0.12279030368E+02  0.50400000000E-02 0.  1.
          2   -1    0    0  501    0  0.00000000000E+00 -0.00000000000E+00 -0.13264474397E+03  0.13264474399E+03  0.25500000000E-02 0. -1.
         24    2    1    2    0    0  0.00000000000E+00  0.00000000000E+00 -0.12036571464E+03  0.14492377436E+03  0.80715519668E+02 0.  0.
         66    2    3    3    0    0  0.11726116209E+02  0.52980311385E+01 -0.12885276883E+03  0.12950909992E+03  0.19999980631E+01 0.  0.
        -13    1    3    3    0    0 -0.11726116209E+02 -0.52980311385E+01  0.84870541908E+01  0.15414674442E+02  0.10566000000E+00 0.  1.
         13    1    4    4    0    0  0.42657446783E+01  0.14967208485E+01 -0.46523322480E+02  0.46742565714E+02  0.10566000000E+00 0. -1.
        -13    1    4    4    0    0  0.89526245702E+00  0.63379445669E+00 -0.15960301699E+02  0.15998299429E+02  0.10566000000E+00 0.  1.
        -14    1    4    4    0    0  0.65651090734E+01  0.31675158333E+01 -0.66369144648E+02  0.66768234775E+02  0.00000000000E+00 0.  1.
<mgrwt>
<rscale>  0 0.80715520E+02</rscale>
<asrwt>0</asrwt>
<pdfrwt beam="1">  1        2 0.20406883E-01 0.80715520E+02</pdfrwt>
<pdfrwt beam="2">  1       -1 0.18890816E-02 0.80715520E+02</pdfrwt>
<totfact> 0.18814844E+05</totfact>
</mgrwt>
</event>
<event>
 8    1  0.1226832E-016  0.7999458E+02  0.7818608E-02  0.1329067E+00
         -1   -1    0    0    0  501 -0.00000000000E+00  0.00000000000E+00  0.14972729801E+02  0.14972730649E+02  0.50400000000E-02 0.  1.
          2   -1    0    0  501    0  0.00000000000E+00 -0.00000000000E+00 -0.10684645004E+03  0.10684645007E+03  0.25500000000E-02 0. -1.
         24    2    1    2    0    0  0.00000000000E+00  0.71054273576E-14 -0.91873720237E+02  0.12181918072E+03  0.79994576818E+02 0.  0.
         66    2    3    3    0    0  0.17059837990E+02 -0.36078487988E+02 -0.42532249634E+02  0.58358269495E+02  0.19999979424E+01 0.  0.
        -13    1    3    3    0    0 -0.17059837990E+02  0.36078487988E+02 -0.49341470603E+02  0.63460911222E+02  0.10566000000E+00 0.  1.
         13    1    4    4    0    0  0.71578032985E+01 -0.15805591775E+02 -0.19306688663E+02  0.25957855662E+02  0.10566000000E+00 0. -1.
        -13    1    4    4    0    0  0.74143358876E+01 -0.16238717693E+02 -0.18368148429E+02  0.25613831609E+02  0.10566000000E+00 0.  1.
        -14    1    4    4    0    0  0.24876988042E+01 -0.40341785206E+01 -0.48574125417E+01  0.67865822235E+01  0.00000000000E+00 0.  1.
<mgrwt>
<rscale>  0 0.79994577E+02</rscale>
<asrwt>0</asrwt>
<pdfrwt beam="1">  1        2 0.16437915E-01 0.79994577E+02</pdfrwt>
<pdfrwt beam="2">  1       -1 0.23034970E-02 0.79994577E+02</pdfrwt>
<totfact> 0.18064904E+05</totfact>
</mgrwt>
</event>
<event>
 8    1  0.1226832E-016  0.8013715E+02  0.7818608E-02  0.1328663E+00
          2   -1    0    0  501    0  0.00000000000E+00  0.00000000000E+00  0.56624456662E+03  0.56624456663E+03  0.25500000000E-02 0. -1.
         -1   -1    0    0    0  501 -0.00000000000E+00 -0.00000000000E+00 -0.28353283485E+01  0.28353328279E+01  0.50400000000E-02 0.  1.
         24    2    1    2    0    0  0.00000000000E+00 -0.17763568394E-14  0.56340923827E+03  0.56907989946E+03  0.80137146147E+02 0.  0.
         66    2    3    3    0    0  0.36269750623E+02  0.10864758086E+02  0.37445532376E+03  0.37636993409E+03  0.20000033920E+01 0.  0.
        -13    1    3    3    0    0 -0.36269750623E+02 -0.10864758086E+02  0.18895391451E+03  0.19270996537E+03  0.10566000000E+00 0.  1.
         13    1    4    4    0    0  0.34332390525E+02  0.10080424597E+02  0.35185309923E+03  0.35366784219E+03  0.10566000000E+00 0. -1.
        -13    1    4    4    0    0  0.73315439940E+00  0.11678699158E+00  0.81630050849E+01  0.81973758379E+01  0.10566000000E+00 0. -1.
         14    1    4    4    0    0  0.12042056982E+01  0.66754649763E+00  0.14439219452E+02  0.14504716064E+02  0.00000000000E+00 0. -1.
<mgrwt>
<rscale>  0 0.80137146E+02</rscale>
<asrwt>0</asrwt>
<pdfrwt beam="1">  1        2 0.87114483E-01 0.80137146E+02</pdfrwt>
<pdfrwt beam="2">  1       -1 0.43620504E-03 0.80137146E+02</pdfrwt>
<totfact> 0.31494505E+05</totfact>
</mgrwt>
</event>
<event>
 8    1  0.1226832E-016  0.8478067E+02  0.7818608E-02  0.1316007E+00
         -1   -1    0    0    0  501 -0.00000000000E+00  0.00000000000E+00  0.95934346460E+02  0.95934346593E+02  0.50400000000E-02 0.  1.
          2   -1    0    0  501    0  0.00000000000E+00 -0.00000000000E+00 -0.18730939685E+02  0.18730939858E+02  0.25500000000E-02 0. -1.
         24    2    1    2    0    0 -0.71054273576E-14  0.00000000000E+00  0.77203406775E+02  0.11466528645E+03  0.84780669372E+02 0.  0.
         66    2    3    3    0    0  0.35778192684E+02 -0.21558305067E+02  0.29050385672E+02  0.50919194849E+02  0.19999768118E+01 0.  0.
        -13    1    3    3    0    0 -0.35778192684E+02  0.21558305067E+02  0.48153021103E+02  0.63746091602E+02  0.10566000000E+00 0.  1.
         13    1    4    4    0    0  0.17089892366E+02 -0.10766316905E+02  0.14718960099E+02  0.24992737969E+02  0.10566000000E+00 0. -1.
        -13    1    4    4    0    0  0.84791241853E+01 -0.44135659360E+01  0.66904451266E+01  0.11668261706E+02  0.10566000000E+00 0.  1.
         14    1    4    4    0    0  0.10209176133E+02 -0.63784222264E+01  0.76409804465E+01  0.14258195173E+02  0.00000000000E+00 0. -1.
<mgrwt>
<rscale>  0 0.84780669E+02</rscale>
<asrwt>0</asrwt>
<pdfrwt beam="1">  1        2 0.28816830E-02 0.84780669E+02</pdfrwt>
<pdfrwt beam="2">  1       -1 0.14759130E-01 0.84780669E+02</pdfrwt>
<totfact> 0.10350690E+05</totfact>
</mgrwt>
</event>
<event>
 8    1  0.1226832E-016  0.7617768E+02  0.7818608E-02  0.1340262E+00
          2   -1    0    0  501    0  0.00000000000E+00  0.00000000000E+00  0.39711070624E+03  0.39711070625E+03  0.25500000000E-02 0. -1.
         -1   -1    0    0    0  501 -0.00000000000E+00 -0.00000000000E+00 -0.36532861268E+01  0.36532896033E+01  0.50400000000E-02 0.  1.
         24    2    1    2    0    0  0.00000000000E+00  0.00000000000E+00  0.39345742011E+03  0.40076399585E+03  0.76177679991E+02 0.  0.
         66    2    3    3    0    0 -0.14679964963E+02 -0.32791787228E+01  0.38080786939E+03  0.38111007304E+03  0.19999997734E+01 0.  0.
        -13    1    3    3    0    0  0.14679964963E+02  0.32791787228E+01  0.12649550728E+02  0.19653922816E+02  0.10566000000E+00 0.  1.
         13    1    4    4    0    0 -0.99111381343E+01 -0.24036214052E+01  0.25614835098E+03  0.25635131544E+03  0.10566000000E+00 0. -1.
        -13    1    4    4    0    0 -0.23652199059E+01 -0.88622743843E+00  0.72103207095E+02  0.72147510711E+02  0.10566000000E+00 0.  1.
         14    1    4    4    0    0 -0.24036069224E+01  0.10670120826E-01  0.52556311311E+02  0.52611246884E+02  0.00000000000E+00 0. -1.
<mgrwt>
<rscale>  0 0.76177680E+02</rscale>
<asrwt>0</asrwt>
<pdfrwt beam="1">  1        2 0.61093954E-01 0.76177680E+02</pdfrwt>
<pdfrwt beam="2">  1       -1 0.56204430E-03 0.76177680E+02</pdfrwt>
<totfact> 0.32017262E+05</totfact>
</mgrwt>
</event>
<event>
 8    1  0.1226832E-016  0.7847111E+02  0.7818608E-02  0.1333447E+00
         -1   -1    0    0    0  501 -0.00000000000E+00  0.00000000000E+00  0.79536657939E+01  0.79536673908E+01  0.50400000000E-02 0.  1.
          2   -1    0    0  501    0  0.00000000000E+00 -0.00000000000E+00 -0.19354957536E+03  0.19354957538E+03  0.25500000000E-02 0. -1.
         24    2    1    2    0    0  0.44408920985E-15  0.00000000000E+00 -0.18559590957E+03  0.20150324277E+03  0.78471110596E+02 0.  0.
         66    2    3    3    0    0  0.26473519449E+01 -0.18374280200E+02 -0.18154431442E+03  0.18250194722E+03  0.19999992711E+01 0.  0.
        -13    1    3    3    0    0 -0.26473519449E+01  0.18374280200E+02 -0.40515951501E+01  0.19001295548E+02  0.10566000000E+00 0.  1.
         13    1    4    4    0    0  0.29498824444E+00 -0.53822088916E+01 -0.49521936108E+02  0.49814541156E+02  0.10566000000E+00 0. -1.
        -13    1    4    4    0    0  0.12159654648E+01 -0.44089576630E+01 -0.41156141475E+02  0.41409619955E+02  0.10566000000E+00 0.  1.
        -14    1    4    4    0    0  0.11363982357E+01 -0.85831136455E+01 -0.90866236833E+02  0.91277786110E+02  0.00000000000E+00 0.  1.
<mgrwt>
<rscale>  0 0.78471111E+02</rscale>
<asrwt>0</asrwt>
<pdfrwt beam="1">  1        2 0.29776854E-01 0.78471111E+02</pdfrwt>
<pdfrwt beam="2">  1       -1 0.12236412E-02 0.78471111E+02</pdfrwt>
<totfact> 0.22948363E+05</totfact>
</mgrwt>
</event>
<event>
 8    1  0.1226832E-016  0.7981422E+02  0.7818608E-02  0.1329579E+00
         -1   -1    0    0    0  501 -0.00000000000E+00  0.00000000000E+00  0.19479673841E+03  0.19479673847E+03  0.50400000000E-02 0.  1.
          2   -1    0    0  501    0  0.00000000000E+00 -0.00000000000E+00 -0.81755847833E+01  0.81755851810E+01  0.25500000000E-02 0. -1.
         24    2    1    2    0    0 -0.35527136788E-14  0.00000000000E+00  0.18662115363E+03  0.20297232365E+03  0.79814216712E+02 0.  0.
         66    2    3    3    0    0  0.26316238659E+02  0.16155073085E+02  0.29182984766E+02  0.42534426070E+02  0.19999994304E+01 0.  0.
        -13    1    3    3    0    0 -0.26316238659E+02 -0.16155073085E+02  0.15743816886E+03  0.16043789758E+03  0.10566000000E+00 0.  1.
         13    1    4    4    0    0  0.21115433620E+02  0.12792080391E+02  0.23802812822E+02  0.34294079955E+02  0.10566000000E+00 0. -1.
        -13    1    4    4    0    0  0.35001252578E+01  0.26358039480E+01  0.35774066568E+01  0.56575031327E+01  0.10566000000E+00 0. -1.
         14    1    4    4    0    0  0.17006797817E+01  0.72718874569E+00  0.18027652867E+01  0.25828429822E+01  0.00000000000E+00 0. -1.
<mgrwt>
<rscale>  0 0.79814217E+02</rscale>
<asrwt>0</asrwt>
<pdfrwt beam="1">  1        2 0.12577824E-02 0.79814217E+02</pdfrwt>
<pdfrwt beam="2">  1       -1 0.29968728E-01 0.79814217E+02</pdfrwt>
<totfact> 0.10099032E+05</totfact>
</mgrwt>
</event>
<event>
 8    1  0.1226832E-016  0.8152785E+02  0.7818608E-02  0.1324771E+00
         -1   -1    0    0    0  501 -0.00000000000E+00  0.00000000000E+00  0.45883833937E+02  0.45883834214E+02  0.50400000000E-02 0.  1.
          2   -1    0    0  501    0  0.00000000000E+00 -0.00000000000E+00 -0.36215320489E+02  0.36215320578E+02  0.25500000000E-02 0. -1.
         24    2    1    2    0    0  0.35527136788E-14  0.00000000000E+00  0.96685134481E+01  0.82099154792E+02  0.81527854536E+02 0.  0.
         66    2    3    3    0    0  0.24234768044E+02  0.27980030902E+02 -0.12296376249E+02  0.39056459072E+02  0.20000037368E+01 0.  0.
        -13    1    3    3    0    0 -0.24234768044E+02 -0.27980030902E+02  0.21964889697E+02  0.43042695720E+02  0.10566000000E+00 0.  1.
         13    1    4    4    0    0  0.26318413953E+01  0.37775535610E+01 -0.15217653488E+01  0.48500962721E+01  0.10566000000E+00 0. -1.
        -13    1    4    4    0    0  0.68051106525E+01  0.72143416381E+01 -0.38161723185E+01  0.10626880608E+02  0.10566000000E+00 0.  1.
        -14    1    4    4    0    0  0.14797815996E+02  0.16988135703E+02 -0.69584385821E+01  0.23579482191E+02  0.00000000000E+00 0.  1.
<mgrwt>
<rscale>  0 0.81527855E+02</rscale>
<asrwt>0</asrwt>
<pdfrwt beam="1">  1        2 0.55715878E-02 0.81527855E+02</pdfrwt>
<pdfrwt beam="2">  1       -1 0.70590514E-02 0.81527855E+02</pdfrwt>
<totfact> 0.13253605E+05</totfact>
</mgrwt>
</event>
<event>
 8    1  0.1226832E-016  0.7818031E+02  0.7818608E-02  0.1334296E+00
          2   -1    0    0  501    0  0.00000000000E+00  0.00000000000E+00  0.17865078057E+02  0.17865078239E+02  0.25500000000E-02 0. -1.
         -1   -1    0    0    0  501 -0.00000000000E+00 -0.00000000000E+00 -0.85532240247E+02  0.85532240395E+02  0.50400000000E-02 0.  1.
         24    2    1    2    0    0  0.00000000000E+00  0.00000000000E+00 -0.67667162190E+02  0.10339731863E+03  0.78180308659E+02 0.  0.
         66    2    3    3    0    0  0.13410796783E+02 -0.78612042450E+01  0.13542324594E+02  0.20713342495E+02  0.19999998419E+01 0.  0.
        -13    1    3    3    0    0 -0.13410796783E+02  0.78612042450E+01 -0.81209486784E+02  0.82683976140E+02  0.10566000000E+00 0.  1.
         13    1    4    4    0    0  0.54186835082E+01 -0.24163759409E+01  0.42453575467E+01  0.72962475550E+01  0.10566000000E+00 0. -1.
        -13    1    4    4    0    0  0.65636431297E+01 -0.43713845167E+01  0.75395647054E+01  0.10910848441E+02  0.10566000000E+00 0.  1.
         14    1    4    4    0    0  0.14284701449E+01 -0.10734437874E+01  0.17574023422E+01  0.25062464986E+01  0.00000000000E+00 0. -1.
<mgrwt>
<rscale>  0 0.78180309E+02</rscale>
<asrwt>0</asrwt>
<pdfrwt beam="1">  1        2 0.27484736E-02 0.78180309E+02</pdfrwt>
<pdfrwt beam="2">  1       -1 0.13158806E-01 0.78180309E+02</pdfrwt>
<totfact> 0.12965651E+05</totfact>
</mgrwt>
</event>
<event>
 8    1  0.1226832E-016  0.7946198E+02  0.7818608E-02  0.1330585E+00
          2   -1    0    0  501    0  0.00000000000E+00  0.00000000000E+00  0.73986065879E+02  0.73986065923E+02  0.25500000000E-02 0. -1.
         -1   -1    0    0    0  501 -0.00000000000E+00 -0.00000000000E+00 -0.21335794764E+02  0.21335795360E+02  0.50400000000E-02 0.  1.
         24    2    1    2    0    0 -0.35527136788E-14 -0.35527136788E-14  0.52650271115E+02  0.95321861283E+02  0.79461979525E+02 0.  0.
         66    2    3    3    0    0 -0.30694454533E+02 -0.17300027697E+02  0.48301359561E+02  0.59820245924E+02  0.19999973975E+01 0.  0.
        -13    1    3    3    0    0  0.30694454533E+02  0.17300027697E+02  0.43489115542E+01  0.35501615359E+02  0.10566000000E+00 0.  1.
         13    1    4    4    0    0 -0.21057120328E+02 -0.11765738699E+02  0.34571013909E+02  0.42154490750E+02  0.10566000000E+00 0. -1.
        -13    1    4    4    0    0 -0.59037396830E+01 -0.34475708345E+01  0.83332988859E+01  0.10779374808E+02  0.10566000000E+00 0.  1.
         14    1    4    4    0    0 -0.37335945219E+01 -0.20867181636E+01  0.53970467652E+01  0.68863803652E+01  0.00000000000E+00 0. -1.
<mgrwt>
<rscale>  0 0.79461980E+02</rscale>
<asrwt>0</asrwt>
<pdfrwt beam="1">  1        2 0.11382472E-01 0.79461980E+02</pdfrwt>
<pdfrwt beam="2">  1       -1 0.32824300E-02 0.79461980E+02</pdfrwt>
<totfact> 0.16669761E+05</totfact>
</mgrwt>
</event>
<event>
 8    1  0.1226832E-016  0.7934555E+02  0.7818608E-02  0.1330919E+00
         -1   -1    0    0    0  501 -0.00000000000E+00  0.00000000000E+00  0.47624354667E+01  0.47624381336E+01  0.50400000000E-02 0.  1.
          2   -1    0    0  501    0  0.00000000000E+00 -0.00000000000E+00 -0.33048820926E+03  0.33048820927E+03  0.25500000000E-02 0. -1.
         24    2    1    2    0    0  0.00000000000E+00  0.00000000000E+00 -0.32572577379E+03  0.33525064740E+03  0.79345553569E+02 0.  0.
         66    2    3    3    0    0  0.39615522860E+02  0.10172928237E+01 -0.15779175599E+03  0.16270421876E+03  0.20000023675E+01 0.  0.
        -13    1    3    3    0    0 -0.39615522860E+02 -0.10172928237E+01 -0.16793401781E+03  0.17254642864E+03  0.10566000000E+00 0.  1.
         13    1    4    4    0    0  0.14877445176E+02 -0.98247898462E-01 -0.60295976358E+02  0.62104460038E+02  0.10566000000E+00 0. -1.
        -13    1    4    4    0    0  0.13215145404E+01  0.11886788178E+00 -0.42542366414E+01  0.44576029085E+01  0.10566000000E+00 0.  1.
        -14    1    4    4    0    0  0.23416563144E+02  0.99667284038E+00 -0.93241542987E+02  0.96142155815E+02  0.00000000000E+00 0.  1.
<mgrwt>
<rscale>  0 0.79345554E+02</rscale>
<asrwt>0</asrwt>
<pdfrwt beam="1">  1        2 0.50844322E-01 0.79345554E+02</pdfrwt>
<pdfrwt beam="2">  1       -1 0.73268285E-03 0.79345554E+02</pdfrwt>
<totfact> 0.26974912E+05</totfact>
</mgrwt>
</event>
<event>
 8    1  0.1226832E-016  0.7811005E+02  0.7818608E-02  0.1334502E+00
          2   -1    0    0  501    0  0.00000000000E+00  0.00000000000E+00  0.15957188045E+03  0.15957188047E+03  0.25500000000E-02 0. -1.
         -1   -1    0    0    0  501 -0.00000000000E+00 -0.00000000000E+00 -0.95586686282E+01  0.95586699569E+01  0.50400000000E-02 0.  1.
         24    2    1    2    0    0 -0.35527136788E-14  0.71054273576E-14  0.15001321182E+03  0.16913055043E+03  0.78110046517E+02 0.  0.
         66    2    3    3    0    0 -0.22391511749E+02  0.29336386784E+02  0.10255447301E+03  0.10901111562E+03  0.20000016103E+01 0.  0.
        -13    1    3    3    0    0  0.22391511749E+02 -0.29336386784E+02  0.47458738815E+02  0.60119434810E+02  0.10566000000E+00 0.  1.
         13    1    4    4    0    0 -0.72796676195E+01  0.96335147296E+01  0.35148266042E+02  0.37164632872E+02  0.10566000000E+00 0. -1.
        -13    1    4    4    0    0 -0.13014044734E+02  0.16317997072E+02  0.57386996471E+02  0.61064891032E+02  0.10566000000E+00 0.  1.
        -14    1    4    4    0    0 -0.20977993950E+01  0.33848749829E+01  0.10019210497E+02  0.10781591716E+02  0.00000000000E+00 0.  1.
<mgrwt>
<rscale>  0 0.78110047E+02</rscale>
<asrwt>0</asrwt>
<pdfrwt beam="1">  1        2 0.24549518E-01 0.78110047E+02</pdfrwt>
<pdfrwt beam="2">  1       -1 0.14705646E-02 0.78110047E+02</pdfrwt>
<totfact> 0.21771906E+05</totfact>
</mgrwt>
</event>
<event>
 8    1  0.1226832E-016  0.8145798E+02  0.7818608E-02  0.1324964E+00
         -1   -1    0    0    0  501 -0.00000000000E+00  0.00000000000E+00  0.86796910124E+02  0.86796910270E+02  0.50400000000E-02 0.  1.
          2   -1    0    0  501    0  0.00000000000E+00 -0.00000000000E+00 -0.19111860139E+02  0.19111860310E+02  0.25500000000E-02 0. -1.
         24    2    1    2    0    0  0.00000000000E+00  0.00000000000E+00  0.67685049984E+02  0.10590877058E+03  0.81457975020E+02 0.  0.
         66    2    3    3    0    0  0.23591223496E+02  0.26824619197E+02  0.84933498864E+01  0.36772857006E+02  0.19999997353E+01 0.  0.
        -13    1    3    3    0    0 -0.23591223496E+02 -0.26824619197E+02  0.59191700098E+02  0.69135913574E+02  0.10566000000E+00 0.  1.
         13    1    4    4    0    0  0.11142676557E+02  0.12334765849E+02  0.38932036137E+01  0.17072606356E+02  0.10566000000E+00 0. -1.
        -13    1    4    4    0    0  0.91039775790E+01  0.10975414323E+02  0.28466457787E+01  0.14541550246E+02  0.10566000000E+00 0.  1.
        -14    1    4    4    0    0  0.33445693607E+01  0.35144390257E+01  0.17535004941E+01  0.51587004039E+01  0.00000000000E+00 0.  1.
<mgrwt>
<rscale>  0 0.81457975E+02</rscale>
<asrwt>0</asrwt>
<pdfrwt beam="1">  1        2 0.29402862E-02 0.81457975E+02</pdfrwt>
<pdfrwt beam="2">  1       -1 0.13353371E-01 0.81457975E+02</pdfrwt>
<totfact> 0.11676611E+05</totfact>
</mgrwt>
</event>
<event>
 8    1  0.1226832E-016  0.7837501E+02  0.7818608E-02  0.1333727E+00
          2   -1    0    0  501    0  0.00000000000E+00  0.00000000000E+00  0.64419013709E+03  0.64419013709E+03  0.25500000000E-02 0. -1.
         -1   -1    0    0    0  501 -0.00000000000E+00 -0.00000000000E+00 -0.23838597367E+01  0.23838650645E+01  0.50400000000E-02 0.  1.
         24    2    1    2    0    0  0.00000000000E+00 -0.88817841970E-15  0.64180627735E+03  0.64657400216E+03  0.78375012718E+02 0.  0.
         66    2    3    3    0    0 -0.96657404755E+01  0.60214457653E+01  0.63022628100E+03  0.63033233267E+03  0.20000015011E+01 0.  0.
        -13    1    3    3    0    0  0.96657404755E+01 -0.60214457653E+01  0.11579996355E+02  0.16241669485E+02  0.10566000000E+00 0.  1.
         13    1    4    4    0    0 -0.57118988556E+01  0.46157591755E+01  0.38435133508E+03  0.38442150169E+03  0.10566000000E+00 0. -1.
        -13    1    4    4    0    0 -0.13840898483E+01  0.45271191781E+00  0.86210689920E+02  0.86223053027E+02  0.10566000000E+00 0.  1.
         14    1    4    4    0    0 -0.25697517716E+01  0.95297467205E+00  0.15966425600E+03  0.15968777796E+03  0.00000000000E+00 0. -1.
<mgrwt>
<rscale>  0 0.78375013E+02</rscale>
<asrwt>0</asrwt>
<pdfrwt beam="1">  1        2 0.99106128E-01 0.78375013E+02</pdfrwt>
<pdfrwt beam="2">  1       -1 0.36674824E-03 0.78375013E+02</pdfrwt>
<totfact> 0.34577290E+05</totfact>
</mgrwt>
</event>
<event>
 8    1  0.1226832E-016  0.7937608E+02  0.7818608E-02  0.1330831E+00
         -1   -1    0    0    0  501 -0.00000000000E+00  0.00000000000E+00  0.49309142950E+01  0.49309168708E+01  0.50400000000E-02 0.  1.
          2   -1    0    0  501    0  0.00000000000E+00 -0.00000000000E+00 -0.31944181701E+03  0.31944181702E+03  0.25500000000E-02 0. -1.
         24    2    1    2    0    0  0.00000000000E+00  0.00000000000E+00 -0.31451090271E+03  0.32437273389E+03  0.79376083081E+02 0.  0.
         66    2    3    3    0    0  0.23661570051E+02 -0.10635733840E+02 -0.27996091320E+03  0.28116739080E+03  0.20000001580E+01 0.  0.
        -13    1    3    3    0    0 -0.23661570051E+02  0.10635733840E+02 -0.34549989511E+02  0.43205343082E+02  0.10566000000E+00 0.  1.
         13    1    4    4    0    0  0.44074588915E+01 -0.16938001937E+01 -0.52349717808E+02  0.52562332250E+02  0.10566000000E+00 0. -1.
        -13    1    4    4    0    0  0.63134565543E+01 -0.29885847553E+01 -0.83406494430E+02  0.83698541502E+02  0.10566000000E+00 0.  1.
         14    1    4    4    0    0  0.12940654605E+02 -0.59533488906E+01 -0.14420470096E+03  0.14490651705E+03  0.00000000000E+00 0. -1.
<mgrwt>
<rscale>  0 0.79376083E+02</rscale>
<asrwt>0</asrwt>
<pdfrwt beam="1">  1        2 0.49144878E-01 0.79376083E+02</pdfrwt>
<pdfrwt beam="2">  1       -1 0.75860266E-03 0.79376083E+02</pdfrwt>
<totfact> 0.26620018E+05</totfact>
</mgrwt>
</event>
<event>
 8    1  0.1226832E-016  0.7977585E+02  0.7818608E-02  0.1329689E+00
          2   -1    0    0  501    0  0.00000000000E+00  0.00000000000E+00  0.17512483080E+03  0.17512483082E+03  0.25500000000E-02 0. -1.
         -1   -1    0    0    0  501 -0.00000000000E+00 -0.00000000000E+00 -0.90852121919E+01  0.90852135899E+01  0.50400000000E-02 0.  1.
         24    2    1    2    0    0  0.00000000000E+00  0.00000000000E+00  0.16603961861E+03  0.18421004441E+03  0.79775845427E+02 0.  0.
         66    2    3    3    0    0  0.19872606221E+02 -0.10702900904E+02  0.15894131569E+03  0.16054847992E+03  0.20000015296E+01 0.  0.
        -13    1    3    3    0    0 -0.19872606221E+02  0.10702900904E+02  0.70983029226E+01  0.23661564491E+02  0.10566000000E+00 0.  1.
         13    1    4    4    0    0  0.14846553887E+02 -0.88125369086E+01  0.12166140768E+03  0.12288039002E+03  0.10566000000E+00 0. -1.
        -13    1    4    4    0    0  0.38287285095E+01 -0.13160611780E+01  0.26770648215E+02  0.27075264522E+02  0.10566000000E+00 0.  1.
         14    1    4    4    0    0  0.11973238240E+01 -0.57430281698E+00  0.10509259795E+02  0.10592825379E+02  0.00000000000E+00 0. -1.
<mgrwt>
<rscale>  0 0.79775845E+02</rscale>
<asrwt>0</asrwt>
<pdfrwt beam="1">  1        2 0.26942283E-01 0.79775845E+02</pdfrwt>
<pdfrwt beam="2">  1       -1 0.13977250E-02 0.79775845E+02</pdfrwt>
<totfact> 0.21234891E+05</totfact>
</mgrwt>
</event>
<event>
 8    1  0.1226832E-016  0.8120002E+02  0.7818608E-02  0.1325680E+00
          2   -1    0    0  501    0  0.00000000000E+00  0.00000000000E+00  0.74238009545E+03  0.74238009545E+03  0.25500000000E-02 0. -1.
         -1   -1    0    0    0  501 -0.00000000000E+00 -0.00000000000E+00 -0.22203701690E+01  0.22203758891E+01  0.50400000000E-02 0.  1.
         24    2    1    2    0    0  0.00000000000E+00  0.00000000000E+00  0.74015972528E+03  0.74460047134E+03  0.81200018453E+02 0.  0.
         66    2    3    3    0    0  0.58670374998E+01 -0.29428133843E+02  0.62074905342E+03  0.62147713112E+03  0.19999967802E+01 0.  0.
        -13    1    3    3    0    0 -0.58670374998E+01  0.29428133843E+02  0.11941067186E+03  0.12312334022E+03  0.10566000000E+00 0.  1.
         13    1    4    4    0    0  0.76752556390E+00 -0.56124058871E+01  0.11047155922E+03  0.11061674717E+03  0.10566000000E+00 0. -1.
        -13    1    4    4    0    0  0.17372103591E+01 -0.56959043440E+01  0.11789363110E+03  0.11804397758E+03  0.10566000000E+00 0.  1.
         14    1    4    4    0    0  0.33623015768E+01 -0.18119823612E+02  0.39238386311E+03  0.39281640637E+03  0.00000000000E+00 0. -1.
<mgrwt>
<rscale>  0 0.81200018E+02</rscale>
<asrwt>0</asrwt>
<pdfrwt beam="1">  1        2 0.11421229E+00 0.81200018E+02</pdfrwt>
<pdfrwt beam="2">  1       -1 0.34159594E-03 0.81200018E+02</pdfrwt>
<totfact> 0.32595360E+05</totfact>
</mgrwt>
</event>
<event>
 8    1  0.1226832E-016  0.8030631E+02  0.7818608E-02  0.1328184E+00
          2   -1    0    0  501    0  0.00000000000E+00  0.00000000000E+00  0.35364051460E+03  0.35364051461E+03  0.25500000000E-02 0. -1.
         -1   -1    0    0    0  501 -0.00000000000E+00 -0.00000000000E+00 -0.45590797823E+01  0.45590825682E+01  0.50400000000E-02 0.  1.
         24    2    1    2    0    0 -0.71054273576E-14  0.00000000000E+00  0.34908143482E+03  0.35819959718E+03  0.80306309115E+02 0.  0.
         66    2    3    3    0    0 -0.32308723361E+02  0.16804526821E+01  0.28053950279E+03  0.28240589601E+03  0.19999874237E+01 0.  0.
        -13    1    3    3    0    0  0.32308723361E+02 -0.16804526821E+01  0.68541932031E+02  0.75793701170E+02  0.10566000000E+00 0.  1.
         13    1    4    4    0    0 -0.10301578865E+02  0.11100184901E+01  0.90097408249E+02  0.90691282962E+02  0.10566000000E+00 0. -1.
        -13    1    4    4    0    0 -0.18355424394E+02  0.95293775242E+00  0.15851950539E+03  0.15958156049E+03  0.10566000000E+00 0.  1.
        -14    1    4    4    0    0 -0.36517201018E+01 -0.38250356036E+00  0.31922589150E+02  0.32133052559E+02  0.00000000000E+00 0.  1.
<mgrwt>
<rscale>  0 0.80306309E+02</rscale>
<asrwt>0</asrwt>
<pdfrwt beam="1">  1        2 0.54406247E-01 0.80306309E+02</pdfrwt>
<pdfrwt beam="2">  1       -1 0.70139693E-03 0.80306309E+02</pdfrwt>
<totfact> 0.26780133E+05</totfact>
</mgrwt>
</event>
<event>
 8    1  0.1226832E-016  0.7942634E+02  0.7818608E-02  0.1330687E+00
         -1   -1    0    0    0  501 -0.00000000000E+00  0.00000000000E+00  0.13246703713E+02  0.13246704672E+02  0.50400000000E-02 0.  1.
          2   -1    0    0  501    0  0.00000000000E+00 -0.00000000000E+00 -0.11905874679E+03  0.11905874682E+03  0.25500000000E-02 0. -1.
         24    2    1    2    0    0  0.35527136788E-14 -0.17763568394E-14 -0.10581204308E+03  0.13230545149E+03  0.79426343449E+02 0.  0.
         66    2    3    3    0    0 -0.19122608104E+02  0.79718713462E+01 -0.10932760468E+03  0.11129128458E+03  0.20000014064E+01 0.  0.
        -13    1    3    3    0    0  0.19122608104E+02 -0.79718713462E+01  0.35155616008E+01  0.21014166908E+02  0.10566000000E+00 0.  1.
         13    1    4    4    0    0 -0.24784004878E+01  0.11947766004E+01 -0.11638204820E+02  0.11959470539E+02  0.10566000000E+00 0. -1.
        -13    1    4    4    0    0 -0.12444210495E+02  0.48102395449E+01 -0.73837253781E+02  0.75032979344E+02  0.10566000000E+00 0.  1.
        -14    1    4    4    0    0 -0.41999971207E+01  0.19668552010E+01 -0.23852146077E+02  0.24298834698E+02  0.00000000000E+00 0.  1.
<mgrwt>
<rscale>  0 0.79426343E+02</rscale>
<asrwt>0</asrwt>
<pdfrwt beam="1">  1        2 0.18316730E-01 0.79426343E+02</pdfrwt>
<pdfrwt beam="2">  1       -1 0.20379546E-02 0.79426343E+02</pdfrwt>
<totfact> 0.19003819E+05</totfact>
</mgrwt>
</event>
<event>
 8    1  0.1226832E-016  0.7767423E+02  0.7818608E-02  0.1335784E+00
         -1   -1    0    0    0  501 -0.00000000000E+00  0.00000000000E+00  0.49031482924E+02  0.49031483183E+02  0.50400000000E-02 0.  1.
          2   -1    0    0  501    0  0.00000000000E+00 -0.00000000000E+00 -0.30762309910E+02  0.30762310016E+02  0.25500000000E-02 0. -1.
         24    2    1    2    0    0 -0.71054273576E-14 -0.17763568394E-14  0.18269173013E+02  0.79793793199E+02  0.77674234792E+02 0.  0.
         66    2    3    3    0    0 -0.26444246619E+02 -0.51579673174E+01 -0.19557573195E+02  0.33352683190E+02  0.20000001550E+01 0.  0.
        -13    1    3    3    0    0  0.26444246619E+02  0.51579673174E+01  0.37826746209E+02  0.46441110009E+02  0.10566000000E+00 0.  1.
         13    1    4    4    0    0 -0.12632426744E+02 -0.21824470094E+01 -0.93435953784E+01  0.15863644570E+02  0.10566000000E+00 0. -1.
        -13    1    4    4    0    0 -0.29220965401E+01 -0.52117720410E+00 -0.14979916208E+01  0.33264721251E+01  0.10566000000E+00 0.  1.
        -14    1    4    4    0    0 -0.10889723334E+02 -0.24543431039E+01 -0.87159861959E+01  0.14162566495E+02  0.00000000000E+00 0.  1.
<mgrwt>
<rscale>  0 0.77674235E+02</rscale>
<asrwt>0</asrwt>
<pdfrwt beam="1">  1        2 0.47326631E-02 0.77674235E+02</pdfrwt>
<pdfrwt beam="2">  1       -1 0.75433051E-02 0.77674235E+02</pdfrwt>
<totfact> 0.14683230E+05</totfact>
</mgrwt>
</event>
<event>
 8    1  0.1226832E-016  0.7769176E+02  0.7818608E-02  0.1335733E+00
         -1   -1    0    0    0  501 -0.00000000000E+00  0.00000000000E+00  0.29883358169E+02  0.29883358594E+02  0.50400000000E-02 0.  1.
          2   -1    0    0  501    0  0.00000000000E+00 -0.00000000000E+00 -0.50496407204E+02  0.50496407268E+02  0.25500000000E-02 0. -1.
         24    2    1    2    0    0 -0.35527136788E-14 -0.35527136788E-14 -0.20613049034E+02  0.80379765862E+02  0.77691756124E+02 0.  0.
         66    2    3    3    0    0 -0.27881556285E+02 -0.21226372379E+02 -0.27596308729E+02  0.44648586967E+02  0.19999993691E+01 0.  0.
        -13    1    3    3    0    0  0.27881556285E+02  0.21226372379E+02  0.69832596948E+01  0.35731178895E+02  0.10566000000E+00 0.  1.
         13    1    4    4    0    0 -0.21215667840E+02 -0.15644385983E+02 -0.20416334847E+02  0.33342004548E+02  0.10566000000E+00 0. -1.
        -13    1    4    4    0    0 -0.36009175136E+01 -0.34134886157E+01 -0.37377498172E+01  0.62129259774E+01  0.10566000000E+00 0.  1.
         14    1    4    4    0    0 -0.30649709312E+01 -0.21684977804E+01 -0.34422240647E+01  0.50936564415E+01  0.00000000000E+00 0. -1.
<mgrwt>
<rscale>  0 0.77691756E+02</rscale>
<asrwt>0</asrwt>
<pdfrwt beam="1">  1        2 0.77686781E-02 0.77691756E+02</pdfrwt>
<pdfrwt beam="2">  1       -1 0.45974398E-02 0.77691756E+02</pdfrwt>
<totfact> 0.16222492E+05</totfact>
</mgrwt>
</event>
<event>
 8    1  0.1226832E-016  0.8894481E+02  0.7818608E-02  0.1305427E+00
         -1   -1    0    0    0  501 -0.00000000000E+00  0.00000000000E+00  0.98912352794E+01  0.98912365634E+01  0.50400000000E-02 0.  1.
          2   -1    0    0  501    0  0.00000000000E+00 -0.00000000000E+00 -0.19995428495E+03  0.19995428496E+03  0.25500000000E-02 0. -1.
         24    2    1    2    0    0  0.00000000000E+00  0.00000000000E+00 -0.19006304967E+03  0.20984552153E+03  0.88944814666E+02 0.  0.
         66    2    3    3    0    0  0.39772635481E+02 -0.75039613467E+01 -0.13842971327E+03  0.14423923707E+03  0.20000061418E+01 0.  0.
        -13    1    3    3    0    0 -0.39772635481E+02  0.75039613467E+01 -0.51633336394E+02  0.65606284457E+02  0.10566000000E+00 0.  1.
         13    1    4    4    0    0  0.28045915503E+02 -0.52914609738E+01 -0.97461142896E+02  0.10155421446E+03  0.10566000000E+00 0. -1.
        -13    1    4    4    0    0  0.89296921009E+01 -0.21132181640E+01 -0.32001493936E+02  0.33291318240E+02  0.10566000000E+00 0.  1.
         14    1    4    4    0    0  0.27970278775E+01 -0.99282208952E-01 -0.89670764427E+01  0.93937043723E+01  0.00000000000E+00 0. -1.
<mgrwt>
<rscale>  0 0.88944815E+02</rscale>
<asrwt>0</asrwt>
<pdfrwt beam="1">  1        2 0.30762195E-01 0.88944815E+02</pdfrwt>
<pdfrwt beam="2">  1       -1 0.15217288E-02 0.88944815E+02</pdfrwt>
<totfact> 0.16649687E+05</totfact>
</mgrwt>
</event>
<event>
 8    1  0.1226832E-016  0.8175658E+02  0.7818608E-02  0.1324139E+00
          2   -1    0    0  501    0  0.00000000000E+00  0.00000000000E+00  0.66752334064E+02  0.66752334112E+02  0.25500000000E-02 0. -1.
         -1   -1    0    0    0  501 -0.00000000000E+00 -0.00000000000E+00 -0.25033352757E+02  0.25033353265E+02  0.50400000000E-02 0.  1.
         24    2    1    2    0    0  0.00000000000E+00  0.00000000000E+00  0.41718981306E+02  0.91785687377E+02  0.81756583870E+02 0.  0.
         66    2    3    3    0    0 -0.33244279179E+02 -0.41215245966E+01  0.47125642881E+02  0.57853221853E+02  0.19999996832E+01 0.  0.
        -13    1    3    3    0    0  0.33244279179E+02  0.41215245966E+01 -0.54066615744E+01  0.33932465524E+02  0.10566000000E+00 0.  1.
         13    1    4    4    0    0 -0.20885558656E+02 -0.22426128964E+01  0.28455591148E+02  0.35369021821E+02  0.10566000000E+00 0. -1.
        -13    1    4    4    0    0 -0.69774799054E+01 -0.74325096599E+00  0.10936449907E+02  0.12994412200E+02  0.10566000000E+00 0.  1.
        -14    1    4    4    0    0 -0.53812406174E+01 -0.11356607342E+01  0.77336018255E+01  0.94897878312E+01  0.00000000000E+00 0.  1.
<mgrwt>
<rscale>  0 0.81756584E+02</rscale>
<asrwt>0</asrwt>
<pdfrwt beam="1">  1        2 0.10269590E-01 0.81756584E+02</pdfrwt>
<pdfrwt beam="2">  1       -1 0.38512851E-02 0.81756584E+02</pdfrwt>
<totfact> 0.15047889E+05</totfact>
</mgrwt>
</event>
<event>
 8    1  0.1226832E-016  0.7992541E+02  0.7818608E-02  0.1329263E+00
          2   -1    0    0  501    0  0.00000000000E+00  0.00000000000E+00  0.16045660885E+03  0.16045660887E+03  0.25500000000E-02 0. -1.
         -1   -1    0    0    0  501 -0.00000000000E+00 -0.00000000000E+00 -0.99529558557E+01  0.99529571318E+01  0.50400000000E-02 0.  1.
         24    2    1    2    0    0  0.00000000000E+00  0.00000000000E+00  0.15050365300E+03  0.17040956600E+03  0.79925406602E+02 0.  0.
         66    2    3    3    0    0  0.33453928267E+01 -0.36299749096E+02  0.11008219213E+03  0.11597824138E+03  0.20000030304E+01 0.  0.
        -13    1    3    3    0    0 -0.33453928267E+01  0.36299749096E+02  0.40421460866E+02  0.54431324623E+02  0.10566000000E+00 0.  1.
         13    1    4    4    0    0  0.34050386937E+00 -0.33720928722E+01  0.11010101129E+02  0.11520435935E+02  0.10566000000E+00 0. -1.
        -13    1    4    4    0    0  0.30448534270E+01 -0.27108273242E+02  0.82599091197E+02  0.86987071690E+02  0.10566000000E+00 0.  1.
        -14    1    4    4    0    0 -0.39964469689E-01 -0.58193829818E+01  0.16472999805E+02  0.17470733758E+02  0.00000000000E+00 0.  1.
<mgrwt>
<rscale>  0 0.79925407E+02</rscale>
<asrwt>0</asrwt>
<pdfrwt beam="1">  1        2 0.24685632E-01 0.79925407E+02</pdfrwt>
<pdfrwt beam="2">  1       -1 0.15312241E-02 0.79925407E+02</pdfrwt>
<totfact> 0.20524687E+05</totfact>
</mgrwt>
</event>
<event>
 8    1  0.1226832E-016  0.7822456E+02  0.7818608E-02  0.1334167E+00
         -1   -1    0    0    0  501 -0.00000000000E+00  0.00000000000E+00  0.45515601646E+01  0.45515629550E+01  0.50400000000E-02 0.  1.
          2   -1    0    0  501    0  0.00000000000E+00 -0.00000000000E+00 -0.33609792666E+03  0.33609792667E+03  0.25500000000E-02 0. -1.
         24    2    1    2    0    0  0.00000000000E+00 -0.41633363423E-16 -0.33154636650E+03  0.34064948963E+03  0.78224559093E+02 0.  0.
         66    2    3    3    0    0  0.30363991269E+02 -0.11399385859E+00 -0.27306334732E+03  0.27475366536E+03  0.20000039424E+01 0.  0.
        -13    1    3    3    0    0 -0.30363991269E+02  0.11399385859E+00 -0.58483019176E+02  0.65895824271E+02  0.10566000000E+00 0.  1.
         13    1    4    4    0    0  0.84981140161E+00  0.11837007241E+00 -0.84305309077E+01  0.84747393065E+01  0.10566000000E+00 0. -1.
        -13    1    4    4    0    0  0.12565081366E+02 -0.92215707214E+00 -0.11289936465E+03  0.11360021719E+03  0.10566000000E+00 0.  1.
         14    1    4    4    0    0  0.16949098501E+02  0.68979314114E+00 -0.15173345176E+03  0.15267870886E+03  0.00000000000E+00 0. -1.
<mgrwt>
<rscale>  0 0.78224559E+02</rscale>
<asrwt>0</asrwt>
<pdfrwt beam="1">  1        2 0.51707354E-01 0.78224559E+02</pdfrwt>
<pdfrwt beam="2">  1       -1 0.70024051E-03 0.78224559E+02</pdfrwt>
<totfact> 0.28166760E+05</totfact>
</mgrwt>
</event>
<event>
 8    1  0.1226832E-016  0.8054924E+02  0.7818608E-02  0.1327500E+00
         -1   -1    0    0    0  501 -0.00000000000E+00  0.00000000000E+00  0.22511171994E+03  0.22511172000E+03  0.50400000000E-02 0.  1.
          2   -1    0    0  501    0  0.00000000000E+00 -0.00000000000E+00 -0.72055116853E+01  0.72055121365E+01  0.25500000000E-02 0. -1.
         24    2    1    2    0    0  0.17763568394E-14  0.00000000000E+00  0.21790620826E+03  0.23231723213E+03  0.80549244255E+02 0.  0.
         66    2    3    3    0    0 -0.95731551887E+01  0.39036978934E+02  0.10289560383E+03  0.11048545747E+03  0.19999998040E+01 0.  0.
        -13    1    3    3    0    0  0.95731551887E+01 -0.39036978934E+02  0.11501060442E+03  0.12183177467E+03  0.10566000000E+00 0.  1.
         13    1    4    4    0    0 -0.57272368441E+01  0.21809548038E+02  0.58383300119E+02  0.62586568242E+02  0.10566000000E+00 0. -1.
        -13    1    4    4    0    0 -0.15879616785E+01  0.86988207530E+01  0.21009967501E+02  0.22795196933E+02  0.10566000000E+00 0.  1.
         14    1    4    4    0    0 -0.22579566660E+01  0.85286101428E+01  0.23502336214E+02  0.25103692294E+02  0.00000000000E+00 0. -1.
<mgrwt>
<rscale>  0 0.80549244E+02</rscale>
<asrwt>0</asrwt>
<pdfrwt beam="1">  1        2 0.11085405E-02 0.80549244E+02</pdfrwt>
<pdfrwt beam="2">  1       -1 0.34632566E-01 0.80549244E+02</pdfrwt>
<totfact> 0.94303857E+04</totfact>
</mgrwt>
</event>
<event>
 8    1  0.1226832E-016  0.7993284E+02  0.7818608E-02  0.1329242E+00
          2   -1    0    0  501    0  0.00000000000E+00  0.00000000000E+00  0.18723616436E+04  0.18723616436E+04  0.25500000000E-02 0. -1.
         -1   -1    0    0    0  501 -0.00000000000E+00 -0.00000000000E+00 -0.85309423817E+00  0.85310912597E+00  0.50400000000E-02 0.  1.
         24    2    1    2    0    0 -0.35527136788E-14  0.00000000000E+00  0.18715085493E+04  0.18732147527E+04  0.79932843701E+02 0.  0.
         66    2    3    3    0    0  0.18776124019E+02  0.42266457800E+01  0.17565258320E+04  0.17566324049E+04  0.20000280529E+01 0.  0.
        -13    1    3    3    0    0 -0.18776124019E+02 -0.42266457800E+01  0.11498271732E+03  0.11658234778E+03  0.10566000000E+00 0.  1.
         13    1    4    4    0    0  0.12038292443E+02  0.35172762996E+01  0.11204040491E+04  0.11204742461E+04  0.10566000000E+00 0. -1.
        -13    1    4    4    0    0  0.91363964408E+00 -0.90012004987E-01  0.85581064707E+02  0.85586054004E+02  0.10566000000E+00 0.  1.
         14    1    4    4    0    0  0.58241919311E+01  0.79938148535E+00  0.55054071816E+03  0.55057210479E+03  0.00000000000E+00 0. -1.
<mgrwt>
<rscale>  0 0.79932844E+02</rscale>
<asrwt>0</asrwt>
<pdfrwt beam="1">  1        2 0.28805614E+00 0.79932844E+02</pdfrwt>
<pdfrwt beam="2">  1       -1 0.13124618E-03 0.79932844E+02</pdfrwt>
<totfact> 0.29424223E+05</totfact>
</mgrwt>
</event>
<event>
 8    1  0.1226832E-016  0.8015579E+02  0.7818608E-02  0.1328610E+00
          2   -1    0    0  501    0  0.00000000000E+00  0.00000000000E+00  0.82427958160E+02  0.82427958199E+02  0.25500000000E-02 0. -1.
         -1   -1    0    0    0  501 -0.00000000000E+00 -0.00000000000E+00 -0.19486563022E+02  0.19486563674E+02  0.50400000000E-02 0.  1.
         24    2    1    2    0    0  0.00000000000E+00  0.17763568394E-14  0.62941395138E+02  0.10191452187E+03  0.80155789227E+02 0.  0.
         66    2    3    3    0    0 -0.33099042743E+02 -0.13627164266E+02  0.54340610231E+02  0.65101060999E+02  0.19999966232E+01 0.  0.
        -13    1    3    3    0    0  0.33099042743E+02  0.13627164266E+02  0.86007849072E+01  0.36813460874E+02  0.10566000000E+00 0.  1.
         13    1    4    4    0    0 -0.23402936414E+02 -0.92394768458E+01  0.36856493703E+02  0.44625975142E+02  0.10566000000E+00 0. -1.
        -13    1    4    4    0    0 -0.81303486275E+01 -0.35244818098E+01  0.14301719483E+02  0.16824829421E+02  0.10566000000E+00 0.  1.
         14    1    4    4    0    0 -0.15657577019E+01 -0.86320561005E+00  0.31823970441E+01  0.36502564365E+01  0.00000000000E+00 0. -1.
<mgrwt>
<rscale>  0 0.80155789E+02</rscale>
<asrwt>0</asrwt>
<pdfrwt beam="1">  1        2 0.12681224E-01 0.80155789E+02</pdfrwt>
<pdfrwt beam="2">  1       -1 0.29979329E-02 0.80155789E+02</pdfrwt>
<totfact> 0.16737166E+05</totfact>
</mgrwt>
</event>
<event>
 8    1  0.1226832E-016  0.7946485E+02  0.7818608E-02  0.1330577E+00
         -1   -1    0    0    0  501 -0.00000000000E+00  0.00000000000E+00  0.34154595066E+02  0.34154595438E+02  0.50400000000E-02 0.  1.
          2   -1    0    0  501    0  0.00000000000E+00 -0.00000000000E+00 -0.46221173857E+02  0.46221173928E+02  0.25500000000E-02 0. -1.
         24    2    1    2    0    0  0.00000000000E+00 -0.17763568394E-14 -0.12066578791E+02  0.80375769366E+02  0.79464847433E+02 0.  0.
         66    2    3    3    0    0  0.95214183295E+01  0.12159576700E+02 -0.43037135602E+02  0.45767977386E+02  0.20000001438E+01 0.  0.
        -13    1    3    3    0    0 -0.95214183295E+01 -0.12159576700E+02  0.30970556811E+02  0.34607791981E+02  0.10566000000E+00 0.  1.
         13    1    4    4    0    0  0.54578578361E+01  0.62617018408E+01 -0.24505770245E+02  0.25875491520E+02  0.10566000000E+00 0. -1.
        -13    1    4    4    0    0  0.16400437569E+01  0.17872975183E+01 -0.71600083232E+01  0.75604933151E+01  0.10566000000E+00 0.  1.
        -14    1    4    4    0    0  0.24235167365E+01  0.41105773412E+01 -0.11371357035E+02  0.12331992550E+02  0.00000000000E+00 0.  1.
<mgrwt>
<rscale>  0 0.79464847E+02</rscale>
<asrwt>0</asrwt>
<pdfrwt beam="1">  1        2 0.71109498E-02 0.79464847E+02</pdfrwt>
<pdfrwt beam="2">  1       -1 0.52545531E-02 0.79464847E+02</pdfrwt>
<totfact> 0.14965755E+05</totfact>
</mgrwt>
</event>
<event>
 8    1  0.1226832E-016  0.7951116E+02  0.7818608E-02  0.1330444E+00
         -1   -1    0    0    0  501 -0.00000000000E+00  0.00000000000E+00  0.49926270461E+01  0.49926295900E+01  0.50400000000E-02 0.  1.
          2   -1    0    0  501    0  0.00000000000E+00 -0.00000000000E+00 -0.31656797393E+03  0.31656797394E+03  0.25500000000E-02 0. -1.
         24    2    1    2    0    0  0.35527136788E-14  0.35527136788E-14 -0.31157534688E+03  0.32156060353E+03  0.79511162467E+02 0.  0.
         66    2    3    3    0    0 -0.28651911686E+02 -0.24604068513E+02 -0.20578073185E+03  0.20922715364E+03  0.19999969053E+01 0.  0.
        -13    1    3    3    0    0  0.28651911686E+02  0.24604068513E+02 -0.10579461503E+03  0.11233344989E+03  0.10566000000E+00 0.  1.
         13    1    4    4    0    0 -0.15088833501E+01 -0.98947244374E+00 -0.83506725406E+01  0.85440435741E+01  0.10566000000E+00 0. -1.
        -13    1    4    4    0    0 -0.56228409091E+00 -0.47655729064E+00 -0.43954164115E+01  0.44580398963E+01  0.10566000000E+00 0.  1.
         14    1    4    4    0    0 -0.26580744245E+02 -0.23138038779E+02 -0.19303464290E+03  0.19622507017E+03  0.00000000000E+00 0. -1.
<mgrwt>
<rscale>  0 0.79511162E+02</rscale>
<asrwt>0</asrwt>
<pdfrwt beam="1">  1        2 0.48702750E-01 0.79511162E+02</pdfrwt>
<pdfrwt beam="2">  1       -1 0.76809692E-03 0.79511162E+02</pdfrwt>
<totfact> 0.26415552E+05</totfact>
</mgrwt>
</event>
<event>
 8    1  0.1226832E-016  0.7762360E+02  0.7818608E-02  0.1335934E+00
          2   -1    0    0  501    0  0.00000000000E+00  0.00000000000E+00  0.60044715256E+02  0.60044715310E+02  0.25500000000E-02 0. -1.
         -1   -1    0    0    0  501 -0.00000000000E+00 -0.00000000000E+00 -0.25087233735E+02  0.25087234241E+02  0.50400000000E-02 0.  1.
         24    2    1    2    0    0  0.00000000000E+00 -0.71054273576E-14  0.34957481520E+02  0.85131949551E+02  0.77623600278E+02 0.  0.
         66    2    3    3    0    0  0.18990542996E+01 -0.37033367579E+02  0.29959974286E+02  0.47714534300E+02  0.20000006905E+01 0.  0.
        -13    1    3    3    0    0 -0.18990542996E+01  0.37033367579E+02  0.49975072341E+01  0.37417415251E+02  0.10566000000E+00 0.  1.
         13    1    4    4    0    0  0.21301042216E+01 -0.32468674536E+02  0.26083499428E+02  0.41702665101E+02  0.10566000000E+00 0. -1.
        -13    1    4    4    0    0  0.48416021788E-01 -0.23027803117E+01  0.17479076088E+01  0.28933520905E+01  0.10566000000E+00 0.  1.
        -14    1    4    4    0    0 -0.27946594381E+00 -0.22619127314E+01  0.21285672497E+01  0.31185171083E+01  0.00000000000E+00 0.  1.
<mgrwt>
<rscale>  0 0.77623600E+02</rscale>
<asrwt>0</asrwt>
<pdfrwt beam="1">  1        2 0.92376485E-02 0.77623600E+02</pdfrwt>
<pdfrwt beam="2">  1       -1 0.38595745E-02 0.77623600E+02</pdfrwt>
<totfact> 0.16897186E+05</totfact>
</mgrwt>
</event>
<event>
 8    1  0.1226832E-016  0.8262815E+02  0.7818608E-02  0.1321754E+00
         -1   -1    0    0    0  501 -0.00000000000E+00  0.00000000000E+00  0.94395729467E+01  0.94395742921E+01  0.50400000000E-02 0.  1.
          2   -1    0    0  501    0  0.00000000000E+00 -0.00000000000E+00 -0.18081885512E+03  0.18081885514E+03  0.25500000000E-02 0. -1.
         24    2    1    2    0    0  0.00000000000E+00  0.00000000000E+00 -0.17137928217E+03  0.19025842943E+03  0.82628152654E+02 0.  0.
         66    2    3    3    0    0 -0.37742475531E+02 -0.95521822765E+01 -0.11740417682E+03  0.12370723254E+03  0.20000006230E+01 0.  0.
        -13    1    3    3    0    0  0.37742475531E+02  0.95521822765E+01 -0.53975105350E+02  0.66551196886E+02  0.10566000000E+00 0.  1.
         13    1    4    4    0    0 -0.36041359018E+01 -0.12353230854E+01 -0.12317561101E+02  0.12893769589E+02  0.10566000000E+00 0. -1.
        -13    1    4    4    0    0 -0.22765732271E+02 -0.54187935506E+01 -0.67999790510E+02  0.71914008113E+02  0.10566000000E+00 0.  1.
        -14    1    4    4    0    0 -0.11372607358E+02 -0.28980656406E+01 -0.37086825213E+02  0.38899454841E+02  0.00000000000E+00 0.  1.
<mgrwt>
<rscale>  0 0.82628153E+02</rscale>
<asrwt>0</asrwt>
<pdfrwt beam="1">  1        2 0.27818283E-01 0.82628153E+02</pdfrwt>
<pdfrwt beam="2">  1       -1 0.14522422E-02 0.82628153E+02</pdfrwt>
<totfact> 0.19559250E+05</totfact>
</mgrwt>
</event>
<event>
 8    1  0.1226832E-016  0.8070216E+02  0.7818608E-02  0.1327071E+00
         -1   -1    0    0    0  501 -0.00000000000E+00  0.00000000000E+00  0.13642242114E+03  0.13642242124E+03  0.50400000000E-02 0.  1.
          2   -1    0    0  501    0  0.00000000000E+00 -0.00000000000E+00 -0.11935057584E+02  0.11935057856E+02  0.25500000000E-02 0. -1.
         24    2    1    2    0    0  0.00000000000E+00  0.00000000000E+00  0.12448736356E+03  0.14835747909E+03  0.80702155590E+02 0.  0.
         66    2    3    3    0    0 -0.86761253242E+01  0.39338322103E+02  0.58879261257E+02  0.71369083939E+02  0.19999999147E+01 0.  0.
        -13    1    3    3    0    0  0.86761253242E+01 -0.39338322103E+02  0.65608102304E+02  0.76988395155E+02  0.10566000000E+00 0.  1.
         13    1    4    4    0    0 -0.34762237837E+00  0.32666994352E+01  0.45406557036E+01  0.56054335044E+01  0.10566000000E+00 0. -1.
        -13    1    4    4    0    0 -0.12211046147E+00  0.13840135315E+01  0.18585851630E+01  0.23229092242E+01  0.10566000000E+00 0.  1.
        -14    1    4    4    0    0 -0.82063924844E+01  0.34687609136E+02  0.52480020390E+02  0.63440741211E+02  0.00000000000E+00 0.  1.
<mgrwt>
<rscale>  0 0.80702156E+02</rscale>
<asrwt>0</asrwt>
<pdfrwt beam="1">  1        2 0.18361627E-02 0.80702156E+02</pdfrwt>
<pdfrwt beam="2">  1       -1 0.20988065E-01 0.80702156E+02</pdfrwt>
<totfact> 0.10804391E+05</totfact>
</mgrwt>
</event>
<event>
 8    1  0.1226832E-016  0.7713511E+02  0.7818608E-02  0.1337384E+00
         -1   -1    0    0    0  501 -0.00000000000E+00  0.00000000000E+00  0.51208542438E+02  0.51208542686E+02  0.50400000000E-02 0.  1.
          2   -1    0    0  501    0  0.00000000000E+00 -0.00000000000E+00 -0.29047031019E+02  0.29047031131E+02  0.25500000000E-02 0. -1.
         24    2    1    2    0    0  0.00000000000E+00  0.00000000000E+00  0.22161511419E+02  0.80255573817E+02  0.77135105758E+02 0.  0.
         66    2    3    3    0    0 -0.32308909376E+02 -0.78523347494E+00  0.32936962632E+02  0.46187939184E+02  0.20000004901E+01 0.  0.
        -13    1    3    3    0    0  0.32308909376E+02  0.78523347494E+00 -0.10775451213E+02  0.34067634634E+02  0.10566000000E+00 0.  1.
         13    1    4    4    0    0 -0.14961893428E+02 -0.62403177096E+00  0.14948199694E+02  0.21159099903E+02  0.10566000000E+00 0. -1.
        -13    1    4    4    0    0 -0.56658585279E+01 -0.34826754579E+00  0.50796150217E+01  0.76181950583E+01  0.10566000000E+00 0.  1.
        -14    1    4    4    0    0 -0.11681157420E+02  0.18706584181E+00  0.12909147917E+02  0.17410644222E+02  0.00000000000E+00 0.  1.
<mgrwt>
<rscale>  0 0.77135106E+02</rscale>
<asrwt>0</asrwt>
<pdfrwt beam="1">  1        2 0.44687741E-02 0.77135106E+02</pdfrwt>
<pdfrwt beam="2">  1       -1 0.78782373E-02 0.77135106E+02</pdfrwt>
<totfact> 0.14806555E+05</totfact>
</mgrwt>
</event>
<event>
 8    1  0.1226832E-016  0.8234787E+02  0.7818608E-02  0.1322518E+00
          2   -1    0    0  501    0  0.00000000000E+00  0.00000000000E+00  0.24333799001E+02  0.24333799135E+02  0.25500000000E-02 0. -1.
         -1   -1    0    0    0  501 -0.00000000000E+00 -0.00000000000E+00 -0.69668232198E+02  0.69668232380E+02  0.50400000000E-02 0.  1.
         24    2    1    2    0    0 -0.35527136788E-14  0.00000000000E+00 -0.45334433197E+02  0.94002031515E+02  0.82347866370E+02 0.  0.
         66    2    3    3    0    0  0.30968552418E+02  0.26132351040E+02 -0.14501572224E+02  0.43084181113E+02  0.20000138517E+01 0.  0.
        -13    1    3    3    0    0 -0.30968552418E+02 -0.26132351040E+02 -0.30832860972E+02  0.50917850402E+02  0.10566000000E+00 0.  1.
         13    1    4    4    0    0  0.16728653406E+02  0.13827721892E+02 -0.75392463537E+01  0.22976186305E+02  0.10566000000E+00 0. -1.
        -13    1    4    4    0    0  0.70016671352E+01  0.60659423023E+01 -0.41132127789E+01  0.10136502458E+02  0.10566000000E+00 0.  1.
         14    1    4    4    0    0  0.72382318765E+01  0.62386868459E+01 -0.28491130918E+01  0.99714923492E+01  0.00000000000E+00 0. -1.
<mgrwt>
<rscale>  0 0.82347866E+02</rscale>
<asrwt>0</asrwt>
<pdfrwt beam="1">  1        2 0.37436614E-02 0.82347866E+02</pdfrwt>
<pdfrwt beam="2">  1       -1 0.10718190E-01 0.82347866E+02</pdfrwt>
<totfact> 0.11891707E+05</totfact>
</mgrwt>
</event>
<event>
 8    1  0.1226832E-016  0.7806145E+02  0.7818608E-02  0.1334645E+00
          2   -1    0    0  501    0  0.00000000000E+00  0.00000000000E+00  0.92288264784E+01  0.92288268306E+01  0.25500000000E-02 0. -1.
         -1   -1    0    0    0  501 -0.00000000000E+00 -0.00000000000E+00 -0.16506945760E+03  0.16506945767E+03  0.50400000000E-02 0.  1.
         24    2    1    2    0    0  0.35527136788E-14  0.00000000000E+00 -0.15584063112E+03  0.17429828450E+03  0.78061448063E+02 0.  0.
         66    2    3    3    0    0  0.17582128621E+02  0.34816690701E+02 -0.78515002757E+02  0.87692296468E+02  0.20000009301E+01 0.  0.
        -13    1    3    3    0    0 -0.17582128621E+02 -0.34816690701E+02 -0.77325628360E+02  0.86605988035E+02  0.10566000000E+00 0.  1.
         13    1    4    4    0    0  0.51725185286E+01  0.10544533792E+02 -0.21851107646E+02  0.24807744965E+02  0.10566000000E+00 0. -1.
        -13    1    4    4    0    0  0.40300470775E+01  0.83777090477E+01 -0.18752170801E+02  0.20930417151E+02  0.10566000000E+00 0.  1.
         14    1    4    4    0    0  0.83795630144E+01  0.15894447861E+02 -0.37911724309E+02  0.41954134352E+02  0.00000000000E+00 0. -1.
<mgrwt>
<rscale>  0 0.78061448E+02</rscale>
<asrwt>0</asrwt>
<pdfrwt beam="1">  1        2 0.14198196E-02 0.78061448E+02</pdfrwt>
<pdfrwt beam="2">  1       -1 0.25395299E-01 0.78061448E+02</pdfrwt>
<totfact> 0.11194952E+05</totfact>
</mgrwt>
</event>
<event>
 8    1  0.1226832E-016  0.8078765E+02  0.7818608E-02  0.1326831E+00
          2   -1    0    0  501    0  0.00000000000E+00  0.00000000000E+00  0.68242179079E+03  0.68242179079E+03  0.25500000000E-02 0. -1.
         -1   -1    0    0    0  501 -0.00000000000E+00 -0.00000000000E+00 -0.23909837998E+01  0.23909891118E+01  0.50400000000E-02 0.  1.
         24    2    1    2    0    0 -0.35527136788E-14  0.00000000000E+00  0.68003080699E+03  0.68481277991E+03  0.80787654179E+02 0.  0.
         66    2    3    3    0    0 -0.23200442394E+02  0.16003700795E+02  0.58520973738E+03  0.58589147091E+03  0.20000002607E+01 0.  0.
        -13    1    3    3    0    0  0.23200442394E+02 -0.16003700795E+02  0.94821069615E+02  0.98921308996E+02  0.10566000000E+00 0.  1.
         13    1    4    4    0    0 -0.51698807810E+01  0.32004955572E+01  0.13139963960E+03  0.13154028771E+03  0.10566000000E+00 0. -1.
        -13    1    4    4    0    0 -0.12717835228E+02  0.86314274164E+01  0.30207289813E+03  0.30246370331E+03  0.10566000000E+00 0.  1.
        -14    1    4    4    0    0 -0.53127263852E+01  0.41717778217E+01  0.15173719965E+03  0.15188747990E+03  0.00000000000E+00 0.  1.
<mgrwt>
<rscale>  0 0.80787654E+02</rscale>
<asrwt>0</asrwt>
<pdfrwt beam="1">  1        2 0.10498809E+00 0.80787654E+02</pdfrwt>
<pdfrwt beam="2">  1       -1 0.36784366E-03 0.80787654E+02</pdfrwt>
<totfact> 0.32416921E+05</totfact>
</mgrwt>
</event>
<event>
 8    1  0.1226832E-016  0.7933906E+02  0.7818608E-02  0.1330938E+00
          2   -1    0    0  501    0  0.00000000000E+00  0.00000000000E+00  0.34028027386E+02  0.34028027481E+02  0.25500000000E-02 0. -1.
         -1   -1    0    0    0  501 -0.00000000000E+00 -0.00000000000E+00 -0.46246339041E+02  0.46246339315E+02  0.50400000000E-02 0.  1.
         24    2    1    2    0    0  0.71054273576E-14  0.00000000000E+00 -0.12218311655E+02  0.80274366797E+02  0.79339062415E+02 0.  0.
         66    2    3    3    0    0 -0.26925807765E+02 -0.13950283776E+02  0.19723412915E+02  0.36230133646E+02  0.20000064363E+01 0.  0.
        -13    1    3    3    0    0  0.26925807765E+02  0.13950283776E+02 -0.31941724570E+02  0.44044233150E+02  0.10566000000E+00 0.  1.
         13    1    4    4    0    0 -0.21035799150E+02 -0.11531022903E+02  0.15529632442E+02  0.28577088426E+02  0.10566000000E+00 0. -1.
        -13    1    4    4    0    0 -0.29738695702E+01 -0.14552855170E+01  0.24605241467E+01  0.41263905860E+01  0.10566000000E+00 0.  1.
        -14    1    4    4    0    0 -0.29161390450E+01 -0.96397535643E+00  0.17332563266E+01  0.35266546346E+01  0.00000000000E+00 0.  1.
<mgrwt>
<rscale>  0 0.79339062E+02</rscale>
<asrwt>0</asrwt>
<pdfrwt beam="1">  1        2 0.52350811E-02 0.79339062E+02</pdfrwt>
<pdfrwt beam="2">  1       -1 0.71148214E-02 0.79339062E+02</pdfrwt>
<totfact> 0.14118230E+05</totfact>
</mgrwt>
</event>
<event>
 8    1  0.1226832E-016  0.7934152E+02  0.7818608E-02  0.1330931E+00
         -1   -1    0    0    0  501 -0.00000000000E+00  0.00000000000E+00  0.17364399649E+03  0.17364399656E+03  0.50400000000E-02 0.  1.
          2   -1    0    0  501    0  0.00000000000E+00 -0.00000000000E+00 -0.90631945108E+01  0.90631948695E+01  0.25500000000E-02 0. -1.
         24    2    1    2    0    0  0.00000000000E+00  0.00000000000E+00  0.16458080197E+03  0.18270719143E+03  0.79341523939E+02 0.  0.
         66    2    3    3    0    0 -0.17840257177E+02 -0.27962201818E+02  0.32333994394E+02  0.46364282606E+02  0.20000003738E+01 0.  0.
        -13    1    3    3    0    0  0.17840257177E+02  0.27962201818E+02  0.13224680758E+03  0.13634290882E+03  0.10566000000E+00 0.  1.
         13    1    4    4    0    0 -0.54339950098E+01 -0.90557079991E+01  0.10207152853E+02  0.14687793658E+02  0.10566000000E+00 0. -1.
        -13    1    4    4    0    0 -0.88065124336E+01 -0.14572742638E+02  0.16939970795E+02  0.24018602453E+02  0.10566000000E+00 0.  1.
         14    1    4    4    0    0 -0.35997497339E+01 -0.43337511807E+01  0.51868707453E+01  0.76578864951E+01  0.00000000000E+00 0. -1.
<mgrwt>
<rscale>  0 0.79341524E+02</rscale>
<asrwt>0</asrwt>
<pdfrwt beam="1">  1        2 0.13943378E-02 0.79341524E+02</pdfrwt>
<pdfrwt beam="2">  1       -1 0.26714459E-01 0.79341524E+02</pdfrwt>
<totfact> 0.10596146E+05</totfact>
</mgrwt>
</event>
<event>
 8    1  0.1226832E-016  0.7910584E+02  0.7818608E-02  0.1331608E+00
         -1   -1    0    0    0  501 -0.00000000000E+00  0.00000000000E+00  0.40527046356E+02  0.40527046670E+02  0.50400000000E-02 0.  1.
          2   -1    0    0  501    0  0.00000000000E+00 -0.00000000000E+00 -0.38602209535E+02  0.38602209619E+02  0.25500000000E-02 0. -1.
         24    2    1    2    0    0  0.00000000000E+00  0.00000000000E+00  0.19248368214E+01  0.79129256289E+02  0.79105841782E+02 0.  0.
         66    2    3    3    0    0  0.23087314768E+02 -0.32083073660E+02  0.12475201682E+01  0.39596767871E+02  0.20000001469E+01 0.  0.
        -13    1    3    3    0    0 -0.23087314768E+02  0.32083073660E+02  0.67731665326E+00  0.39532488418E+02  0.10566000000E+00 0.  1.
         13    1    4    4    0    0  0.96832713117E+01 -0.12622415756E+02  0.38766039377E+00  0.15913911130E+02  0.10566000000E+00 0. -1.
        -13    1    4    4    0    0  0.66337965027E+01 -0.10297427351E+02  0.98383643378E+00  0.12289156368E+02  0.10566000000E+00 0.  1.
        -14    1    4    4    0    0  0.67702469534E+01 -0.91632305526E+01 -0.12397665937E+00  0.11393700373E+02  0.00000000000E+00 0.  1.
<mgrwt>
<rscale>  0 0.79105842E+02</rscale>
<asrwt>0</asrwt>
<pdfrwt beam="1">  1        2 0.59388015E-02 0.79105842E+02</pdfrwt>
<pdfrwt beam="2">  1       -1 0.62349302E-02 0.79105842E+02</pdfrwt>
<totfact> 0.14598732E+05</totfact>
</mgrwt>
</event>
<event>
 8    1  0.1226832E-016  0.7784515E+02  0.7818608E-02  0.1335280E+00
         -1   -1    0    0    0  501 -0.00000000000E+00  0.00000000000E+00  0.44933810575E+01  0.44933838841E+01  0.50400000000E-02 0.  1.
          2   -1    0    0  501    0  0.00000000000E+00 -0.00000000000E+00 -0.33715508303E+03  0.33715508304E+03  0.25500000000E-02 0. -1.
         24    2    1    2    0    0  0.00000000000E+00  0.00000000000E+00 -0.33266170198E+03  0.34164846693E+03  0.77845147518E+02 0.  0.
         66    2    3    3    0    0 -0.89589336760E+01 -0.25413379817E+02 -0.28955123888E+03  0.29080925412E+03  0.19999947483E+01 0.  0.
        -13    1    3    3    0    0  0.89589336760E+01  0.25413379817E+02 -0.43110463094E+02  0.50839212804E+02  0.10566000000E+00 0.  1.
         13    1    4    4    0    0 -0.56685844970E+01 -0.16896114265E+02 -0.19461687972E+03  0.19543119649E+03  0.10566000000E+00 0. -1.
        -13    1    4    4    0    0 -0.22348424369E+01 -0.45857315769E+01 -0.55584519824E+02  0.55818218020E+02  0.10566000000E+00 0.  1.
        -14    1    4    4    0    0 -0.10555067421E+01 -0.39315339757E+01 -0.39349839342E+02  0.39559839612E+02  0.00000000000E+00 0.  1.
<mgrwt>
<rscale>  0 0.77845148E+02</rscale>
<asrwt>0</asrwt>
<pdfrwt beam="1">  1        2 0.51869993E-01 0.77845148E+02</pdfrwt>
<pdfrwt beam="2">  1       -1 0.69128988E-03 0.77845148E+02</pdfrwt>
<totfact> 0.28558758E+05</totfact>
</mgrwt>
</event>
<event>
 8    1  0.1226832E-016  0.7927451E+02  0.7818608E-02  0.1331123E+00
         -1   -1    0    0    0  501 -0.00000000000E+00  0.00000000000E+00  0.73971557416E+01  0.73971574586E+01  0.50400000000E-02 0.  1.
          2   -1    0    0  501    0  0.00000000000E+00 -0.00000000000E+00 -0.21239406307E+03  0.21239406309E+03  0.25500000000E-02 0. -1.
         24    2    1    2    0    0 -0.88817841970E-15  0.00000000000E+00 -0.20499690733E+03  0.21979122055E+03  0.79274514278E+02 0.  0.
         66    2    3    3    0    0 -0.79086220768E+01 -0.24964529032E+02 -0.18496575257E+03  0.18682104709E+03  0.19999993749E+01 0.  0.
        -13    1    3    3    0    0  0.79086220768E+01  0.24964529032E+02 -0.20031154762E+02  0.32970173462E+02  0.10566000000E+00 0.  1.
         13    1    4    4    0    0 -0.13132132739E+01 -0.49114721481E+01 -0.31560117949E+02  0.31967159661E+02  0.10566000000E+00 0. -1.
        -13    1    4    4    0    0 -0.42433455375E+00 -0.81145980488E+00 -0.65189711043E+01  0.65838191897E+01  0.10566000000E+00 0.  1.
         14    1    4    4    0    0 -0.61710742491E+01 -0.19241597079E+02 -0.14688666352E+03  0.14827006824E+03  0.00000000000E+00 0. -1.
<mgrwt>
<rscale>  0 0.79274514E+02</rscale>
<asrwt>0</asrwt>
<pdfrwt beam="1">  1        2 0.32676005E-01 0.79274514E+02</pdfrwt>
<pdfrwt beam="2">  1       -1 0.11380243E-02 0.79274514E+02</pdfrwt>
<totfact> 0.23073770E+05</totfact>
</mgrwt>
</event>
<event>
 8    1  0.1226832E-016  0.7985759E+02  0.7818608E-02  0.1329456E+00
         -1   -1    0    0    0  501 -0.00000000000E+00  0.00000000000E+00  0.93997631082E+01  0.93997644594E+01  0.50400000000E-02 0.  1.
          2   -1    0    0  501    0  0.00000000000E+00 -0.00000000000E+00 -0.16961155518E+03  0.16961155520E+03  0.25500000000E-02 0. -1.
         24    2    1    2    0    0  0.00000000000E+00 -0.35527136788E-14 -0.16021179207E+03  0.17901131966E+03  0.79857587285E+02 0.  0.
         66    2    3    3    0    0 -0.31171387625E+02  0.20018886328E+02 -0.11339664342E+03  0.11931139903E+03  0.19999955078E+01 0.  0.
        -13    1    3    3    0    0  0.31171387625E+02 -0.20018886328E+02 -0.46815148648E+02  0.59699920630E+02  0.10566000000E+00 0.  1.
         13    1    4    4    0    0 -0.11636579941E+02  0.84998676633E+01 -0.44130114921E+02  0.46423441816E+02  0.10566000000E+00 0. -1.
        -13    1    4    4    0    0 -0.57556714807E+01  0.33577523699E+01 -0.21363115120E+02  0.22378474185E+02  0.10566000000E+00 0.  1.
         14    1    4    4    0    0 -0.13779136204E+02  0.81612662944E+01 -0.47903413381E+02  0.50509483026E+02  0.00000000000E+00 0. -1.
<mgrwt>
<rscale>  0 0.79857587E+02</rscale>
<asrwt>0</asrwt>
<pdfrwt beam="1">  1        2 0.26094083E-01 0.79857587E+02</pdfrwt>
<pdfrwt beam="2">  1       -1 0.14461176E-02 0.79857587E+02</pdfrwt>
<totfact> 0.20951989E+05</totfact>
</mgrwt>
</event>
<event>
 8    1  0.1226832E-016  0.8156521E+02  0.7818608E-02  0.1324667E+00
         -1   -1    0    0    0  501 -0.00000000000E+00  0.00000000000E+00  0.18373289858E+02  0.18373290550E+02  0.50400000000E-02 0.  1.
          2   -1    0    0  501    0  0.00000000000E+00 -0.00000000000E+00 -0.90523851285E+02  0.90523851321E+02  0.25500000000E-02 0. -1.
         24    2    1    2    0    0  0.00000000000E+00  0.00000000000E+00 -0.72150561426E+02  0.10889714187E+03  0.81565213132E+02 0.  0.
         66    2    3    3    0    0  0.21584673764E+02  0.95611528169E+00 -0.82237918259E+02  0.85052263388E+02  0.20000025029E+01 0.  0.
        -13    1    3    3    0    0 -0.21584673764E+02 -0.95611528169E+00  0.10087356832E+02  0.23844878482E+02  0.10566000000E+00 0.  1.
         13    1    4    4    0    0  0.17053382419E+02  0.10597124908E+01 -0.65879476113E+02  0.68059219651E+02  0.10566000000E+00 0. -1.
        -13    1    4    4    0    0  0.27330616008E+01  0.14668722814E+00 -0.10977948933E+02  0.11314489369E+02  0.10566000000E+00 0.  1.
        -14    1    4    4    0    0  0.17982297441E+01 -0.25028443729E+00 -0.53804932123E+01  0.56785543688E+01  0.00000000000E+00 0.  1.
<mgrwt>
<rscale>  0 0.81565213E+02</rscale>
<asrwt>0</asrwt>
<pdfrwt beam="1">  1        2 0.13926746E-01 0.81565213E+02</pdfrwt>
<pdfrwt beam="2">  1       -1 0.28266601E-02 0.81565213E+02</pdfrwt>
<totfact> 0.16371964E+05</totfact>
</mgrwt>
</event>
<event>
 8    1  0.1337120E-016  0.7416543E+02  0.7818608E-02  0.1346475E+00
          2   -1    0    0  501    0  0.00000000000E+00  0.00000000000E+00  0.93175670127E+03  0.93175670128E+03  0.25500000000E-02 0. -1.
         -1   -1    0    0    0  501 -0.00000000000E+00 -0.00000000000E+00 -0.14758397730E+01  0.14758483788E+01  0.50400000000E-02 0.  1.
         24    2    1    2    0    0 -0.71054273576E-14  0.17763568394E-14  0.93028086150E+03  0.93323254965E+03  0.74165426332E+02 0.  0.
         66    2    3    3    0    0  0.26151542544E+02 -0.95292309902E+01  0.77329219589E+03  0.77379553477E+03  0.19999972211E+01 0.  0.
        -13    1    3    3    0    0 -0.26151542544E+02  0.95292309902E+01  0.15698866561E+03  0.15943701488E+03  0.10566000000E+00 0.  1.
         13    1    4    4    0    0  0.16490390016E+02 -0.54124003636E+01  0.48521218372E+03  0.48552250354E+03  0.10566000000E+00 0. -1.
        -13    1    4    4    0    0  0.61586244921E+01 -0.21374496157E+01  0.17408640290E+03  0.17420845038E+03  0.10566000000E+00 0.  1.
        -14    1    4    4    0    0  0.35025280361E+01 -0.19793810109E+01  0.11399360927E+03  0.11406458086E+03  0.00000000000E+00 0.  1.
<mgrwt>
<rscale>  0 0.74165426E+02</rscale>
<asrwt>0</asrwt>
<pdfrwt beam="1">  1        2 0.14334768E+00 0.74165426E+02</pdfrwt>
<pdfrwt beam="2">  1       -1 0.22705216E-03 0.74165426E+02</pdfrwt>
<totfact> 0.42654679E+05</totfact>
</mgrwt>
</event>
<event>
 8    1  0.1226832E-016  0.7187781E+02  0.7818608E-02  0.1353821E+00
          2   -1    0    0  501    0  0.00000000000E+00  0.00000000000E+00  0.35699603559E+02  0.35699603650E+02  0.25500000000E-02 0. -1.
         -1   -1    0    0    0  501 -0.00000000000E+00 -0.00000000000E+00 -0.36179808408E+02  0.36179808759E+02  0.50400000000E-02 0.  1.
         24    2    1    2    0    0  0.00000000000E+00  0.00000000000E+00 -0.48020484975E+00  0.71879412409E+02  0.71877808339E+02 0.  0.
         66    2    3    3    0    0 -0.11932728270E+02  0.29162087812E+02  0.16987479054E+02  0.35852359872E+02  0.19999735719E+01 0.  0.
        -13    1    3    3    0    0  0.11932728270E+02 -0.29162087812E+02 -0.17467683903E+02  0.36027052537E+02  0.10566000000E+00 0.  1.
         13    1    4    4    0    0 -0.68630319242E+01  0.14749804101E+02  0.93743669035E+01  0.18776257536E+02  0.10566000000E+00 0. -1.
        -13    1    4    4    0    0 -0.12495441795E+01  0.35209195084E+01  0.16646159190E+01  0.40914966742E+01  0.10566000000E+00 0.  1.
         14    1    4    4    0    0 -0.38201521668E+01  0.10891364203E+02  0.59484962312E+01  0.12984605662E+02  0.00000000000E+00 0. -1.
<mgrwt>
<rscale>  0 0.71877808E+02</rscale>
<asrwt>0</asrwt>
<pdfrwt beam="1">  1        2 0.54922468E-02 0.71877808E+02</pdfrwt>
<pdfrwt beam="2">  1       -1 0.55661244E-02 0.71877808E+02</pdfrwt>
<totfact> 0.18703248E+05</totfact>
</mgrwt>
</event>
<event>
 8    1  0.1226832E-016  0.8372147E+02  0.7818608E-02  0.1318810E+00
          2   -1    0    0  501    0  0.00000000000E+00  0.00000000000E+00  0.21090549195E+02  0.21090549349E+02  0.25500000000E-02 0. -1.
         -1   -1    0    0    0  501 -0.00000000000E+00 -0.00000000000E+00 -0.83085605329E+02  0.83085605482E+02  0.50400000000E-02 0.  1.
         24    2    1    2    0    0  0.00000000000E+00  0.00000000000E+00 -0.61995056134E+02  0.10417615483E+03  0.83721468277E+02 0.  0.
         66    2    3    3    0    0  0.23771878352E+02  0.23589456170E+01  0.11722215283E+02  0.26684774059E+02  0.20000026620E+01 0.  0.
        -13    1    3    3    0    0 -0.23771878352E+02 -0.23589456170E+01 -0.73717271417E+02  0.77491380772E+02  0.10566000000E+00 0.  1.
         13    1    4    4    0    0  0.20698449273E+01  0.25799857180E+00  0.71200273761E+00  0.22065659338E+01  0.10566000000E+00 0. -1.
        -13    1    4    4    0    0  0.76331080997E+01 -0.22879828728E-01  0.38687861066E+01  0.85582435536E+01  0.10566000000E+00 0.  1.
         14    1    4    4    0    0  0.14068925325E+02  0.21238268739E+01  0.71414264386E+01  0.15919964572E+02  0.00000000000E+00 0. -1.
<mgrwt>
<rscale>  0 0.83721468E+02</rscale>
<asrwt>0</asrwt>
<pdfrwt beam="1">  1        2 0.32446999E-02 0.83721468E+02</pdfrwt>
<pdfrwt beam="2">  1       -1 0.12782401E-01 0.83721468E+02</pdfrwt>
<totfact> 0.11011399E+05</totfact>
</mgrwt>
</event>
<event>
 8    1  0.1226832E-016  0.8051152E+02  0.7818608E-02  0.1327606E+00
         -1   -1    0    0    0  501 -0.00000000000E+00  0.00000000000E+00  0.23886141965E+02  0.23886142496E+02  0.50400000000E-02 0.  1.
          2   -1    0    0  501    0  0.00000000000E+00 -0.00000000000E+00 -0.67843774229E+02  0.67843774277E+02  0.25500000000E-02 0. -1.
         24    2    1    2    0    0  0.71054273576E-14 -0.13877787808E-16 -0.43957632264E+02  0.91729916773E+02  0.80511515927E+02 0.  0.
         66    2    3    3    0    0  0.36926201592E+02 -0.44463302355E-01 -0.40185225989E+02  0.54611342526E+02  0.20000009043E+01 0.  0.
        -13    1    3    3    0    0 -0.36926201592E+02  0.44463302355E-01 -0.37724062750E+01  0.37118574247E+02  0.10566000000E+00 0.  1.
         13    1    4    4    0    0  0.13577769347E+02  0.61948353908E+00 -0.15036025595E+02  0.20269011077E+02  0.10566000000E+00 0.  1.
        -13    1    4    4    0    0  0.12479848904E+02 -0.81095512716E+00 -0.13954998542E+02  0.18739194893E+02  0.10566000000E+00 0. -1.
         14    1    4    4    0    0  0.10868583341E+02  0.14700828572E+00 -0.11194201853E+02  0.15603136556E+02  0.00000000000E+00 0. -1.
<mgrwt>
<rscale>  0 0.80511516E+02</rscale>
<asrwt>0</asrwt>
<pdfrwt beam="1">  1        2 0.10437504E-01 0.80511516E+02</pdfrwt>
<pdfrwt beam="2">  1       -1 0.36747912E-02 0.80511516E+02</pdfrwt>
<totfact> 0.15749840E+05</totfact>
</mgrwt>
</event>
<event>
 8    1  0.1226832E-016  0.7960584E+02  0.7818608E-02  0.1330174E+00
          2   -1    0    0  501    0  0.00000000000E+00  0.00000000000E+00  0.52356177657E+03  0.52356177658E+03  0.25500000000E-02 0. -1.
         -1   -1    0    0    0  501 -0.00000000000E+00 -0.00000000000E+00 -0.30259491598E+01  0.30259533571E+01  0.50400000000E-02 0.  1.
         24    2    1    2    0    0  0.17763568394E-14  0.00000000000E+00  0.52053582741E+03  0.52658772993E+03  0.79605839602E+02 0.  0.
         66    2    3    3    0    0 -0.14926120658E+02  0.33843308738E+02  0.35722455070E+03  0.35913999812E+03  0.20000008754E+01 0.  0.
        -13    1    3    3    0    0  0.14926120658E+02 -0.33843308738E+02  0.16331127671E+03  0.16744773181E+03  0.10566000000E+00 0.  1.
         13    1    4    4    0    0 -0.83466952991E+00  0.21779869029E+01  0.21370714294E+02  0.21497881143E+02  0.10566000000E+00 0. -1.
        -13    1    4    4    0    0 -0.61641208497E+01  0.14683509726E+02  0.14641966386E+03  0.14728316595E+03  0.10566000000E+00 0.  1.
        -14    1    4    4    0    0 -0.79273302788E+01  0.16981812109E+02  0.18943417255E+03  0.19035895103E+03  0.00000000000E+00 0.  1.
<mgrwt>
<rscale>  0 0.79605840E+02</rscale>
<asrwt>0</asrwt>
<pdfrwt beam="1">  1        2 0.80547967E-01 0.79605840E+02</pdfrwt>
<pdfrwt beam="2">  1       -1 0.46553095E-03 0.79605840E+02</pdfrwt>
<totfact> 0.31295264E+05</totfact>
</mgrwt>
</event>
<event>
 8    1  0.1226832E-016  0.7936503E+02  0.7818608E-02  0.1330863E+00
          2   -1    0    0  501    0  0.00000000000E+00  0.00000000000E+00  0.29762599352E+03  0.29762599353E+03  0.25500000000E-02 0. -1.
         -1   -1    0    0    0  501 -0.00000000000E+00 -0.00000000000E+00 -0.52908739357E+01  0.52908763362E+01  0.50400000000E-02 0.  1.
         24    2    1    2    0    0  0.00000000000E+00  0.00000000000E+00  0.29233511959E+03  0.30291686987E+03  0.79365029502E+02 0.  0.
         66    2    3    3    0    0  0.98165958089E+01  0.11466061873E+02  0.28622947826E+03  0.28663417512E+03  0.19999990780E+01 0.  0.
        -13    1    3    3    0    0 -0.98165958089E+01 -0.11466061873E+02  0.61056413283E+01  0.16282694746E+02  0.10566000000E+00 0.  1.
         13    1    4    4    0    0  0.56615411995E+01  0.54901309015E+01  0.14981852209E+03  0.15002598212E+03  0.10566000000E+00 0.  1.
        -13    1    4    4    0    0  0.11561623520E+01  0.22920667487E+01  0.52641250991E+02  0.52703915901E+02  0.10566000000E+00 0. -1.
        -14    1    4    4    0    0  0.29988922574E+01  0.36838642223E+01  0.83769705177E+02  0.83904277101E+02  0.00000000000E+00 0.  1.
<mgrwt>
<rscale>  0 0.79365030E+02</rscale>
<asrwt>0</asrwt>
<pdfrwt beam="1">  1        2 0.45788602E-01 0.79365030E+02</pdfrwt>
<pdfrwt beam="2">  1       -1 0.81398101E-03 0.79365030E+02</pdfrwt>
<totfact> 0.25957796E+05</totfact>
</mgrwt>
</event>
<event>
 8    1  0.1226832E-016  0.7829772E+02  0.7818608E-02  0.1333953E+00
          2   -1    0    0  501    0  0.00000000000E+00  0.00000000000E+00  0.31901037206E+02  0.31901037308E+02  0.25500000000E-02 0. -1.
         -1   -1    0    0    0  501 -0.00000000000E+00 -0.00000000000E+00 -0.48043369824E+02  0.48043370089E+02  0.50400000000E-02 0.  1.
         24    2    1    2    0    0  0.00000000000E+00  0.88817841970E-15 -0.16142332618E+02  0.79944407397E+02  0.78297722647E+02 0.  0.
         66    2    3    3    0    0 -0.13477466917E+02  0.67151238988E+01  0.28792466999E+02  0.32553665852E+02  0.20000002663E+01 0.  0.
        -13    1    3    3    0    0  0.13477466917E+02 -0.67151238988E+01 -0.44934799617E+02  0.47390741545E+02  0.10566000000E+00 0.  1.
         13    1    4    4    0    0 -0.15163558270E+01  0.13304882547E+01  0.39449936508E+01  0.44321183345E+01  0.10566000000E+00 0. -1.
        -13    1    4    4    0    0 -0.44879679996E+01  0.19406983200E+01  0.10468693061E+02  0.11554776726E+02  0.10566000000E+00 0.  1.
         14    1    4    4    0    0 -0.74731430904E+01  0.34439373241E+01  0.14378780286E+02  0.16566770792E+02  0.00000000000E+00 0. -1.
<mgrwt>
<rscale>  0 0.78297723E+02</rscale>
<asrwt>0</asrwt>
<pdfrwt beam="1">  1        2 0.49078519E-02 0.78297723E+02</pdfrwt>
<pdfrwt beam="2">  1       -1 0.73912878E-02 0.78297723E+02</pdfrwt>
<totfact> 0.14461822E+05</totfact>
</mgrwt>
</event>
<event>
 8    1  0.1226832E-016  0.8038111E+02  0.7818608E-02  0.1327973E+00
         -1   -1    0    0    0  501 -0.00000000000E+00  0.00000000000E+00  0.24346660440E+01  0.24346712606E+01  0.50400000000E-02 0.  1.
          2   -1    0    0  501    0  0.00000000000E+00 -0.00000000000E+00 -0.66344994910E+03  0.66344994911E+03  0.25500000000E-02 0. -1.
         24    2    1    2    0    0  0.17763568394E-14  0.00000000000E+00 -0.66101528306E+03  0.66588462037E+03  0.80381112245E+02 0.  0.
         66    2    3    3    0    0 -0.66714786285E+01  0.20666363653E+02 -0.61061948652E+03  0.61100880888E+03  0.19999992358E+01 0.  0.
        -13    1    3    3    0    0  0.66714786285E+01 -0.20666363653E+02 -0.50395796538E+02  0.54875811488E+02  0.10566000000E+00 0.  1.
         13    1    4    4    0    0 -0.12081211547E+01  0.44934846122E+01 -0.11885841871E+03  0.11894950955E+03  0.10566000000E+00 0. -1.
        -13    1    4    4    0    0 -0.14205789326E+01  0.56908606481E+01 -0.15558538927E+03  0.15569594875E+03  0.10566000000E+00 0. -1.
         14    1    4    4    0    0 -0.40427785412E+01  0.10482018392E+02 -0.33617567854E+03  0.33636335058E+03  0.00000000000E+00 0. -1.
<mgrwt>
<rscale>  0 0.80381112E+02</rscale>
<asrwt>0</asrwt>
<pdfrwt beam="1">  1        2 0.10206908E+00 0.80381112E+02</pdfrwt>
<pdfrwt beam="2">  1       -1 0.37456494E-03 0.80381112E+02</pdfrwt>
<totfact> 0.32620968E+05</totfact>
</mgrwt>
</event>
<event>
 8    1  0.1226832E-016  0.8027115E+02  0.7818608E-02  0.1328284E+00
         -1   -1    0    0    0  501 -0.00000000000E+00  0.00000000000E+00  0.16386635562E+02  0.16386636337E+02  0.50400000000E-02 0.  1.
          2   -1    0    0  501    0  0.00000000000E+00 -0.00000000000E+00 -0.98303545603E+02  0.98303545636E+02  0.25500000000E-02 0. -1.
         24    2    1    2    0    0 -0.35527136788E-14  0.00000000000E+00 -0.81916910041E+02  0.11469018197E+03  0.80271151046E+02 0.  0.
         66    2    3    3    0    0  0.16116954785E+02  0.25699696242E+01 -0.93334650256E+02  0.94771925748E+02  0.19999990329E+01 0.  0.
        -13    1    3    3    0    0 -0.16116954785E+02 -0.25699696242E+01  0.11417740214E+02  0.19918256225E+02  0.10566000000E+00 0.  1.
         13    1    4    4    0    0  0.10538299792E+02  0.94249006358E+00 -0.56701144431E+02  0.57679935800E+02  0.10566000000E+00 0. -1.
        -13    1    4    4    0    0  0.32840583588E+01  0.90674033709E+00 -0.21310665238E+02  0.21581539201E+02  0.10566000000E+00 0.  1.
         14    1    4    4    0    0  0.22945966347E+01  0.72073922349E+00 -0.15322840586E+02  0.15510450747E+02  0.00000000000E+00 0. -1.
<mgrwt>
<rscale>  0 0.80271151E+02</rscale>
<asrwt>0</asrwt>
<pdfrwt beam="1">  1        2 0.15123622E-01 0.80271151E+02</pdfrwt>
<pdfrwt beam="2">  1       -1 0.25210210E-02 0.80271151E+02</pdfrwt>
<totfact> 0.17482146E+05</totfact>
</mgrwt>
</event>
<event>
 8    1  0.1402402E-016  0.8275129E+02  0.7818608E-02  0.1321420E+00
         -1   -1    0    0    0  501 -0.00000000000E+00  0.00000000000E+00  0.12432188687E+02  0.12432189709E+02  0.50400000000E-02 0.  1.
          2   -1    0    0  501    0  0.00000000000E+00 -0.00000000000E+00 -0.13770254813E+03  0.13770254815E+03  0.25500000000E-02 0. -1.
         24    2    1    2    0    0  0.00000000000E+00  0.00000000000E+00 -0.12527035944E+03  0.15013473786E+03  0.82751293391E+02 0.  0.
         66    2    3    3    0    0 -0.60701010501E+01  0.31114665154E+02 -0.11084335775E+03  0.11530489353E+03  0.19999998859E+01 0.  0.
        -13    1    3    3    0    0  0.60701010501E+01 -0.31114665154E+02 -0.14427001690E+02  0.34829844332E+02  0.10566000000E+00 0.  1.
         13    1    4    4    0    0 -0.19473268362E+01  0.10587086411E+02 -0.37276215180E+02  0.38799560084E+02  0.10566000000E+00 0. -1.
        -13    1    4    4    0    0 -0.39212929265E+01  0.18121460555E+02 -0.63409892158E+02  0.66065039608E+02  0.10566000000E+00 0.  1.
        -14    1    4    4    0    0 -0.20148128740E+00  0.24061181886E+01 -0.10157250410E+02  0.10440293834E+02  0.00000000000E+00 0.  1.
<mgrwt>
<rscale>  0 0.82751293E+02</rscale>
<asrwt>0</asrwt>
<pdfrwt beam="1">  1        2 0.21185006E-01 0.82751293E+02</pdfrwt>
<pdfrwt beam="2">  1       -1 0.19126446E-02 0.82751293E+02</pdfrwt>
<totfact> 0.17813759E+05</totfact>
</mgrwt>
</event>
<event>
 8    1  0.1226832E-016  0.7992481E+02  0.7818608E-02  0.1329265E+00
         -1   -1    0    0    0  501 -0.00000000000E+00  0.00000000000E+00  0.12696598138E+01  0.12696698170E+01  0.50400000000E-02 0.  1.
          2   -1    0    0  501    0  0.00000000000E+00 -0.00000000000E+00 -0.12578073166E+04  0.12578073166E+04  0.25500000000E-02 0. -1.
         24    2    1    2    0    0  0.00000000000E+00  0.00000000000E+00 -0.12565376568E+04  0.12590769864E+04  0.79924807222E+02 0.  0.
         66    2    3    3    0    0 -0.11973816098E+02  0.12406040593E+02 -0.11961521004E+04  0.11962780318E+04  0.20000004166E+01 0.  0.
        -13    1    3    3    0    0  0.11973816098E+02 -0.12406040593E+02 -0.60385556403E+02  0.62798954619E+02  0.10566000000E+00 0.  1.
         13    1    4    4    0    0 -0.46365412530E+01  0.49851909530E+01 -0.51490073004E+03  0.51494574724E+03  0.10566000000E+00 0. -1.
        -13    1    4    4    0    0 -0.26539024689E+01  0.34378609295E+01 -0.29505383865E+03  0.29508581964E+03  0.10566000000E+00 0.  1.
         14    1    4    4    0    0 -0.46833723763E+01  0.39829887100E+01 -0.38619753167E+03  0.38624646489E+03  0.00000000000E+00 0. -1.
<mgrwt>
<rscale>  0 0.79924807E+02</rscale>
<asrwt>0</asrwt>
<pdfrwt beam="1">  1        2 0.19350782E+00 0.79924807E+02</pdfrwt>
<pdfrwt beam="2">  1       -1 0.19533405E-03 0.79924807E+02</pdfrwt>
<totfact> 0.34903342E+05</totfact>
</mgrwt>
</event>
<event>
 8    1  0.1226832E-016  0.7968018E+02  0.7818608E-02  0.1329961E+00
         -1   -1    0    0    0  501 -0.00000000000E+00  0.00000000000E+00  0.41265131832E+02  0.41265132139E+02  0.50400000000E-02 0.  1.
          2   -1    0    0  501    0  0.00000000000E+00 -0.00000000000E+00 -0.38464263267E+02  0.38464263351E+02  0.25500000000E-02 0. -1.
         24    2    1    2    0    0  0.00000000000E+00  0.00000000000E+00  0.28008685649E+01  0.79729395491E+02  0.79680183487E+02 0.  0.
         66    2    3    3    0    0 -0.17083755987E+02 -0.21484160509E+02 -0.27457512558E+02  0.38875941982E+02  0.19999994286E+01 0.  0.
        -13    1    3    3    0    0  0.17083755987E+02  0.21484160509E+02  0.30258381123E+02  0.40853453509E+02  0.10566000000E+00 0.  1.
         13    1    4    4    0    0 -0.88147294489E+01 -0.11218661787E+02 -0.15319503594E+02  0.20934569065E+02  0.10566000000E+00 0. -1.
        -13    1    4    4    0    0 -0.36012377488E+00 -0.33478014729E+00 -0.63333958800E+00  0.80873354671E+00  0.10566000000E+00 0. -1.
         14    1    4    4    0    0 -0.79089027637E+01 -0.99307185746E+01 -0.11504669375E+02  0.17132639370E+02  0.00000000000E+00 0. -1.
<mgrwt>
<rscale>  0 0.79680183E+02</rscale>
<asrwt>0</asrwt>
<pdfrwt beam="1">  1        2 0.59175790E-02 0.79680183E+02</pdfrwt>
<pdfrwt beam="2">  1       -1 0.63484819E-02 0.79680183E+02</pdfrwt>
<totfact> 0.14299120E+05</totfact>
</mgrwt>
</event>
<event>
 8    1  0.1226832E-016  0.7501108E+02  0.7818608E-02  0.1343837E+00
         -1   -1    0    0    0  501 -0.00000000000E+00  0.00000000000E+00  0.17145532745E+02  0.17145533486E+02  0.50400000000E-02 0.  1.
          2   -1    0    0  501    0  0.00000000000E+00 -0.00000000000E+00 -0.82042673014E+02  0.82042673054E+02  0.25500000000E-02 0. -1.
         24    2    1    2    0    0 -0.35527136788E-14  0.22204460493E-15 -0.64897140269E+02  0.99188206540E+02  0.75011075860E+02 0.  0.
         66    2    3    3    0    0  0.25647005258E+02  0.18458972859E+01 -0.68526991818E+02  0.73219702505E+02  0.20000029619E+01 0.  0.
        -13    1    3    3    0    0 -0.25647005258E+02 -0.18458972859E+01  0.36298515490E+01  0.25968504035E+02  0.10566000000E+00 0.  1.
         13    1    4    4    0    0  0.21320824120E+01  0.43080461273E+00 -0.50212679941E+01  0.54731768042E+01  0.10566000000E+00 0. -1.
        -13    1    4    4    0    0  0.11305600277E+02  0.13208538651E+00 -0.29499629084E+02  0.31592298496E+02  0.10566000000E+00 0.  1.
         14    1    4    4    0    0  0.12209322569E+02  0.12830072867E+01 -0.34006094740E+02  0.36154227205E+02  0.00000000000E+00 0. -1.
<mgrwt>
<rscale>  0 0.75011076E+02</rscale>
<asrwt>0</asrwt>
<pdfrwt beam="1">  1        2 0.12621949E-01 0.75011076E+02</pdfrwt>
<pdfrwt beam="2">  1       -1 0.26377744E-02 0.75011076E+02</pdfrwt>
<totfact> 0.19972848E+05</totfact>
</mgrwt>
</event>
<event>
 8    1  0.1226832E-016  0.7953122E+02  0.7818608E-02  0.1330387E+00
         -1   -1    0    0    0  501 -0.00000000000E+00  0.00000000000E+00  0.38088363872E+01  0.38088397217E+01  0.50400000000E-02 0.  1.
          2   -1    0    0  501    0  0.00000000000E+00 -0.00000000000E+00 -0.41516693324E+03  0.41516693325E+03  0.25500000000E-02 0. -1.
         24    2    1    2    0    0  0.35527136788E-14  0.35527136788E-14 -0.41135809686E+03  0.41897577297E+03  0.79531217073E+02 0.  0.
         66    2    3    3    0    0 -0.26719330809E+02 -0.23971549672E+02 -0.29563521760E+03  0.29781326317E+03  0.20000016121E+01 0.  0.
        -13    1    3    3    0    0  0.26719330809E+02  0.23971549672E+02 -0.11572287926E+03  0.12116250980E+03  0.10566000000E+00 0.  1.
         13    1    4    4    0    0 -0.16168793641E+02 -0.13432736398E+02 -0.17620872248E+03  0.17745814531E+03  0.10566000000E+00 0. -1.
        -13    1    4    4    0    0 -0.50689472419E+01 -0.53836382906E+01 -0.58221066729E+02  0.58688853818E+02  0.10566000000E+00 0.  1.
         14    1    4    4    0    0 -0.54815899265E+01 -0.51551749829E+01 -0.61205428390E+02  0.61666264048E+02  0.00000000000E+00 0. -1.
<mgrwt>
<rscale>  0 0.79531217E+02</rscale>
<asrwt>0</asrwt>
<pdfrwt beam="1">  1        2 0.63871800E-01 0.79531217E+02</pdfrwt>
<pdfrwt beam="2">  1       -1 0.58597542E-03 0.79531217E+02</pdfrwt>
<totfact> 0.29064025E+05</totfact>
</mgrwt>
</event>
<event>
 8    1  0.1226832E-016  0.8051175E+02  0.7818608E-02  0.1327605E+00
         -1   -1    0    0    0  501 -0.00000000000E+00  0.00000000000E+00  0.11110619772E+02  0.11110620915E+02  0.50400000000E-02 0.  1.
          2   -1    0    0  501    0  0.00000000000E+00 -0.00000000000E+00 -0.14585462359E+03  0.14585462361E+03  0.25500000000E-02 0. -1.
         24    2    1    2    0    0  0.00000000000E+00  0.00000000000E+00 -0.13474400381E+03  0.15696524452E+03  0.80511747121E+02 0.  0.
         66    2    3    3    0    0 -0.61900643691E+01 -0.26417083051E+02 -0.12532498370E+03  0.12824402801E+03  0.20000022033E+01 0.  0.
        -13    1    3    3    0    0  0.61900643691E+01  0.26417083051E+02 -0.94190201176E+01  0.28721216510E+02  0.10566000000E+00 0.  1.
         13    1    4    4    0    0 -0.31658671063E+01 -0.13840357964E+02 -0.68769114108E+02  0.70219516108E+02  0.10566000000E+00 0. -1.
        -13    1    4    4    0    0 -0.15423927521E+01 -0.44539723244E+01 -0.20850896489E+02  0.21377275161E+02  0.10566000000E+00 0.  1.
        -14    1    4    4    0    0 -0.14818045107E+01 -0.81227527624E+01 -0.35704973099E+02  0.36647236745E+02  0.00000000000E+00 0.  1.
<mgrwt>
<rscale>  0 0.80511747E+02</rscale>
<asrwt>0</asrwt>
<pdfrwt beam="1">  1        2 0.22439171E-01 0.80511747E+02</pdfrwt>
<pdfrwt beam="2">  1       -1 0.17093263E-02 0.80511747E+02</pdfrwt>
<totfact> 0.19517348E+05</totfact>
</mgrwt>
</event>
<event>
 8    1  0.1226832E-016  0.7974678E+02  0.7818608E-02  0.1329772E+00
          2   -1    0    0  501    0  0.00000000000E+00  0.00000000000E+00  0.25503960723E+03  0.25503960724E+03  0.25500000000E-02 0. -1.
         -1   -1    0    0    0  501 -0.00000000000E+00 -0.00000000000E+00 -0.62338820573E+01  0.62338840946E+01  0.50400000000E-02 0.  1.
         24    2    1    2    0    0 -0.71054273576E-14  0.00000000000E+00  0.24880572517E+03  0.26127349134E+03  0.79746776718E+02 0.  0.
         66    2    3    3    0    0 -0.35422138245E+02  0.17925443916E+02  0.13575090788E+03  0.14145090459E+03  0.20000004875E+01 0.  0.
        -13    1    3    3    0    0  0.35422138245E+02 -0.17925443916E+02  0.11305481729E+03  0.11982258674E+03  0.10566000000E+00 0.  1.
         13    1    4    4    0    0 -0.16080263953E+02  0.76829691831E+01  0.59154334545E+02  0.61780655255E+02  0.10566000000E+00 0. -1.
        -13    1    4    4    0    0 -0.38018239039E+01  0.21063628143E+01  0.13682657952E+02  0.14356772686E+02  0.10566000000E+00 0.  1.
         14    1    4    4    0    0 -0.15540050388E+02  0.81361119186E+01  0.62913915385E+02  0.65313476651E+02  0.00000000000E+00 0. -1.
<mgrwt>
<rscale>  0 0.79746777E+02</rscale>
<asrwt>0</asrwt>
<pdfrwt beam="1">  1        2 0.39236854E-01 0.79746777E+02</pdfrwt>
<pdfrwt beam="2">  1       -1 0.95905915E-03 0.79746777E+02</pdfrwt>
<totfact> 0.24240859E+05</totfact>
</mgrwt>
</event>
<event>
 8    1  0.1226832E-016  0.7967138E+02  0.7818608E-02  0.1329987E+00
         -1   -1    0    0    0  501 -0.00000000000E+00  0.00000000000E+00  0.52609524249E+01  0.52609548391E+01  0.50400000000E-02 0.  1.
          2   -1    0    0  501    0  0.00000000000E+00 -0.00000000000E+00 -0.30163395447E+03  0.30163395448E+03  0.25500000000E-02 0. -1.
         24    2    1    2    0    0  0.00000000000E+00  0.00000000000E+00 -0.29637300204E+03  0.30689490932E+03  0.79671381469E+02 0.  0.
         66    2    3    3    0    0  0.31910706031E+02 -0.18221400049E+02 -0.20727509498E+03  0.21051669193E+03  0.20000011384E+01 0.  0.
        -13    1    3    3    0    0 -0.31910706031E+02  0.18221400049E+02 -0.89097907067E+02  0.96378217388E+02  0.10566000000E+00 0.  1.
         13    1    4    4    0    0  0.45440687220E+00 -0.19609030532E+00 -0.32671569591E+01  0.33061179114E+01  0.10566000000E+00 0.  1.
        -13    1    4    4    0    0  0.10215318720E+02 -0.54387356034E+01 -0.61454256682E+02  0.62534545732E+02  0.10566000000E+00 0.  1.
         14    1    4    4    0    0  0.21240980439E+02 -0.12586574140E+02 -0.14255368134E+03  0.14467602829E+03  0.00000000000E+00 0. -1.
<mgrwt>
<rscale>  0 0.79671381E+02</rscale>
<asrwt>0</asrwt>
<pdfrwt beam="1">  1        2 0.46405210E-01 0.79671381E+02</pdfrwt>
<pdfrwt beam="2">  1       -1 0.80937772E-03 0.79671381E+02</pdfrwt>
<totfact> 0.25821755E+05</totfact>
</mgrwt>
</event>
<event>
 8    1  0.1226832E-016  0.8186042E+02  0.7818608E-02  0.1323853E+00
          2   -1    0    0  501    0  0.00000000000E+00  0.00000000000E+00  0.22097729240E+03  0.22097729241E+03  0.25500000000E-02 0. -1.
         -1   -1    0    0    0  501 -0.00000000000E+00 -0.00000000000E+00 -0.75812392250E+01  0.75812409003E+01  0.50400000000E-02 0.  1.
         24    2    1    2    0    0  0.44408920985E-15  0.00000000000E+00  0.21339605317E+03  0.22855853331E+03  0.81860415589E+02 0.  0.
         66    2    3    3    0    0 -0.21105225728E+01 -0.36432936877E+02  0.15835513398E+03  0.16251818849E+03  0.19999840459E+01 0.  0.
        -13    1    3    3    0    0  0.21105225728E+01  0.36432936877E+02  0.55040919188E+02  0.66040344822E+02  0.10566000000E+00 0.  1.
         13    1    4    4    0    0 -0.12299771149E+01 -0.13928536830E+02  0.59582447511E+02  0.61201276109E+02  0.10566000000E+00 0. -1.
        -13    1    4    4    0    0 -0.63122424615E+00 -0.62011029446E+01  0.25300720230E+02  0.26057431377E+02  0.10566000000E+00 0.  1.
         14    1    4    4    0    0 -0.24932121176E+00 -0.16303297103E+02  0.73471966244E+02  0.75259481006E+02  0.00000000000E+00 0. -1.
<mgrwt>
<rscale>  0 0.81860416E+02</rscale>
<asrwt>0</asrwt>
<pdfrwt beam="1">  1        2 0.33996499E-01 0.81860416E+02</pdfrwt>
<pdfrwt beam="2">  1       -1 0.11663449E-02 0.81860416E+02</pdfrwt>
<totfact> 0.21499145E+05</totfact>
</mgrwt>
</event>
<event>
 8    1  0.1226832E-016  0.7878592E+02  0.7818608E-02  0.1332533E+00
          2   -1    0    0  501    0  0.00000000000E+00  0.00000000000E+00  0.29724916130E+03  0.29724916131E+03  0.25500000000E-02 0. -1.
         -1   -1    0    0    0  501 -0.00000000000E+00 -0.00000000000E+00 -0.52205532660E+01  0.52205556989E+01  0.50400000000E-02 0.  1.
         24    2    1    2    0    0 -0.88817841970E-15  0.00000000000E+00  0.29202860804E+03  0.30246971701E+03  0.78785923856E+02 0.  0.
         66    2    3    3    0    0 -0.78430306884E+01  0.37881208308E+02  0.11807944958E+03  0.12427089557E+03  0.19999995756E+01 0.  0.
        -13    1    3    3    0    0  0.78430306884E+01 -0.37881208308E+02  0.17394915845E+03  0.17819882144E+03  0.10566000000E+00 0.  1.
         13    1    4    4    0    0 -0.35004460034E+01  0.18169032995E+02  0.59250177307E+02  0.62072228550E+02  0.10566000000E+00 0. -1.
        -13    1    4    4    0    0 -0.39343988603E+01  0.18315316092E+02  0.54213237147E+02  0.57358665814E+02  0.10566000000E+00 0.  1.
         14    1    4    4    0    0 -0.40818582471E+00  0.13968592216E+01  0.46160351305E+01  0.48400012065E+01  0.00000000000E+00 0. -1.
<mgrwt>
<rscale>  0 0.78785924E+02</rscale>
<asrwt>0</asrwt>
<pdfrwt beam="1">  1        2 0.45730653E-01 0.78785924E+02</pdfrwt>
<pdfrwt beam="2">  1       -1 0.80316202E-03 0.78785924E+02</pdfrwt>
<totfact> 0.26448372E+05</totfact>
</mgrwt>
</event>
<event>
 8    1  0.1226832E-016  0.8741629E+02  0.7818608E-02  0.1309232E+00
         -1   -1    0    0    0  501 -0.00000000000E+00  0.00000000000E+00  0.42745370955E+01  0.42745400667E+01  0.50400000000E-02 0.  1.
          2   -1    0    0  501    0  0.00000000000E+00 -0.00000000000E+00 -0.44692589868E+03  0.44692589869E+03  0.25500000000E-02 0. -1.
         24    2    1    2    0    0 -0.35527136788E-14  0.00000000000E+00 -0.44265136158E+03  0.45120043875E+03  0.87416291497E+02 0.  0.
         66    2    3    3    0    0 -0.27498171062E+02  0.33728547465E+02 -0.24118534870E+03  0.24508801837E+03  0.19999985085E+01 0.  0.
        -13    1    3    3    0    0  0.27498171062E+02 -0.33728547465E+02 -0.20146601288E+03  0.20611242038E+03  0.10566000000E+00 0.  1.
         13    1    4    4    0    0 -0.84581533894E+01  0.10902338778E+02 -0.78707779175E+02  0.79908241229E+02  0.10566000000E+00 0. -1.
        -13    1    4    4    0    0 -0.30426265629E+01  0.42672283389E+01 -0.26916859520E+02  0.27422532789E+02  0.10566000000E+00 0.  1.
         14    1    4    4    0    0 -0.15997391110E+02  0.18558980348E+02 -0.13556071001E+03  0.13775724435E+03  0.00000000000E+00 0. -1.
<mgrwt>
<rscale>  0 0.87416291E+02</rscale>
<asrwt>0</asrwt>
<pdfrwt beam="1">  1        2 0.68757794E-01 0.87416291E+02</pdfrwt>
<pdfrwt beam="2">  1       -1 0.65762168E-03 0.87416291E+02</pdfrwt>
<totfact> 0.23266391E+05</totfact>
</mgrwt>
</event>
<event>
 8    1  0.1226832E-016  0.7334573E+02  0.7818608E-02  0.1349072E+00
          2   -1    0    0  501    0  0.00000000000E+00  0.00000000000E+00  0.90986879586E+02  0.90986879622E+02  0.25500000000E-02 0. -1.
         -1   -1    0    0    0  501 -0.00000000000E+00 -0.00000000000E+00 -0.14781242745E+02  0.14781243605E+02  0.50400000000E-02 0.  1.
         24    2    1    2    0    0  0.00000000000E+00  0.00000000000E+00  0.76205636841E+02  0.10576812323E+03  0.73345734740E+02 0.  0.
         66    2    3    3    0    0  0.11482932916E+02 -0.22530401854E+02  0.76377117376E+02  0.80479443434E+02  0.20000001715E+01 0.  0.
        -13    1    3    3    0    0 -0.11482932916E+02  0.22530401854E+02 -0.17148053538E+00  0.25288679793E+02  0.10566000000E+00 0.  1.
         13    1    4    4    0    0  0.38803965356E+01 -0.82599454511E+01  0.25345037261E+02  0.26938193220E+02  0.10566000000E+00 0. -1.
        -13    1    4    4    0    0  0.51582153929E+00 -0.97657725873E+00  0.28231871482E+01  0.30333685421E+01  0.10566000000E+00 0.  1.
         14    1    4    4    0    0  0.70867148407E+01 -0.13293879144E+02  0.48208892967E+02  0.50507881672E+02  0.00000000000E+00 0. -1.
<mgrwt>
<rscale>  0 0.73345735E+02</rscale>
<asrwt>0</asrwt>
<pdfrwt beam="1">  1        2 0.13997982E-01 0.73345735E+02</pdfrwt>
<pdfrwt beam="2">  1       -1 0.22740374E-02 0.73345735E+02</pdfrwt>
<totfact> 0.21778116E+05</totfact>
</mgrwt>
</event>
<event>
 8    1  0.1226832E-016  0.8000007E+02  0.7818608E-02  0.1329051E+00
          2   -1    0    0  501    0  0.00000000000E+00  0.00000000000E+00  0.27892291905E+02  0.27892292022E+02  0.25500000000E-02 0. -1.
         -1   -1    0    0    0  501 -0.00000000000E+00 -0.00000000000E+00 -0.57363616522E+02  0.57363616743E+02  0.50400000000E-02 0.  1.
         24    2    1    2    0    0  0.00000000000E+00  0.35527136788E-14 -0.29471324617E+02  0.85255908765E+02  0.80000068779E+02 0.  0.
         66    2    3    3    0    0 -0.87491568458E+01  0.22584784735E+02  0.19146652700E+02  0.30938884459E+02  0.20000037400E+01 0.  0.
        -13    1    3    3    0    0  0.87491568458E+01 -0.22584784735E+02 -0.48617977316E+02  0.54317024305E+02  0.10566000000E+00 0.  1.
         13    1    4    4    0    0 -0.35623647649E+01  0.93934866803E+01  0.89755310442E+01  0.13472169695E+02  0.10566000000E+00 0. -1.
        -13    1    4    4    0    0 -0.16754150442E+01  0.45231777621E+01  0.29975633942E+01  0.56800266703E+01  0.10566000000E+00 0.  1.
         14    1    4    4    0    0 -0.35113770367E+01  0.86681202922E+01  0.71735582614E+01  0.11786688094E+02  0.00000000000E+00 0. -1.
<mgrwt>
<rscale>  0 0.80000069E+02</rscale>
<asrwt>0</asrwt>
<pdfrwt beam="1">  1        2 0.42911219E-02 0.80000069E+02</pdfrwt>
<pdfrwt beam="2">  1       -1 0.88251718E-02 0.80000069E+02</pdfrwt>
<totfact> 0.13263441E+05</totfact>
</mgrwt>
</event>
<event>
 8    1  0.1226832E-016  0.8075630E+02  0.7818608E-02  0.1326919E+00
         -1   -1    0    0    0  501 -0.00000000000E+00  0.00000000000E+00  0.40179069819E+02  0.40179070136E+02  0.50400000000E-02 0.  1.
          2   -1    0    0  501    0  0.00000000000E+00 -0.00000000000E+00 -0.40578218031E+02  0.40578218111E+02  0.25500000000E-02 0. -1.
         24    2    1    2    0    0  0.17763568394E-14  0.00000000000E+00 -0.39914821138E+00  0.80757288246E+02  0.80756301832E+02 0.  0.
         66    2    3    3    0    0 -0.98010829051E+01  0.38459630535E+02  0.70932448515E+01  0.40367295367E+02  0.20000014220E+01 0.  0.
        -13    1    3    3    0    0  0.98010829051E+01 -0.38459630535E+02 -0.74923930629E+01  0.40389992880E+02  0.10566000000E+00 0.  1.
         13    1    4    4    0    0 -0.71065403207E+01  0.28898149529E+02  0.50273827139E+01  0.30180982464E+02  0.10566000000E+00 0. -1.
        -13    1    4    4    0    0 -0.26062980998E+01  0.84926048014E+01  0.16504747163E+01  0.90361693722E+01  0.10566000000E+00 0.  1.
        -14    1    4    4    0    0 -0.88244484703E-01  0.10688762044E+01  0.41538742131E+00  0.11501435299E+01  0.00000000000E+00 0.  1.
<mgrwt>
<rscale>  0 0.80756302E+02</rscale>
<asrwt>0</asrwt>
<pdfrwt beam="1">  1        2 0.62428028E-02 0.80756302E+02</pdfrwt>
<pdfrwt beam="2">  1       -1 0.61813954E-02 0.80756302E+02</pdfrwt>
<totfact> 0.13930276E+05</totfact>
</mgrwt>
</event>
<event>
 8    1  0.1226832E-016  0.8055824E+02  0.7818608E-02  0.1327475E+00
         -1   -1    0    0    0  501 -0.00000000000E+00  0.00000000000E+00  0.75125002701E+01  0.75125019607E+01  0.50400000000E-02 0.  1.
          2   -1    0    0  501    0  0.00000000000E+00 -0.00000000000E+00 -0.21596102372E+03  0.21596102374E+03  0.25500000000E-02 0. -1.
         24    2    1    2    0    0  0.00000000000E+00  0.71054273576E-14 -0.20844852345E+03  0.22347352570E+03  0.80558238304E+02 0.  0.
         66    2    3    3    0    0  0.13846450481E+02  0.31891800692E+02 -0.16056769313E+03  0.16430092884E+03  0.19999997921E+01 0.  0.
        -13    1    3    3    0    0 -0.13846450481E+02 -0.31891800692E+02 -0.47880830327E+02  0.59172596860E+02  0.10566000000E+00 0.  1.
         13    1    4    4    0    0  0.47643192502E+01  0.11239600072E+02 -0.57403428713E+02  0.58687240008E+02  0.10566000000E+00 0. -1.
        -13    1    4    4    0    0  0.13970441200E+01  0.42602055003E+01 -0.18565729421E+02  0.19099700421E+02  0.10566000000E+00 0.  1.
        -14    1    4    4    0    0  0.76850871108E+01  0.16391995120E+02 -0.84598534992E+02  0.86513988410E+02  0.00000000000E+00 0.  1.
<mgrwt>
<rscale>  0 0.80558238E+02</rscale>
<asrwt>0</asrwt>
<pdfrwt beam="1">  1        2 0.33224768E-01 0.80558238E+02</pdfrwt>
<pdfrwt beam="2">  1       -1 0.11557696E-02 0.80558238E+02</pdfrwt>
<totfact> 0.22247205E+05</totfact>
</mgrwt>
</event>
<event>
 8    1  0.1226832E-016  0.7961941E+02  0.7818608E-02  0.1330135E+00
          2   -1    0    0  501    0  0.00000000000E+00  0.00000000000E+00  0.63122663293E+02  0.63122663345E+02  0.25500000000E-02 0. -1.
         -1   -1    0    0    0  501 -0.00000000000E+00 -0.00000000000E+00 -0.25106872381E+02  0.25106872887E+02  0.50400000000E-02 0.  1.
         24    2    1    2    0    0  0.17763568394E-14 -0.35527136788E-14  0.38015790912E+02  0.88229536231E+02  0.79619411609E+02 0.  0.
         66    2    3    3    0    0 -0.15224896043E+02  0.24876568346E+02  0.49004575318E+02  0.57062154902E+02  0.20000019250E+01 0.  0.
        -13    1    3    3    0    0  0.15224896043E+02 -0.24876568346E+02 -0.10988784406E+02  0.31167381330E+02  0.10566000000E+00 0.  1.
         13    1    4    4    0    0 -0.20425613458E+01  0.36827249059E+01  0.61027919454E+01  0.74155076123E+01  0.10566000000E+00 0. -1.
        -13    1    4    4    0    0 -0.45334489707E+01  0.65972385840E+01  0.13026955340E+02  0.15290142118E+02  0.10566000000E+00 0.  1.
         14    1    4    4    0    0 -0.86488857264E+01  0.14596604856E+02  0.29874828032E+02  0.34356505172E+02  0.00000000000E+00 0. -1.
<mgrwt>
<rscale>  0 0.79619412E+02</rscale>
<asrwt>0</asrwt>
<pdfrwt beam="1">  1        2 0.97111790E-02 0.79619412E+02</pdfrwt>
<pdfrwt beam="2">  1       -1 0.38625958E-02 0.79619412E+02</pdfrwt>
<totfact> 0.15956586E+05</totfact>
</mgrwt>
</event>
<event>
 8    1  0.1226832E-016  0.8014332E+02  0.7818608E-02  0.1328645E+00
         -1   -1    0    0    0  501 -0.00000000000E+00  0.00000000000E+00  0.20776691865E+02  0.20776692477E+02  0.50400000000E-02 0.  1.
          2   -1    0    0  501    0  0.00000000000E+00 -0.00000000000E+00 -0.77285538235E+02  0.77285538277E+02  0.25500000000E-02 0. -1.
         24    2    1    2    0    0  0.35527136788E-14  0.00000000000E+00 -0.56508846370E+02  0.98062230753E+02  0.80143317765E+02 0.  0.
         66    2    3    3    0    0 -0.21042114869E+02  0.63140031509E+01 -0.69241009416E+02  0.72670177394E+02  0.20000159054E+01 0.  0.
        -13    1    3    3    0    0  0.21042114869E+02 -0.63140031509E+01  0.12732163046E+02  0.25392053360E+02  0.10566000000E+00 0.  1.
         13    1    4    4    0    0 -0.14818389393E+02  0.48715752767E+01 -0.48696498924E+02  0.51133913222E+02  0.10566000000E+00 0. -1.
        -13    1    4    4    0    0 -0.39072515715E+01  0.13447220686E+01 -0.12637112653E+02  0.13295964520E+02  0.10566000000E+00 0.  1.
         14    1    4    4    0    0 -0.23164739043E+01  0.97705805650E-01 -0.79073978383E+01  0.82402996515E+01  0.00000000000E+00 0. -1.
<mgrwt>
<rscale>  0 0.80143318E+02</rscale>
<asrwt>0</asrwt>
<pdfrwt beam="1">  1        2 0.11890083E-01 0.80143318E+02</pdfrwt>
<pdfrwt beam="2">  1       -1 0.31964142E-02 0.80143318E+02</pdfrwt>
<totfact> 0.16469471E+05</totfact>
</mgrwt>
</event>
<event>
 8    1  0.1226832E-016  0.8139262E+02  0.7818608E-02  0.1325145E+00
         -1   -1    0    0    0  501 -0.00000000000E+00  0.00000000000E+00  0.89390385164E+00  0.89391805977E+00  0.50400000000E-02 0.  1.
          2   -1    0    0  501    0  0.00000000000E+00 -0.00000000000E+00 -0.18527456405E+04  0.18527456405E+04  0.25500000000E-02 0. -1.
         24    2    1    2    0    0  0.22204460493E-15  0.00000000000E+00 -0.18518517367E+04  0.18536395586E+04  0.81392619670E+02 0.  0.
         66    2    3    3    0    0  0.12804572443E+01  0.18728562505E+02 -0.17481772844E+04  0.17482792158E+04  0.19999771846E+01 0.  0.
        -13    1    3    3    0    0 -0.12804572443E+01 -0.18728562505E+02 -0.10367445226E+03  0.10536034283E+03  0.10566000000E+00 0.  1.
         13    1    4    4    0    0  0.43856767085E+00  0.47667378037E+01 -0.44438590745E+03  0.44441170106E+03  0.10566000000E+00 0. -1.
        -13    1    4    4    0    0  0.45089183946E+00  0.12941931047E+02 -0.12276716764E+04  0.12277399778E+04  0.10566000000E+00 0.  1.
        -14    1    4    4    0    0  0.39099773395E+00  0.10198936545E+01 -0.76119700600E+02  0.76127536947E+02  0.00000000000E+00 0.  1.
<mgrwt>
<rscale>  0 0.81392620E+02</rscale>
<asrwt>0</asrwt>
<pdfrwt beam="1">  1        2 0.28503472E+00 0.81392620E+02</pdfrwt>
<pdfrwt beam="2">  1       -1 0.13752625E-03 0.81392620E+02</pdfrwt>
<totfact> 0.28294492E+05</totfact>
</mgrwt>
</event>
<event>
 8    1  0.1226832E-016  0.7841497E+02  0.7818608E-02  0.1333611E+00
          2   -1    0    0  501    0  0.00000000000E+00  0.00000000000E+00  0.19383434560E+02  0.19383434728E+02  0.25500000000E-02 0. -1.
         -1   -1    0    0    0  501 -0.00000000000E+00 -0.00000000000E+00 -0.79306211841E+02  0.79306212001E+02  0.50400000000E-02 0.  1.
         24    2    1    2    0    0  0.00000000000E+00 -0.17763568394E-14 -0.59922777281E+02  0.98689646730E+02  0.78414967542E+02 0.  0.
         66    2    3    3    0    0  0.33396743445E+02 -0.10560323148E+02 -0.78803854472E+01  0.35957799877E+02  0.19999998834E+01 0.  0.
        -13    1    3    3    0    0 -0.33396743445E+02  0.10560323148E+02 -0.52042391834E+02  0.62731846852E+02  0.10566000000E+00 0.  1.
         13    1    4    4    0    0  0.59797523513E+01 -0.21338924270E+01 -0.13965422476E+01  0.65017251062E+01  0.10566000000E+00 0. -1.
        -13    1    4    4    0    0  0.14747473100E+02 -0.45054182148E+01 -0.26145187611E+01  0.15640768157E+02  0.10566000000E+00 0.  1.
        -14    1    4    4    0    0  0.12669517993E+02 -0.39210125059E+01 -0.38693244385E+01  0.13815306615E+02  0.00000000000E+00 0.  1.
<mgrwt>
<rscale>  0 0.78414968E+02</rscale>
<asrwt>0</asrwt>
<pdfrwt beam="1">  1        2 0.29820669E-02 0.78414968E+02</pdfrwt>
<pdfrwt beam="2">  1       -1 0.12200956E-01 0.78414968E+02</pdfrwt>
<totfact> 0.13067065E+05</totfact>
</mgrwt>
</event>
<event>
 8    1  0.1226832E-016  0.8072104E+02  0.7818608E-02  0.1327018E+00
         -1   -1    0    0    0  501 -0.00000000000E+00  0.00000000000E+00  0.67259875339E+02  0.67259875528E+02  0.50400000000E-02 0.  1.
          2   -1    0    0  501    0  0.00000000000E+00 -0.00000000000E+00 -0.24219067943E+02  0.24219068077E+02  0.25500000000E-02 0. -1.
         24    2    1    2    0    0  0.00000000000E+00  0.00000000000E+00  0.43040807396E+02  0.91478943605E+02  0.80721038285E+02 0.  0.
         66    2    3    3    0    0  0.32398647127E+02 -0.18102238615E+02  0.36291916818E+01  0.37343465443E+02  0.20000001248E+01 0.  0.
        -13    1    3    3    0    0 -0.32398647127E+02  0.18102238615E+02  0.39411615714E+02  0.54135478162E+02  0.10566000000E+00 0.  1.
         13    1    4    4    0    0  0.42205523131E+01 -0.29004414298E+01  0.51934370987E+00  0.51484467794E+01  0.10566000000E+00 0.  1.
        -13    1    4    4    0    0  0.62607317098E+01 -0.30652582250E+01  0.11423666354E+01  0.70646114608E+01  0.10566000000E+00 0. -1.
         14    1    4    4    0    0  0.21917363105E+02 -0.12136538960E+02  0.19674813365E+01  0.25130407203E+02  0.00000000000E+00 0. -1.
<mgrwt>
<rscale>  0 0.80721038E+02</rscale>
<asrwt>0</asrwt>
<pdfrwt beam="1">  1        2 0.37260105E-02 0.80721038E+02</pdfrwt>
<pdfrwt beam="2">  1       -1 0.10347673E-01 0.80721038E+02</pdfrwt>
<totfact> 0.12574791E+05</totfact>
</mgrwt>
</event>
<event>
 8    1  0.1226832E-016  0.7829184E+02  0.7818608E-02  0.1333970E+00
         -1   -1    0    0    0  501 -0.00000000000E+00  0.00000000000E+00  0.36046678039E+01  0.36046713273E+01  0.50400000000E-02 0.  1.
          2   -1    0    0  501    0  0.00000000000E+00 -0.00000000000E+00 -0.42511613479E+03  0.42511613480E+03  0.25500000000E-02 0. -1.
         24    2    1    2    0    0 -0.71054273576E-14 -0.17763568394E-14 -0.42151146699E+03  0.42872080613E+03  0.78291843788E+02 0.  0.
         66    2    3    3    0    0 -0.34437511942E+02 -0.11506505856E+02 -0.29063425420E+03  0.29290034413E+03  0.19999928981E+01 0.  0.
        -13    1    3    3    0    0  0.34437511942E+02  0.11506505856E+02 -0.13087721279E+03  0.13582046200E+03  0.10566000000E+00 0.  1.
         13    1    4    4    0    0 -0.80068483085E+01 -0.23027750752E+01 -0.68933631943E+02  0.69435359650E+02  0.10566000000E+00 0. -1.
        -13    1    4    4    0    0 -0.22430364641E+02 -0.79655664342E+01 -0.18434873593E+03  0.18587909810E+03  0.10566000000E+00 0.  1.
        -14    1    4    4    0    0 -0.40002989925E+01 -0.12381643466E+01 -0.37351886322E+02  0.37585886378E+02  0.00000000000E+00 0.  1.
<mgrwt>
<rscale>  0 0.78291844E+02</rscale>
<asrwt>0</asrwt>
<pdfrwt beam="1">  1        2 0.65402443E-01 0.78291844E+02</pdfrwt>
<pdfrwt beam="2">  1       -1 0.55456489E-03 0.78291844E+02</pdfrwt>
<totfact> 0.30526573E+05</totfact>
</mgrwt>
</event>
<event>
 8    1  0.1226832E-016  0.7859907E+02  0.7818608E-02  0.1333075E+00
          2   -1    0    0  501    0  0.00000000000E+00  0.00000000000E+00  0.69596150601E+03  0.69596150601E+03  0.25500000000E-02 0. -1.
         -1   -1    0    0    0  501 -0.00000000000E+00 -0.00000000000E+00 -0.22191619952E+01  0.22191677184E+01  0.50400000000E-02 0.  1.
         24    2    1    2    0    0 -0.71054273576E-14  0.00000000000E+00  0.69374234401E+03  0.69818067373E+03  0.78599066758E+02 0.  0.
         66    2    3    3    0    0  0.33034310813E+02  0.82882179200E+01  0.52081897632E+03  0.52193521278E+03  0.19999996537E+01 0.  0.
        -13    1    3    3    0    0 -0.33034310813E+02 -0.82882179200E+01  0.17292336769E+03  0.17624546095E+03  0.10566000000E+00 0.  1.
         13    1    4    4    0    0  0.59429497511E+01  0.16687372254E+01  0.91771359655E+02  0.91978785340E+02  0.10566000000E+00 0. -1.
        -13    1    4    4    0    0  0.17753847277E+02  0.51380764891E+01  0.28706198315E+03  0.28765637879E+03  0.10566000000E+00 0.  1.
         14    1    4    4    0    0  0.93375137851E+01  0.14814042055E+01  0.14198563352E+03  0.14230004866E+03  0.00000000000E+00 0. -1.
<mgrwt>
<rscale>  0 0.78599067E+02</rscale>
<asrwt>0</asrwt>
<pdfrwt beam="1">  1        2 0.10707119E+00 0.78599067E+02</pdfrwt>
<pdfrwt beam="2">  1       -1 0.34140937E-03 0.78599067E+02</pdfrwt>
<totfact> 0.34975891E+05</totfact>
</mgrwt>
</event>
<event>
 8    1  0.1226832E-016  0.7802697E+02  0.7818608E-02  0.1334746E+00
         -1   -1    0    0    0  501 -0.00000000000E+00  0.00000000000E+00  0.97703824401E+01  0.97703837400E+01  0.50400000000E-02 0.  1.
          2   -1    0    0  501    0  0.00000000000E+00 -0.00000000000E+00 -0.15578221997E+03  0.15578221999E+03  0.25500000000E-02 0. -1.
         24    2    1    2    0    0  0.00000000000E+00  0.17763568394E-14 -0.14601183753E+03  0.16555260373E+03  0.78026969075E+02 0.  0.
         66    2    3    3    0    0 -0.31922170140E+02  0.12569784193E+02 -0.11235014096E+03  0.11748863176E+03  0.19999997554E+01 0.  0.
        -13    1    3    3    0    0  0.31922170140E+02 -0.12569784193E+02 -0.33661696568E+02  0.48063971965E+02  0.10566000000E+00 0.  1.
         13    1    4    4    0    0 -0.12969359003E+02  0.46144000040E+01 -0.46902346595E+02  0.48880857608E+02  0.10566000000E+00 0. -1.
        -13    1    4    4    0    0 -0.57493873115E+01  0.19283850473E+01 -0.18775872448E+02  0.19731159965E+02  0.10566000000E+00 0.  1.
         14    1    4    4    0    0 -0.13203423826E+02  0.60269991420E+01 -0.46671921916E+02  0.48876614190E+02  0.00000000000E+00 0. -1.
<mgrwt>
<rscale>  0 0.78026969E+02</rscale>
<asrwt>0</asrwt>
<pdfrwt beam="1">  1        2 0.23966494E-01 0.78026969E+02</pdfrwt>
<pdfrwt beam="2">  1       -1 0.15031360E-02 0.78026969E+02</pdfrwt>
<totfact> 0.21663067E+05</totfact>
</mgrwt>
</event>
<event>
 8    1  0.1226832E-016  0.7883651E+02  0.7818608E-02  0.1332386E+00
          2   -1    0    0  501    0  0.00000000000E+00  0.00000000000E+00  0.87007188474E+03  0.87007188474E+03  0.25500000000E-02 0. -1.
         -1   -1    0    0    0  501 -0.00000000000E+00 -0.00000000000E+00 -0.17858246260E+01  0.17858317380E+01  0.50400000000E-02 0.  1.
         24    2    1    2    0    0  0.00000000000E+00  0.11102230246E-15  0.86828606011E+03  0.87185771648E+03  0.78836511849E+02 0.  0.
         66    2    3    3    0    0  0.13351916492E+02 -0.38828195702E+00  0.84425936950E+03  0.84436740068E+03  0.19999768289E+01 0.  0.
        -13    1    3    3    0    0 -0.13351916492E+02  0.38828195702E+00  0.24026690607E+02  0.27490315794E+02  0.10566000000E+00 0.  1.
         13    1    4    4    0    0  0.68906845988E+01 -0.10426201736E+01  0.44360154189E+03  0.44365629458E+03  0.10566000000E+00 0. -1.
        -13    1    4    4    0    0  0.45617354689E+01  0.25529525026E+00  0.29607258538E+03  0.29610785464E+03  0.10566000000E+00 0.  1.
        -14    1    4    4    0    0  0.18994964242E+01  0.39904296636E+00  0.10458524224E+03  0.10460325146E+03  0.00000000000E+00 0.  1.
<mgrwt>
<rscale>  0 0.78836512E+02</rscale>
<asrwt>0</asrwt>
<pdfrwt beam="1">  1        2 0.13385757E+00 0.78836512E+02</pdfrwt>
<pdfrwt beam="2">  1       -1 0.27474207E-03 0.78836512E+02</pdfrwt>
<totfact> 0.36154004E+05</totfact>
</mgrwt>
</event>
<event>
 8    1  0.1226832E-016  0.8010017E+02  0.7818608E-02  0.1328767E+00
         -1   -1    0    0    0  501 -0.00000000000E+00  0.00000000000E+00  0.73041909935E+02  0.73041910109E+02  0.50400000000E-02 0.  1.
          2   -1    0    0  501    0  0.00000000000E+00 -0.00000000000E+00 -0.21960120925E+02  0.21960121073E+02  0.25500000000E-02 0. -1.
         24    2    1    2    0    0  0.00000000000E+00  0.00000000000E+00  0.51081789010E+02  0.95002031182E+02  0.80100167043E+02 0.  0.
         66    2    3    3    0    0  0.35269982411E+02  0.18056392352E+02  0.18847592417E+02  0.43923077022E+02  0.19999977792E+01 0.  0.
        -13    1    3    3    0    0 -0.35269982411E+02 -0.18056392352E+02  0.32234196593E+02  0.51078954160E+02  0.10566000000E+00 0.  1.
         13    1    4    4    0    0  0.16777676325E+02  0.84293973108E+01  0.89542865824E+01  0.20802297328E+02  0.10566000000E+00 0. -1.
        -13    1    4    4    0    0  0.62829072591E+01  0.40161301858E+01  0.37092318268E+01  0.83290929924E+01  0.10566000000E+00 0.  1.
        -14    1    4    4    0    0  0.12209398827E+02  0.56108648552E+01  0.61840740074E+01  0.14791686702E+02  0.00000000000E+00 0.  1.
<mgrwt>
<rscale>  0 0.80100167E+02</rscale>
<asrwt>0</asrwt>
<pdfrwt beam="1">  1        2 0.33784802E-02 0.80100167E+02</pdfrwt>
<pdfrwt beam="2">  1       -1 0.11237217E-01 0.80100167E+02</pdfrwt>
<totfact> 0.12605911E+05</totfact>
</mgrwt>
</event>
<event>
 8    1  0.1226832E-016  0.8020171E+02  0.7818608E-02  0.1328480E+00
         -1   -1    0    0    0  501 -0.00000000000E+00  0.00000000000E+00  0.11024501256E+02  0.11024502408E+02  0.50400000000E-02 0.  1.
          2   -1    0    0  501    0  0.00000000000E+00 -0.00000000000E+00 -0.14586404822E+03  0.14586404825E+03  0.25500000000E-02 0. -1.
         24    2    1    2    0    0  0.00000000000E+00  0.00000000000E+00 -0.13483954697E+03  0.15688855065E+03  0.80201707587E+02 0.  0.
         66    2    3    3    0    0 -0.10182343312E+02  0.21660499721E+02 -0.13034023499E+03  0.13253465290E+03  0.19999994537E+01 0.  0.
        -13    1    3    3    0    0  0.10182343312E+02 -0.21660499721E+02 -0.44993119744E+01  0.24353897753E+02  0.10566000000E+00 0.  1.
         13    1    4    4    0    0 -0.80423612284E+01  0.17186708923E+02 -0.10582524603E+03  0.10751305222E+03  0.10566000000E+00 0. -1.
        -13    1    4    4    0    0 -0.72000850615E-02  0.25037276725E+00 -0.16461977029E+01  0.16684931155E+01  0.10566000000E+00 0. -1.
         14    1    4    4    0    0 -0.21327819986E+01  0.42234180310E+01 -0.22868791264E+02  0.23353107562E+02  0.00000000000E+00 0. -1.
<mgrwt>
<rscale>  0 0.80201708E+02</rscale>
<asrwt>0</asrwt>
<pdfrwt beam="1">  1        2 0.22440621E-01 0.80201708E+02</pdfrwt>
<pdfrwt beam="2">  1       -1 0.16960773E-02 0.80201708E+02</pdfrwt>
<totfact> 0.19718814E+05</totfact>
</mgrwt>
</event>
<event>
 8    1  0.1226832E-016  0.8343915E+02  0.7818608E-02  0.1319566E+00
          2   -1    0    0  501    0  0.00000000000E+00  0.00000000000E+00  0.13160703603E+04  0.13160703603E+04  0.25500000000E-02 0. -1.
         -1   -1    0    0    0  501 -0.00000000000E+00 -0.00000000000E+00 -0.13225104385E+01  0.13225200421E+01  0.50400000000E-02 0.  1.
         24    2    1    2    0    0 -0.35527136788E-14 -0.88817841970E-15  0.13147478499E+04  0.13173928804E+04  0.83439154281E+02 0.  0.
         66    2    3    3    0    0 -0.21099564165E+02 -0.77320744870E+01  0.12122770580E+04  0.12124869657E+04  0.19999992424E+01 0.  0.
        -13    1    3    3    0    0  0.21099564165E+02  0.77320744870E+01  0.10247079188E+03  0.10490591469E+03  0.10566000000E+00 0.  1.
         13    1    4    4    0    0 -0.74874630273E+01 -0.29030218614E+01  0.39165480528E+03  0.39173714057E+03  0.10566000000E+00 0. -1.
        -13    1    4    4    0    0 -0.66087849921E+01 -0.28032157274E+01  0.40372588067E+03  0.40378971253E+03  0.10566000000E+00 0.  1.
        -14    1    4    4    0    0 -0.70033161457E+01 -0.20258368982E+01  0.41689637204E+03  0.41696011257E+03  0.00000000000E+00 0.  1.
<mgrwt>
<rscale>  0 0.83439154E+02</rscale>
<asrwt>0</asrwt>
<pdfrwt beam="1">  1        2 0.20247241E+00 0.83439154E+02</pdfrwt>
<pdfrwt beam="2">  1       -1 0.20346384E-03 0.83439154E+02</pdfrwt>
<totfact> 0.30948412E+05</totfact>
</mgrwt>
</event>
<event>
 8    1  0.1226832E-016  0.7974995E+02  0.7818608E-02  0.1329763E+00
          2   -1    0    0  501    0  0.00000000000E+00  0.00000000000E+00  0.37073819647E+03  0.37073819648E+03  0.25500000000E-02 0. -1.
         -1   -1    0    0    0  501 -0.00000000000E+00 -0.00000000000E+00 -0.42887756859E+01  0.42887786473E+01  0.50400000000E-02 0.  1.
         24    2    1    2    0    0  0.00000000000E+00  0.00000000000E+00  0.36644942078E+03  0.37502697512E+03  0.79749947205E+02 0.  0.
         66    2    3    3    0    0  0.23085891567E+02  0.76389536216E+01  0.33180103409E+03  0.33269691646E+03  0.19999996548E+01 0.  0.
        -13    1    3    3    0    0 -0.23085891567E+02 -0.76389536216E+01  0.34648386692E+02  0.42330058661E+02  0.10566000000E+00 0.  1.
         13    1    4    4    0    0  0.18704874734E+01  0.25253625198E+00  0.22899215866E+02  0.22977113597E+02  0.10566000000E+00 0. -1.
        -13    1    4    4    0    0  0.18447981321E+01  0.41031468851E+00  0.23166853873E+02  0.23244051298E+02  0.10566000000E+00 0.  1.
         14    1    4    4    0    0  0.19370605962E+02  0.69761026811E+01  0.28573496435E+03  0.28647575157E+03  0.00000000000E+00 0. -1.
<mgrwt>
<rscale>  0 0.79749947E+02</rscale>
<asrwt>0</asrwt>
<pdfrwt beam="1">  1        2 0.57036639E-01 0.79749947E+02</pdfrwt>
<pdfrwt beam="2">  1       -1 0.65981195E-03 0.79749947E+02</pdfrwt>
<totfact> 0.27732622E+05</totfact>
</mgrwt>
</event>
<event>
 8    1  0.1226832E-016  0.7447758E+02  0.7818608E-02  0.1345496E+00
          2   -1    0    0  501    0  0.00000000000E+00  0.00000000000E+00  0.41513876441E+03  0.41513876442E+03  0.25500000000E-02 0. -1.
         -1   -1    0    0    0  501 -0.00000000000E+00 -0.00000000000E+00 -0.33403935081E+01  0.33403973103E+01  0.50400000000E-02 0.  1.
         24    2    1    2    0    0 -0.71054273576E-14 -0.35527136788E-14  0.41179837091E+03  0.41847916173E+03  0.74477584032E+02 0.  0.
         66    2    3    3    0    0 -0.28002961624E+02 -0.23725615910E+02  0.24052529126E+03  0.24331766572E+03  0.20000013485E+01 0.  0.
        -13    1    3    3    0    0  0.28002961624E+02  0.23725615910E+02  0.17127307965E+03  0.17516149602E+03  0.10566000000E+00 0.  1.
         13    1    4    4    0    0 -0.49233647536E+01 -0.50096736833E+01  0.48066158802E+02  0.48576775695E+02  0.10566000000E+00 0. -1.
        -13    1    4    4    0    0 -0.73400955305E+01 -0.56243468908E+01  0.61263050080E+02  0.61957104108E+02  0.10566000000E+00 0.  1.
         14    1    4    4    0    0 -0.15739501340E+02 -0.13091595336E+02  0.13119608238E+03  0.13278378591E+03  0.00000000000E+00 0. -1.
<mgrwt>
<rscale>  0 0.74477584E+02</rscale>
<asrwt>0</asrwt>
<pdfrwt beam="1">  1        2 0.63867522E-01 0.74477584E+02</pdfrwt>
<pdfrwt beam="2">  1       -1 0.51390683E-03 0.74477584E+02</pdfrwt>
<totfact> 0.34474288E+05</totfact>
</mgrwt>
</event>
<event>
 8    1  0.1226832E-016  0.7954858E+02  0.7818608E-02  0.1330337E+00
          2   -1    0    0  501    0  0.00000000000E+00  0.00000000000E+00  0.64748765482E+03  0.64748765482E+03  0.25500000000E-02 0. -1.
         -1   -1    0    0    0  501 -0.00000000000E+00 -0.00000000000E+00 -0.24432779074E+01  0.24432831057E+01  0.50400000000E-02 0.  1.
         24    2    1    2    0    0 -0.35527136788E-14  0.35527136788E-14  0.64504437691E+03  0.64993093793E+03  0.79548575681E+02 0.  0.
         66    2    3    3    0    0 -0.28645156116E+02  0.18044802058E+02  0.49289987013E+03  0.49406522022E+03  0.20000009183E+01 0.  0.
        -13    1    3    3    0    0  0.28645156116E+02 -0.18044802058E+02  0.15214450677E+03  0.15586571771E+03  0.10566000000E+00 0.  1.
         13    1    4    4    0    0 -0.20602404196E+01  0.14625956055E+01  0.32908617980E+02  0.33005637063E+02  0.10566000000E+00 0. -1.
        -13    1    4    4    0    0 -0.88860367255E+01  0.63171227743E+01  0.16391311708E+03  0.16427534447E+03  0.10566000000E+00 0.  1.
         14    1    4    4    0    0 -0.17698878971E+02  0.10265083678E+02  0.29607813508E+03  0.29678423868E+03  0.00000000000E+00 0. -1.
<mgrwt>
<rscale>  0 0.79548576E+02</rscale>
<asrwt>0</asrwt>
<pdfrwt beam="1">  1        2 0.99613634E-01 0.79548576E+02</pdfrwt>
<pdfrwt beam="2">  1       -1 0.37588875E-03 0.79548576E+02</pdfrwt>
<totfact> 0.33311442E+05</totfact>
</mgrwt>
</event>
<event>
 8    1  0.1226832E-016  0.8252676E+02  0.7818608E-02  0.1322030E+00
          2   -1    0    0  501    0  0.00000000000E+00  0.00000000000E+00  0.99684252470E+03  0.99684252471E+03  0.25500000000E-02 0. -1.
         -1   -1    0    0    0  501 -0.00000000000E+00 -0.00000000000E+00 -0.17080560317E+01  0.17080634675E+01  0.50400000000E-02 0.  1.
         24    2    1    2    0    0  0.17763568394E-14  0.35527136788E-14  0.99513446867E+03  0.99855058817E+03  0.82526761746E+02 0.  0.
         66    2    3    3    0    0 -0.13771302092E+02  0.17862679139E+02  0.91559475470E+03  0.91587470699E+03  0.19999992131E+01 0.  0.
        -13    1    3    3    0    0  0.13771302092E+02 -0.17862679139E+02  0.79539713972E+02  0.82675881188E+02  0.10566000000E+00 0.  1.
         13    1    4    4    0    0 -0.87698472070E+00  0.16805616041E+01  0.73639463344E+02  0.73663933612E+02  0.10566000000E+00 0.  1.
        -13    1    4    4    0    0 -0.72994208329E+01  0.87845711425E+01  0.43656483413E+03  0.43671422669E+03  0.10566000000E+00 0.  1.
         14    1    4    4    0    0 -0.55948965385E+01  0.73975463927E+01  0.40539045723E+03  0.40549654668E+03  0.00000000000E+00 0. -1.
<mgrwt>
<rscale>  0 0.82526762E+02</rscale>
<asrwt>0</asrwt>
<pdfrwt beam="1">  1        2 0.15335993E+00 0.82526762E+02</pdfrwt>
<pdfrwt beam="2">  1       -1 0.26277921E-03 0.82526762E+02</pdfrwt>
<totfact> 0.32490127E+05</totfact>
</mgrwt>
</event>
<event>
 8    1  0.1226832E-016  0.7988059E+02  0.7818608E-02  0.1329391E+00
         -1   -1    0    0    0  501 -0.00000000000E+00  0.00000000000E+00  0.17479102665E+02  0.17479103391E+02  0.50400000000E-02 0.  1.
          2   -1    0    0  501    0  0.00000000000E+00 -0.00000000000E+00 -0.91264817833E+02  0.91264817869E+02  0.25500000000E-02 0. -1.
         24    2    1    2    0    0  0.00000000000E+00  0.22204460493E-15 -0.73785715168E+02  0.10874392126E+03  0.79880589933E+02 0.  0.
         66    2    3    3    0    0 -0.24866525709E+02  0.12118990019E+01 -0.79388778688E+02  0.83224942345E+02  0.20000116461E+01 0.  0.
        -13    1    3    3    0    0  0.24866525709E+02 -0.12118990019E+01  0.56030635201E+01  0.25518978915E+02  0.10566000000E+00 0.  1.
         13    1    4    4    0    0 -0.79519164109E+01  0.71724338410E+00 -0.28038859143E+02  0.29153665271E+02  0.10566000000E+00 0. -1.
        -13    1    4    4    0    0 -0.63142565183E+00 -0.70564668763E-01 -0.20500145001E+01  0.21488139083E+01  0.10566000000E+00 0.  1.
        -14    1    4    4    0    0 -0.16283183646E+02  0.56522028654E+00 -0.49299905046E+02  0.51922463165E+02  0.00000000000E+00 0.  1.
<mgrwt>
<rscale>  0 0.79880590E+02</rscale>
<asrwt>0</asrwt>
<pdfrwt beam="1">  1        2 0.14040741E-01 0.79880590E+02</pdfrwt>
<pdfrwt beam="2">  1       -1 0.26890928E-02 0.79880590E+02</pdfrwt>
<totfact> 0.17355110E+05</totfact>
</mgrwt>
</event>
<event>
 8    1  0.1226832E-016  0.8093699E+02  0.7818608E-02  0.1326413E+00
          2   -1    0    0  501    0  0.00000000000E+00  0.00000000000E+00  0.75389075522E+02  0.75389075565E+02  0.25500000000E-02 0. -1.
         -1   -1    0    0    0  501 -0.00000000000E+00 -0.00000000000E+00 -0.21723292367E+02  0.21723292952E+02  0.50400000000E-02 0.  1.
         24    2    1    2    0    0  0.00000000000E+00 -0.17763568394E-14  0.53665783155E+02  0.97112368517E+02  0.80936986832E+02 0.  0.
         66    2    3    3    0    0  0.38132187033E+02 -0.11605018241E+02  0.18627506180E+02  0.44042300177E+02  0.20000205154E+01 0.  0.
        -13    1    3    3    0    0 -0.38132187033E+02  0.11605018241E+02  0.35038276975E+02  0.53070068341E+02  0.10566000000E+00 0.  1.
         13    1    4    4    0    0  0.72990886485E+01 -0.22962165993E+01  0.38621930751E+01  0.85718729083E+01  0.10566000000E+00 0. -1.
        -13    1    4    4    0    0  0.13902685950E+02 -0.35894366525E+01  0.59310194007E+01  0.15535665009E+02  0.10566000000E+00 0.  1.
        -14    1    4    4    0    0  0.16930412435E+02 -0.57193649892E+01  0.88342937044E+01  0.19934762259E+02  0.00000000000E+00 0.  1.
<mgrwt>
<rscale>  0 0.80936987E+02</rscale>
<asrwt>0</asrwt>
<pdfrwt beam="1">  1        2 0.11598319E-01 0.80936987E+02</pdfrwt>
<pdfrwt beam="2">  1       -1 0.33420450E-02 0.80936987E+02</pdfrwt>
<totfact> 0.15936305E+05</totfact>
</mgrwt>
</event>
<event>
 8    1  0.1226832E-016  0.7935440E+02  0.7818608E-02  0.1330894E+00
          2   -1    0    0  501    0  0.00000000000E+00  0.00000000000E+00  0.16711614577E+04  0.16711614577E+04  0.25500000000E-02 0. -1.
         -1   -1    0    0    0  501 -0.00000000000E+00 -0.00000000000E+00 -0.94202072886E+00  0.94203421127E+00  0.50400000000E-02 0.  1.
         24    2    1    2    0    0  0.17763568394E-14 -0.88817841970E-15  0.16702194369E+04  0.16721034919E+04  0.79354395165E+02 0.  0.
         66    2    3    3    0    0 -0.13735767328E+02  0.50725867992E+01  0.16121033493E+04  0.16121710862E+04  0.20000003948E+01 0.  0.
        -13    1    3    3    0    0  0.13735767328E+02 -0.50725867992E+01  0.58116087629E+02  0.59932405644E+02  0.10566000000E+00 0.  1.
         13    1    4    4    0    0 -0.68066490935E+01  0.35218347159E+01  0.84206530967E+03  0.84210019042E+03  0.10566000000E+00 0. -1.
        -13    1    4    4    0    0 -0.67079022311E+01  0.14227682083E+01  0.74230578066E+03  0.74233745924E+03  0.10566000000E+00 0.  1.
        -14    1    4    4    0    0 -0.22121600380E+00  0.12798387499E+00  0.27732258978E+02  0.27733436578E+02  0.00000000000E+00 0.  1.
<mgrwt>
<rscale>  0 0.79354395E+02</rscale>
<asrwt>0</asrwt>
<pdfrwt beam="1">  1        2 0.25709896E+00 0.79354395E+02</pdfrwt>
<pdfrwt beam="2">  1       -1 0.14492889E-03 0.79354395E+02</pdfrwt>
<totfact> 0.32312940E+05</totfact>
</mgrwt>
</event>
<event>
 8    1  0.1226832E-016  0.8561539E+02  0.7818608E-02  0.1313831E+00
          2   -1    0    0  501    0  0.00000000000E+00  0.00000000000E+00  0.19939986175E+02  0.19939986338E+02  0.25500000000E-02 0. -1.
         -1   -1    0    0    0  501 -0.00000000000E+00 -0.00000000000E+00 -0.91900696605E+02  0.91900696743E+02  0.50400000000E-02 0.  1.
         24    2    1    2    0    0  0.71054273576E-14  0.00000000000E+00 -0.71960710430E+02  0.11184068308E+03  0.85615387324E+02 0.  0.
         66    2    3    3    0    0 -0.23141639849E+02 -0.92547152268E+01  0.94273216565E+01  0.26721894441E+02  0.20000000150E+01 0.  0.
        -13    1    3    3    0    0  0.23141639849E+02  0.92547152268E+01 -0.81388032086E+02  0.85118788641E+02  0.10566000000E+00 0.  1.
         13    1    4    4    0    0 -0.65164379209E+01 -0.27549474738E+01  0.31691998101E+01  0.77529794423E+01  0.10566000000E+00 0. -1.
        -13    1    4    4    0    0 -0.55062097463E+00  0.92758348519E-02  0.13005644207E+00  0.57562853694E+00  0.10566000000E+00 0.  1.
        -14    1    4    4    0    0 -0.16074580953E+02 -0.65090435878E+01  0.61280654043E+01  0.18393286461E+02  0.00000000000E+00 0.  1.
<mgrwt>
<rscale>  0 0.85615387E+02</rscale>
<asrwt>0</asrwt>
<pdfrwt beam="1">  1        2 0.30676902E-02 0.85615387E+02</pdfrwt>
<pdfrwt beam="2">  1       -1 0.14138569E-01 0.85615387E+02</pdfrwt>
<totfact> 0.10196671E+05</totfact>
</mgrwt>
</event>
<event>
 8    1  0.1226832E-016  0.8375800E+02  0.7818608E-02  0.1318713E+00
         -1   -1    0    0    0  501 -0.00000000000E+00  0.00000000000E+00  0.86023266337E+01  0.86023281102E+01  0.50400000000E-02 0.  1.
          2   -1    0    0  501    0  0.00000000000E+00 -0.00000000000E+00 -0.20388093099E+03  0.20388093101E+03  0.25500000000E-02 0. -1.
         24    2    1    2    0    0  0.00000000000E+00 -0.35527136788E-14 -0.19527860436E+03  0.21248325912E+03  0.83757997143E+02 0.  0.
         66    2    3    3    0    0 -0.15589492429E+02  0.16914582924E+02 -0.18640228716E+03  0.18782690982E+03  0.20000012971E+01 0.  0.
        -13    1    3    3    0    0  0.15589492429E+02 -0.16914582924E+02 -0.88763172021E+01  0.24656349300E+02  0.10566000000E+00 0.  1.
         13    1    4    4    0    0 -0.12177489604E+01  0.76200866247E+00 -0.10576867155E+02  0.10674495425E+02  0.10566000000E+00 0.  1.
        -13    1    4    4    0    0 -0.29186147352E+00  0.45178295603E+00 -0.51003615995E+01  0.51297313225E+01  0.10566000000E+00 0. -1.
         14    1    4    4    0    0 -0.14079881995E+02  0.15700791306E+02 -0.17072505840E+03  0.17202268307E+03  0.00000000000E+00 0. -1.
<mgrwt>
<rscale>  0 0.83757997E+02</rscale>
<asrwt>0</asrwt>
<pdfrwt beam="1">  1        2 0.31366294E-01 0.83757997E+02</pdfrwt>
<pdfrwt beam="2">  1       -1 0.13234351E-02 0.83757997E+02</pdfrwt>
<totfact> 0.19668365E+05</totfact>
</mgrwt>
</event>
<event>
 8    1  0.1226832E-016  0.8267778E+02  0.7818608E-02  0.1321620E+00
         -1   -1    0    0    0  501 -0.00000000000E+00  0.00000000000E+00  0.26561678999E+01  0.26561726815E+01  0.50400000000E-02 0.  1.
          2   -1    0    0  501    0  0.00000000000E+00 -0.00000000000E+00 -0.64337130660E+03  0.64337130660E+03  0.25500000000E-02 0. -1.
         24    2    1    2    0    0 -0.71054273576E-14  0.00000000000E+00 -0.64071513870E+03  0.64602747928E+03  0.82677778356E+02 0.  0.
         66    2    3    3    0    0  0.26057138333E+02 -0.20084910524E+02 -0.51581454365E+03  0.51686654132E+03  0.20000012360E+01 0.  0.
        -13    1    3    3    0    0 -0.26057138333E+02  0.20084910524E+02 -0.12490059505E+03  0.12916093797E+03  0.10566000000E+00 0.  1.
         13    1    4    4    0    0  0.79663616380E+00 -0.72306065318E+00 -0.12983166340E+02  0.13028093419E+02  0.10566000000E+00 0. -1.
        -13    1    4    4    0    0  0.68580896459E+01 -0.48616983308E+01 -0.12922405959E+03  0.12949725188E+03  0.10566000000E+00 0. -1.
         14    1    4    4    0    0  0.18402412523E+02 -0.14500151540E+02 -0.37360731772E+03  0.37434119602E+03  0.00000000000E+00 0. -1.
<mgrwt>
<rscale>  0 0.82677778E+02</rscale>
<asrwt>0</asrwt>
<pdfrwt beam="1">  1        2 0.98980077E-01 0.82677778E+02</pdfrwt>
<pdfrwt beam="2">  1       -1 0.40864210E-03 0.82677778E+02</pdfrwt>
<totfact> 0.30077556E+05</totfact>
</mgrwt>
</event>
<event>
 8    1  0.1226832E-016  0.8049268E+02  0.7818608E-02  0.1327659E+00
          2   -1    0    0  501    0  0.00000000000E+00  0.00000000000E+00  0.69587269801E+02  0.69587269848E+02  0.25500000000E-02 0. -1.
         -1   -1    0    0    0  501 -0.00000000000E+00 -0.00000000000E+00 -0.23276783929E+02  0.23276784475E+02  0.50400000000E-02 0.  1.
         24    2    1    2    0    0  0.17763568394E-14  0.35527136788E-14  0.46310485872E+02  0.92864054323E+02  0.80492679689E+02 0.  0.
         66    2    3    3    0    0 -0.12812673367E+02 -0.28667273747E+02  0.52168040097E+02  0.60921930279E+02  0.19999995967E+01 0.  0.
        -13    1    3    3    0    0  0.12812673367E+02  0.28667273747E+02 -0.58575542249E+01  0.31942124044E+02  0.10566000000E+00 0.  1.
         13    1    4    4    0    0 -0.25655375676E+01 -0.59549767731E+01  0.99728425809E+01  0.11895902007E+02  0.10566000000E+00 0. -1.
        -13    1    4    4    0    0 -0.32881766550E+01 -0.57804342520E+01  0.10811212369E+02  0.12693266041E+02  0.10566000000E+00 0.  1.
         14    1    4    4    0    0 -0.69589591446E+01 -0.16931862722E+02  0.31383985147E+02  0.36332762231E+02  0.00000000000E+00 0. -1.
<mgrwt>
<rscale>  0 0.80492680E+02</rscale>
<asrwt>0</asrwt>
<pdfrwt beam="1">  1        2 0.10705734E-01 0.80492680E+02</pdfrwt>
<pdfrwt beam="2">  1       -1 0.35810438E-02 0.80492680E+02</pdfrwt>
<totfact> 0.15857335E+05</totfact>
</mgrwt>
</event>
<event>
 8    1  0.1226832E-016  0.7917426E+02  0.7818608E-02  0.1331411E+00
          2   -1    0    0  501    0  0.00000000000E+00  0.00000000000E+00  0.14351720373E+04  0.14351720373E+04  0.25500000000E-02 0. -1.
         -1   -1    0    0    0  501 -0.00000000000E+00 -0.00000000000E+00 -0.10919474194E+01  0.10919590507E+01  0.50400000000E-02 0.  1.
         24    2    1    2    0    0  0.00000000000E+00 -0.88817841970E-15  0.14340800898E+04  0.14362639963E+04  0.79174257354E+02 0.  0.
         66    2    3    3    0    0  0.84457072118E+01 -0.63168192892E+01  0.14091968094E+04  0.14092376946E+04  0.20000002932E+01 0.  0.
        -13    1    3    3    0    0 -0.84457072118E+01  0.63168192892E+01  0.24883280424E+02  0.27026301725E+02  0.10566000000E+00 0.  1.
         13    1    4    4    0    0  0.40606482916E+01 -0.30671782028E+01  0.69754608753E+03  0.69756465782E+03  0.10566000000E+00 0. -1.
        -13    1    4    4    0    0  0.10378238310E+01 -0.15613434708E+01  0.25687070147E+03  0.25687756483E+03  0.10566000000E+00 0.  1.
        -14    1    4    4    0    0  0.33472350892E+01 -0.16882976156E+01  0.45478002041E+03  0.45479547194E+03  0.00000000000E+00 0.  1.
<mgrwt>
<rscale>  0 0.79174257E+02</rscale>
<asrwt>0</asrwt>
<pdfrwt beam="1">  1        2 0.22079686E+00 0.79174257E+02</pdfrwt>
<pdfrwt beam="2">  1       -1 0.16799192E-03 0.79174257E+02</pdfrwt>
<totfact> 0.34684797E+05</totfact>
</mgrwt>
</event>
<event>
 8    1  0.1490809E-016  0.7557302E+02  0.7818608E-02  0.1342106E+00
         -1   -1    0    0    0  501 -0.00000000000E+00  0.00000000000E+00  0.80713571288E+02  0.80713571445E+02  0.50400000000E-02 0.  1.
          2   -1    0    0  501    0  0.00000000000E+00 -0.00000000000E+00 -0.17689968185E+02  0.17689968369E+02  0.25500000000E-02 0. -1.
         24    2    1    2    0    0  0.71054273576E-14 -0.17763568394E-14  0.63023603103E+02  0.98403539814E+02  0.75573024949E+02 0.  0.
         66    2    3    3    0    0  0.25910162024E+02  0.14621465211E+02  0.12563903641E+01  0.29844634670E+02  0.19999902021E+01 0.  0.
        -13    1    3    3    0    0 -0.25910162024E+02 -0.14621465211E+02  0.61767212739E+02  0.68558905144E+02  0.10566000000E+00 0.  1.
         13    1    4    4    0    0  0.16677191476E+02  0.93178421706E+01  0.38620339124E+00  0.19107883591E+02  0.10566000000E+00 0. -1.
        -13    1    4    4    0    0  0.35597047997E+01  0.24370372996E+01 -0.40492739638E-01  0.43154898630E+01  0.10566000000E+00 0.  1.
        -14    1    4    4    0    0  0.56732657482E+01  0.28665857412E+01  0.91067971249E+00  0.64212612157E+01  0.00000000000E+00 0.  1.
<mgrwt>
<rscale>  0 0.75573025E+02</rscale>
<asrwt>0</asrwt>
<pdfrwt beam="1">  1        2 0.27215336E-02 0.75573025E+02</pdfrwt>
<pdfrwt beam="2">  1       -1 0.12417472E-01 0.75573025E+02</pdfrwt>
<totfact> 0.14264353E+05</totfact>
</mgrwt>
</event>
<event>
 8    1  0.1226832E-016  0.7805641E+02  0.7818608E-02  0.1334659E+00
         -1   -1    0    0    0  501 -0.00000000000E+00  0.00000000000E+00  0.54548450424E+01  0.54548473707E+01  0.50400000000E-02 0.  1.
          2   -1    0    0  501    0  0.00000000000E+00 -0.00000000000E+00 -0.27923805478E+03  0.27923805479E+03  0.25500000000E-02 0. -1.
         24    2    1    2    0    0  0.44408920985E-15  0.00000000000E+00 -0.27378320974E+03  0.28469290217E+03  0.78056406575E+02 0.  0.
         66    2    3    3    0    0 -0.24961020569E+01 -0.33789609516E+02 -0.20744321395E+03  0.21020146344E+03  0.19999962109E+01 0.  0.
        -13    1    3    3    0    0  0.24961020569E+01  0.33789609516E+02 -0.66339995794E+02  0.74491438721E+02  0.10566000000E+00 0.  1.
         13    1    4    4    0    0 -0.26513464239E+01 -0.25437561546E+02 -0.15598375637E+03  0.15806657645E+03  0.10566000000E+00 0. -1.
        -13    1    4    4    0    0  0.83258268967E-01 -0.33766392934E+01 -0.19598730138E+02  0.19887936342E+02  0.10566000000E+00 0. -1.
         14    1    4    4    0    0  0.71986098004E-01 -0.49754086774E+01 -0.31860727437E+02  0.32246950652E+02  0.00000000000E+00 0. -1.
<mgrwt>
<rscale>  0 0.78056407E+02</rscale>
<asrwt>0</asrwt>
<pdfrwt beam="1">  1        2 0.42959690E-01 0.78056407E+02</pdfrwt>
<pdfrwt beam="2">  1       -1 0.83920733E-03 0.78056407E+02</pdfrwt>
<totfact> 0.26494829E+05</totfact>
</mgrwt>
</event>
<event>
 8    1  0.1226832E-016  0.8114686E+02  0.7818608E-02  0.1325828E+00
          2   -1    0    0  501    0  0.00000000000E+00  0.00000000000E+00  0.27260756063E+03  0.27260756065E+03  0.25500000000E-02 0. -1.
         -1   -1    0    0    0  501 -0.00000000000E+00 -0.00000000000E+00 -0.60387280558E+01  0.60387301591E+01  0.50400000000E-02 0.  1.
         24    2    1    2    0    0  0.17763568394E-14  0.00000000000E+00  0.26656883258E+03  0.27864629081E+03  0.81146859935E+02 0.  0.
         66    2    3    3    0    0  0.13187427064E+02 -0.37165856720E+02  0.16575806643E+03  0.17039643689E+03  0.19999945458E+01 0.  0.
        -13    1    3    3    0    0 -0.13187427064E+02  0.37165856720E+02  0.10081076615E+03  0.10824985392E+03  0.10566000000E+00 0.  1.
         13    1    4    4    0    0  0.29290601621E+01 -0.65400480125E+01  0.28999637292E+02  0.29872089792E+02  0.10566000000E+00 0. -1.
        -13    1    4    4    0    0  0.16542446663E+01 -0.50606950768E+01  0.24181105214E+02  0.24760536616E+02  0.10566000000E+00 0.  1.
         14    1    4    4    0    0  0.86041222356E+01 -0.25565113631E+02  0.11257732392E+03  0.11576381048E+03  0.00000000000E+00 0. -1.
<mgrwt>
<rscale>  0 0.81146860E+02</rscale>
<asrwt>0</asrwt>
<pdfrwt beam="1">  1        2 0.41939630E-01 0.81146860E+02</pdfrwt>
<pdfrwt beam="2">  1       -1 0.92903513E-03 0.81146860E+02</pdfrwt>
<totfact> 0.23721507E+05</totfact>
</mgrwt>
</event>
<event>
 8    1  0.1226832E-016  0.7927338E+02  0.7818608E-02  0.1331126E+00
         -1   -1    0    0    0  501 -0.00000000000E+00  0.00000000000E+00  0.10480856710E+03  0.10480856722E+03  0.50400000000E-02 0.  1.
          2   -1    0    0  501    0  0.00000000000E+00 -0.00000000000E+00 -0.14989872102E+02  0.14989872319E+02  0.25500000000E-02 0. -1.
         24    2    1    2    0    0  0.00000000000E+00  0.00000000000E+00  0.89818695001E+02  0.11979843954E+03  0.79273376017E+02 0.  0.
         66    2    3    3    0    0 -0.31227342736E+02  0.24081264917E+02  0.39281854858E+02  0.55696663982E+02  0.20000008300E+01 0.  0.
        -13    1    3    3    0    0  0.31227342736E+02 -0.24081264917E+02  0.50536840143E+02  0.64101775561E+02  0.10566000000E+00 0.  1.
         13    1    4    4    0    0 -0.14347409625E+02  0.11702955164E+02  0.18544776245E+02  0.26205480582E+02  0.10566000000E+00 0. -1.
        -13    1    4    4    0    0 -0.21272767351E+01  0.11412112147E+01  0.26541716338E+01  0.35893537638E+01  0.10566000000E+00 0.  1.
        -14    1    4    4    0    0 -0.14752656375E+02  0.11237098538E+02  0.18082906978E+02  0.25901829636E+02  0.00000000000E+00 0.  1.
<mgrwt>
<rscale>  0 0.79273376E+02</rscale>
<asrwt>0</asrwt>
<pdfrwt beam="1">  1        2 0.23061342E-02 0.79273376E+02</pdfrwt>
<pdfrwt beam="2">  1       -1 0.16124395E-01 0.79273376E+02</pdfrwt>
<totfact> 0.12003849E+05</totfact>
</mgrwt>
</event>
<event>
 8    1  0.1226832E-016  0.7848200E+02  0.7818608E-02  0.1333415E+00
          2   -1    0    0  501    0  0.00000000000E+00  0.00000000000E+00  0.36366564254E+03  0.36366564255E+03  0.25500000000E-02 0. -1.
         -1   -1    0    0    0  501 -0.00000000000E+00 -0.00000000000E+00 -0.42342618494E+01  0.42342648490E+01  0.50400000000E-02 0.  1.
         24    2    1    2    0    0  0.35527136788E-14  0.00000000000E+00  0.35943138069E+03  0.36789990740E+03  0.78482000728E+02 0.  0.
         66    2    3    3    0    0 -0.29756831592E+02 -0.44783776208E+01  0.29770938739E+03  0.29923302664E+03  0.19999992701E+01 0.  0.
        -13    1    3    3    0    0  0.29756831592E+02  0.44783776208E+01  0.61721993299E+02  0.68666880761E+02  0.10566000000E+00 0.  1.
         13    1    4    4    0    0 -0.10258588952E+02 -0.12443787708E+01  0.10966457273E+03  0.11015042806E+03  0.10566000000E+00 0.  1.
        -13    1    4    4    0    0 -0.16084080309E+02 -0.26979075575E+01  0.15197670466E+03  0.15284929267E+03  0.10566000000E+00 0. -1.
        -14    1    4    4    0    0 -0.34141623308E+01 -0.53609129255E+00  0.36068109993E+02  0.36233305904E+02  0.00000000000E+00 0.  1.
<mgrwt>
<rscale>  0 0.78482001E+02</rscale>
<asrwt>0</asrwt>
<pdfrwt beam="1">  1        2 0.55948568E-01 0.78482001E+02</pdfrwt>
<pdfrwt beam="2">  1       -1 0.65142505E-03 0.78482001E+02</pdfrwt>
<totfact> 0.28721788E+05</totfact>
</mgrwt>
</event>
<event>
 8    1  0.1226832E-016  0.7853155E+02  0.7818608E-02  0.1333271E+00
         -1   -1    0    0    0  501 -0.00000000000E+00  0.00000000000E+00  0.25763006130E+01  0.25763055428E+01  0.50400000000E-02 0.  1.
          2   -1    0    0  501    0  0.00000000000E+00 -0.00000000000E+00 -0.59845478946E+03  0.59845478947E+03  0.25500000000E-02 0. -1.
         24    2    1    2    0    0  0.00000000000E+00  0.00000000000E+00 -0.59587848885E+03  0.60103109501E+03  0.78531545867E+02 0.  0.
         66    2    3    3    0    0  0.36460250411E+02 -0.93200898598E-01 -0.40915528903E+03  0.41078146147E+03  0.20000005415E+01 0.  0.
        -13    1    3    3    0    0 -0.36460250411E+02  0.93200898598E-01 -0.18672319982E+03  0.19024963354E+03  0.10566000000E+00 0.  1.
         13    1    4    4    0    0  0.11125051144E+02 -0.88880833593E-02 -0.12848488252E+03  0.12896566614E+03  0.10566000000E+00 0. -1.
        -13    1    4    4    0    0  0.23769920488E+02  0.18129835214E+00 -0.25989717565E+03  0.26098198226E+03  0.10566000000E+00 0.  1.
        -14    1    4    4    0    0  0.15652787784E+01 -0.26561116738E+00 -0.20773230858E+02  0.20833813074E+02  0.00000000000E+00 0.  1.
<mgrwt>
<rscale>  0 0.78531546E+02</rscale>
<asrwt>0</asrwt>
<pdfrwt beam="1">  1        2 0.92069857E-01 0.78531546E+02</pdfrwt>
<pdfrwt beam="2">  1       -1 0.39635480E-03 0.78531546E+02</pdfrwt>
<totfact> 0.33726336E+05</totfact>
</mgrwt>
</event>
<event>
 8    1  0.1254151E-016  0.7856744E+02  0.7818608E-02  0.1333167E+00
         -1   -1    0    0    0  501 -0.00000000000E+00  0.00000000000E+00  0.37007966087E+01  0.37008000406E+01  0.50400000000E-02 0.  1.
          2   -1    0    0  501    0  0.00000000000E+00 -0.00000000000E+00 -0.41699403356E+03  0.41699403356E+03  0.25500000000E-02 0. -1.
         24    2    1    2    0    0  0.00000000000E+00  0.00000000000E+00 -0.41329323695E+03  0.42069483360E+03  0.78567444371E+02 0.  0.
         66    2    3    3    0    0 -0.21551555206E+02  0.22929639599E+02 -0.33246639191E+03  0.33395829029E+03  0.19999994762E+01 0.  0.
        -13    1    3    3    0    0  0.21551555206E+02 -0.22929639599E+02 -0.80826845038E+02  0.86736543318E+02  0.10566000000E+00 0.  1.
         13    1    4    4    0    0 -0.15417275977E+02  0.16321227093E+02 -0.23809094406E+03  0.23914720081E+03  0.10566000000E+00 0. -1.
        -13    1    4    4    0    0 -0.54094639733E+01  0.59515408185E+01 -0.80350935139E+02  0.80752505102E+02  0.10566000000E+00 0.  1.
        -14    1    4    4    0    0 -0.72481525508E+00  0.65687168784E+00 -0.14024512716E+02  0.14058584370E+02  0.00000000000E+00 0.  1.
<mgrwt>
<rscale>  0 0.78567444E+02</rscale>
<asrwt>0</asrwt>
<pdfrwt beam="1">  1        2 0.64152891E-01 0.78567444E+02</pdfrwt>
<pdfrwt beam="2">  1       -1 0.56935392E-03 0.78567444E+02</pdfrwt>
<totfact> 0.30048531E+05</totfact>
</mgrwt>
</event>
<event>
 8    1  0.1226832E-016  0.8079241E+02  0.7818608E-02  0.1326818E+00
         -1   -1    0    0    0  501 -0.00000000000E+00  0.00000000000E+00  0.76351583133E+01  0.76351599768E+01  0.50400000000E-02 0.  1.
          2   -1    0    0  501    0  0.00000000000E+00 -0.00000000000E+00 -0.21372877320E+03  0.21372877321E+03  0.25500000000E-02 0. -1.
         24    2    1    2    0    0  0.00000000000E+00  0.00000000000E+00 -0.20609361488E+03  0.22136393319E+03  0.80792405714E+02 0.  0.
         66    2    3    3    0    0 -0.12376823336E+02  0.10518295180E+02 -0.20437635154E+03  0.20503051815E+03  0.20000037932E+01 0.  0.
        -13    1    3    3    0    0  0.12376823336E+02 -0.10518295180E+02 -0.17172633440E+01  0.16333415038E+02  0.10566000000E+00 0.  1.
         13    1    4    4    0    0 -0.46822260164E+01  0.27851485964E+01 -0.66781202995E+02  0.67003138215E+02  0.10566000000E+00 0. -1.
        -13    1    4    4    0    0 -0.14337096321E+01  0.15168583659E+01 -0.27451602455E+02  0.27531037467E+02  0.10566000000E+00 0.  1.
         14    1    4    4    0    0 -0.62608876874E+01  0.62162882175E+01 -0.11014354609E+03  0.11049634247E+03  0.00000000000E+00 0. -1.
<mgrwt>
<rscale>  0 0.80792406E+02</rscale>
<asrwt>0</asrwt>
<pdfrwt beam="1">  1        2 0.32881345E-01 0.80792406E+02</pdfrwt>
<pdfrwt beam="2">  1       -1 0.11746400E-02 0.80792406E+02</pdfrwt>
<totfact> 0.21996933E+05</totfact>
</mgrwt>
</event>
<event>
 8    1  0.1226832E-016  0.7370313E+02  0.7818608E-02  0.1347935E+00
         -1   -1    0    0    0  501 -0.00000000000E+00  0.00000000000E+00  0.13930927130E+02  0.13930928042E+02  0.50400000000E-02 0.  1.
          2   -1    0    0  501    0  0.00000000000E+00 -0.00000000000E+00 -0.97483666827E+02  0.97483666860E+02  0.25500000000E-02 0. -1.
         24    2    1    2    0    0  0.00000000000E+00 -0.35527136788E-14 -0.83552739696E+02  0.11141459490E+03  0.73703131863E+02 0.  0.
         66    2    3    3    0    0  0.84098162922E+01 -0.20572018999E+02 -0.86191919856E+02  0.89033589301E+02  0.19999999272E+01 0.  0.
        -13    1    3    3    0    0 -0.84098162922E+01  0.20572018999E+02  0.26391801592E+01  0.22381005601E+02  0.10566000000E+00 0.  1.
         13    1    4    4    0    0  0.14909276619E+01 -0.30909350071E+01 -0.12209507654E+02  0.12683059004E+02  0.10566000000E+00 0. -1.
        -13    1    4    4    0    0  0.28995782319E+01 -0.53836263190E+01 -0.23193405532E+02  0.23986167065E+02  0.10566000000E+00 0.  1.
        -14    1    4    4    0    0  0.40193103983E+01 -0.12097457672E+02 -0.50789006669E+02  0.52364363232E+02  0.00000000000E+00 0.  1.
<mgrwt>
<rscale>  0 0.73703132E+02</rscale>
<asrwt>0</asrwt>
<pdfrwt beam="1">  1        2 0.14997487E-01 0.73703132E+02</pdfrwt>
<pdfrwt beam="2">  1       -1 0.21432197E-02 0.73703132E+02</pdfrwt>
<totfact> 0.21900260E+05</totfact>
</mgrwt>
</event>
<event>
 8    1  0.1226832E-016  0.7957793E+02  0.7818608E-02  0.1330253E+00
          2   -1    0    0  501    0  0.00000000000E+00  0.00000000000E+00  0.19441879441E+02  0.19441879608E+02  0.25500000000E-02 0. -1.
         -1   -1    0    0    0  501 -0.00000000000E+00 -0.00000000000E+00 -0.81430493718E+02  0.81430493874E+02  0.50400000000E-02 0.  1.
         24    2    1    2    0    0  0.71054273576E-14  0.35527136788E-14 -0.61988614278E+02  0.10087237348E+03  0.79577933071E+02 0.  0.
         66    2    3    3    0    0  0.32836938868E+02  0.19183642729E+02 -0.45735385025E+02  0.59514722101E+02  0.20000002128E+01 0.  0.
        -13    1    3    3    0    0 -0.32836938868E+02 -0.19183642729E+02 -0.16253229253E+02  0.41357651381E+02  0.10566000000E+00 0.  1.
         13    1    4    4    0    0  0.23318515215E+02  0.13675476759E+02 -0.32457115582E+02  0.42240351944E+02  0.10566000000E+00 0. -1.
        -13    1    4    4    0    0  0.60669173025E+01  0.35769720105E+01 -0.76923280316E+01  0.10430018643E+02  0.10566000000E+00 0.  1.
        -14    1    4    4    0    0  0.34515063509E+01  0.19311939597E+01 -0.55859414111E+01  0.68443515141E+01  0.00000000000E+00 0.  1.
<mgrwt>
<rscale>  0 0.79577933E+02</rscale>
<asrwt>0</asrwt>
<pdfrwt beam="1">  1        2 0.29910584E-02 0.79577933E+02</pdfrwt>
<pdfrwt beam="2">  1       -1 0.12527768E-01 0.79577933E+02</pdfrwt>
<totfact> 0.12533907E+05</totfact>
</mgrwt>
</event>
<event>
 8    1  0.1226832E-016  0.7985110E+02  0.7818608E-02  0.1329475E+00
         -1   -1    0    0    0  501 -0.00000000000E+00  0.00000000000E+00  0.11418272737E+01  0.11418383969E+01  0.50400000000E-02 0.  1.
          2   -1    0    0  501    0  0.00000000000E+00 -0.00000000000E+00 -0.13960447259E+04  0.13960447259E+04  0.25500000000E-02 0. -1.
         24    2    1    2    0    0  0.00000000000E+00  0.00000000000E+00 -0.13949028986E+04  0.13971865643E+04  0.79851104327E+02 0.  0.
         66    2    3    3    0    0 -0.21146030367E+01 -0.18134399118E+02 -0.13186674313E+04  0.13187953299E+04  0.20000000242E+01 0.  0.
        -13    1    3    3    0    0  0.21146030367E+01  0.18134399118E+02 -0.76235467349E+02  0.78391234353E+02  0.10566000000E+00 0.  1.
         13    1    4    4    0    0 -0.36591783629E+00 -0.13054029403E+01 -0.10388286833E+03  0.10389176806E+03  0.10566000000E+00 0. -1.
        -13    1    4    4    0    0 -0.18015011065E+01 -0.99239363431E+01 -0.74326971768E+03  0.74333815609E+03  0.10566000000E+00 0.  1.
        -14    1    4    4    0    0  0.52815906106E-01 -0.69050598347E+01 -0.47151484524E+03  0.47156540577E+03  0.00000000000E+00 0.  1.
<mgrwt>
<rscale>  0 0.79851104E+02</rscale>
<asrwt>0</asrwt>
<pdfrwt beam="1">  1        2 0.21477475E+00 0.79851104E+02</pdfrwt>
<pdfrwt beam="2">  1       -1 0.17566771E-03 0.79851104E+02</pdfrwt>
<totfact> 0.34206011E+05</totfact>
</mgrwt>
</event>
<event>
 8    1  0.1226832E-016  0.8156981E+02  0.7818608E-02  0.1324655E+00
          2   -1    0    0  501    0  0.00000000000E+00  0.00000000000E+00  0.40273725677E+03  0.40273725678E+03  0.25500000000E-02 0. -1.
         -1   -1    0    0    0  501 -0.00000000000E+00 -0.00000000000E+00 -0.41302561710E+01  0.41302592460E+01  0.50400000000E-02 0.  1.
         24    2    1    2    0    0  0.71054273576E-14 -0.17763568394E-14  0.39860700060E+03  0.40686751603E+03  0.81569814694E+02 0.  0.
         66    2    3    3    0    0 -0.34595093114E+02  0.97329759381E+01  0.29534929670E+03  0.29753446582E+03  0.20000005044E+01 0.  0.
        -13    1    3    3    0    0  0.34595093114E+02 -0.97329759381E+01  0.10325770390E+03  0.10933305021E+03  0.10566000000E+00 0.  1.
         13    1    4    4    0    0 -0.84727250813E+01  0.27297035424E+01  0.74777463175E+02  0.75305501225E+02  0.10566000000E+00 0. -1.
        -13    1    4    4    0    0 -0.13625923774E+02  0.29038468934E+01  0.11146770577E+03  0.11233502891E+03  0.10566000000E+00 0.  1.
        -14    1    4    4    0    0 -0.12496444259E+02  0.40994255023E+01  0.10910412776E+03  0.10989393569E+03  0.00000000000E+00 0.  1.
<mgrwt>
<rscale>  0 0.81569815E+02</rscale>
<asrwt>0</asrwt>
<pdfrwt beam="1">  1        2 0.61959603E-01 0.81569815E+02</pdfrwt>
<pdfrwt beam="2">  1       -1 0.63542401E-03 0.81569815E+02</pdfrwt>
<totfact> 0.26918034E+05</totfact>
</mgrwt>
</event>
<event>
 8    1  0.1226832E-016  0.8122324E+02  0.7818608E-02  0.1325615E+00
          2   -1    0    0  501    0  0.00000000000E+00  0.00000000000E+00  0.96134115405E+03  0.96134115405E+03  0.25500000000E-02 0. -1.
         -1   -1    0    0    0  501 -0.00000000000E+00 -0.00000000000E+00 -0.17156240634E+01  0.17156314664E+01  0.50400000000E-02 0.  1.
         24    2    1    2    0    0  0.00000000000E+00  0.00000000000E+00  0.95962552998E+03  0.96305678552E+03  0.81223237646E+02 0.  0.
         66    2    3    3    0    0 -0.57668324839E+01 -0.17039868344E+02  0.91148678332E+03  0.91166647938E+03  0.19999987055E+01 0.  0.
        -13    1    3    3    0    0  0.57668324839E+01  0.17039868344E+02  0.48138746662E+02  0.51390306132E+02  0.10566000000E+00 0.  1.
         13    1    4    4    0    0 -0.19888235217E+01 -0.49921532615E+01  0.26977650861E+03  0.26983004424E+03  0.10566000000E+00 0. -1.
        -13    1    4    4    0    0 -0.27754984348E+01 -0.10261917665E+02  0.55665187891E+03  0.55675338868E+03  0.10566000000E+00 0.  1.
         14    1    4    4    0    0 -0.10025105274E+01 -0.17857974169E+01  0.85058395804E+02  0.85083046469E+02  0.00000000000E+00 0. -1.
<mgrwt>
<rscale>  0 0.81223238E+02</rscale>
<asrwt>0</asrwt>
<pdfrwt beam="1">  1        2 0.14789844E+00 0.81223238E+02</pdfrwt>
<pdfrwt beam="2">  1       -1 0.26394309E-03 0.81223238E+02</pdfrwt>
<totfact> 0.33795050E+05</totfact>
</mgrwt>
</event>
<event>
 8    1  0.1226832E-016  0.7995383E+02  0.7818608E-02  0.1329183E+00
          2   -1    0    0  501    0  0.00000000000E+00  0.00000000000E+00  0.10158619669E+04  0.10158619669E+04  0.25500000000E-02 0. -1.
         -1   -1    0    0    0  501 -0.00000000000E+00 -0.00000000000E+00 -0.15731956255E+01  0.15732036987E+01  0.50400000000E-02 0.  1.
         24    2    1    2    0    0  0.00000000000E+00 -0.22204460493E-15  0.10142887713E+04  0.10174351706E+04  0.79953829452E+02 0.  0.
         66    2    3    3    0    0 -0.17335117308E+02 -0.10205460589E+01  0.96532371228E+03  0.96548196115E+03  0.20000002141E+01 0.  0.
        -13    1    3    3    0    0  0.17335117308E+02  0.10205460589E+01  0.48965058975E+02  0.51953209437E+02  0.10566000000E+00 0.  1.
         13    1    4    4    0    0 -0.10387853551E+02 -0.95078079260E+00  0.58261661374E+03  0.58270999756E+03  0.10566000000E+00 0. -1.
        -13    1    4    4    0    0 -0.46225509704E+01  0.40860624143E+00  0.26973310275E+03  0.26977303946E+03  0.10566000000E+00 0.  1.
         14    1    4    4    0    0 -0.23247127862E+01 -0.47837150778E+00  0.11297399579E+03  0.11299892413E+03  0.00000000000E+00 0. -1.
<mgrwt>
<rscale>  0 0.79953829E+02</rscale>
<asrwt>0</asrwt>
<pdfrwt beam="1">  1        2 0.15628636E+00 0.79953829E+02</pdfrwt>
<pdfrwt beam="2">  1       -1 0.24203087E-03 0.79953829E+02</pdfrwt>
<totfact> 0.35304156E+05</totfact>
</mgrwt>
</event>
<event>
 8    1  0.1226832E-016  0.8122796E+02  0.7818608E-02  0.1325602E+00
          2   -1    0    0  501    0  0.00000000000E+00  0.00000000000E+00  0.22850329859E+02  0.22850330001E+02  0.25500000000E-02 0. -1.
         -1   -1    0    0    0  501 -0.00000000000E+00 -0.00000000000E+00 -0.72186942573E+02  0.72186942749E+02  0.50400000000E-02 0.  1.
         24    2    1    2    0    0 -0.17763568394E-14  0.00000000000E+00 -0.49336612714E+02  0.95037272750E+02  0.81227962289E+02 0.  0.
         66    2    3    3    0    0  0.15090373470E+02 -0.15035948271E+02  0.15740328806E+02  0.26562324093E+02  0.19999996134E+01 0.  0.
        -13    1    3    3    0    0 -0.15090373470E+02  0.15035948271E+02 -0.65076941520E+02  0.68474948656E+02  0.10566000000E+00 0.  1.
         13    1    4    4    0    0  0.59084212259E+01 -0.55071051493E+01  0.58841659182E+01  0.99936090126E+01  0.10566000000E+00 0. -1.
        -13    1    4    4    0    0  0.67845618127E+01 -0.61767959880E+01  0.63602948298E+01  0.11164569048E+02  0.10566000000E+00 0.  1.
        -14    1    4    4    0    0  0.23973904315E+01 -0.33520471339E+01  0.34958680576E+01  0.54041460329E+01  0.00000000000E+00 0.  1.
<mgrwt>
<rscale>  0 0.81227962E+02</rscale>
<asrwt>0</asrwt>
<pdfrwt beam="1">  1        2 0.35154354E-02 0.81227962E+02</pdfrwt>
<pdfrwt beam="2">  1       -1 0.11105683E-01 0.81227962E+02</pdfrwt>
<totfact> 0.12209469E+05</totfact>
</mgrwt>
</event>
<event>
 8    1  0.1226832E-016  0.8052854E+02  0.7818608E-02  0.1327558E+00
         -1   -1    0    0    0  501 -0.00000000000E+00  0.00000000000E+00  0.96228652813E+01  0.96228666012E+01  0.50400000000E-02 0.  1.
          2   -1    0    0  501    0  0.00000000000E+00 -0.00000000000E+00 -0.16847491340E+03  0.16847491342E+03  0.25500000000E-02 0. -1.
         24    2    1    2    0    0 -0.88817841970E-15 -0.71054273576E-14 -0.15885204812E+03  0.17809778002E+03  0.80528541877E+02 0.  0.
         66    2    3    3    0    0 -0.62815755425E+01 -0.38842538457E+02 -0.98110972203E+02  0.10572589009E+03  0.19999957948E+01 0.  0.
        -13    1    3    3    0    0  0.62815755425E+01  0.38842538457E+02 -0.60741075917E+02  0.72371889935E+02  0.10566000000E+00 0.  1.
         13    1    4    4    0    0 -0.84995753371E+00 -0.64877254129E+01 -0.16441587178E+02  0.17696043677E+02  0.10566000000E+00 0. -1.
        -13    1    4    4    0    0 -0.14886184253E+00 -0.34731501078E+00 -0.13711773827E+01  0.14262114203E+01  0.10566000000E+00 0.  1.
        -14    1    4    4    0    0 -0.52827561663E+01 -0.32007498033E+02 -0.80298207642E+02  0.86603634991E+02  0.00000000000E+00 0.  1.
<mgrwt>
<rscale>  0 0.80528542E+02</rscale>
<asrwt>0</asrwt>
<pdfrwt beam="1">  1        2 0.25919215E-01 0.80528542E+02</pdfrwt>
<pdfrwt beam="2">  1       -1 0.14804410E-02 0.80528542E+02</pdfrwt>
<totfact> 0.20447069E+05</totfact>
</mgrwt>
</event>
<event>
 8    1  0.1226832E-016  0.7958567E+02  0.7818608E-02  0.1330231E+00
         -1   -1    0    0    0  501 -0.00000000000E+00  0.00000000000E+00  0.10607733208E+02  0.10607734406E+02  0.50400000000E-02 0.  1.
          2   -1    0    0  501    0  0.00000000000E+00 -0.00000000000E+00 -0.14927500936E+03  0.14927500938E+03  0.25500000000E-02 0. -1.
         24    2    1    2    0    0 -0.35527136788E-14  0.88817841970E-15 -0.13866727615E+03  0.15988274379E+03  0.79585666333E+02 0.  0.
         66    2    3    3    0    0 -0.29842529400E+02  0.50453139633E+01 -0.12119986125E+03  0.12493773697E+03  0.19999995594E+01 0.  0.
        -13    1    3    3    0    0  0.29842529400E+02 -0.50453139633E+01 -0.17467414899E+02  0.34945006815E+02  0.10566000000E+00 0.  1.
         13    1    4    4    0    0 -0.21298942015E+02  0.34991173831E+01 -0.85152276763E+02  0.87845376403E+02  0.10566000000E+00 0. -1.
        -13    1    4    4    0    0 -0.67906240636E+01  0.14395102330E+01 -0.27184749622E+02  0.28057201231E+02  0.10566000000E+00 0.  1.
        -14    1    4    4    0    0 -0.17529633219E+01  0.10668634714E+00 -0.88628348659E+01  0.90351593369E+01  0.00000000000E+00 0.  1.
<mgrwt>
<rscale>  0 0.79585666E+02</rscale>
<asrwt>0</asrwt>
<pdfrwt beam="1">  1        2 0.22965385E-01 0.79585666E+02</pdfrwt>
<pdfrwt beam="2">  1       -1 0.16319592E-02 0.79585666E+02</pdfrwt>
<totfact> 0.20276199E+05</totfact>
</mgrwt>
</event>
<event>
 8    1  0.1226832E-016  0.8057375E+02  0.7818608E-02  0.1327431E+00
         -1   -1    0    0    0  501 -0.00000000000E+00  0.00000000000E+00  0.31066444188E+01  0.31066485071E+01  0.50400000000E-02 0.  1.
          2   -1    0    0  501    0  0.00000000000E+00 -0.00000000000E+00 -0.52243872337E+03  0.52243872338E+03  0.25500000000E-02 0. -1.
         24    2    1    2    0    0  0.71054273576E-14  0.00000000000E+00 -0.51933207895E+03  0.52554537189E+03  0.80573753048E+02 0.  0.
         66    2    3    3    0    0  0.37227227703E+02  0.29911819132E+00 -0.35982940544E+03  0.36175565922E+03  0.20000004878E+01 0.  0.
        -13    1    3    3    0    0 -0.37227227703E+02 -0.29911819132E+00 -0.15950267351E+03  0.16378971267E+03  0.10566000000E+00 0.  1.
         13    1    4    4    0    0  0.70689848961E+01 -0.13135007335E+00 -0.63802069212E+02  0.64192702078E+02  0.10566000000E+00 0. -1.
        -13    1    4    4    0    0  0.40264225816E+01  0.28680327866E+00 -0.43584224666E+02  0.43770882315E+02  0.10566000000E+00 0.  1.
         14    1    4    4    0    0  0.26131820225E+02  0.14366498601E+00 -0.25244311157E+03  0.25379207483E+03  0.00000000000E+00 0. -1.
<mgrwt>
<rscale>  0 0.80573753E+02</rscale>
<asrwt>0</asrwt>
<pdfrwt beam="1">  1        2 0.80375118E-01 0.80573753E+02</pdfrwt>
<pdfrwt beam="2">  1       -1 0.47794603E-03 0.80573753E+02</pdfrwt>
<totfact> 0.30305000E+05</totfact>
</mgrwt>
</event>
<event>
 8    1  0.1226832E-016  0.7882941E+02  0.7818608E-02  0.1332407E+00
         -1   -1    0    0    0  501 -0.00000000000E+00  0.00000000000E+00  0.87143367300E+01  0.87143381875E+01  0.50400000000E-02 0.  1.
          2   -1    0    0  501    0  0.00000000000E+00 -0.00000000000E+00 -0.17827159206E+03  0.17827159208E+03  0.25500000000E-02 0. -1.
         24    2    1    2    0    0 -0.35527136788E-14 -0.17763568394E-14 -0.16955725533E+03  0.18698593026E+03  0.78829406202E+02 0.  0.
         66    2    3    3    0    0  0.26831937174E+02  0.11557112501E+02 -0.14750115392E+03  0.15037988602E+03  0.20000022420E+01 0.  0.
        -13    1    3    3    0    0 -0.26831937174E+02 -0.11557112501E+02 -0.22056101403E+02  0.36606044242E+02  0.10566000000E+00 0.  1.
         13    1    4    4    0    0  0.13917520743E+01  0.35881565418E+00 -0.84927919096E+01  0.86141976391E+01  0.10566000000E+00 0. -1.
        -13    1    4    4    0    0  0.75984218347E+01  0.36793975291E+01 -0.39792139467E+02  0.40677997836E+02  0.10566000000E+00 0.  1.
         14    1    4    4    0    0  0.17841763265E+02  0.75188993178E+01 -0.99216222548E+02  0.10108769055E+03  0.00000000000E+00 0. -1.
<mgrwt>
<rscale>  0 0.78829406E+02</rscale>
<asrwt>0</asrwt>
<pdfrwt beam="1">  1        2 0.27426396E-01 0.78829406E+02</pdfrwt>
<pdfrwt beam="2">  1       -1 0.13406674E-02 0.78829406E+02</pdfrwt>
<totfact> 0.22047077E+05</totfact>
</mgrwt>
</event>
<event>
 8    1  0.1226832E-016  0.8769257E+02  0.7818608E-02  0.1308538E+00
          2   -1    0    0  501    0  0.00000000000E+00  0.00000000000E+00  0.22446494393E+02  0.22446494538E+02  0.25500000000E-02 0. -1.
         -1   -1    0    0    0  501 -0.00000000000E+00 -0.00000000000E+00 -0.85647961265E+02  0.85647961413E+02  0.50400000000E-02 0.  1.
         24    2    1    2    0    0  0.27755575616E-16  0.00000000000E+00 -0.63201466872E+02  0.10809445595E+03  0.87692565207E+02 0.  0.
         66    2    3    3    0    0  0.84552696771E-01 -0.30640807492E+02  0.70029841465E+01  0.31494571226E+02  0.19999992099E+01 0.  0.
        -13    1    3    3    0    0 -0.84552696771E-01  0.30640807492E+02 -0.70204451018E+02  0.76599884724E+02  0.10566000000E+00 0.  1.
         13    1    4    4    0    0 -0.24998210110E+00 -0.41882681479E+01  0.74541432388E+00  0.42627324194E+01  0.10566000000E+00 0. -1.
        -13    1    4    4    0    0  0.12753839402E-01 -0.67409049902E+01  0.89233101091E+00  0.68005427295E+01  0.10566000000E+00 0.  1.
         14    1    4    4    0    0  0.32178095847E+00 -0.19711634354E+02  0.53652388118E+01  0.20431296078E+02  0.00000000000E+00 0. -1.
<mgrwt>
<rscale>  0 0.87692565E+02</rscale>
<asrwt>0</asrwt>
<pdfrwt beam="1">  1        2 0.34533069E-02 0.87692565E+02</pdfrwt>
<pdfrwt beam="2">  1       -1 0.13176609E-01 0.87692565E+02</pdfrwt>
<totfact> 0.97572061E+04</totfact>
</mgrwt>
</event>
<event>
 8    1  0.1226832E-016  0.8095775E+02  0.7818608E-02  0.1326355E+00
          2   -1    0    0  501    0  0.00000000000E+00  0.00000000000E+00  0.41444688626E+03  0.41444688627E+03  0.25500000000E-02 0. -1.
         -1   -1    0    0    0  501 -0.00000000000E+00 -0.00000000000E+00 -0.39535556769E+01  0.39535588894E+01  0.50400000000E-02 0.  1.
         24    2    1    2    0    0 -0.17763568394E-14 -0.35527136788E-14  0.41049333058E+03  0.41840044516E+03  0.80957754753E+02 0.  0.
         66    2    3    3    0    0  0.10824117047E+02  0.30959679708E+02  0.32776702818E+03  0.32940990886E+03  0.20000035790E+01 0.  0.
        -13    1    3    3    0    0 -0.10824117047E+02 -0.30959679708E+02  0.82726302401E+02  0.88990536297E+02  0.10566000000E+00 0.  1.
         13    1    4    4    0    0  0.66788594118E+01  0.19895128690E+02  0.20607643510E+03  0.20714229790E+03  0.10566000000E+00 0. -1.
        -13    1    4    4    0    0  0.99910907483E+00  0.29594236049E+01  0.27699903292E+02  0.27875656287E+02  0.10566000000E+00 0.  1.
        -14    1    4    4    0    0  0.31461485605E+01  0.81051274138E+01  0.93990689789E+02  0.94391954679E+02  0.00000000000E+00 0.  1.
<mgrwt>
<rscale>  0 0.80957755E+02</rscale>
<asrwt>0</asrwt>
<pdfrwt beam="1">  1        2 0.63761058E-01 0.80957755E+02</pdfrwt>
<pdfrwt beam="2">  1       -1 0.60823960E-03 0.80957755E+02</pdfrwt>
<totfact> 0.27728658E+05</totfact>
</mgrwt>
</event>
<event>
 8    1  0.1226832E-016  0.7760835E+02  0.7818608E-02  0.1335979E+00
          2   -1    0    0  501    0  0.00000000000E+00  0.00000000000E+00  0.53240263364E+03  0.53240263364E+03  0.25500000000E-02 0. -1.
         -1   -1    0    0    0  501 -0.00000000000E+00 -0.00000000000E+00 -0.28282409597E+01  0.28282454505E+01  0.50400000000E-02 0.  1.
         24    2    1    2    0    0 -0.88817841970E-15 -0.88817841970E-15  0.52957439268E+03  0.53523087909E+03  0.77608353647E+02 0.  0.
         66    2    3    3    0    0 -0.76022350344E+01  0.76661824656E+01  0.52182548348E+03  0.52194099238E+03  0.19999964547E+01 0.  0.
        -13    1    3    3    0    0  0.76022350344E+01 -0.76661824656E+01  0.77489091993E+01  0.13289886716E+02  0.10566000000E+00 0.  1.
         13    1    4    4    0    0 -0.37075484227E+01  0.28433874995E+01  0.20707806428E+03  0.20713079596E+03  0.10566000000E+00 0. -1.
        -13    1    4    4    0    0 -0.18926405599E+01  0.21012733521E+01  0.11916955219E+03  0.11920314917E+03  0.10566000000E+00 0.  1.
         14    1    4    4    0    0 -0.20020460518E+01  0.27215216140E+01  0.19557786701E+03  0.19560704724E+03  0.00000000000E+00 0. -1.
<mgrwt>
<rscale>  0 0.77608354E+02</rscale>
<asrwt>0</asrwt>
<pdfrwt beam="1">  1        2 0.81908094E-01 0.77608354E+02</pdfrwt>
<pdfrwt beam="2">  1       -1 0.43511436E-03 0.77608354E+02</pdfrwt>
<totfact> 0.33605825E+05</totfact>
</mgrwt>
</event>
<event>
 8    1  0.1226832E-016  0.7954619E+02  0.7818608E-02  0.1330344E+00
         -1   -1    0    0    0  501 -0.00000000000E+00  0.00000000000E+00  0.42292962164E+02  0.42292962464E+02  0.50400000000E-02 0.  1.
          2   -1    0    0  501    0  0.00000000000E+00 -0.00000000000E+00 -0.37403360546E+02  0.37403360633E+02  0.25500000000E-02 0. -1.
         24    2    1    2    0    0 -0.35527136788E-14  0.00000000000E+00  0.48896016179E+01  0.79696323097E+02  0.79546186025E+02 0.  0.
         66    2    3    3    0    0 -0.20825248396E+02  0.20010664689E+02 -0.24914107082E+02  0.38194637729E+02  0.19999868701E+01 0.  0.
        -13    1    3    3    0    0  0.20825248396E+02 -0.20010664689E+02  0.29803708700E+02  0.41501685368E+02  0.10566000000E+00 0.  1.
         13    1    4    4    0    0 -0.10122375124E+02  0.95910600844E+01 -0.11809994066E+02  0.18273971532E+02  0.10566000000E+00 0. -1.
        -13    1    4    4    0    0 -0.85987042706E+01  0.85834616616E+01 -0.99198620081E+01  0.15685291056E+02  0.10566000000E+00 0.  1.
        -14    1    4    4    0    0 -0.21041690018E+01  0.18361429430E+01 -0.31842510082E+01  0.42353751402E+01  0.00000000000E+00 0.  1.
<mgrwt>
<rscale>  0 0.79546186E+02</rscale>
<asrwt>0</asrwt>
<pdfrwt beam="1">  1        2 0.57543632E-02 0.79546186E+02</pdfrwt>
<pdfrwt beam="2">  1       -1 0.65066096E-02 0.79546186E+02</pdfrwt>
<totfact> 0.14284646E+05</totfact>
</mgrwt>
</event>
<event>
 8    1  0.1226832E-016  0.7841119E+02  0.7818608E-02  0.1333622E+00
          2   -1    0    0  501    0  0.00000000000E+00  0.00000000000E+00  0.24559302194E+03  0.24559302195E+03  0.25500000000E-02 0. -1.
         -1   -1    0    0    0  501 -0.00000000000E+00 -0.00000000000E+00 -0.62586410307E+01  0.62586430601E+01  0.50400000000E-02 0.  1.
         24    2    1    2    0    0  0.00000000000E+00  0.00000000000E+00  0.23933438091E+03  0.25185166501E+03  0.78411193619E+02 0.  0.
         66    2    3    3    0    0 -0.13402143416E+02 -0.50982274349E+00  0.23798577398E+03  0.23837178103E+03  0.20000022104E+01 0.  0.
        -13    1    3    3    0    0  0.13402143416E+02  0.50982274349E+00  0.13486069266E+01  0.13479883977E+02  0.10566000000E+00 0.  1.
         13    1    4    4    0    0 -0.68441931653E+01  0.46149362563E+00  0.12283101527E+03  0.12302245905E+03  0.10566000000E+00 0. -1.
        -13    1    4    4    0    0 -0.57137479633E+01 -0.89138601268E+00  0.94183163304E+02  0.94360589754E+02  0.10566000000E+00 0.  1.
        -14    1    4    4    0    0 -0.84420228695E+00 -0.79930356439E-01  0.20971595411E+02  0.20988732226E+02  0.00000000000E+00 0.  1.
<mgrwt>
<rscale>  0 0.78411194E+02</rscale>
<asrwt>0</asrwt>
<pdfrwt beam="1">  1        2 0.37783547E-01 0.78411194E+02</pdfrwt>
<pdfrwt beam="2">  1       -1 0.96286789E-03 0.78411194E+02</pdfrwt>
<totfact> 0.25000280E+05</totfact>
</mgrwt>
</event>
<event>
 8    1  0.1249602E-016  0.7886188E+02  0.7818608E-02  0.1332313E+00
          2   -1    0    0  501    0  0.00000000000E+00  0.00000000000E+00  0.20873829196E+03  0.20873829198E+03  0.25500000000E-02 0. -1.
         -1   -1    0    0    0  501 -0.00000000000E+00 -0.00000000000E+00 -0.74485567859E+01  0.74485584910E+01  0.50400000000E-02 0.  1.
         24    2    1    2    0    0  0.00000000000E+00  0.00000000000E+00  0.20128973518E+03  0.21618685047E+03  0.78861884509E+02 0.  0.
         66    2    3    3    0    0  0.35208126194E+02 -0.91705736039E+01  0.14220083569E+03  0.14679505861E+03  0.19999980404E+01 0.  0.
        -13    1    3    3    0    0 -0.35208126194E+02  0.91705736039E+01  0.59088899489E+02  0.69391791857E+02  0.10566000000E+00 0.  1.
         13    1    4    4    0    0  0.17187495285E+02 -0.44446127223E+01  0.70220159944E+02  0.72429597562E+02  0.10566000000E+00 0. -1.
        -13    1    4    4    0    0  0.17812773792E+02 -0.47558152352E+01  0.70543501706E+02  0.72913026859E+02  0.10566000000E+00 0.  1.
        -14    1    4    4    0    0  0.20785711727E+00  0.29854353619E-01  0.14371740387E+01  0.14524341917E+01  0.00000000000E+00 0.  1.
<mgrwt>
<rscale>  0 0.78861885E+02</rscale>
<asrwt>0</asrwt>
<pdfrwt beam="1">  1        2 0.32113577E-01 0.78861885E+02</pdfrwt>
<pdfrwt beam="2">  1       -1 0.11459322E-02 0.78861885E+02</pdfrwt>
<totfact> 0.23251330E+05</totfact>
</mgrwt>
</event>
<event>
 8    1  0.1226832E-016  0.8081417E+02  0.7818608E-02  0.1326757E+00
          2   -1    0    0  501    0  0.00000000000E+00  0.00000000000E+00  0.55855196272E+03  0.55855196273E+03  0.25500000000E-02 0. -1.
         -1   -1    0    0    0  501 -0.00000000000E+00 -0.00000000000E+00 -0.29231505409E+01  0.29231548858E+01  0.50400000000E-02 0.  1.
         24    2    1    2    0    0  0.00000000000E+00  0.00000000000E+00  0.55562881218E+03  0.56147511762E+03  0.80814174335E+02 0.  0.
         66    2    3    3    0    0  0.35218362951E+02 -0.16201541457E+02  0.35655941300E+03  0.35866619304E+03  0.19999981032E+01 0.  0.
        -13    1    3    3    0    0 -0.35218362951E+02  0.16201541457E+02  0.19906939918E+03  0.20280892458E+03  0.10566000000E+00 0.  1.
         13    1    4    4    0    0  0.24945760859E+02 -0.11135430034E+02  0.25041645083E+03  0.25190216116E+03  0.10566000000E+00 0. -1.
        -13    1    4    4    0    0  0.55491384064E+01 -0.26566297220E+01  0.52360739122E+02  0.52721046878E+02  0.10566000000E+00 0.  1.
        -14    1    4    4    0    0  0.47234636855E+01 -0.24094817007E+01  0.53782223056E+02  0.54042985004E+02  0.00000000000E+00 0.  1.
<mgrwt>
<rscale>  0 0.80814174E+02</rscale>
<asrwt>0</asrwt>
<pdfrwt beam="1">  1        2 0.85931005E-01 0.80814174E+02</pdfrwt>
<pdfrwt beam="2">  1       -1 0.44971615E-03 0.80814174E+02</pdfrwt>
<totfact> 0.30687647E+05</totfact>
</mgrwt>
</event>
<event>
 8    1  0.1226832E-016  0.7961391E+02  0.7818608E-02  0.1330151E+00
          2   -1    0    0  501    0  0.00000000000E+00  0.00000000000E+00  0.46347322632E+03  0.46347322633E+03  0.25500000000E-02 0. -1.
         -1   -1    0    0    0  501 -0.00000000000E+00 -0.00000000000E+00 -0.34189518573E+01  0.34189555721E+01  0.50400000000E-02 0.  1.
         24    2    1    2    0    0 -0.17763568394E-14 -0.88817841970E-15  0.46005427446E+03  0.46689218190E+03  0.79613906242E+02 0.  0.
         66    2    3    3    0    0 -0.11756663497E+02 -0.73701652873E+01  0.44881858006E+03  0.44903747760E+03  0.20000018937E+01 0.  0.
        -13    1    3    3    0    0  0.11756663497E+02  0.73701652873E+01  0.11235694404E+02  0.17854704302E+02  0.10566000000E+00 0.  1.
         13    1    4    4    0    0 -0.29197823495E+01 -0.23854112722E+01  0.12373264624E+03  0.12379012168E+03  0.10566000000E+00 0. -1.
        -13    1    4    4    0    0 -0.76116364933E+01 -0.43414163205E+01  0.29410443490E+03  0.29423496512E+03  0.10566000000E+00 0.  1.
        -14    1    4    4    0    0 -0.12252446542E+01 -0.64333769470E+00  0.30981498918E+02  0.31012390799E+02  0.00000000000E+00 0.  1.
<mgrwt>
<rscale>  0 0.79613906E+02</rscale>
<asrwt>0</asrwt>
<pdfrwt beam="1">  1        2 0.71303596E-01 0.79613906E+02</pdfrwt>
<pdfrwt beam="2">  1       -1 0.52599272E-03 0.79613906E+02</pdfrwt>
<totfact> 0.30086522E+05</totfact>
</mgrwt>
</event>
<event>
 8    1  0.1226832E-016  0.8053765E+02  0.7818608E-02  0.1327533E+00
         -1   -1    0    0    0  501 -0.00000000000E+00  0.00000000000E+00  0.80043492453E+01  0.80043508321E+01  0.50400000000E-02 0.  1.
          2   -1    0    0  501    0  0.00000000000E+00 -0.00000000000E+00 -0.20258711567E+03  0.20258711569E+03  0.25500000000E-02 0. -1.
         24    2    1    2    0    0  0.00000000000E+00  0.00000000000E+00 -0.19458276643E+03  0.21059146652E+03  0.80537648220E+02 0.  0.
         66    2    3    3    0    0 -0.11336643824E+02 -0.26701479715E+02 -0.17028945159E+03  0.17275411960E+03  0.20000010404E+01 0.  0.
        -13    1    3    3    0    0  0.11336643824E+02  0.26701479715E+02 -0.24293314841E+02  0.37837346923E+02  0.10566000000E+00 0.  1.
         13    1    4    4    0    0 -0.83840956413E+01 -0.19447538702E+02 -0.12817730707E+03  0.12991509933E+03  0.10566000000E+00 0. -1.
        -13    1    4    4    0    0 -0.43199179522E+00 -0.16987190437E+01 -0.97974398893E+01  0.99535549288E+01  0.10566000000E+00 0.  1.
        -14    1    4    4    0    0 -0.25205563873E+01 -0.55552219701E+01 -0.32314704623E+02  0.32885465338E+02  0.00000000000E+00 0.  1.
<mgrwt>
<rscale>  0 0.80537648E+02</rscale>
<asrwt>0</asrwt>
<pdfrwt beam="1">  1        2 0.31167245E-01 0.80537648E+02</pdfrwt>
<pdfrwt beam="2">  1       -1 0.12314386E-02 0.80537648E+02</pdfrwt>
<totfact> 0.21769134E+05</totfact>
</mgrwt>
</event>
<event>
 8    1  0.1226832E-016  0.8073986E+02  0.7818608E-02  0.1326965E+00
         -1   -1    0    0    0  501 -0.00000000000E+00  0.00000000000E+00  0.50939133313E+02  0.50939133562E+02  0.50400000000E-02 0.  1.
          2   -1    0    0  501    0  0.00000000000E+00 -0.00000000000E+00 -0.31993697584E+02  0.31993697686E+02  0.25500000000E-02 0. -1.
         24    2    1    2    0    0  0.00000000000E+00  0.00000000000E+00  0.18945435728E+02  0.82932831248E+02  0.80739859821E+02 0.  0.
         66    2    3    3    0    0  0.13423241865E+02 -0.17835225429E+02 -0.25041545609E+02  0.33605917909E+02  0.20000059397E+01 0.  0.
        -13    1    3    3    0    0 -0.13423241865E+02  0.17835225429E+02  0.43986981338E+02  0.49326913339E+02  0.10566000000E+00 0.  1.
         13    1    4    4    0    0  0.27124898258E+01 -0.31306726724E+01 -0.41094765374E+01  0.58358952941E+01  0.10566000000E+00 0. -1.
        -13    1    4    4    0    0  0.49051351279E+00 -0.31081444872E+00 -0.80456704805E+00  0.99784833425E+00  0.10566000000E+00 0.  1.
         14    1    4    4    0    0  0.10220238527E+02 -0.14393738308E+02 -0.20127502024E+02  0.26772174281E+02  0.00000000000E+00 0. -1.
<mgrwt>
<rscale>  0 0.80739860E+02</rscale>
<asrwt>0</asrwt>
<pdfrwt beam="1">  1        2 0.49221073E-02 0.80739860E+02</pdfrwt>
<pdfrwt beam="2">  1       -1 0.78367898E-02 0.80739860E+02</pdfrwt>
<totfact> 0.13281367E+05</totfact>
</mgrwt>
</event>
<event>
 8    1  0.1226832E-016  0.7764709E+02  0.7818608E-02  0.1335864E+00
         -1   -1    0    0    0  501 -0.00000000000E+00  0.00000000000E+00  0.53052731385E+02  0.53052731624E+02  0.50400000000E-02 0.  1.
          2   -1    0    0  501    0  0.00000000000E+00 -0.00000000000E+00 -0.28410747900E+02  0.28410748015E+02  0.25500000000E-02 0. -1.
         24    2    1    2    0    0 -0.35527136788E-14  0.00000000000E+00  0.24641983485E+02  0.81463479639E+02  0.77647093731E+02 0.  0.
         66    2    3    3    0    0  0.16819506676E+02  0.19827495655E+02 -0.17882699558E+02  0.31619872018E+02  0.19999935451E+01 0.  0.
        -13    1    3    3    0    0 -0.16819506676E+02 -0.19827495655E+02  0.42524683042E+02  0.49843607621E+02  0.10566000000E+00 0.  1.
         13    1    4    4    0    0  0.98234156870E+01  0.11268214885E+02 -0.10972388977E+02  0.18543911301E+02  0.10566000000E+00 0. -1.
        -13    1    4    4    0    0  0.44151757894E+01  0.60945219120E+01 -0.48796132006E+01  0.89698809139E+01  0.10566000000E+00 0.  1.
        -14    1    4    4    0    0  0.25809151997E+01  0.24647588588E+01 -0.20306973803E+01  0.41060798032E+01  0.00000000000E+00 0.  1.
<mgrwt>
<rscale>  0 0.77647094E+02</rscale>
<asrwt>0</asrwt>
<pdfrwt beam="1">  1        2 0.43708844E-02 0.77647094E+02</pdfrwt>
<pdfrwt beam="2">  1       -1 0.81619586E-02 0.77647094E+02</pdfrwt>
<totfact> 0.14473740E+05</totfact>
</mgrwt>
</event>
<event>
 8    1  0.1226832E-016  0.8040169E+02  0.7818608E-02  0.1327915E+00
          2   -1    0    0  501    0  0.00000000000E+00  0.00000000000E+00  0.19313303024E+02  0.19313303192E+02  0.25500000000E-02 0. -1.
         -1   -1    0    0    0  501 -0.00000000000E+00 -0.00000000000E+00 -0.83678491752E+02  0.83678491904E+02  0.50400000000E-02 0.  1.
         24    2    1    2    0    0  0.00000000000E+00  0.00000000000E+00 -0.64365188728E+02  0.10299179510E+03  0.80401693621E+02 0.  0.
         66    2    3    3    0    0 -0.86081486702E+01 -0.36543541713E+02 -0.13880953134E+02  0.40077568788E+02  0.19999988898E+01 0.  0.
        -13    1    3    3    0    0  0.86081486702E+01  0.36543541713E+02 -0.50484235594E+02  0.62914226309E+02  0.10566000000E+00 0.  1.
         13    1    4    4    0    0 -0.19527044511E+01 -0.90398422299E+01 -0.37441653670E+01  0.99780629656E+01  0.10566000000E+00 0. -1.
        -13    1    4    4    0    0 -0.39317502402E+01 -0.19065281540E+02 -0.72819994470E+01  0.20784183894E+02  0.10566000000E+00 0.  1.
         14    1    4    4    0    0 -0.27236939789E+01 -0.84384179430E+01 -0.28547883198E+01  0.93153219280E+01  0.00000000000E+00 0. -1.
<mgrwt>
<rscale>  0 0.80401694E+02</rscale>
<asrwt>0</asrwt>
<pdfrwt beam="1">  1        2 0.29712775E-02 0.80401694E+02</pdfrwt>
<pdfrwt beam="2">  1       -1 0.12873614E-01 0.80401694E+02</pdfrwt>
<totfact> 0.12151387E+05</totfact>
</mgrwt>
</event>
<event>
 8    1  0.1226832E-016  0.8001383E+02  0.7818608E-02  0.1329012E+00
          2   -1    0    0  501    0  0.00000000000E+00  0.00000000000E+00  0.94453195993E+03  0.94453195993E+03  0.25500000000E-02 0. -1.
         -1   -1    0    0    0  501 -0.00000000000E+00 -0.00000000000E+00 -0.16945425971E+01  0.16945500922E+01  0.50400000000E-02 0.  1.
         24    2    1    2    0    0 -0.17763568394E-14  0.00000000000E+00  0.94283741733E+03  0.94622651002E+03  0.80013828506E+02 0.  0.
         66    2    3    3    0    0 -0.11867518448E+02 -0.19477660523E+02  0.86004703318E+03  0.86035174000E+03  0.19999993541E+01 0.  0.
        -13    1    3    3    0    0  0.11867518448E+02  0.19477660523E+02  0.82790384155E+02  0.85874770021E+02  0.10566000000E+00 0.  1.
         13    1    4    4    0    0 -0.82883516789E+01 -0.14601033669E+02  0.62599136954E+03  0.62621649041E+03  0.10566000000E+00 0. -1.
        -13    1    4    4    0    0 -0.77031890483E-01 -0.48281440400E-01  0.55554802306E+01  0.55572285932E+01  0.10566000000E+00 0.  1.
         14    1    4    4    0    0 -0.35021348788E+01 -0.48283454133E+01  0.22850018341E+03  0.22857802100E+03  0.00000000000E+00 0. -1.
<mgrwt>
<rscale>  0 0.80013829E+02</rscale>
<asrwt>0</asrwt>
<pdfrwt beam="1">  1        2 0.14531261E+00 0.80013829E+02</pdfrwt>
<pdfrwt beam="2">  1       -1 0.26069944E-03 0.80013829E+02</pdfrwt>
<totfact> 0.35092169E+05</totfact>
</mgrwt>
</event>
<event>
 8    1  0.1226832E-016  0.8127297E+02  0.7818608E-02  0.1325477E+00
          2   -1    0    0  501    0  0.00000000000E+00  0.00000000000E+00  0.10690309756E+03  0.10690309759E+03  0.25500000000E-02 0. -1.
         -1   -1    0    0    0  501 -0.00000000000E+00 -0.00000000000E+00 -0.15446922565E+02  0.15446923388E+02  0.50400000000E-02 0.  1.
         24    2    1    2    0    0 -0.88817841970E-15  0.00000000000E+00  0.91456174990E+02  0.12235002097E+03  0.81272970220E+02 0.  0.
         66    2    3    3    0    0 -0.53597533704E+01  0.17567668825E+02  0.10028371879E+03  0.10197143815E+03  0.20000001217E+01 0.  0.
        -13    1    3    3    0    0  0.53597533704E+01 -0.17567668825E+02 -0.88275438008E+01  0.20378582820E+02  0.10566000000E+00 0.  1.
         13    1    4    4    0    0 -0.25251985145E+01  0.59853149155E+01  0.33805691817E+02  0.34424360349E+02  0.10566000000E+00 0. -1.
        -13    1    4    4    0    0 -0.20824470055E+01  0.64189001132E+01  0.38230751060E+02  0.38821905605E+02  0.10566000000E+00 0.  1.
        -14    1    4    4    0    0 -0.75210785038E+00  0.51634537965E+01  0.28247275914E+02  0.28725172200E+02  0.00000000000E+00 0.  1.
<mgrwt>
<rscale>  0 0.81272970E+02</rscale>
<asrwt>0</asrwt>
<pdfrwt beam="1">  1        2 0.16446630E-01 0.81272970E+02</pdfrwt>
<pdfrwt beam="2">  1       -1 0.23764497E-02 0.81272970E+02</pdfrwt>
<totfact> 0.17316912E+05</totfact>
</mgrwt>
</event>
<event>
 8    1  0.1226832E-016  0.7908198E+02  0.7818608E-02  0.1331677E+00
          2   -1    0    0  501    0  0.00000000000E+00  0.00000000000E+00  0.63719297434E+03  0.63719297434E+03  0.25500000000E-02 0. -1.
         -1   -1    0    0    0  501 -0.00000000000E+00 -0.00000000000E+00 -0.24537125799E+01  0.24537177560E+01  0.50400000000E-02 0.  1.
         24    2    1    2    0    0 -0.35527136788E-14  0.88817841970E-15  0.63473926176E+03  0.63964669210E+03  0.79081984649E+02 0.  0.
         66    2    3    3    0    0 -0.19745517119E+02  0.47763299514E+01  0.59171825354E+03  0.59207025795E+03  0.20000010631E+01 0.  0.
        -13    1    3    3    0    0  0.19745517119E+02 -0.47763299514E+01  0.43021008224E+02  0.47576434154E+02  0.10566000000E+00 0.  1.
         13    1    4    4    0    0 -0.12989255269E+02  0.30574273175E+01  0.39367027545E+03  0.39389638936E+03  0.10566000000E+00 0. -1.
        -13    1    4    4    0    0 -0.17079321943E+01 -0.17176185868E-01  0.53382485651E+02  0.53409907936E+02  0.10566000000E+00 0.  1.
        -14    1    4    4    0    0 -0.50483296560E+01  0.17360788197E+01  0.14466549243E+03  0.14476396065E+03  0.00000000000E+00 0.  1.
<mgrwt>
<rscale>  0 0.79081985E+02</rscale>
<asrwt>0</asrwt>
<pdfrwt beam="1">  1        2 0.98029677E-01 0.79081985E+02</pdfrwt>
<pdfrwt beam="2">  1       -1 0.37749469E-03 0.79081985E+02</pdfrwt>
<totfact> 0.33685021E+05</totfact>
</mgrwt>
</event>
<event>
 8    1  0.1226832E-016  0.7873893E+02  0.7818608E-02  0.1332669E+00
          2   -1    0    0  501    0  0.00000000000E+00  0.00000000000E+00  0.37985969799E+03  0.37985969800E+03  0.25500000000E-02 0. -1.
         -1   -1    0    0    0  501 -0.00000000000E+00 -0.00000000000E+00 -0.40803337357E+01  0.40803368483E+01  0.50400000000E-02 0.  1.
         24    2    1    2    0    0  0.00000000000E+00  0.17763568394E-14  0.37577936426E+03  0.38394003485E+03  0.78738934200E+02 0.  0.
         66    2    3    3    0    0  0.38228751883E+02 -0.83238750294E+01  0.20824828274E+03  0.21190108924E+03  0.19999983783E+01 0.  0.
        -13    1    3    3    0    0 -0.38228751883E+02  0.83238750294E+01  0.16753108152E+03  0.17203894561E+03  0.10566000000E+00 0.  1.
         13    1    4    4    0    0  0.22883974452E+02 -0.49726649273E+01  0.12111054117E+03  0.12335387319E+03  0.10566000000E+00 0. -1.
        -13    1    4    4    0    0  0.96511113596E+01 -0.17057751382E+01  0.55670459687E+02  0.56526673926E+02  0.10566000000E+00 0.  1.
        -14    1    4    4    0    0  0.56936660711E+01 -0.16454349639E+01  0.31467281879E+02  0.32020542132E+02  0.00000000000E+00 0.  1.
<mgrwt>
<rscale>  0 0.78738934E+02</rscale>
<asrwt>0</asrwt>
<pdfrwt beam="1">  1        2 0.58439956E-01 0.78738934E+02</pdfrwt>
<pdfrwt beam="2">  1       -1 0.62774387E-03 0.78738934E+02</pdfrwt>
<totfact> 0.28920235E+05</totfact>
</mgrwt>
</event>
<event>
 8    1  0.1512735E-016  0.8026584E+02  0.7818608E-02  0.1328299E+00
          2   -1    0    0  501    0  0.00000000000E+00  0.00000000000E+00  0.32424611372E+03  0.32424611373E+03  0.25500000000E-02 0. -1.
         -1   -1    0    0    0  501 -0.00000000000E+00 -0.00000000000E+00 -0.49673717157E+01  0.49673742725E+01  0.50400000000E-02 0.  1.
         24    2    1    2    0    0  0.00000000000E+00  0.00000000000E+00  0.31927874200E+03  0.32921348800E+03  0.80265843214E+02 0.  0.
         66    2    3    3    0    0  0.32256714704E+02 -0.67704762847E+00  0.25746269329E+03  0.25948408904E+03  0.19999979162E+01 0.  0.
        -13    1    3    3    0    0 -0.32256714704E+02  0.67704762847E+00  0.61816048711E+02  0.69729398959E+02  0.10566000000E+00 0.  1.
         13    1    4    4    0    0  0.13185070576E+02 -0.61187419533E+00  0.10845807902E+03  0.10925834771E+03  0.10566000000E+00 0. -1.
        -13    1    4    4    0    0  0.12199572367E+02 -0.53194493555E+00  0.92295548891E+02  0.93099903547E+02  0.10566000000E+00 0.  1.
        -14    1    4    4    0    0  0.68720717615E+01  0.46677150240E+00  0.56709065378E+02  0.57125837779E+02  0.00000000000E+00 0.  1.
<mgrwt>
<rscale>  0 0.80265843E+02</rscale>
<asrwt>0</asrwt>
<pdfrwt beam="1">  1        2 0.49884023E-01 0.80265843E+02</pdfrwt>
<pdfrwt beam="2">  1       -1 0.76421115E-03 0.80265843E+02</pdfrwt>
<totfact> 0.25993680E+05</totfact>
</mgrwt>
</event>
<event>
 8    1  0.1226832E-016  0.7970041E+02  0.7818608E-02  0.1329904E+00
         -1   -1    0    0    0  501 -0.00000000000E+00  0.00000000000E+00  0.20178011667E+01  0.20178074611E+01  0.50400000000E-02 0.  1.
          2   -1    0    0  501    0  0.00000000000E+00 -0.00000000000E+00 -0.78701337696E+03  0.78701337697E+03  0.25500000000E-02 0. -1.
         24    2    1    2    0    0 -0.17763568394E-14 -0.35527136788E-14 -0.78499557580E+03  0.78903118443E+03  0.79700413929E+02 0.  0.
         66    2    3    3    0    0 -0.87423611321E+01 -0.23008954253E+02 -0.70269267944E+03  0.70312647695E+03  0.19999994594E+01 0.  0.
        -13    1    3    3    0    0  0.87423611321E+01  0.23008954253E+02 -0.82302896360E+02  0.85904707480E+02  0.10566000000E+00 0.  1.
         13    1    4    4    0    0 -0.39732668029E+00 -0.25499622144E+01 -0.78533593494E+02  0.78576056448E+02  0.10566000000E+00 0. -1.
        -13    1    4    4    0    0 -0.22591490816E+01 -0.62353615874E+01 -0.18351517258E+03  0.18363499998E+03  0.10566000000E+00 0. -1.
         14    1    4    4    0    0 -0.60858853703E+01 -0.14223630451E+02 -0.44064391336E+03  0.44091542052E+03  0.00000000000E+00 0. -1.
<mgrwt>
<rscale>  0 0.79700414E+02</rscale>
<asrwt>0</asrwt>
<pdfrwt beam="1">  1        2 0.12107874E+00 0.79700414E+02</pdfrwt>
<pdfrwt beam="2">  1       -1 0.31043206E-03 0.79700414E+02</pdfrwt>
<totfact> 0.34602185E+05</totfact>
</mgrwt>
</event>
<event>
 8    1  0.1226832E-016  0.7939703E+02  0.7818608E-02  0.1330771E+00
          2   -1    0    0  501    0  0.00000000000E+00  0.00000000000E+00  0.87112332209E+03  0.87112332210E+03  0.25500000000E-02 0. -1.
         -1   -1    0    0    0  501 -0.00000000000E+00 -0.00000000000E+00 -0.18091228592E+01  0.18091298796E+01  0.50400000000E-02 0.  1.
         24    2    1    2    0    0  0.35527136788E-14  0.00000000000E+00  0.86931419923E+03  0.87293245197E+03  0.79397032211E+02 0.  0.
         66    2    3    3    0    0  0.21477813308E+02 -0.52250016190E+01  0.79714618990E+03  0.79745510543E+03  0.19999994752E+01 0.  0.
        -13    1    3    3    0    0 -0.21477813308E+02  0.52250016190E+01  0.72168009328E+02  0.75477346541E+02  0.10566000000E+00 0.  1.
         13    1    4    4    0    0  0.13203014212E+02 -0.24263036320E+01  0.47886380063E+03  0.47905193586E+03  0.10566000000E+00 0. -1.
        -13    1    4    4    0    0  0.15711976088E+01 -0.36566527119E+00  0.67880562234E+02  0.67899810502E+02  0.10566000000E+00 0.  1.
        -14    1    4    4    0    0  0.67036014870E+01 -0.24330327158E+01  0.25040182704E+03  0.25050335907E+03  0.00000000000E+00 0.  1.
<mgrwt>
<rscale>  0 0.79397032E+02</rscale>
<asrwt>0</asrwt>
<pdfrwt beam="1">  1        2 0.13401895E+00 0.79397032E+02</pdfrwt>
<pdfrwt beam="2">  1       -1 0.27832718E-03 0.79397032E+02</pdfrwt>
<totfact> 0.35501169E+05</totfact>
</mgrwt>
</event>
<event>
 8    1  0.1226832E-016  0.7954748E+02  0.7818608E-02  0.1330341E+00
          2   -1    0    0  501    0  0.00000000000E+00  0.00000000000E+00  0.60326530554E+01  0.60326535943E+01  0.25500000000E-02 0. -1.
         -1   -1    0    0    0  501 -0.00000000000E+00 -0.00000000000E+00 -0.26223127960E+03  0.26223127965E+03  0.50400000000E-02 0.  1.
         24    2    1    2    0    0  0.71054273576E-14  0.11102230246E-15 -0.25619862654E+03  0.26826393324E+03  0.79547480384E+02 0.  0.
         66    2    3    3    0    0 -0.37037472437E+02  0.52632918764E+00 -0.17680475826E+03  0.18065429409E+03  0.20000108901E+01 0.  0.
        -13    1    3    3    0    0  0.37037472437E+02 -0.52632918764E+00 -0.79393868286E+02  0.87609639152E+02  0.10566000000E+00 0.  1.
         13    1    4    4    0    0 -0.12192683976E+02  0.20391731802E+00 -0.60179280074E+02  0.61402443267E+02  0.10566000000E+00 0. -1.
        -13    1    4    4    0    0 -0.43216866416E+01 -0.22678148978E+00 -0.18164332099E+02  0.18673042867E+02  0.10566000000E+00 0.  1.
        -14    1    4    4    0    0 -0.20523101820E+02  0.54919335940E+00 -0.98461146083E+02  0.10057880796E+03  0.00000000000E+00 0.  1.
<mgrwt>
<rscale>  0 0.79547480E+02</rscale>
<asrwt>0</asrwt>
<pdfrwt beam="1">  1        2 0.92810071E-03 0.79547480E+02</pdfrwt>
<pdfrwt beam="2">  1       -1 0.40343265E-01 0.79547480E+02</pdfrwt>
<totfact> 0.92362710E+04</totfact>
</mgrwt>
</event>
<event>
 8    1  0.1226832E-016  0.8057328E+02  0.7818608E-02  0.1327432E+00
          2   -1    0    0  501    0  0.00000000000E+00  0.00000000000E+00  0.23690535514E+02  0.23690535652E+02  0.25500000000E-02 0. -1.
         -1   -1    0    0    0  501 -0.00000000000E+00 -0.00000000000E+00 -0.68508937502E+02  0.68508937687E+02  0.50400000000E-02 0.  1.
         24    2    1    2    0    0  0.00000000000E+00 -0.35527136788E-14 -0.44818401988E+02  0.92199473339E+02  0.80573281721E+02 0.  0.
         66    2    3    3    0    0 -0.11523390506E+02 -0.17901885452E+02  0.16680106188E+02  0.27119955029E+02  0.19999967100E+01 0.  0.
        -13    1    3    3    0    0  0.11523390506E+02  0.17901885452E+02 -0.61498508176E+02  0.65079518309E+02  0.10566000000E+00 0.  1.
         13    1    4    4    0    0 -0.79673047501E+01 -0.11320319790E+02  0.10012633658E+02  0.17084834852E+02  0.10566000000E+00 0. -1.
        -13    1    4    4    0    0 -0.35054553260E+01 -0.65305037634E+01  0.65242166108E+01  0.98748297640E+01  0.10566000000E+00 0.  1.
         14    1    4    4    0    0 -0.50630429820E-01 -0.51061898401E-01  0.14325591977E+00  0.16029041281E+00  0.00000000000E+00 0. -1.
<mgrwt>
<rscale>  0 0.80573282E+02</rscale>
<asrwt>0</asrwt>
<pdfrwt beam="1">  1        2 0.36446978E-02 0.80573282E+02</pdfrwt>
<pdfrwt beam="2">  1       -1 0.10539837E-01 0.80573282E+02</pdfrwt>
<totfact> 0.12585025E+05</totfact>
</mgrwt>
</event>
<event>
 8    1  0.1226832E-016  0.8251149E+02  0.7818608E-02  0.1322072E+00
         -1   -1    0    0    0  501 -0.00000000000E+00  0.00000000000E+00  0.91443367333E+01  0.91443381222E+01  0.50400000000E-02 0.  1.
          2   -1    0    0  501    0  0.00000000000E+00 -0.00000000000E+00 -0.18613009147E+03  0.18613009149E+03  0.25500000000E-02 0. -1.
         24    2    1    2    0    0  0.00000000000E+00  0.35527136788E-14 -0.17698575474E+03  0.19527442961E+03  0.82511486956E+02 0.  0.
         66    2    3    3    0    0 -0.88677488964E+01  0.29555212717E+02 -0.15326614319E+03  0.15635427153E+03  0.20000018822E+01 0.  0.
        -13    1    3    3    0    0  0.88677488964E+01 -0.29555212717E+02 -0.23719611550E+02  0.38920158085E+02  0.10566000000E+00 0.  1.
         13    1    4    4    0    0 -0.17081952966E+01  0.49062610320E+01 -0.24827623224E+02  0.25365554744E+02  0.10566000000E+00 0. -1.
        -13    1    4    4    0    0 -0.58116199310E+01  0.21844304594E+02 -0.11201500061E+03  0.11427300685E+03  0.10566000000E+00 0.  1.
        -14    1    4    4    0    0 -0.13479336688E+01  0.28046470906E+01 -0.16423519353E+02  0.16715709929E+02  0.00000000000E+00 0.  1.
<mgrwt>
<rscale>  0 0.82511487E+02</rscale>
<asrwt>0</asrwt>
<pdfrwt beam="1">  1        2 0.28635396E-01 0.82511487E+02</pdfrwt>
<pdfrwt beam="2">  1       -1 0.14068213E-02 0.82511487E+02</pdfrwt>
<totfact> 0.19828451E+05</totfact>
</mgrwt>
</event>
<event>
 8    1  0.1226832E-016  0.7976368E+02  0.7818608E-02  0.1329723E+00
         -1   -1    0    0    0  501 -0.00000000000E+00  0.00000000000E+00  0.27238094382E+01  0.27238141010E+01  0.50400000000E-02 0.  1.
          2   -1    0    0  501    0  0.00000000000E+00 -0.00000000000E+00 -0.58394676730E+03  0.58394676731E+03  0.25500000000E-02 0. -1.
         24    2    1    2    0    0  0.00000000000E+00  0.00000000000E+00 -0.58122295787E+03  0.58667058141E+03  0.79763678089E+02 0.  0.
         66    2    3    3    0    0 -0.23356561003E+02  0.24671346327E+02 -0.44408232254E+03  0.44538445579E+03  0.19999986580E+01 0.  0.
        -13    1    3    3    0    0  0.23356561003E+02 -0.24671346327E+02 -0.13714063532E+03  0.14128612562E+03  0.10566000000E+00 0.  1.
         13    1    4    4    0    0 -0.28612489239E+01  0.29171715150E+01 -0.55061551189E+02  0.55213062027E+02  0.10566000000E+00 0. -1.
        -13    1    4    4    0    0 -0.12155872514E+02  0.12872758894E+02 -0.24183507404E+03  0.24248234443E+03  0.10566000000E+00 0.  1.
        -14    1    4    4    0    0 -0.83394395649E+01  0.88814159181E+01 -0.14718569731E+03  0.14768904934E+03  0.00000000000E+00 0.  1.
<mgrwt>
<rscale>  0 0.79763678E+02</rscale>
<asrwt>0</asrwt>
<pdfrwt beam="1">  1        2 0.89837865E-01 0.79763678E+02</pdfrwt>
<pdfrwt beam="2">  1       -1 0.41904843E-03 0.79763678E+02</pdfrwt>
<totfact> 0.32165168E+05</totfact>
</mgrwt>
</event>
<event>
 8    1  0.1226832E-016  0.7999909E+02  0.7818608E-02  0.1329054E+00
         -1   -1    0    0    0  501 -0.00000000000E+00  0.00000000000E+00  0.15126215606E+02  0.15126216446E+02  0.50400000000E-02 0.  1.
          2   -1    0    0  501    0  0.00000000000E+00 -0.00000000000E+00 -0.10577420048E+03  0.10577420051E+03  0.25500000000E-02 0. -1.
         24    2    1    2    0    0  0.00000000000E+00  0.00000000000E+00 -0.90647984874E+02  0.12090041696E+03  0.79999085360E+02 0.  0.
         66    2    3    3    0    0  0.15283595333E+02 -0.31577281134E+02 -0.74313739177E+02  0.82202462015E+02  0.19999901775E+01 0.  0.
        -13    1    3    3    0    0 -0.15283595333E+02  0.31577281134E+02 -0.16334245697E+02  0.38697954941E+02  0.10566000000E+00 0.  1.
         13    1    4    4    0    0  0.52864086241E+01 -0.11792022317E+02 -0.28877990397E+02  0.31637752763E+02  0.10566000000E+00 0. -1.
        -13    1    4    4    0    0  0.64694475848E+01 -0.11908899325E+02 -0.28343377638E+02  0.31417094950E+02  0.10566000000E+00 0.  1.
         14    1    4    4    0    0  0.35277391244E+01 -0.78763594923E+01 -0.17092371142E+02  0.19147614302E+02  0.00000000000E+00 0. -1.
<mgrwt>
<rscale>  0 0.79999085E+02</rscale>
<asrwt>0</asrwt>
<pdfrwt beam="1">  1        2 0.16272953E-01 0.79999085E+02</pdfrwt>
<pdfrwt beam="2">  1       -1 0.23271102E-02 0.79999085E+02</pdfrwt>
<totfact> 0.18010095E+05</totfact>
</mgrwt>
</event>
<event>
 8    1  0.1226832E-016  0.7955115E+02  0.7818608E-02  0.1330330E+00
         -1   -1    0    0    0  501 -0.00000000000E+00  0.00000000000E+00  0.37583083618E+01  0.37583117412E+01  0.50400000000E-02 0.  1.
          2   -1    0    0  501    0  0.00000000000E+00 -0.00000000000E+00 -0.42095946844E+03  0.42095946845E+03  0.25500000000E-02 0. -1.
         24    2    1    2    0    0 -0.35527136788E-14  0.00000000000E+00 -0.41720116008E+03  0.42471778019E+03  0.79551146051E+02 0.  0.
         66    2    3    3    0    0 -0.22778106881E+02 -0.32205110426E+02 -0.23493089043E+03  0.23822790472E+03  0.20000046419E+01 0.  0.
        -13    1    3    3    0    0  0.22778106881E+02  0.32205110426E+02 -0.18227026965E+03  0.18648987547E+03  0.10566000000E+00 0.  1.
         13    1    4    4    0    0 -0.11957646387E+02 -0.18095630084E+02 -0.12723182280E+03  0.12906736626E+03  0.10566000000E+00 0. -1.
        -13    1    4    4    0    0 -0.82409861302E+01 -0.11115657684E+02 -0.85472531380E+02  0.86585428813E+02  0.10566000000E+00 0.  1.
        -14    1    4    4    0    0 -0.25794743642E+01 -0.29938226583E+01 -0.22226536249E+02  0.22575109651E+02  0.00000000000E+00 0.  1.
<mgrwt>
<rscale>  0 0.79551146E+02</rscale>
<asrwt>0</asrwt>
<pdfrwt beam="1">  1        2 0.64762958E-01 0.79551146E+02</pdfrwt>
<pdfrwt beam="2">  1       -1 0.57820188E-03 0.79551146E+02</pdfrwt>
<totfact> 0.29184113E+05</totfact>
</mgrwt>
</event>
<event>
 8    1  0.1226832E-016  0.7419421E+02  0.7818608E-02  0.1346385E+00
         -1   -1    0    0    0  501 -0.00000000000E+00  0.00000000000E+00  0.14081669555E+01  0.14081759749E+01  0.50400000000E-02 0.  1.
          2   -1    0    0  501    0  0.00000000000E+00 -0.00000000000E+00 -0.97729228803E+03  0.97729228803E+03  0.25500000000E-02 0. -1.
         24    2    1    2    0    0  0.00000000000E+00  0.44408920985E-15 -0.97588412107E+03  0.97870046401E+03  0.74194207890E+02 0.  0.
         66    2    3    3    0    0  0.23426269335E+02  0.30311515296E+01 -0.86515676911E+03  0.86548149205E+03  0.19999916287E+01 0.  0.
        -13    1    3    3    0    0 -0.23426269335E+02 -0.30311515296E+01 -0.11072735196E+03  0.11321897195E+03  0.10566000000E+00 0.  1.
         13    1    4    4    0    0  0.52363387228E+01  0.31778226018E+00 -0.19512520123E+03  0.19519573650E+03  0.10566000000E+00 0. -1.
        -13    1    4    4    0    0  0.58969007351E+01  0.23806363718E+00 -0.20186552521E+03  0.20195180500E+03  0.10566000000E+00 0.  1.
        -14    1    4    4    0    0  0.12293029877E+02  0.24753056322E+01 -0.46816604268E+03  0.46833395055E+03  0.00000000000E+00 0.  1.
<mgrwt>
<rscale>  0 0.74194208E+02</rscale>
<asrwt>0</asrwt>
<pdfrwt beam="1">  1        2 0.15035212E+00 0.74194208E+02</pdfrwt>
<pdfrwt beam="2">  1       -1 0.21664255E-03 0.74194208E+02</pdfrwt>
<totfact> 0.42761350E+05</totfact>
</mgrwt>
</event>
<event>
 8    1  0.1226832E-016  0.7971783E+02  0.7818608E-02  0.1329854E+00
         -1   -1    0    0    0  501 -0.00000000000E+00  0.00000000000E+00  0.25304595321E+01  0.25304645513E+01  0.50400000000E-02 0.  1.
          2   -1    0    0  501    0  0.00000000000E+00 -0.00000000000E+00 -0.62784316047E+03  0.62784316048E+03  0.25500000000E-02 0. -1.
         24    2    1    2    0    0  0.00000000000E+00  0.00000000000E+00 -0.62531270094E+03  0.63037362503E+03  0.79717834734E+02 0.  0.
         66    2    3    3    0    0 -0.35881862736E+02  0.38229231881E+01 -0.44625516861E+03  0.44771620289E+03  0.20000003958E+01 0.  0.
        -13    1    3    3    0    0  0.35881862736E+02 -0.38229231881E+01 -0.17905753233E+03  0.18265742214E+03  0.10566000000E+00 0.  1.
         13    1    4    4    0    0 -0.91338483041E+01  0.14491143112E+01 -0.12081551341E+03  0.12116900000E+03  0.10566000000E+00 0. -1.
        -13    1    4    4    0    0 -0.64533984451E+01  0.16407277545E+00 -0.79480207321E+02  0.79742007695E+02  0.10566000000E+00 0.  1.
         14    1    4    4    0    0 -0.20294615987E+02  0.22097361015E+01 -0.24595944788E+03  0.24680519519E+03  0.00000000000E+00 0. -1.
<mgrwt>
<rscale>  0 0.79717835E+02</rscale>
<asrwt>0</asrwt>
<pdfrwt beam="1">  1        2 0.96591131E-01 0.79717835E+02</pdfrwt>
<pdfrwt beam="2">  1       -1 0.38930235E-03 0.79717835E+02</pdfrwt>
<totfact> 0.32863187E+05</totfact>
</mgrwt>
</event>
<event>
 8    1  0.1226832E-016  0.7884189E+02  0.7818608E-02  0.1332370E+00
          2   -1    0    0  501    0  0.00000000000E+00  0.00000000000E+00  0.12761157283E+03  0.12761157286E+03  0.25500000000E-02 0. -1.
         -1   -1    0    0    0  501 -0.00000000000E+00 -0.00000000000E+00 -0.12177664898E+02  0.12177665941E+02  0.50400000000E-02 0.  1.
         24    2    1    2    0    0 -0.11102230246E-15 -0.35527136788E-14  0.11543390793E+03  0.13978923880E+03  0.78841893576E+02 0.  0.
         66    2    3    3    0    0 -0.96361112033E+00 -0.11527156658E+02  0.12452466699E+03  0.12507676275E+03  0.20000007995E+01 0.  0.
        -13    1    3    3    0    0  0.96361112033E+00  0.11527156658E+02 -0.90907590625E+01  0.14712476045E+02  0.10566000000E+00 0.  1.
         13    1    4    4    0    0 -0.35757051939E+00 -0.47560083560E+01  0.51654664527E+02  0.51874492803E+02  0.10566000000E+00 0. -1.
        -13    1    4    4    0    0 -0.44699138024E+00 -0.26809097006E+01  0.36899474567E+02  0.36999587369E+02  0.10566000000E+00 0.  1.
        -14    1    4    4    0    0 -0.15904922071E+00 -0.40902386012E+01  0.35970527900E+02  0.36202682578E+02  0.00000000000E+00 0.  1.
<mgrwt>
<rscale>  0 0.78841894E+02</rscale>
<asrwt>0</asrwt>
<pdfrwt beam="1">  1        2 0.19632550E-01 0.78841894E+02</pdfrwt>
<pdfrwt beam="2">  1       -1 0.18734870E-02 0.78841894E+02</pdfrwt>
<totfact> 0.19790925E+05</totfact>
</mgrwt>
</event>
<event>
 8    1  0.1226832E-016  0.8211096E+02  0.7818608E-02  0.1323165E+00
          2   -1    0    0  501    0  0.00000000000E+00  0.00000000000E+00  0.51094879153E+03  0.51094879153E+03  0.25500000000E-02 0. -1.
         -1   -1    0    0    0  501 -0.00000000000E+00 -0.00000000000E+00 -0.32988658549E+01  0.32988697050E+01  0.50400000000E-02 0.  1.
         24    2    1    2    0    0  0.35527136788E-14  0.00000000000E+00  0.50764992567E+03  0.51424766124E+03  0.82110961840E+02 0.  0.
         66    2    3    3    0    0 -0.20021681244E+02 -0.77261484969E+01  0.47299423872E+03  0.47348506941E+03  0.20000002837E+01 0.  0.
        -13    1    3    3    0    0  0.20021681244E+02  0.77261484969E+01  0.34655686953E+02  0.40762591829E+02  0.10566000000E+00 0.  1.
         13    1    4    4    0    0 -0.10231834194E+02 -0.36075888564E+01  0.22249879082E+03  0.22276316619E+03  0.10566000000E+00 0. -1.
        -13    1    4    4    0    0 -0.63477958121E+01 -0.28724545941E+01  0.15590482677E+03  0.15606047444E+03  0.10566000000E+00 0.  1.
         14    1    4    4    0    0 -0.34420512383E+01 -0.12461050463E+01  0.94590621129E+02  0.94661428787E+02  0.00000000000E+00 0. -1.
<mgrwt>
<rscale>  0 0.82110962E+02</rscale>
<asrwt>0</asrwt>
<pdfrwt beam="1">  1        2 0.78607464E-01 0.82110962E+02</pdfrwt>
<pdfrwt beam="2">  1       -1 0.50751839E-03 0.82110962E+02</pdfrwt>
<totfact> 0.28646652E+05</totfact>
</mgrwt>
</event>
<event>
 8    1  0.1226832E-016  0.7111975E+02  0.7818608E-02  0.1356326E+00
          2   -1    0    0  501    0  0.00000000000E+00  0.00000000000E+00  0.83498853210E+02  0.83498853249E+02  0.25500000000E-02 0. -1.
         -1   -1    0    0    0  501 -0.00000000000E+00 -0.00000000000E+00 -0.15143976870E+02  0.15143977708E+02  0.50400000000E-02 0.  1.
         24    2    1    2    0    0  0.88817841970E-15  0.00000000000E+00  0.68354876341E+02  0.98642830958E+02  0.71119750982E+02 0.  0.
         66    2    3    3    0    0 -0.49608271486E+01 -0.34392735552E+02  0.44493424899E+02  0.56490131237E+02  0.20000008019E+01 0.  0.
        -13    1    3    3    0    0  0.49608271486E+01  0.34392735552E+02  0.23861451442E+02  0.42152699720E+02  0.10566000000E+00 0.  1.
         13    1    4    4    0    0 -0.87039527682E-01 -0.86767956549E+00  0.81559385235E+00  0.11986663737E+01  0.10566000000E+00 0. -1.
        -13    1    4    4    0    0 -0.22465966979E+01 -0.11310449366E+02  0.14621107664E+02  0.18621530950E+02  0.10566000000E+00 0.  1.
         14    1    4    4    0    0 -0.26271909230E+01 -0.22214606621E+02  0.29056723383E+02  0.36669933913E+02  0.00000000000E+00 0. -1.
<mgrwt>
<rscale>  0 0.71119751E+02</rscale>
<asrwt>0</asrwt>
<pdfrwt beam="1">  1        2 0.12845977E-01 0.71119751E+02</pdfrwt>
<pdfrwt beam="2">  1       -1 0.23298427E-02 0.71119751E+02</pdfrwt>
<totfact> 0.23112718E+05</totfact>
</mgrwt>
</event>
<event>
 8    1  0.1226832E-016  0.8032894E+02  0.7818608E-02  0.1328121E+00
          2   -1    0    0  501    0  0.00000000000E+00  0.00000000000E+00  0.13083077299E+02  0.13083077548E+02  0.25500000000E-02 0. -1.
         -1   -1    0    0    0  501 -0.00000000000E+00 -0.00000000000E+00 -0.12330314290E+03  0.12330314301E+03  0.50400000000E-02 0.  1.
         24    2    1    2    0    0  0.00000000000E+00  0.00000000000E+00 -0.11022006560E+03  0.13638622055E+03  0.80328938094E+02 0.  0.
         66    2    3    3    0    0  0.21128995295E+02 -0.12276517423E+02 -0.10780847014E+01  0.24541996378E+02  0.19999993484E+01 0.  0.
        -13    1    3    3    0    0 -0.21128995295E+02  0.12276517423E+02 -0.10914198090E+03  0.11184422418E+03  0.10566000000E+00 0.  1.
         13    1    4    4    0    0  0.12845956460E+02 -0.72229061062E+01 -0.65562343086E+00  0.14752287149E+02  0.10566000000E+00 0. -1.
        -13    1    4    4    0    0  0.46874263260E+01 -0.34828540901E+01 -0.52858549578E+00  0.58645379048E+01  0.10566000000E+00 0.  1.
         14    1    4    4    0    0  0.35956125083E+01 -0.15707572268E+01  0.10612422528E+00  0.39251713244E+01  0.00000000000E+00 0. -1.
<mgrwt>
<rscale>  0 0.80328938E+02</rscale>
<asrwt>0</asrwt>
<pdfrwt beam="1">  1        2 0.20127812E-02 0.80328938E+02</pdfrwt>
<pdfrwt beam="2">  1       -1 0.18969714E-01 0.80328938E+02</pdfrwt>
<totfact> 0.11197408E+05</totfact>
</mgrwt>
</event>
<event>
 8    1  0.1226832E-016  0.8011827E+02  0.7818608E-02  0.1328716E+00
         -1   -1    0    0    0  501 -0.00000000000E+00  0.00000000000E+00  0.91084198011E+01  0.91084211955E+01  0.50400000000E-02 0.  1.
          2   -1    0    0  501    0  0.00000000000E+00 -0.00000000000E+00 -0.17618138113E+03  0.17618138114E+03  0.25500000000E-02 0. -1.
         24    2    1    2    0    0  0.88817841970E-15  0.35527136788E-14 -0.16707296133E+03  0.18528980234E+03  0.80118265367E+02 0.  0.
         66    2    3    3    0    0 -0.49013682974E+01 -0.26358876244E+02 -0.15234672254E+03  0.15470080038E+03  0.20000006609E+01 0.  0.
        -13    1    3    3    0    0  0.49013682974E+01  0.26358876244E+02 -0.14726238790E+02  0.30589001961E+02  0.10566000000E+00 0.  1.
         13    1    4    4    0    0 -0.21975087889E+01 -0.77715587475E+01 -0.43076038018E+02  0.43826731404E+02  0.10566000000E+00 0. -1.
        -13    1    4    4    0    0 -0.23925185106E+01 -0.16579756785E+02 -0.96696686898E+02  0.98137010862E+02  0.10566000000E+00 0.  1.
         14    1    4    4    0    0 -0.31134099789E+00 -0.20075607112E+01 -0.12573997620E+02  0.12737058113E+02  0.00000000000E+00 0. -1.
<mgrwt>
<rscale>  0 0.80118265E+02</rscale>
<asrwt>0</asrwt>
<pdfrwt beam="1">  1        2 0.27104825E-01 0.80118265E+02</pdfrwt>
<pdfrwt beam="2">  1       -1 0.14012956E-02 0.80118265E+02</pdfrwt>
<totfact> 0.21038192E+05</totfact>
</mgrwt>
</event>
<event>
 8    1  0.1226832E-016  0.8141065E+02  0.7818608E-02  0.1325095E+00
         -1   -1    0    0    0  501 -0.00000000000E+00  0.00000000000E+00  0.82742910238E+01  0.82742925587E+01  0.50400000000E-02 0.  1.
          2   -1    0    0  501    0  0.00000000000E+00 -0.00000000000E+00 -0.20024956115E+03  0.20024956116E+03  0.25500000000E-02 0. -1.
         24    2    1    2    0    0 -0.35527136788E-14  0.00000000000E+00 -0.19197527012E+03  0.20852385372E+03  0.81410645693E+02 0.  0.
         66    2    3    3    0    0  0.22159313609E+02  0.33122525451E+02 -0.11697700707E+03  0.12359513362E+03  0.20000003895E+01 0.  0.
        -13    1    3    3    0    0 -0.22159313609E+02 -0.33122525451E+02 -0.74998263060E+02  0.84928720100E+02  0.10566000000E+00 0.  1.
         13    1    4    4    0    0  0.19552232324E+02  0.28947504469E+02 -0.10181504607E+03  0.10764089638E+03  0.10566000000E+00 0. -1.
        -13    1    4    4    0    0  0.25917884847E+01  0.40776517640E+01 -0.14480107452E+02  0.15265296831E+02  0.10566000000E+00 0. -1.
         14    1    4    4    0    0  0.15292800068E-01  0.97369218042E-01 -0.68185354418E+00  0.68894041111E+00  0.00000000000E+00 0. -1.
<mgrwt>
<rscale>  0 0.81410646E+02</rscale>
<asrwt>0</asrwt>
<pdfrwt beam="1">  1        2 0.30807621E-01 0.81410646E+02</pdfrwt>
<pdfrwt beam="2">  1       -1 0.12729681E-02 0.81410646E+02</pdfrwt>
<totfact> 0.21072537E+05</totfact>
</mgrwt>
</event>
<event>
 8    1  0.1226832E-016  0.7945079E+02  0.7818608E-02  0.1330617E+00
          2   -1    0    0  501    0  0.00000000000E+00  0.00000000000E+00  0.44055997097E+01  0.44056004477E+01  0.25500000000E-02 0. -1.
         -1   -1    0    0    0  501 -0.00000000000E+00 -0.00000000000E+00 -0.35820474038E+03  0.35820474041E+03  0.50400000000E-02 0.  1.
         24    2    1    2    0    0  0.00000000000E+00  0.00000000000E+00 -0.35379914067E+03  0.36261034086E+03  0.79450785784E+02 0.  0.
         66    2    3    3    0    0 -0.14974313635E+02  0.35378255959E+02 -0.13131453397E+03  0.13683332156E+03  0.19999983468E+01 0.  0.
        -13    1    3    3    0    0  0.14974313635E+02 -0.35378255959E+02 -0.22248460669E+03  0.22577701930E+03  0.10566000000E+00 0.  1.
         13    1    4    4    0    0 -0.29933187068E+01  0.56698526305E+01 -0.21274664164E+02  0.22220028916E+02  0.10566000000E+00 0. -1.
        -13    1    4    4    0    0 -0.72344238436E+01  0.18067662373E+02 -0.64871913251E+02  0.67728528737E+02  0.10566000000E+00 0.  1.
         14    1    4    4    0    0 -0.47465710842E+01  0.11640740956E+02 -0.45167956560E+02  0.46884763910E+02  0.00000000000E+00 0. -1.
<mgrwt>
<rscale>  0 0.79450786E+02</rscale>
<asrwt>0</asrwt>
<pdfrwt beam="1">  1        2 0.67778491E-03 0.79450786E+02</pdfrwt>
<pdfrwt beam="2">  1       -1 0.55108399E-01 0.79450786E+02</pdfrwt>
<totfact> 0.81442703E+04</totfact>
</mgrwt>
</event>
<event>
 8    1  0.1226832E-016  0.7954873E+02  0.7818608E-02  0.1330337E+00
          2   -1    0    0  501    0  0.00000000000E+00  0.00000000000E+00  0.78733990814E+02  0.78733990855E+02  0.25500000000E-02 0. -1.
         -1   -1    0    0    0  501 -0.00000000000E+00 -0.00000000000E+00 -0.20092973220E+02  0.20092973852E+02  0.50400000000E-02 0.  1.
         24    2    1    2    0    0  0.00000000000E+00  0.35527136788E-14  0.58641017593E+02  0.98826964707E+02  0.79548727261E+02 0.  0.
         66    2    3    3    0    0  0.23180515612E+02 -0.29680637416E+02  0.13540264281E+02  0.40070129744E+02  0.19999998556E+01 0.  0.
        -13    1    3    3    0    0 -0.23180515612E+02  0.29680637416E+02  0.45100753313E+02  0.58756834963E+02  0.10566000000E+00 0.  1.
         13    1    4    4    0    0  0.18630313464E+02 -0.23767389782E+02  0.10299137488E+02  0.31907064952E+02  0.10566000000E+00 0. -1.
        -13    1    4    4    0    0  0.98558620697E+00 -0.16429755093E+01  0.10239444224E+01  0.21749425075E+01  0.10566000000E+00 0.  1.
         14    1    4    4    0    0  0.35646159409E+01 -0.42702721252E+01  0.22171823707E+01  0.59881222845E+01  0.00000000000E+00 0. -1.
<mgrwt>
<rscale>  0 0.79548727E+02</rscale>
<asrwt>0</asrwt>
<pdfrwt beam="1">  1        2 0.12112922E-01 0.79548727E+02</pdfrwt>
<pdfrwt beam="2">  1       -1 0.30912267E-02 0.79548727E+02</pdfrwt>
<totfact> 0.16883135E+05</totfact>
</mgrwt>
</event>
<event>
 8    1  0.1226832E-016  0.8160885E+02  0.7818608E-02  0.1324547E+00
         -1   -1    0    0    0  501 -0.00000000000E+00  0.00000000000E+00  0.49122004652E+01  0.49122030508E+01  0.50400000000E-02 0.  1.
          2   -1    0    0  501    0  0.00000000000E+00 -0.00000000000E+00 -0.33895209824E+03  0.33895209824E+03  0.25500000000E-02 0. -1.
         24    2    1    2    0    0  0.17763568394E-14  0.00000000000E+00 -0.33403989777E+03  0.34386430130E+03  0.81608850031E+02 0.  0.
         66    2    3    3    0    0 -0.15751523769E+02 -0.10193429263E+02 -0.31968248315E+03  0.32023882734E+03  0.20000001341E+01 0.  0.
        -13    1    3    3    0    0  0.15751523769E+02  0.10193429263E+02 -0.14357414622E+02  0.23625473960E+02  0.10566000000E+00 0.  1.
         13    1    4    4    0    0 -0.14016257406E+01 -0.12276660714E+01 -0.25062688370E+02  0.25132075741E+02  0.10566000000E+00 0. -1.
        -13    1    4    4    0    0 -0.57862982538E+01 -0.39802066252E+01 -0.12797362704E+03  0.12816623453E+03  0.10566000000E+00 0.  1.
         14    1    4    4    0    0 -0.85635997742E+01 -0.49855565659E+01 -0.16664616774E+03  0.16694051706E+03  0.00000000000E+00 0. -1.
<mgrwt>
<rscale>  0 0.81608850E+02</rscale>
<asrwt>0</asrwt>
<pdfrwt beam="1">  1        2 0.52146458E-01 0.81608850E+02</pdfrwt>
<pdfrwt beam="2">  1       -1 0.75572362E-03 0.81608850E+02</pdfrwt>
<totfact> 0.25287751E+05</totfact>
</mgrwt>
</event>
<event>
 8    1  0.1226832E-016  0.7991990E+02  0.7818608E-02  0.1329279E+00
         -1   -1    0    0    0  501 -0.00000000000E+00  0.00000000000E+00  0.32062507478E+02  0.32062507874E+02  0.50400000000E-02 0.  1.
          2   -1    0    0  501    0  0.00000000000E+00 -0.00000000000E+00 -0.49802641236E+02  0.49802641301E+02  0.25500000000E-02 0. -1.
         24    2    1    2    0    0  0.00000000000E+00  0.71054273576E-14 -0.17740133758E+02  0.81865149176E+02  0.79919899298E+02 0.  0.
         66    2    3    3    0    0 -0.81795667437E+01  0.38568577891E+02 -0.23686598910E+01  0.39548085413E+02  0.19999993813E+01 0.  0.
        -13    1    3    3    0    0  0.81795667437E+01 -0.38568577891E+02 -0.15371473867E+02  0.42317063763E+02  0.10566000000E+00 0.  1.
         13    1    4    4    0    0 -0.31780823289E+01  0.13200697639E+02 -0.70964320524E+00  0.13596815177E+02  0.10566000000E+00 0. -1.
        -13    1    4    4    0    0 -0.12723737958E+01  0.86068919440E+01 -0.11109237551E+01  0.87717067687E+01  0.10566000000E+00 0.  1.
        -14    1    4    4    0    0 -0.37291106190E+01  0.16760988308E+02 -0.54809293076E+00  0.17179563468E+02  0.00000000000E+00 0.  1.
<mgrwt>
<rscale>  0 0.79919899E+02</rscale>
<asrwt>0</asrwt>
<pdfrwt beam="1">  1        2 0.76619448E-02 0.79919899E+02</pdfrwt>
<pdfrwt beam="2">  1       -1 0.49326935E-02 0.79919899E+02</pdfrwt>
<totfact> 0.14971175E+05</totfact>
</mgrwt>
</event>
<event>
 8    1  0.1226832E-016  0.7960708E+02  0.7818608E-02  0.1330170E+00
         -1   -1    0    0    0  501 -0.00000000000E+00  0.00000000000E+00  0.56356049135E+01  0.56356071672E+01  0.50400000000E-02 0.  1.
          2   -1    0    0  501    0  0.00000000000E+00 -0.00000000000E+00 -0.28112716929E+03  0.28112716930E+03  0.25500000000E-02 0. -1.
         24    2    1    2    0    0 -0.88817841970E-15 -0.17763568394E-14 -0.27549156438E+03  0.28676277647E+03  0.79607084644E+02 0.  0.
         66    2    3    3    0    0 -0.59043609838E+01 -0.89691356893E+01 -0.27580342058E+03  0.27601962554E+03  0.20000011120E+01 0.  0.
        -13    1    3    3    0    0  0.59043609838E+01  0.89691356893E+01  0.31185620220E+00  0.10743150933E+02  0.10566000000E+00 0.  1.
         13    1    4    4    0    0 -0.13426261315E+01 -0.27061120794E+01 -0.86359501811E+02  0.86412385713E+02  0.10566000000E+00 0. -1.
        -13    1    4    4    0    0 -0.34806654729E+01 -0.43990800466E+01 -0.12205837498E+03  0.12218725385E+03  0.10566000000E+00 0.  1.
         14    1    4    4    0    0 -0.10810693795E+01 -0.18639435633E+01 -0.67385543788E+02  0.67419985970E+02  0.00000000000E+00 0. -1.
<mgrwt>
<rscale>  0 0.79607085E+02</rscale>
<asrwt>0</asrwt>
<pdfrwt beam="1">  1        2 0.43250323E-01 0.79607085E+02</pdfrwt>
<pdfrwt beam="2">  1       -1 0.86701654E-03 0.79607085E+02</pdfrwt>
<totfact> 0.25225137E+05</totfact>
</mgrwt>
</event>
<event>
 8    1  0.1226832E-016  0.7953365E+02  0.7818608E-02  0.1330380E+00
          2   -1    0    0  501    0  0.00000000000E+00  0.00000000000E+00  0.71907046527E+03  0.71907046527E+03  0.25500000000E-02 0. -1.
         -1   -1    0    0    0  501 -0.00000000000E+00 -0.00000000000E+00 -0.21992255813E+01  0.21992313565E+01  0.50400000000E-02 0.  1.
         24    2    1    2    0    0  0.00000000000E+00  0.35527136788E-14  0.71687123969E+03  0.72126969663E+03  0.79533646876E+02 0.  0.
         66    2    3    3    0    0  0.22680874577E+02  0.26290075203E+02  0.53399697626E+03  0.53512835916E+03  0.19999999612E+01 0.  0.
        -13    1    3    3    0    0 -0.22680874577E+02 -0.26290075203E+02  0.18287426343E+03  0.18614133747E+03  0.10566000000E+00 0.  1.
         13    1    4    4    0    0  0.55997709869E+01  0.68374764247E+01  0.13540459845E+03  0.13569275944E+03  0.10566000000E+00 0. -1.
        -13    1    4    4    0    0  0.85384063068E+01  0.85353306447E+01  0.18170496418E+03  0.18210563259E+03  0.10566000000E+00 0.  1.
        -14    1    4    4    0    0  0.85426972835E+01  0.10917268134E+02  0.21688741363E+03  0.21732996713E+03  0.00000000000E+00 0.  1.
<mgrwt>
<rscale>  0 0.79533647E+02</rscale>
<asrwt>0</asrwt>
<pdfrwt beam="1">  1        2 0.11062630E+00 0.79533647E+02</pdfrwt>
<pdfrwt beam="2">  1       -1 0.33834260E-03 0.79533647E+02</pdfrwt>
<totfact> 0.34168664E+05</totfact>
</mgrwt>
</event>
<event>
 8    1  0.1226832E-016  0.8009863E+02  0.7818608E-02  0.1328772E+00
         -1   -1    0    0    0  501 -0.00000000000E+00  0.00000000000E+00  0.27527070447E+03  0.27527070452E+03  0.50400000000E-02 0.  1.
          2   -1    0    0  501    0  0.00000000000E+00 -0.00000000000E+00 -0.58268010508E+01  0.58268016088E+01  0.25500000000E-02 0. -1.
         24    2    1    2    0    0  0.00000000000E+00  0.88817841970E-15  0.26944390342E+03  0.28109750612E+03  0.80098632072E+02 0.  0.
         66    2    3    3    0    0 -0.38262726458E+02  0.75399015300E+01  0.10321018790E+03  0.11035048363E+03  0.20000000479E+01 0.  0.
        -13    1    3    3    0    0  0.38262726458E+02 -0.75399015300E+01  0.16623371552E+03  0.17074702249E+03  0.10566000000E+00 0.  1.
         13    1    4    4    0    0 -0.32250373583E+01  0.93719973360E+00  0.93948942368E+01  0.99776956788E+01  0.10566000000E+00 0. -1.
        -13    1    4    4    0    0 -0.82875888672E+01  0.19793731355E+01  0.21133418919E+02  0.22786719959E+02  0.10566000000E+00 0.  1.
         14    1    4    4    0    0 -0.26750100233E+02  0.46233286609E+01  0.72681874745E+02  0.77586067994E+02  0.00000000000E+00 0. -1.
<mgrwt>
<rscale>  0 0.80098632E+02</rscale>
<asrwt>0</asrwt>
<pdfrwt beam="1">  1        2 0.89643101E-03 0.80098632E+02</pdfrwt>
<pdfrwt beam="2">  1       -1 0.42349338E-01 0.80098632E+02</pdfrwt>
<totfact> 0.89118108E+04</totfact>
</mgrwt>
</event>
<event>
 8    1  0.1226832E-016  0.7854788E+02  0.7818608E-02  0.1333224E+00
          2   -1    0    0  501    0  0.00000000000E+00  0.00000000000E+00  0.11932049296E+03  0.11932049299E+03  0.25500000000E-02 0. -1.
         -1   -1    0    0    0  501 -0.00000000000E+00 -0.00000000000E+00 -0.12926883431E+02  0.12926884413E+02  0.50400000000E-02 0.  1.
         24    2    1    2    0    0 -0.71054273576E-14  0.00000000000E+00  0.10639360953E+03  0.13224737740E+03  0.78547875088E+02 0.  0.
         66    2    3    3    0    0 -0.32158878484E+02  0.10627038922E+02  0.86621473436E+02  0.93029065973E+02  0.20000084931E+01 0.  0.
        -13    1    3    3    0    0  0.32158878484E+02 -0.10627038922E+02  0.19772136096E+02  0.39218311430E+02  0.10566000000E+00 0.  1.
         13    1    4    4    0    0 -0.19888007871E+02  0.69803306876E+01  0.53776793929E+02  0.57759956742E+02  0.10566000000E+00 0. -1.
        -13    1    4    4    0    0 -0.10467512360E+02  0.34617753970E+01  0.27650136489E+02  0.29767329672E+02  0.10566000000E+00 0.  1.
        -14    1    4    4    0    0 -0.18033582528E+01  0.18493283774E+00  0.51945430185E+01  0.55017795588E+01  0.00000000000E+00 0.  1.
<mgrwt>
<rscale>  0 0.78547875E+02</rscale>
<asrwt>0</asrwt>
<pdfrwt beam="1">  1        2 0.18356999E-01 0.78547875E+02</pdfrwt>
<pdfrwt beam="2">  1       -1 0.19887513E-02 0.78547875E+02</pdfrwt>
<totfact> 0.19587931E+05</totfact>
</mgrwt>
</event>
<event>
 8    1  0.1226832E-016  0.7918592E+02  0.7818608E-02  0.1331378E+00
         -1   -1    0    0    0  501 -0.00000000000E+00  0.00000000000E+00  0.47621491439E+01  0.47621518109E+01  0.50400000000E-02 0.  1.
          2   -1    0    0  501    0  0.00000000000E+00 -0.00000000000E+00 -0.32917955201E+03  0.32917955202E+03  0.25500000000E-02 0. -1.
         24    2    1    2    0    0  0.00000000000E+00 -0.35527136788E-14 -0.32441740286E+03  0.33394170383E+03  0.79185922202E+02 0.  0.
         66    2    3    3    0    0 -0.11611667264E+02 -0.22103749253E+02 -0.29175894277E+03  0.29283218270E+03  0.19999977691E+01 0.  0.
        -13    1    3    3    0    0  0.11611667264E+02  0.22103749253E+02 -0.32658460095E+02  0.41109521130E+02  0.10566000000E+00 0.  1.
         13    1    4    4    0    0 -0.61659130375E+01 -0.11344803631E+02 -0.14414027365E+03  0.14471749274E+03  0.10566000000E+00 0. -1.
        -13    1    4    4    0    0 -0.21900080910E+01 -0.38415322525E+01 -0.60258597991E+02  0.60420719140E+02  0.10566000000E+00 0.  1.
        -14    1    4    4    0    0 -0.32557461357E+01 -0.69174133695E+01 -0.87360071127E+02  0.87693970818E+02  0.00000000000E+00 0.  1.
<mgrwt>
<rscale>  0 0.79185922E+02</rscale>
<asrwt>0</asrwt>
<pdfrwt beam="1">  1        2 0.50642990E-01 0.79185922E+02</pdfrwt>
<pdfrwt beam="2">  1       -1 0.73263880E-03 0.79185922E+02</pdfrwt>
<totfact> 0.27078762E+05</totfact>
</mgrwt>
</event>
<event>
 8    1  0.1226832E-016  0.8166306E+02  0.7818608E-02  0.1324397E+00
         -1   -1    0    0    0  501 -0.00000000000E+00  0.00000000000E+00  0.38262638149E+01  0.38262671343E+01  0.50400000000E-02 0.  1.
          2   -1    0    0  501    0  0.00000000000E+00 -0.00000000000E+00 -0.43572875854E+03  0.43572875855E+03  0.25500000000E-02 0. -1.
         24    2    1    2    0    0  0.00000000000E+00 -0.17763568394E-14 -0.43190249472E+03  0.43955502568E+03  0.81663061737E+02 0.  0.
         66    2    3    3    0    0 -0.22827762670E+02 -0.83435615001E+01 -0.39251682159E+03  0.39327366681E+03  0.20000011539E+01 0.  0.
        -13    1    3    3    0    0  0.22827762670E+02  0.83435615001E+01 -0.39385673132E+02  0.46281358873E+02  0.10566000000E+00 0.  1.
         13    1    4    4    0    0 -0.93890408156E+01 -0.39856466948E+01 -0.17553273590E+03  0.17582887136E+03  0.10566000000E+00 0. -1.
        -13    1    4    4    0    0 -0.99781743360E+01 -0.31464718435E+01 -0.16532513941E+03  0.16565589978E+03  0.10566000000E+00 0.  1.
         14    1    4    4    0    0 -0.34605475187E+01 -0.12114429619E+01 -0.51658946285E+02  0.51788895668E+02  0.00000000000E+00 0. -1.
<mgrwt>
<rscale>  0 0.81663062E+02</rscale>
<asrwt>0</asrwt>
<pdfrwt beam="1">  1        2 0.67035155E-01 0.81663062E+02</pdfrwt>
<pdfrwt beam="2">  1       -1 0.58865657E-03 0.81663062E+02</pdfrwt>
<totfact> 0.27577085E+05</totfact>
</mgrwt>
</event>
<event>
 8    1  0.1226832E-016  0.8204678E+02  0.7818608E-02  0.1323341E+00
         -1   -1    0    0    0  501 -0.00000000000E+00  0.00000000000E+00  0.50758259942E+01  0.50758284964E+01  0.50400000000E-02 0.  1.
          2   -1    0    0  501    0  0.00000000000E+00 -0.00000000000E+00 -0.33155554305E+03  0.33155554306E+03  0.25500000000E-02 0. -1.
         24    2    1    2    0    0  0.00000000000E+00  0.00000000000E+00 -0.32647971706E+03  0.33663137156E+03  0.82046783405E+02 0.  0.
         66    2    3    3    0    0 -0.26342895637E+02  0.20928394186E+02 -0.25946825353E+03  0.26164808514E+03  0.20000085831E+01 0.  0.
        -13    1    3    3    0    0  0.26342895637E+02 -0.20928394186E+02 -0.67011463527E+02  0.74983286417E+02  0.10566000000E+00 0.  1.
         13    1    4    4    0    0 -0.10978393820E+02  0.78742812682E+01 -0.10132358272E+03  0.10222039432E+03  0.10566000000E+00 0. -1.
        -13    1    4    4    0    0 -0.88621194969E+01  0.80734146239E+01 -0.92035173369E+02  0.92812722656E+02  0.10566000000E+00 0.  1.
        -14    1    4    4    0    0 -0.65023823197E+01  0.49806982942E+01 -0.66109497444E+02  0.66614968165E+02  0.00000000000E+00 0.  1.
<mgrwt>
<rscale>  0 0.82046783E+02</rscale>
<asrwt>0</asrwt>
<pdfrwt beam="1">  1        2 0.51008528E-01 0.82046783E+02</pdfrwt>
<pdfrwt beam="2">  1       -1 0.78089676E-03 0.82046783E+02</pdfrwt>
<totfact> 0.24737953E+05</totfact>
</mgrwt>
</event>
<event>
 8    1  0.1226832E-016  0.8248593E+02  0.7818608E-02  0.1322141E+00
         -1   -1    0    0    0  501 -0.00000000000E+00  0.00000000000E+00  0.16287231483E+01  0.16287309463E+01  0.50400000000E-02 0.  1.
          2   -1    0    0  501    0  0.00000000000E+00 -0.00000000000E+00 -0.10443630110E+04  0.10443630110E+04  0.25500000000E-02 0. -1.
         24    2    1    2    0    0  0.35527136788E-14  0.00000000000E+00 -0.10427342878E+04  0.10459917419E+04  0.82485933131E+02 0.  0.
         66    2    3    3    0    0 -0.23410642271E+02  0.65712123898E+01 -0.94372575540E+03  0.94404106924E+03  0.19999995493E+01 0.  0.
        -13    1    3    3    0    0  0.23410642271E+02 -0.65712123898E+01 -0.99008532403E+02  0.10195067266E+03  0.10566000000E+00 0.  1.
         13    1    4    4    0    0 -0.32181739924E+01  0.13883198714E+01 -0.13416973982E+03  0.13421555172E+03  0.10566000000E+00 0. -1.
        -13    1    4    4    0    0 -0.48485758091E+01  0.15387456426E+01 -0.21740464382E+03  0.21746417347E+03  0.10566000000E+00 0.  1.
         14    1    4    4    0    0 -0.15343892470E+02  0.36441468758E+01 -0.59215137177E+03  0.59236134406E+03  0.00000000000E+00 0. -1.
<mgrwt>
<rscale>  0 0.82485933E+02</rscale>
<asrwt>0</asrwt>
<pdfrwt beam="1">  1        2 0.16067070E+00 0.82485933E+02</pdfrwt>
<pdfrwt beam="2">  1       -1 0.25057423E-03 0.82485933E+02</pdfrwt>
<totfact> 0.32573407E+05</totfact>
</mgrwt>
</event>
<event>
 8    1  0.1254354E-016  0.8361560E+02  0.7818608E-02  0.1319093E+00
         -1   -1    0    0    0  501 -0.00000000000E+00  0.00000000000E+00  0.28496893548E+01  0.28496938117E+01  0.50400000000E-02 0.  1.
          2   -1    0    0  501    0  0.00000000000E+00 -0.00000000000E+00 -0.61336178845E+03  0.61336178846E+03  0.25500000000E-02 0. -1.
         24    2    1    2    0    0  0.00000000000E+00  0.00000000000E+00 -0.61051209910E+03  0.61621148227E+03  0.83615595053E+02 0.  0.
         66    2    3    3    0    0 -0.89393870887E+01  0.14581931581E+02 -0.58637846459E+03  0.58663127185E+03  0.20000001003E+01 0.  0.
        -13    1    3    3    0    0  0.89393870887E+01 -0.14581931581E+02 -0.24133634502E+02  0.29580210420E+02  0.10566000000E+00 0.  1.
         13    1    4    4    0    0 -0.44552406258E+01  0.63841653872E+01 -0.27737148330E+03  0.27748073383E+03  0.10566000000E+00 0. -1.
        -13    1    4    4    0    0 -0.13038387280E+01  0.14140489565E+01 -0.60861510745E+02  0.60891987848E+02  0.10566000000E+00 0.  1.
        -14    1    4    4    0    0 -0.31803077349E+01  0.67837172374E+01 -0.24814547055E+03  0.24825855017E+03  0.00000000000E+00 0.  1.
<mgrwt>
<rscale>  0 0.83615595E+02</rscale>
<asrwt>0</asrwt>
<pdfrwt beam="1">  1        2 0.94363247E-01 0.83615595E+02</pdfrwt>
<pdfrwt beam="2">  1       -1 0.43841458E-03 0.83615595E+02</pdfrwt>
<totfact> 0.28836387E+05</totfact>
</mgrwt>
</event>
<event>
 8    1  0.1226832E-016  0.7926520E+02  0.7818608E-02  0.1331150E+00
         -1   -1    0    0    0  501 -0.00000000000E+00  0.00000000000E+00  0.50519984815E+02  0.50519985066E+02  0.50400000000E-02 0.  1.
          2   -1    0    0  501    0  0.00000000000E+00 -0.00000000000E+00 -0.31091518927E+02  0.31091519032E+02  0.25500000000E-02 0. -1.
         24    2    1    2    0    0 -0.35527136788E-14  0.00000000000E+00  0.19428465887E+02  0.81611504098E+02  0.79265202418E+02 0.  0.
         66    2    3    3    0    0 -0.20287685813E+02  0.95924231990E+01 -0.23882038789E+02  0.32832248693E+02  0.19999997612E+01 0.  0.
        -13    1    3    3    0    0  0.20287685813E+02 -0.95924231990E+01  0.43310504676E+02  0.48779255405E+02  0.10566000000E+00 0.  1.
         13    1    4    4    0    0 -0.94390523397E+01  0.44730927888E+01 -0.10566919157E+02  0.14858506408E+02  0.10566000000E+00 0. -1.
        -13    1    4    4    0    0 -0.37869394549E+01  0.19436526879E+01 -0.38063389660E+01  0.57112237363E+01  0.10566000000E+00 0.  1.
         14    1    4    4    0    0 -0.70616940184E+01  0.31756777223E+01 -0.95087806658E+01  0.12262518549E+02  0.00000000000E+00 0. -1.
<mgrwt>
<rscale>  0 0.79265202E+02</rscale>
<asrwt>0</asrwt>
<pdfrwt beam="1">  1        2 0.47833106E-02 0.79265202E+02</pdfrwt>
<pdfrwt beam="2">  1       -1 0.77723054E-02 0.79265202E+02</pdfrwt>
<totfact> 0.13904692E+05</totfact>
</mgrwt>
</event>
<event>
 8    1  0.1226832E-016  0.8212474E+02  0.7818608E-02  0.1323128E+00
          2   -1    0    0  501    0  0.00000000000E+00  0.00000000000E+00  0.73939666425E+02  0.73939666468E+02  0.25500000000E-02 0. -1.
         -1   -1    0    0    0  501 -0.00000000000E+00 -0.00000000000E+00 -0.22803974065E+02  0.22803974622E+02  0.50400000000E-02 0.  1.
         24    2    1    2    0    0  0.35527136788E-14  0.00000000000E+00  0.51135692360E+02  0.96743641090E+02  0.82124740842E+02 0.  0.
         66    2    3    3    0    0 -0.30069681507E+02 -0.57484120073E+01  0.57776956336E+02  0.65417174041E+02  0.19999974079E+01 0.  0.
        -13    1    3    3    0    0  0.30069681507E+02  0.57484120073E+01 -0.66412639760E+01  0.31326467049E+02  0.10566000000E+00 0.  1.
         13    1    4    4    0    0 -0.39691802899E+01 -0.44728983475E+00  0.75594998499E+01  0.85505357953E+01  0.10566000000E+00 0. -1.
        -13    1    4    4    0    0 -0.20110394545E+02 -0.47779425616E+01  0.39024952843E+02  0.44161236535E+02  0.10566000000E+00 0.  1.
        -14    1    4    4    0    0 -0.59901066720E+01 -0.52317961088E+00  0.11192503643E+02  0.12705401711E+02  0.00000000000E+00 0.  1.
<mgrwt>
<rscale>  0 0.82124741E+02</rscale>
<asrwt>0</asrwt>
<pdfrwt beam="1">  1        2 0.11375333E-01 0.82124741E+02</pdfrwt>
<pdfrwt beam="2">  1       -1 0.35083038E-02 0.82124741E+02</pdfrwt>
<totfact> 0.15245136E+05</totfact>
</mgrwt>
</event>
<event>
 8    1  0.1226832E-016  0.8020303E+02  0.7818608E-02  0.1328476E+00
         -1   -1    0    0    0  501 -0.00000000000E+00  0.00000000000E+00  0.28470530077E+01  0.28470574687E+01  0.50400000000E-02 0.  1.
          2   -1    0    0  501    0  0.00000000000E+00 -0.00000000000E+00 -0.56484030118E+03  0.56484030118E+03  0.25500000000E-02 0. -1.
         24    2    1    2    0    0  0.00000000000E+00  0.71054273576E-14 -0.56199324817E+03  0.56768735865E+03  0.80203031020E+02 0.  0.
         66    2    3    3    0    0  0.17290740041E+02  0.35620745116E+02 -0.32498637737E+03  0.32739571264E+03  0.20000009315E+01 0.  0.
        -13    1    3    3    0    0 -0.17290740041E+02 -0.35620745116E+02 -0.23700687080E+03  0.24029164601E+03  0.10566000000E+00 0.  1.
         13    1    4    4    0    0  0.61592080773E+01  0.12686016240E+02 -0.11803050295E+03  0.11887001995E+03  0.10566000000E+00 0. -1.
        -13    1    4    4    0    0  0.53555265829E+01  0.10550797930E+02 -0.90145660144E+02  0.90918932070E+02  0.10566000000E+00 0.  1.
        -14    1    4    4    0    0  0.57760053812E+01  0.12383930947E+02 -0.11681021428E+03  0.11760676062E+03  0.00000000000E+00 0.  1.
<mgrwt>
<rscale>  0 0.80203031E+02</rscale>
<asrwt>0</asrwt>
<pdfrwt beam="1">  1        2 0.86898419E-01 0.80203031E+02</pdfrwt>
<pdfrwt beam="2">  1       -1 0.43800895E-03 0.80203031E+02</pdfrwt>
<totfact> 0.31404266E+05</totfact>
</mgrwt>
</event>
<event>
 8    1  0.1226832E-016  0.8011846E+02  0.7818608E-02  0.1328716E+00
          2   -1    0    0  501    0  0.00000000000E+00  0.00000000000E+00  0.55316824553E+03  0.55316824553E+03  0.25500000000E-02 0. -1.
         -1   -1    0    0    0  501 -0.00000000000E+00 -0.00000000000E+00 -0.29009995267E+01  0.29010039047E+01  0.50400000000E-02 0.  1.
         24    2    1    2    0    0  0.35527136788E-14  0.00000000000E+00  0.55026724600E+03  0.55606924944E+03  0.80118463223E+02 0.  0.
         66    2    3    3    0    0  0.23544454701E+02  0.17236287811E+02  0.46554586171E+03  0.46646369669E+03  0.20000003478E+01 0.  0.
        -13    1    3    3    0    0 -0.23544454701E+02 -0.17236287811E+02  0.84721384284E+02  0.89605552750E+02  0.10566000000E+00 0.  1.
         13    1    4    4    0    0  0.42967271948E+01  0.24891988890E+01  0.79971505230E+02  0.80125593842E+02  0.10566000000E+00 0. -1.
        -13    1    4    4    0    0  0.74367273248E+00  0.33935553691E+00  0.11795920381E+02  0.11824682363E+02  0.10566000000E+00 0.  1.
         14    1    4    4    0    0  0.18504054773E+02  0.14407733385E+02  0.37377843610E+03  0.37451342048E+03  0.00000000000E+00 0. -1.
<mgrwt>
<rscale>  0 0.80118463E+02</rscale>
<asrwt>0</asrwt>
<pdfrwt beam="1">  1        2 0.85102858E-01 0.80118463E+02</pdfrwt>
<pdfrwt beam="2">  1       -1 0.44630769E-03 0.80118463E+02</pdfrwt>
<totfact> 0.31296285E+05</totfact>
</mgrwt>
</event>
<event>
 8    1  0.1226832E-016  0.7884606E+02  0.7818608E-02  0.1332358E+00
         -1   -1    0    0    0  501 -0.00000000000E+00  0.00000000000E+00  0.18401217434E+02  0.18401218125E+02  0.50400000000E-02 0.  1.
          2   -1    0    0  501    0  0.00000000000E+00 -0.00000000000E+00 -0.84460455658E+02  0.84460455696E+02  0.25500000000E-02 0. -1.
         24    2    1    2    0    0 -0.35527136788E-14  0.35527136788E-14 -0.66059238223E+02  0.10286167382E+03  0.78846058789E+02 0.  0.
         66    2    3    3    0    0 -0.24642714334E+02  0.29913355802E+02 -0.42284691703E+02  0.57393966034E+02  0.19999899029E+01 0.  0.
        -13    1    3    3    0    0  0.24642714334E+02 -0.29913355802E+02 -0.23774546521E+02  0.45467707787E+02  0.10566000000E+00 0.  1.
         13    1    4    4    0    0 -0.13478393842E+02  0.15319652968E+02 -0.21871220842E+02  0.29911876116E+02  0.10566000000E+00 0.  1.
        -13    1    4    4    0    0 -0.17334277794E+01  0.28549738990E+01 -0.36444578515E+01  0.49445813673E+01  0.10566000000E+00 0. -1.
         14    1    4    4    0    0 -0.94308927123E+01  0.11738728935E+02 -0.16769013010E+02  0.22537508551E+02  0.00000000000E+00 0. -1.
<mgrwt>
<rscale>  0 0.78846059E+02</rscale>
<asrwt>0</asrwt>
<pdfrwt beam="1">  1        2 0.12993916E-01 0.78846059E+02</pdfrwt>
<pdfrwt beam="2">  1       -1 0.28309566E-02 0.78846059E+02</pdfrwt>
<totfact> 0.17607057E+05</totfact>
</mgrwt>
</event>
<event>
 8    1  0.1226832E-016  0.8017644E+02  0.7818608E-02  0.1328551E+00
         -1   -1    0    0    0  501 -0.00000000000E+00  0.00000000000E+00  0.18183827226E+03  0.18183827233E+03  0.50400000000E-02 0.  1.
          2   -1    0    0  501    0  0.00000000000E+00 -0.00000000000E+00 -0.88378818955E+01  0.88378822633E+01  0.25500000000E-02 0. -1.
         24    2    1    2    0    0 -0.71054273576E-14  0.00000000000E+00  0.17300039036E+03  0.19067615459E+03  0.80176435841E+02 0.  0.
         66    2    3    3    0    0  0.37872354530E+02  0.90227678978E+01  0.10903197401E+03  0.11579160991E+03  0.19999974404E+01 0.  0.
        -13    1    3    3    0    0 -0.37872354530E+02 -0.90227678978E+01  0.63968416352E+02  0.74884544686E+02  0.10566000000E+00 0.  1.
         13    1    4    4    0    0  0.11717551924E+02  0.29433844809E+01  0.32780282633E+02  0.34935979002E+02  0.10566000000E+00 0. -1.
        -13    1    4    4    0    0  0.36964169790E+00  0.12559497730E+00  0.16635666551E+01  0.17120242799E+01  0.10566000000E+00 0.  1.
        -14    1    4    4    0    0  0.25785160908E+02  0.59537884395E+01  0.74588124723E+02  0.79143606625E+02  0.00000000000E+00 0.  1.
<mgrwt>
<rscale>  0 0.80176436E+02</rscale>
<asrwt>0</asrwt>
<pdfrwt beam="1">  1        2 0.13596741E-02 0.80176436E+02</pdfrwt>
<pdfrwt beam="2">  1       -1 0.27975120E-01 0.80176436E+02</pdfrwt>
<totfact> 0.10185617E+05</totfact>
</mgrwt>
</event>
<event>
 8    1  0.1226832E-016  0.8074034E+02  0.7818608E-02  0.1326963E+00
          2   -1    0    0  501    0  0.00000000000E+00  0.00000000000E+00  0.25450313849E+03  0.25450313850E+03  0.25500000000E-02 0. -1.
         -1   -1    0    0    0  501 -0.00000000000E+00 -0.00000000000E+00 -0.64036549089E+01  0.64036568922E+01  0.50400000000E-02 0.  1.
         24    2    1    2    0    0  0.00000000000E+00  0.00000000000E+00  0.24809948358E+03  0.26090679539E+03  0.80740337688E+02 0.  0.
         66    2    3    3    0    0 -0.12868171037E+02 -0.21280528595E+01  0.24749805555E+03  0.24784956312E+03  0.20000008305E+01 0.  0.
        -13    1    3    3    0    0  0.12868171037E+02  0.21280528595E+01  0.60142802590E+00  0.13057232269E+02  0.10566000000E+00 0.  1.
         13    1    4    4    0    0 -0.46787333374E+01 -0.37959478788E+00  0.81933967293E+02  0.82068390982E+02  0.10566000000E+00 0. -1.
        -13    1    4    4    0    0 -0.52005627624E+01 -0.16493029274E+01  0.99689133458E+02  0.99838372116E+02  0.10566000000E+00 0.  1.
         14    1    4    4    0    0 -0.29888749375E+01 -0.99155144245E-01  0.65874954801E+02  0.65942800025E+02  0.00000000000E+00 0. -1.
<mgrwt>
<rscale>  0 0.80740338E+02</rscale>
<asrwt>0</asrwt>
<pdfrwt beam="1">  1        2 0.39154325E-01 0.80740338E+02</pdfrwt>
<pdfrwt beam="2">  1       -1 0.98517793E-03 0.80740338E+02</pdfrwt>
<totfact> 0.23446741E+05</totfact>
</mgrwt>
</event>
<event>
 8    1  0.1226832E-016  0.7833675E+02  0.7818608E-02  0.1333839E+00
         -1   -1    0    0    0  501 -0.00000000000E+00  0.00000000000E+00  0.10939577844E+02  0.10939579005E+02  0.50400000000E-02 0.  1.
          2   -1    0    0  501    0  0.00000000000E+00 -0.00000000000E+00 -0.14023957078E+03  0.14023957080E+03  0.25500000000E-02 0. -1.
         24    2    1    2    0    0  0.00000000000E+00  0.00000000000E+00 -0.12929999294E+03  0.15117914981E+03  0.78336754868E+02 0.  0.
         66    2    3    3    0    0 -0.14634927559E+02  0.12203449057E+02 -0.13067670582E+03  0.13207386844E+03  0.20000021040E+01 0.  0.
        -13    1    3    3    0    0  0.14634927559E+02 -0.12203449057E+02  0.13767128844E+01  0.19105281362E+02  0.10566000000E+00 0.  1.
         13    1    4    4    0    0 -0.11918703828E+02  0.95548908517E+01 -0.10069007346E+03  0.10184229719E+03  0.10566000000E+00 0. -1.
        -13    1    4    4    0    0 -0.95069458543E+00  0.11870729157E+01 -0.13672212598E+02  0.13756944562E+02  0.10566000000E+00 0.  1.
         14    1    4    4    0    0 -0.17655291455E+01  0.14614852894E+01 -0.16314419762E+02  0.16474626690E+02  0.00000000000E+00 0. -1.
<mgrwt>
<rscale>  0 0.78336755E+02</rscale>
<asrwt>0</asrwt>
<pdfrwt beam="1">  1        2 0.21575317E-01 0.78336755E+02</pdfrwt>
<pdfrwt beam="2">  1       -1 0.16830122E-02 0.78336755E+02</pdfrwt>
<totfact> 0.20728986E+05</totfact>
</mgrwt>
</event>
<event>
 8    1  0.1226832E-016  0.8016035E+02  0.7818608E-02  0.1328597E+00
          2   -1    0    0  501    0  0.00000000000E+00  0.00000000000E+00  0.44003096443E+03  0.44003096444E+03  0.25500000000E-02 0. -1.
         -1   -1    0    0    0  501 -0.00000000000E+00 -0.00000000000E+00 -0.36506968063E+01  0.36507002854E+01  0.50400000000E-02 0.  1.
         24    2    1    2    0    0  0.00000000000E+00  0.00000000000E+00  0.43638026763E+03  0.44368166473E+03  0.80160349550E+02 0.  0.
         66    2    3    3    0    0  0.17759039834E+02 -0.26609798961E+02  0.35173345295E+03  0.35319100612E+03  0.19999952730E+01 0.  0.
        -13    1    3    3    0    0 -0.17759039834E+02  0.26609798961E+02  0.84646814680E+02  0.90490658612E+02  0.10566000000E+00 0.  1.
         13    1    4    4    0    0  0.98197453683E+01 -0.14244587331E+02  0.18932832187E+03  0.19011722776E+03  0.10566000000E+00 0. -1.
        -13    1    4    4    0    0  0.92904004117E+00 -0.81237238890E+00  0.13361997054E+02  0.13419284392E+02  0.10566000000E+00 0.  1.
         14    1    4    4    0    0  0.70102544250E+01 -0.11552839240E+02  0.14904313403E+03  0.14965449396E+03  0.00000000000E+00 0. -1.
<mgrwt>
<rscale>  0 0.80160350E+02</rscale>
<asrwt>0</asrwt>
<pdfrwt beam="1">  1        2 0.67697048E-01 0.80160350E+02</pdfrwt>
<pdfrwt beam="2">  1       -1 0.56164613E-03 0.80160350E+02</pdfrwt>
<totfact> 0.29044939E+05</totfact>
</mgrwt>
</event>
<event>
 8    1  0.1226832E-016  0.7854862E+02  0.7818608E-02  0.1333221E+00
          2   -1    0    0  501    0  0.00000000000E+00  0.00000000000E+00  0.13531172329E+04  0.13531172329E+04  0.25500000000E-02 0. -1.
         -1   -1    0    0    0  501 -0.00000000000E+00 -0.00000000000E+00 -0.11399336281E+01  0.11399447697E+01  0.50400000000E-02 0.  1.
         24    2    1    2    0    0  0.17763568394E-14 -0.88817841970E-15  0.13519772993E+04  0.13542571777E+04  0.78548618893E+02 0.  0.
         66    2    3    3    0    0  0.82174154286E+01 -0.70009096774E+01  0.13270144672E+04  0.13270598837E+04  0.20000007116E+01 0.  0.
        -13    1    3    3    0    0 -0.82174154286E+01  0.70009096774E+01  0.24962832076E+02  0.27197294018E+02  0.10566000000E+00 0.  1.
         13    1    4    4    0    0  0.29625072416E+01 -0.19838978012E+01  0.45654936697E+03  0.45656330114E+03  0.10566000000E+00 0. -1.
        -13    1    4    4    0    0  0.19140051850E+01 -0.20094671778E+01  0.41530152919E+03  0.41531081455E+03  0.10566000000E+00 0.  1.
         14    1    4    4    0    0  0.33409030020E+01 -0.30075446984E+01  0.45516357106E+03  0.45518576799E+03  0.00000000000E+00 0. -1.
<mgrwt>
<rscale>  0 0.78548619E+02</rscale>
<asrwt>0</asrwt>
<pdfrwt beam="1">  1        2 0.20817160E+00 0.78548619E+02</pdfrwt>
<pdfrwt beam="2">  1       -1 0.17537550E-03 0.78548619E+02</pdfrwt>
<totfact> 0.35987579E+05</totfact>
</mgrwt>
</event>
<event>
 8    1  0.1226832E-016  0.8159113E+02  0.7818608E-02  0.1324596E+00
          2   -1    0    0  501    0  0.00000000000E+00  0.00000000000E+00  0.23457855588E+02  0.23457855727E+02  0.25500000000E-02 0. -1.
         -1   -1    0    0    0  501 -0.00000000000E+00 -0.00000000000E+00 -0.70947587436E+02  0.70947587615E+02  0.50400000000E-02 0.  1.
         24    2    1    2    0    0  0.00000000000E+00  0.00000000000E+00 -0.47489731848E+02  0.94405443342E+02  0.81591133719E+02 0.  0.
         66    2    3    3    0    0  0.23996730223E+02 -0.63695776373E+01  0.13659768813E+02  0.28407813265E+02  0.19999974444E+01 0.  0.
        -13    1    3    3    0    0 -0.23996730223E+02  0.63695776373E+01 -0.61149500661E+02  0.65997630077E+02  0.10566000000E+00 0.  1.
         13    1    4    4    0    0  0.10221337608E+02 -0.26825097858E+01  0.53945146674E+01  0.11865224556E+02  0.10566000000E+00 0. -1.
        -13    1    4    4    0    0  0.19278993017E+01 -0.73512377647E+00  0.71121821558E+00  0.21849938375E+01  0.10566000000E+00 0.  1.
        -14    1    4    4    0    0  0.11847493314E+02 -0.29519440750E+01  0.75540359300E+01  0.14357594871E+02  0.00000000000E+00 0.  1.
<mgrwt>
<rscale>  0 0.81591134E+02</rscale>
<asrwt>0</asrwt>
<pdfrwt beam="1">  1        2 0.36089009E-02 0.81591134E+02</pdfrwt>
<pdfrwt beam="2">  1       -1 0.10915013E-01 0.81591134E+02</pdfrwt>
<totfact> 0.12118886E+05</totfact>
</mgrwt>
</event>
<event>
 8    1  0.1226832E-016  0.8006873E+02  0.7818608E-02  0.1328857E+00
         -1   -1    0    0    0  501 -0.00000000000E+00  0.00000000000E+00  0.92312888751E+01  0.92312902509E+01  0.50400000000E-02 0.  1.
          2   -1    0    0  501    0  0.00000000000E+00 -0.00000000000E+00 -0.17362149462E+03  0.17362149464E+03  0.25500000000E-02 0. -1.
         24    2    1    2    0    0  0.00000000000E+00  0.00000000000E+00 -0.16439020574E+03  0.18285278489E+03  0.80068727959E+02 0.  0.
         66    2    3    3    0    0 -0.22278110076E+02 -0.56323361462E+01 -0.15704241996E+03  0.15872731041E+03  0.20000007859E+01 0.  0.
        -13    1    3    3    0    0  0.22278110076E+02  0.56323361462E+01 -0.73477857844E+01  0.24125474482E+02  0.10566000000E+00 0.  1.
         13    1    4    4    0    0 -0.96284309037E+01 -0.21571514764E+01 -0.68282510967E+02  0.68991828880E+02  0.10566000000E+00 0. -1.
        -13    1    4    4    0    0 -0.42257925507E+00 -0.31178356370E+00 -0.25777321780E+01  0.26328025817E+01  0.10566000000E+00 0.  1.
        -14    1    4    4    0    0 -0.12227099917E+02 -0.31634011061E+01 -0.86182176814E+02  0.87102678944E+02  0.00000000000E+00 0.  1.
<mgrwt>
<rscale>  0 0.80068728E+02</rscale>
<asrwt>0</asrwt>
<pdfrwt beam="1">  1        2 0.26710997E-01 0.80068728E+02</pdfrwt>
<pdfrwt beam="2">  1       -1 0.14201985E-02 0.80068728E+02</pdfrwt>
<totfact> 0.20969269E+05</totfact>
</mgrwt>
</event>
<event>
 8    1  0.1226832E-016  0.7970897E+02  0.7818608E-02  0.1329879E+00
         -1   -1    0    0    0  501 -0.00000000000E+00  0.00000000000E+00  0.19910905844E+03  0.19910905851E+03  0.50400000000E-02 0.  1.
          2   -1    0    0  501    0  0.00000000000E+00 -0.00000000000E+00 -0.79774365514E+01  0.79774369590E+01  0.25500000000E-02 0. -1.
         24    2    1    2    0    0 -0.71054273576E-14  0.00000000000E+00  0.19113162189E+03  0.20708649547E+03  0.79708968864E+02 0.  0.
         66    2    3    3    0    0 -0.37902897242E+02 -0.61880207638E+01  0.68197947589E+02  0.78293558307E+02  0.19999991985E+01 0.  0.
        -13    1    3    3    0    0  0.37902897242E+02  0.61880207638E+01  0.12293367430E+03  0.12879293716E+03  0.10566000000E+00 0.  1.
         13    1    4    4    0    0 -0.95433703382E+01 -0.19303202707E+01  0.18277745841E+02  0.20709640528E+02  0.10566000000E+00 0. -1.
        -13    1    4    4    0    0 -0.20604301799E+02 -0.27946810532E+01  0.35259192851E+02  0.40933718856E+02  0.10566000000E+00 0.  1.
        -14    1    4    4    0    0 -0.77552251045E+01 -0.14630194399E+01  0.14661008897E+02  0.16650198923E+02  0.00000000000E+00 0.  1.
<mgrwt>
<rscale>  0 0.79708969E+02</rscale>
<asrwt>0</asrwt>
<pdfrwt beam="1">  1        2 0.12272981E-02 0.79708969E+02</pdfrwt>
<pdfrwt beam="2">  1       -1 0.30632159E-01 0.79708969E+02</pdfrwt>
<totfact> 0.10066771E+05</totfact>
</mgrwt>
</event>
<event>
 8    1  0.1226832E-016  0.8441969E+02  0.7818608E-02  0.1316957E+00
         -1   -1    0    0    0  501 -0.00000000000E+00  0.00000000000E+00  0.38373354350E+03  0.38373354353E+03  0.50400000000E-02 0.  1.
          2   -1    0    0  501    0  0.00000000000E+00 -0.00000000000E+00 -0.46429899093E+01  0.46429906096E+01  0.25500000000E-02 0. -1.
         24    2    1    2    0    0  0.00000000000E+00  0.00000000000E+00  0.37909055359E+03  0.38837653414E+03  0.84419692317E+02 0.  0.
         66    2    3    3    0    0 -0.36877939722E+02  0.17645512961E+02  0.14177043496E+03  0.14756084438E+03  0.19999997555E+01 0.  0.
        -13    1    3    3    0    0  0.36877939722E+02 -0.17645512961E+02  0.23732011863E+03  0.24081568976E+03  0.10566000000E+00 0.  1.
         13    1    4    4    0    0 -0.14320959979E+02  0.71065839051E+01  0.54786725007E+02  0.57071795403E+02  0.10566000000E+00 0. -1.
        -13    1    4    4    0    0 -0.12877674189E+02  0.54957869568E+01  0.46824363478E+02  0.48873002219E+02  0.10566000000E+00 0.  1.
        -14    1    4    4    0    0 -0.96793055537E+01  0.50431420991E+01  0.40159346478E+02  0.41616046759E+02  0.00000000000E+00 0.  1.
<mgrwt>
<rscale>  0 0.84419692E+02</rscale>
<asrwt>0</asrwt>
<pdfrwt beam="1">  1        2 0.71430627E-03 0.84419692E+02</pdfrwt>
<pdfrwt beam="2">  1       -1 0.59035924E-01 0.84419692E+02</pdfrwt>
<totfact> 0.67391426E+04</totfact>
</mgrwt>
</event>
<event>
 8    1  0.1226832E-016  0.8137994E+02  0.7818608E-02  0.1325180E+00
          2   -1    0    0  501    0  0.00000000000E+00  0.00000000000E+00  0.34505391452E+03  0.34505391453E+03  0.25500000000E-02 0. -1.
         -1   -1    0    0    0  501 -0.00000000000E+00 -0.00000000000E+00 -0.47983029483E+01  0.47983055952E+01  0.50400000000E-02 0.  1.
         24    2    1    2    0    0  0.00000000000E+00  0.00000000000E+00  0.34025561157E+03  0.34985222012E+03  0.81379940526E+02 0.  0.
         66    2    3    3    0    0 -0.21428324688E+02  0.21002815315E+02  0.28822797409E+03  0.28979243677E+03  0.20000034260E+01 0.  0.
        -13    1    3    3    0    0  0.21428324688E+02 -0.21002815315E+02  0.52027637481E+02  0.60059783350E+02  0.10566000000E+00 0.  1.
         13    1    4    4    0    0 -0.11705351194E+02  0.11491051997E+02  0.15331453729E+03  0.15418955227E+03  0.10566000000E+00 0. -1.
        -13    1    4    4    0    0 -0.41640193304E+01  0.39924392724E+01  0.51378701013E+02  0.51701650942E+02  0.10566000000E+00 0.  1.
         14    1    4    4    0    0 -0.55589541636E+01  0.55193240458E+01  0.83534735786E+02  0.83901233555E+02  0.00000000000E+00 0. -1.
<mgrwt>
<rscale>  0 0.81379941E+02</rscale>
<asrwt>0</asrwt>
<pdfrwt beam="1">  1        2 0.53085210E-01 0.81379941E+02</pdfrwt>
<pdfrwt beam="2">  1       -1 0.73820077E-03 0.81379941E+02</pdfrwt>
<totfact> 0.25638300E+05</totfact>
</mgrwt>
</event>
<event>
 8    1  0.1226832E-016  0.7932200E+02  0.7818608E-02  0.1330987E+00
         -1   -1    0    0    0  501 -0.00000000000E+00  0.00000000000E+00  0.16211654138E+02  0.16211654921E+02  0.50400000000E-02 0.  1.
          2   -1    0    0  501    0  0.00000000000E+00 -0.00000000000E+00 -0.97028643320E+02  0.97028643354E+02  0.25500000000E-02 0. -1.
         24    2    1    2    0    0  0.00000000000E+00  0.71054273576E-14 -0.80816989182E+02  0.11324029828E+03  0.79321998291E+02 0.  0.
         66    2    3    3    0    0  0.22768709629E+02 -0.28985054496E+02 -0.61241996822E+02  0.71506151438E+02  0.19999990973E+01 0.  0.
        -13    1    3    3    0    0 -0.22768709629E+02  0.28985054496E+02 -0.19574992360E+02  0.41734146837E+02  0.10566000000E+00 0.  1.
         13    1    4    4    0    0  0.16099564385E+02 -0.20534926002E+02 -0.44357583448E+02  0.51463438795E+02  0.10566000000E+00 0. -1.
        -13    1    4    4    0    0  0.28694455589E+00 -0.45679950090E+00 -0.11677984511E+01  0.12907053188E+01  0.10566000000E+00 0.  1.
        -14    1    4    4    0    0  0.63822006884E+01 -0.79933289930E+01 -0.15716614923E+02  0.18752007323E+02  0.00000000000E+00 0.  1.
<mgrwt>
<rscale>  0 0.79321998E+02</rscale>
<asrwt>0</asrwt>
<pdfrwt beam="1">  1        2 0.14927483E-01 0.79321998E+02</pdfrwt>
<pdfrwt beam="2">  1       -1 0.24941008E-02 0.79321998E+02</pdfrwt>
<totfact> 0.17983155E+05</totfact>
</mgrwt>
</event>
<event>
 8    1  0.1226832E-016  0.8006019E+02  0.7818608E-02  0.1328881E+00
          2   -1    0    0  501    0  0.00000000000E+00  0.00000000000E+00  0.19424076262E+03  0.19424076263E+03  0.25500000000E-02 0. -1.
         -1   -1    0    0    0  501 -0.00000000000E+00 -0.00000000000E+00 -0.82495992170E+01  0.82496007565E+01  0.50400000000E-02 0.  1.
         24    2    1    2    0    0  0.00000000000E+00  0.00000000000E+00  0.18599116340E+03  0.20249036339E+03  0.80060192374E+02 0.  0.
         66    2    3    3    0    0 -0.16377399453E+02  0.29371278476E+02  0.14785733071E+03  0.15164656759E+03  0.20000008902E+01 0.  0.
        -13    1    3    3    0    0  0.16377399453E+02 -0.29371278476E+02  0.38133832689E+02  0.50843795804E+02  0.10566000000E+00 0.  1.
         13    1    4    4    0    0 -0.24486071179E+01  0.36700373993E+01  0.21617084514E+02  0.22062963497E+02  0.10566000000E+00 0.  1.
        -13    1    4    4    0    0 -0.11206507883E+01  0.23479752280E+01  0.12065367752E+02  0.12343140155E+02  0.10566000000E+00 0. -1.
         14    1    4    4    0    0 -0.12808141547E+02  0.23353265849E+02  0.11417487844E+03  0.11724046393E+03  0.00000000000E+00 0. -1.
<mgrwt>
<rscale>  0 0.80060192E+02</rscale>
<asrwt>0</asrwt>
<pdfrwt beam="1">  1        2 0.29883195E-01 0.80060192E+02</pdfrwt>
<pdfrwt beam="2">  1       -1 0.12691692E-02 0.80060192E+02</pdfrwt>
<totfact> 0.21793176E+05</totfact>
</mgrwt>
</event>
<event>
 8    1  0.1226832E-016  0.7392930E+02  0.7818608E-02  0.1347219E+00
         -1   -1    0    0    0  501 -0.00000000000E+00  0.00000000000E+00  0.64113810758E+02  0.64113810956E+02  0.50400000000E-02 0.  1.
          2   -1    0    0  501    0  0.00000000000E+00 -0.00000000000E+00 -0.21311869938E+02  0.21311870091E+02  0.25500000000E-02 0. -1.
         24    2    1    2    0    0  0.00000000000E+00 -0.44408920985E-15  0.42801940820E+02  0.85425681047E+02  0.73929296253E+02 0.  0.
         66    2    3    3    0    0  0.31051090313E+02 -0.36921146927E+01 -0.13024882109E+01  0.31360777970E+02  0.19999997085E+01 0.  0.
        -13    1    3    3    0    0 -0.31051090313E+02  0.36921146927E+01  0.44104429031E+02  0.54064903077E+02  0.10566000000E+00 0.  1.
         13    1    4    4    0    0  0.14600766776E+02 -0.26449816690E+01 -0.83215708524E+00  0.14862098369E+02  0.10566000000E+00 0. -1.
        -13    1    4    4    0    0  0.13987878877E+01 -0.86535172503E-02  0.29030699460E-01  0.14030998736E+01  0.10566000000E+00 0.  1.
         14    1    4    4    0    0  0.15051535649E+02 -0.10384795065E+01 -0.49936182516E+00  0.15095579728E+02  0.00000000000E+00 0. -1.
<mgrwt>
<rscale>  0 0.73929296E+02</rscale>
<asrwt>0</asrwt>
<pdfrwt beam="1">  1        2 0.32787492E-02 0.73929296E+02</pdfrwt>
<pdfrwt beam="2">  1       -1 0.98636633E-02 0.73929296E+02</pdfrwt>
<totfact> 0.15730604E+05</totfact>
</mgrwt>
</event>
<event>
 8    1  0.1226832E-016  0.7658473E+02  0.7818608E-02  0.1339033E+00
          2   -1    0    0  501    0  0.00000000000E+00  0.00000000000E+00  0.91044364420E+02  0.91044364456E+02  0.25500000000E-02 0. -1.
         -1   -1    0    0    0  501 -0.00000000000E+00 -0.00000000000E+00 -0.16105391340E+02  0.16105392129E+02  0.50400000000E-02 0.  1.
         24    2    1    2    0    0  0.35527136788E-14  0.00000000000E+00  0.74938973080E+02  0.10714975658E+03  0.76584728568E+02 0.  0.
         66    2    3    3    0    0  0.10255010278E+02  0.36716940336E+02  0.32854398918E+02  0.50365766853E+02  0.19999997322E+01 0.  0.
        -13    1    3    3    0    0 -0.10255010278E+02 -0.36716940336E+02  0.42084574162E+02  0.56783989732E+02  0.10566000000E+00 0.  1.
         13    1    4    4    0    0  0.37653640578E+01  0.13380440678E+02  0.11727162514E+02  0.18186579224E+02  0.10566000000E+00 0. -1.
        -13    1    4    4    0    0  0.50649650454E+00  0.10669689311E+01  0.72494376288E+00  0.13898449209E+01  0.10566000000E+00 0.  1.
        -14    1    4    4    0    0  0.59831497160E+01  0.22269530727E+02  0.20402292642E+02  0.30789342707E+02  0.00000000000E+00 0.  1.
<mgrwt>
<rscale>  0 0.76584729E+02</rscale>
<asrwt>0</asrwt>
<pdfrwt beam="1">  1        2 0.14006825E-01 0.76584729E+02</pdfrwt>
<pdfrwt beam="2">  1       -1 0.24777526E-02 0.76584729E+02</pdfrwt>
<totfact> 0.19415703E+05</totfact>
</mgrwt>
</event>
<event>
 8    1  0.1226832E-016  0.7962729E+02  0.7818608E-02  0.1330112E+00
         -1   -1    0    0    0  501 -0.00000000000E+00  0.00000000000E+00  0.13274788465E+02  0.13274789421E+02  0.50400000000E-02 0.  1.
          2   -1    0    0  501    0  0.00000000000E+00 -0.00000000000E+00 -0.11940878015E+03  0.11940878018E+03  0.25500000000E-02 0. -1.
         24    2    1    2    0    0  0.00000000000E+00  0.35527136788E-14 -0.10613399169E+03  0.13268356960E+03  0.79627290864E+02 0.  0.
         66    2    3    3    0    0 -0.11393668709E+02 -0.26837386273E+02 -0.98215809580E+02  0.10247148989E+03  0.19999998915E+01 0.  0.
        -13    1    3    3    0    0  0.11393668709E+02  0.26837386273E+02 -0.79181821055E+01  0.30212079712E+02  0.10566000000E+00 0.  1.
         13    1    4    4    0    0 -0.26152315520E+01 -0.55231859778E+01 -0.21755140896E+02  0.22597396727E+02  0.10566000000E+00 0.  1.
        -13    1    4    4    0    0 -0.72151884831E+01 -0.16056506434E+02 -0.57181129545E+02  0.59829449970E+02  0.10566000000E+00 0. -1.
         14    1    4    4    0    0 -0.15632486737E+01 -0.52576938614E+01 -0.19279539140E+02  0.20044643190E+02  0.00000000000E+00 0. -1.
<mgrwt>
<rscale>  0 0.79627291E+02</rscale>
<asrwt>0</asrwt>
<pdfrwt beam="1">  1        2 0.18370581E-01 0.79627291E+02</pdfrwt>
<pdfrwt beam="2">  1       -1 0.20422753E-02 0.79627291E+02</pdfrwt>
<totfact> 0.18892780E+05</totfact>
</mgrwt>
</event>
<event>
 8    1  0.1226832E-016  0.7969355E+02  0.7818608E-02  0.1329923E+00
         -1   -1    0    0    0  501 -0.00000000000E+00  0.00000000000E+00  0.14884137490E+01  0.14884222821E+01  0.50400000000E-02 0.  1.
          2   -1    0    0  501    0  0.00000000000E+00 -0.00000000000E+00 -0.10667468908E+04  0.10667468908E+04  0.25500000000E-02 0. -1.
         24    2    1    2    0    0  0.00000000000E+00  0.00000000000E+00 -0.10652584770E+04  0.10682353130E+04  0.79693545492E+02 0.  0.
         66    2    3    3    0    0 -0.27510750653E+02 -0.81690769373E+01 -0.90302535386E+03  0.90348346137E+03  0.20000083088E+01 0.  0.
        -13    1    3    3    0    0  0.27510750653E+02  0.81690769373E+01 -0.16223312316E+03  0.16475185168E+03  0.10566000000E+00 0.  1.
         13    1    4    4    0    0 -0.10301436307E+02 -0.31904534120E+01 -0.35951180912E+03  0.35967353342E+03  0.10566000000E+00 0. -1.
        -13    1    4    4    0    0 -0.13041874454E+02 -0.42501128775E+01 -0.41061414645E+03  0.41084320899E+03  0.10566000000E+00 0.  1.
         14    1    4    4    0    0 -0.41674398923E+01 -0.72851064778E+00 -0.13289939829E+03  0.13296671895E+03  0.00000000000E+00 0. -1.
<mgrwt>
<rscale>  0 0.79693545E+02</rscale>
<asrwt>0</asrwt>
<pdfrwt beam="1">  1        2 0.16411429E+00 0.79693545E+02</pdfrwt>
<pdfrwt beam="2">  1       -1 0.22898824E-03 0.79693545E+02</pdfrwt>
<totfact> 0.35625594E+05</totfact>
</mgrwt>
</event>
<event>
 8    1  0.1226832E-016  0.8057777E+02  0.7818608E-02  0.1327420E+00
         -1   -1    0    0    0  501 -0.00000000000E+00  0.00000000000E+00  0.16336625619E+02  0.16336626396E+02  0.50400000000E-02 0.  1.
          2   -1    0    0  501    0  0.00000000000E+00 -0.00000000000E+00 -0.99359205715E+02  0.99359205748E+02  0.25500000000E-02 0. -1.
         24    2    1    2    0    0  0.00000000000E+00  0.00000000000E+00 -0.83022580097E+02  0.11569583214E+03  0.80577768457E+02 0.  0.
         66    2    3    3    0    0 -0.96853074192E+01 -0.22804619950E+02 -0.87107847695E+02  0.90584949120E+02  0.20000015645E+01 0.  0.
        -13    1    3    3    0    0  0.96853074192E+01  0.22804619950E+02  0.40852675979E+01  0.25110883024E+02  0.10566000000E+00 0.  1.
         13    1    4    4    0    0 -0.11200801798E+01 -0.25360517577E+01 -0.80018916871E+01  0.84692132300E+01  0.10566000000E+00 0. -1.
        -13    1    4    4    0    0 -0.50875725680E+01 -0.11584836720E+02 -0.47235081776E+02  0.48900469843E+02  0.10566000000E+00 0. -1.
        -14    1    4    4    0    0 -0.34776546714E+01 -0.86837314724E+01 -0.31870874231E+02  0.33215266047E+02  0.00000000000E+00 0.  1.
<mgrwt>
<rscale>  0 0.80577768E+02</rscale>
<asrwt>0</asrwt>
<pdfrwt beam="1">  1        2 0.15286031E-01 0.80577768E+02</pdfrwt>
<pdfrwt beam="2">  1       -1 0.25133271E-02 0.80577768E+02</pdfrwt>
<totfact> 0.17355995E+05</totfact>
</mgrwt>
</event>
<event>
 8    1  0.1226832E-016  0.8051160E+02  0.7818608E-02  0.1327606E+00
          2   -1    0    0  501    0  0.00000000000E+00  0.00000000000E+00  0.33031743981E+03  0.33031743982E+03  0.25500000000E-02 0. -1.
         -1   -1    0    0    0  501 -0.00000000000E+00 -0.00000000000E+00 -0.49059748218E+01  0.49059774106E+01  0.50400000000E-02 0.  1.
         24    2    1    2    0    0  0.00000000000E+00  0.00000000000E+00  0.32541146499E+03  0.33522341723E+03  0.80511601114E+02 0.  0.
         66    2    3    3    0    0  0.99012268427E+01  0.12337799449E+02  0.31682035743E+03  0.31722136509E+03  0.19999995100E+01 0.  0.
        -13    1    3    3    0    0 -0.99012268427E+01 -0.12337799449E+02  0.85911075583E+01  0.18002052142E+02  0.10566000000E+00 0.  1.
         13    1    4    4    0    0  0.18455876758E+01  0.14180280087E+01  0.42347908726E+02  0.42411950378E+02  0.10566000000E+00 0. -1.
        -13    1    4    4    0    0  0.73840900816E+01  0.97883674245E+01  0.24225282348E+03  0.24256293734E+03  0.10566000000E+00 0.  1.
        -14    1    4    4    0    0  0.67154908527E+00  0.11314040155E+01  0.32219625228E+02  0.32246477374E+02  0.00000000000E+00 0.  1.
<mgrwt>
<rscale>  0 0.80511601E+02</rscale>
<asrwt>0</asrwt>
<pdfrwt beam="1">  1        2 0.50818060E-01 0.80511601E+02</pdfrwt>
<pdfrwt beam="2">  1       -1 0.75476567E-03 0.80511601E+02</pdfrwt>
<totfact> 0.25959177E+05</totfact>
</mgrwt>
</event>
<event>
 8    1  0.1226832E-016  0.7743671E+02  0.7818608E-02  0.1336487E+00
         -1   -1    0    0    0  501 -0.00000000000E+00  0.00000000000E+00  0.35392164265E+01  0.35392200150E+01  0.50400000000E-02 0.  1.
          2   -1    0    0  501    0  0.00000000000E+00 -0.00000000000E+00 -0.42357118799E+03  0.42357118800E+03  0.25500000000E-02 0. -1.
         24    2    1    2    0    0  0.35527136788E-14  0.35527136788E-14 -0.42003197157E+03  0.42711040802E+03  0.77436706395E+02 0.  0.
         66    2    3    3    0    0 -0.24105543587E+02 -0.22584693002E+02 -0.32128665717E+03  0.32298647288E+03  0.19999989775E+01 0.  0.
        -13    1    3    3    0    0  0.24105543587E+02  0.22584693002E+02 -0.98745314395E+02  0.10412393514E+03  0.10566000000E+00 0.  1.
         13    1    4    4    0    0 -0.66046497886E+01 -0.72840211314E+01 -0.91970035595E+02  0.92494199677E+02  0.10566000000E+00 0.  1.
        -13    1    4    4    0    0 -0.25720657107E+01 -0.21086065279E+01 -0.32405229736E+02  0.32575632331E+02  0.10566000000E+00 0. -1.
        -14    1    4    4    0    0 -0.14928828088E+02 -0.13192065342E+02 -0.19691139184E+03  0.19791664087E+03  0.00000000000E+00 0.  1.
<mgrwt>
<rscale>  0 0.77436706E+02</rscale>
<asrwt>0</asrwt>
<pdfrwt beam="1">  1        2 0.65164758E-01 0.77436706E+02</pdfrwt>
<pdfrwt beam="2">  1       -1 0.54449545E-03 0.77436706E+02</pdfrwt>
<totfact> 0.31372891E+05</totfact>
</mgrwt>
</event>
<event>
 8    1  0.1226832E-016  0.8079796E+02  0.7818608E-02  0.1326802E+00
         -1   -1    0    0    0  501 -0.00000000000E+00  0.00000000000E+00  0.83843736268E+01  0.83843751416E+01  0.50400000000E-02 0.  1.
          2   -1    0    0  501    0  0.00000000000E+00 -0.00000000000E+00 -0.19465703000E+03  0.19465703002E+03  0.25500000000E-02 0. -1.
         24    2    1    2    0    0  0.00000000000E+00  0.00000000000E+00 -0.18627265638E+03  0.20304140516E+03  0.80797956016E+02 0.  0.
         66    2    3    3    0    0  0.13818240694E+02  0.22248154586E+02 -0.17040870910E+03  0.17242114805E+03  0.19999997454E+01 0.  0.
        -13    1    3    3    0    0 -0.13818240694E+02 -0.22248154586E+02 -0.15863947274E+02  0.30620257110E+02  0.10566000000E+00 0.  1.
         13    1    4    4    0    0  0.69109343995E+01  0.11243001778E+02 -0.85076696699E+02  0.86094259905E+02  0.10566000000E+00 0. -1.
        -13    1    4    4    0    0  0.59255203917E+01  0.85062715370E+01 -0.65979511996E+02  0.66789038133E+02  0.10566000000E+00 0.  1.
        -14    1    4    4    0    0  0.98178590268E+00  0.24988812704E+01 -0.19352500406E+02  0.19537850013E+02  0.00000000000E+00 0.  1.
<mgrwt>
<rscale>  0 0.80797956E+02</rscale>
<asrwt>0</asrwt>
<pdfrwt beam="1">  1        2 0.29947232E-01 0.80797956E+02</pdfrwt>
<pdfrwt beam="2">  1       -1 0.12899039E-02 0.80797956E+02</pdfrwt>
<totfact> 0.21287222E+05</totfact>
</mgrwt>
</event>
<event>
 8    1  0.1226832E-016  0.8046771E+02  0.7818608E-02  0.1327729E+00
         -1   -1    0    0    0  501 -0.00000000000E+00  0.00000000000E+00  0.46676509271E+01  0.46676536481E+01  0.50400000000E-02 0.  1.
          2   -1    0    0  501    0  0.00000000000E+00 -0.00000000000E+00 -0.34680457541E+03  0.34680457542E+03  0.25500000000E-02 0. -1.
         24    2    1    2    0    0  0.71054273576E-14  0.00000000000E+00 -0.34213692449E+03  0.35147222907E+03  0.80467712227E+02 0.  0.
         66    2    3    3    0    0 -0.37881112265E+02  0.11384741405E+02 -0.20272157839E+03  0.20655418018E+03  0.20000003292E+01 0.  0.
        -13    1    3    3    0    0  0.37881112265E+02 -0.11384741405E+02 -0.13941534610E+03  0.14491804889E+03  0.10566000000E+00 0.  1.
         13    1    4    4    0    0 -0.13950401989E+02  0.43871208223E+01 -0.73112955137E+02  0.74561222614E+02  0.10566000000E+00 0. -1.
        -13    1    4    4    0    0 -0.15789747880E+01  0.13884459731E+00 -0.89747204623E+01  0.91142312136E+01  0.10566000000E+00 0.  1.
        -14    1    4    4    0    0 -0.22351735488E+02  0.68587759852E+01 -0.12063390279E+03  0.12287872635E+03  0.00000000000E+00 0.  1.
<mgrwt>
<rscale>  0 0.80467712E+02</rscale>
<asrwt>0</asrwt>
<pdfrwt beam="1">  1        2 0.53354530E-01 0.80467712E+02</pdfrwt>
<pdfrwt beam="2">  1       -1 0.71810063E-03 0.80467712E+02</pdfrwt>
<totfact> 0.26454655E+05</totfact>
</mgrwt>
</event>
<event>
 8    1  0.1226832E-016  0.8002312E+02  0.7818608E-02  0.1328986E+00
         -1   -1    0    0    0  501 -0.00000000000E+00  0.00000000000E+00  0.49650619154E+01  0.49650644734E+01  0.50400000000E-02 0.  1.
          2   -1    0    0  501    0  0.00000000000E+00 -0.00000000000E+00 -0.32243799371E+03  0.32243799372E+03  0.25500000000E-02 0. -1.
         24    2    1    2    0    0  0.00000000000E+00  0.00000000000E+00 -0.31747293180E+03  0.32740305820E+03  0.80023122235E+02 0.  0.
         66    2    3    3    0    0  0.33875541150E+01 -0.14234305543E+02 -0.31108815601E+03  0.31143848795E+03  0.19999976265E+01 0.  0.
        -13    1    3    3    0    0 -0.33875541150E+01  0.14234305543E+02 -0.63847757854E+01  0.15964570243E+02  0.10566000000E+00 0.  1.
         13    1    4    4    0    0  0.21520325317E+01 -0.87239130020E+01 -0.20034669202E+03  0.20054811410E+03  0.10566000000E+00 0. -1.
        -13    1    4    4    0    0 -0.22980709081E-01 -0.70810952461E+00 -0.20441439973E+02  0.20453986883E+02  0.10566000000E+00 0.  1.
         14    1    4    4    0    0  0.12585022924E+01 -0.48022830165E+01 -0.90300024019E+02  0.90436386969E+02  0.00000000000E+00 0. -1.
<mgrwt>
<rscale>  0 0.80023122E+02</rscale>
<asrwt>0</asrwt>
<pdfrwt beam="1">  1        2 0.49605829E-01 0.80023122E+02</pdfrwt>
<pdfrwt beam="2">  1       -1 0.76385613E-03 0.80023122E+02</pdfrwt>
<totfact> 0.26147961E+05</totfact>
</mgrwt>
</event>
<event>
 8    1  0.1226832E-016  0.7973727E+02  0.7818608E-02  0.1329799E+00
          2   -1    0    0  501    0  0.00000000000E+00  0.00000000000E+00  0.50383322937E+02  0.50383323001E+02  0.25500000000E-02 0. -1.
         -1   -1    0    0    0  501 -0.00000000000E+00 -0.00000000000E+00 -0.31548294958E+02  0.31548295361E+02  0.50400000000E-02 0.  1.
         24    2    1    2    0    0  0.00000000000E+00  0.17763568394E-14  0.18835027978E+02  0.81931618362E+02  0.79737267375E+02 0.  0.
         66    2    3    3    0    0  0.36664458356E+02  0.11532906550E+02  0.20210547638E+02  0.43471331592E+02  0.19999986333E+01 0.  0.
        -13    1    3    3    0    0 -0.36664458356E+02 -0.11532906550E+02 -0.13755196592E+01  0.38460286770E+02  0.10566000000E+00 0.  1.
         13    1    4    4    0    0  0.10903509991E+02  0.35346437314E+01  0.57395459030E+01  0.12819274068E+02  0.10566000000E+00 0. -1.
        -13    1    4    4    0    0  0.22027040937E+02  0.65784603464E+01  0.11738831068E+02  0.25812361222E+02  0.10566000000E+00 0.  1.
         14    1    4    4    0    0  0.37339074282E+01  0.14198024725E+01  0.27321706668E+01  0.48396963020E+01  0.00000000000E+00 0. -1.
<mgrwt>
<rscale>  0 0.79737267E+02</rscale>
<asrwt>0</asrwt>
<pdfrwt beam="1">  1        2 0.77512804E-02 0.79737267E+02</pdfrwt>
<pdfrwt beam="2">  1       -1 0.48535840E-02 0.79737267E+02</pdfrwt>
<totfact> 0.15103301E+05</totfact>
</mgrwt>
</event>
<event>
 8    1  0.1226832E-016  0.7972244E+02  0.7818608E-02  0.1329841E+00
          2   -1    0    0  501    0  0.00000000000E+00  0.00000000000E+00  0.95937768848E+02  0.95937768882E+02  0.25500000000E-02 0. -1.
         -1   -1    0    0    0  501 -0.00000000000E+00 -0.00000000000E+00 -0.16561954888E+02  0.16561955655E+02  0.50400000000E-02 0.  1.
         24    2    1    2    0    0  0.00000000000E+00  0.00000000000E+00  0.79375813960E+02  0.11249972454E+03  0.79722444638E+02 0.  0.
         66    2    3    3    0    0  0.89992070907E+01 -0.19424439127E+02  0.87120008770E+02  0.89733998523E+02  0.19999997569E+01 0.  0.
        -13    1    3    3    0    0 -0.89992070907E+01  0.19424439127E+02 -0.77441948099E+01  0.22765726015E+02  0.10566000000E+00 0.  1.
         13    1    4    4    0    0  0.51713478429E+01 -0.10282206565E+02  0.49692399116E+02  0.51007963146E+02  0.10566000000E+00 0. -1.
        -13    1    4    4    0    0  0.32063207619E+01 -0.67720962726E+01  0.28246758340E+02  0.29223831054E+02  0.10566000000E+00 0.  1.
        -14    1    4    4    0    0  0.62153848588E+00 -0.23701362898E+01  0.91808513151E+01  0.95022043228E+01  0.00000000000E+00 0.  1.
<mgrwt>
<rscale>  0 0.79722445E+02</rscale>
<asrwt>0</asrwt>
<pdfrwt beam="1">  1        2 0.14759656E-01 0.79722445E+02</pdfrwt>
<pdfrwt beam="2">  1       -1 0.25479932E-02 0.79722445E+02</pdfrwt>
<totfact> 0.17686915E+05</totfact>
</mgrwt>
</event>
<event>
 8    1  0.1226832E-016  0.8137683E+02  0.7818608E-02  0.1325189E+00
         -1   -1    0    0    0  501 -0.00000000000E+00  0.00000000000E+00  0.81914515041E+01  0.81914530546E+01  0.50400000000E-02 0.  1.
          2   -1    0    0  501    0  0.00000000000E+00 -0.00000000000E+00 -0.20210666577E+03  0.20210666579E+03  0.25500000000E-02 0. -1.
         24    2    1    2    0    0  0.00000000000E+00  0.88817841970E-15 -0.19391521427E+03  0.21029811884E+03  0.81376830021E+02 0.  0.
         66    2    3    3    0    0 -0.15223437145E+02 -0.52709738570E+01 -0.19350259284E+03  0.19418236182E+03  0.20000004856E+01 0.  0.
        -13    1    3    3    0    0  0.15223437145E+02  0.52709738570E+01 -0.41262142564E+00  0.16115757021E+02  0.10566000000E+00 0.  1.
         13    1    4    4    0    0 -0.28770864325E+01 -0.64067609741E+00 -0.41155484722E+02  0.41261037056E+02  0.10566000000E+00 0. -1.
        -13    1    4    4    0    0 -0.83653677200E+01 -0.33161360834E+01 -0.10979967067E+03  0.11016784912E+03  0.10566000000E+00 0.  1.
         14    1    4    4    0    0 -0.39809829921E+01 -0.13141616762E+01 -0.42547437452E+02  0.42753475651E+02  0.00000000000E+00 0. -1.
<mgrwt>
<rscale>  0 0.81376830E+02</rscale>
<asrwt>0</asrwt>
<pdfrwt beam="1">  1        2 0.31093329E-01 0.81376830E+02</pdfrwt>
<pdfrwt beam="2">  1       -1 0.12602236E-02 0.81376830E+02</pdfrwt>
<totfact> 0.21163656E+05</totfact>
</mgrwt>
</event>
<event>
 8    1  0.1226832E-016  0.8113473E+02  0.7818608E-02  0.1325862E+00
          2   -1    0    0  501    0  0.00000000000E+00  0.00000000000E+00  0.97553015329E+01  0.97553018662E+01  0.25500000000E-02 0. -1.
         -1   -1    0    0    0  501 -0.00000000000E+00 -0.00000000000E+00 -0.16869913714E+03  0.16869913722E+03  0.50400000000E-02 0.  1.
         24    2    1    2    0    0 -0.35527136788E-14  0.44408920985E-15 -0.15894383561E+03  0.17845443909E+03  0.81134727155E+02 0.  0.
         66    2    3    3    0    0 -0.31379392787E+02  0.22284509004E+01 -0.23268598253E+02  0.39179841684E+02  0.20000111520E+01 0.  0.
        -13    1    3    3    0    0  0.31379392787E+02 -0.22284509004E+01 -0.13567523736E+03  0.13927459740E+03  0.10566000000E+00 0.  1.
         13    1    4    4    0    0 -0.16092799446E+02  0.54481821288E+00 -0.11610120935E+02  0.19851475840E+02  0.10566000000E+00 0. -1.
        -13    1    4    4    0    0 -0.43445822718E+00  0.37367347370E-01 -0.17136116382E+00  0.48029048906E+00  0.10566000000E+00 0.  1.
        -14    1    4    4    0    0 -0.14852135115E+02  0.16462653401E+01 -0.11487116154E+02  0.18848075355E+02  0.00000000000E+00 0.  1.
<mgrwt>
<rscale>  0 0.81134727E+02</rscale>
<asrwt>0</asrwt>
<pdfrwt beam="1">  1        2 0.15008158E-02 0.81134727E+02</pdfrwt>
<pdfrwt beam="2">  1       -1 0.25953711E-01 0.81134727E+02</pdfrwt>
<totfact> 0.10091840E+05</totfact>
</mgrwt>
</event>
<event>
 8    1  0.1299743E-016  0.7939482E+02  0.7818608E-02  0.1330778E+00
         -1   -1    0    0    0  501 -0.00000000000E+00  0.00000000000E+00  0.65603632371E+01  0.65603651731E+01  0.50400000000E-02 0.  1.
          2   -1    0    0  501    0  0.00000000000E+00 -0.00000000000E+00 -0.24021295358E+03  0.24021295360E+03  0.25500000000E-02 0. -1.
         24    2    1    2    0    0  0.00000000000E+00 -0.17763568394E-14 -0.23365259035E+03  0.24677331877E+03  0.79394822761E+02 0.  0.
         66    2    3    3    0    0 -0.10944055972E+02 -0.10097183177E+02 -0.23119308325E+03  0.23168074416E+03  0.20000000443E+01 0.  0.
        -13    1    3    3    0    0  0.10944055972E+02  0.10097183177E+02 -0.24595070924E+01  0.15092574612E+02  0.10566000000E+00 0.  1.
         13    1    4    4    0    0 -0.65781899795E+01 -0.60223474891E+01 -0.14333451613E+03  0.14361175415E+03  0.10566000000E+00 0. -1.
        -13    1    4    4    0    0 -0.22533014252E+01 -0.27762385451E+01 -0.47710097640E+02  0.47844011628E+02  0.10566000000E+00 0.  1.
        -14    1    4    4    0    0 -0.21125645674E+01 -0.12985971429E+01 -0.40148469486E+02  0.40224978380E+02  0.00000000000E+00 0.  1.
<mgrwt>
<rscale>  0 0.79394823E+02</rscale>
<asrwt>0</asrwt>
<pdfrwt beam="1">  1        2 0.36955832E-01 0.79394823E+02</pdfrwt>
<pdfrwt beam="2">  1       -1 0.10092870E-02 0.79394823E+02</pdfrwt>
<totfact> 0.24004570E+05</totfact>
</mgrwt>
</event>
<event>
 8    1  0.1226832E-016  0.8061897E+02  0.7818608E-02  0.1327304E+00
         -1   -1    0    0    0  501 -0.00000000000E+00  0.00000000000E+00  0.95237600778E+01  0.95237614114E+01  0.50400000000E-02 0.  1.
          2   -1    0    0  501    0  0.00000000000E+00 -0.00000000000E+00 -0.17061058861E+03  0.17061058863E+03  0.25500000000E-02 0. -1.
         24    2    1    2    0    0  0.35527136788E-14  0.00000000000E+00 -0.16108682853E+03  0.18013435004E+03  0.80618966365E+02 0.  0.
         66    2    3    3    0    0 -0.21891128450E+02 -0.25756628970E+02 -0.12955733757E+03  0.13390940650E+03  0.19999977089E+01 0.  0.
        -13    1    3    3    0    0  0.21891128450E+02  0.25756628970E+02 -0.31529490962E+02  0.46224943538E+02  0.10566000000E+00 0.  1.
         13    1    4    4    0    0 -0.48560358281E+01 -0.53518450288E+01 -0.30038985654E+02  0.30896199642E+02  0.10566000000E+00 0. -1.
        -13    1    4    4    0    0 -0.54073995355E+01 -0.65136585807E+01 -0.29726323657E+02  0.30908464860E+02  0.10566000000E+00 0.  1.
         14    1    4    4    0    0 -0.11627693087E+02 -0.13891125361E+02 -0.69792028257E+02  0.72104741998E+02  0.00000000000E+00 0. -1.
<mgrwt>
<rscale>  0 0.80618966E+02</rscale>
<asrwt>0</asrwt>
<pdfrwt beam="1">  1        2 0.26247781E-01 0.80618966E+02</pdfrwt>
<pdfrwt beam="2">  1       -1 0.14651941E-02 0.80618966E+02</pdfrwt>
<totfact> 0.20472240E+05</totfact>
</mgrwt>
</event>
<event>
 8    1  0.1226832E-016  0.8138804E+02  0.7818608E-02  0.1325158E+00
         -1   -1    0    0    0  501 -0.00000000000E+00  0.00000000000E+00  0.37449284849E+02  0.37449285189E+02  0.50400000000E-02 0.  1.
          2   -1    0    0  501    0  0.00000000000E+00 -0.00000000000E+00 -0.44219888051E+02  0.44219888125E+02  0.25500000000E-02 0. -1.
         24    2    1    2    0    0 -0.35527136788E-14  0.00000000000E+00 -0.67706032019E+01  0.81669173313E+02  0.81388038445E+02 0.  0.
         66    2    3    3    0    0 -0.30840603712E+02 -0.10598871746E+02 -0.27771883510E+02  0.42880723251E+02  0.19999983234E+01 0.  0.
        -13    1    3    3    0    0  0.30840603712E+02  0.10598871746E+02  0.21001280308E+02  0.38788450062E+02  0.10566000000E+00 0.  1.
         13    1    4    4    0    0 -0.10495760760E+02 -0.33835852295E+01 -0.86269306163E+01  0.14001597724E+02  0.10566000000E+00 0. -1.
        -13    1    4    4    0    0 -0.11892429045E+01 -0.23136255078E+00 -0.83348191712E+00  0.14743417031E+01  0.10566000000E+00 0.  1.
         14    1    4    4    0    0 -0.19155600047E+02 -0.69839239655E+01 -0.18311470976E+02  0.27404783824E+02  0.00000000000E+00 0. -1.
<mgrwt>
<rscale>  0 0.81388038E+02</rscale>
<asrwt>0</asrwt>
<pdfrwt beam="1">  1        2 0.68030597E-02 0.81388038E+02</pdfrwt>
<pdfrwt beam="2">  1       -1 0.57614285E-02 0.81388038E+02</pdfrwt>
<totfact> 0.13881499E+05</totfact>
</mgrwt>
</event>
<event>
 8    1  0.1226832E-016  0.8163121E+02  0.7818608E-02  0.1324485E+00
         -1   -1    0    0    0  501 -0.00000000000E+00  0.00000000000E+00  0.74594531894E+01  0.74594548920E+01  0.50400000000E-02 0.  1.
          2   -1    0    0  501    0  0.00000000000E+00 -0.00000000000E+00 -0.22332913756E+03  0.22332913757E+03  0.25500000000E-02 0. -1.
         24    2    1    2    0    0  0.00000000000E+00  0.00000000000E+00 -0.21586968437E+03  0.23078859246E+03  0.81631205934E+02 0.  0.
         66    2    3    3    0    0  0.26607964657E+01 -0.21213699819E+02 -0.20621429706E+03  0.20732929653E+03  0.19999967269E+01 0.  0.
        -13    1    3    3    0    0 -0.26607964657E+01  0.21213699819E+02 -0.96553873039E+01  0.23459295937E+02  0.10566000000E+00 0.  1.
         13    1    4    4    0    0  0.17192769007E+01 -0.12488516415E+02 -0.11469175309E+03  0.11538253051E+03  0.10566000000E+00 0. -1.
        -13    1    4    4    0    0  0.49871246123E+00 -0.71869578052E+01 -0.76948620206E+02  0.77285201639E+02  0.10566000000E+00 0.  1.
        -14    1    4    4    0    0  0.44280710370E+00 -0.15382255988E+01 -0.14573923768E+02  0.14661564382E+02  0.00000000000E+00 0.  1.
<mgrwt>
<rscale>  0 0.81631206E+02</rscale>
<asrwt>0</asrwt>
<pdfrwt beam="1">  1        2 0.34358324E-01 0.81631206E+02</pdfrwt>
<pdfrwt beam="2">  1       -1 0.11476085E-02 0.81631206E+02</pdfrwt>
<totfact> 0.21740264E+05</totfact>
</mgrwt>
</event>
<event>
 8    1  0.1226832E-016  0.7941319E+02  0.7818608E-02  0.1330725E+00
         -1   -1    0    0    0  501 -0.00000000000E+00  0.00000000000E+00  0.59822405834E+02  0.59822406047E+02  0.50400000000E-02 0.  1.
          2   -1    0    0  501    0  0.00000000000E+00 -0.00000000000E+00 -0.26354902702E+02  0.26354902825E+02  0.25500000000E-02 0. -1.
         24    2    1    2    0    0  0.17763568394E-14  0.00000000000E+00  0.33467503132E+02  0.86177308872E+02  0.79413190331E+02 0.  0.
         66    2    3    3    0    0  0.99618082856E+01 -0.38281336333E+02  0.20160558209E+02  0.44442619668E+02  0.19999999514E+01 0.  0.
        -13    1    3    3    0    0 -0.99618082856E+01  0.38281336333E+02  0.13306944923E+02  0.41734689205E+02  0.10566000000E+00 0.  1.
         13    1    4    4    0    0  0.39494355962E+01 -0.16240918325E+02  0.90744039142E+01  0.19018975787E+02  0.10566000000E+00 0. -1.
        -13    1    4    4    0    0  0.15626248022E+01 -0.51974910616E+01  0.20864948230E+01  0.58155252807E+01  0.10566000000E+00 0.  1.
        -14    1    4    4    0    0  0.44497478873E+01 -0.16842926947E+02  0.89996594723E+01  0.19608118600E+02  0.00000000000E+00 0.  1.
<mgrwt>
<rscale>  0 0.79413190E+02</rscale>
<asrwt>0</asrwt>
<pdfrwt beam="1">  1        2 0.40546005E-02 0.79413190E+02</pdfrwt>
<pdfrwt beam="2">  1       -1 0.92034470E-02 0.79413190E+02</pdfrwt>
<totfact> 0.13391439E+05</totfact>
</mgrwt>
</event>
<event>
 8    1  0.1226832E-016  0.7992053E+02  0.7818608E-02  0.1329277E+00
         -1   -1    0    0    0  501 -0.00000000000E+00  0.00000000000E+00  0.88130548211E+01  0.88130562622E+01  0.50400000000E-02 0.  1.
          2   -1    0    0  501    0  0.00000000000E+00 -0.00000000000E+00 -0.18118832061E+03  0.18118832063E+03  0.25500000000E-02 0. -1.
         24    2    1    2    0    0  0.00000000000E+00 -0.71054273576E-14 -0.17237526579E+03  0.19000137689E+03  0.79920529055E+02 0.  0.
         66    2    3    3    0    0 -0.78862349765E+01  0.34238346665E+02 -0.41111271798E+02  0.54116483075E+02  0.19999967940E+01 0.  0.
        -13    1    3    3    0    0  0.78862349765E+01 -0.34238346665E+02 -0.13126399399E+03  0.13588489382E+03  0.10566000000E+00 0.  1.
         13    1    4    4    0    0 -0.64376140353E+01  0.26003294459E+02 -0.30323878118E+02  0.40461870265E+02  0.10566000000E+00 0. -1.
        -13    1    4    4    0    0 -0.90090644803E+00  0.57617839043E+01 -0.72912580221E+01  0.93372048156E+01  0.10566000000E+00 0.  1.
        -14    1    4    4    0    0 -0.54771449323E+00  0.24732683019E+01 -0.34961356575E+01  0.43174079950E+01  0.00000000000E+00 0.  1.
<mgrwt>
<rscale>  0 0.79920529E+02</rscale>
<asrwt>0</asrwt>
<pdfrwt beam="1">  1        2 0.27875124E-01 0.79920529E+02</pdfrwt>
<pdfrwt beam="2">  1       -1 0.13558548E-02 0.79920529E+02</pdfrwt>
<totfact> 0.21378141E+05</totfact>
</mgrwt>
</event>
<event>
 8    1  0.1226832E-016  0.7972510E+02  0.7818608E-02  0.1329833E+00
         -1   -1    0    0    0  501 -0.00000000000E+00  0.00000000000E+00  0.73905223185E+02  0.73905223357E+02  0.50400000000E-02 0.  1.
          2   -1    0    0  501    0  0.00000000000E+00 -0.00000000000E+00 -0.21500819171E+02  0.21500819322E+02  0.25500000000E-02 0. -1.
         24    2    1    2    0    0 -0.35527136788E-14  0.00000000000E+00  0.52404404015E+02  0.95406042679E+02  0.79725099056E+02 0.  0.
         66    2    3    3    0    0  0.23394244125E+02 -0.10200017139E+02 -0.10386832952E+02  0.27626387829E+02  0.19999994726E+01 0.  0.
        -13    1    3    3    0    0 -0.23394244125E+02  0.10200017139E+02  0.62791236966E+02  0.67779654850E+02  0.10566000000E+00 0.  1.
         13    1    4    4    0    0  0.11477528915E+02 -0.50932465705E+01 -0.57591127456E+01  0.13814969210E+02  0.10566000000E+00 0.  1.
        -13    1    4    4    0    0  0.16081047108E+01 -0.86217277966E+00 -0.10247723530E+01  0.20953913892E+01  0.10566000000E+00 0. -1.
        -14    1    4    4    0    0  0.10308610500E+02 -0.42445977887E+01 -0.36029478531E+01  0.11716027230E+02  0.00000000000E+00 0.  1.
<mgrwt>
<rscale>  0 0.79725099E+02</rscale>
<asrwt>0</asrwt>
<pdfrwt beam="1">  1        2 0.33078183E-02 0.79725099E+02</pdfrwt>
<pdfrwt beam="2">  1       -1 0.11370035E-01 0.79725099E+02</pdfrwt>
<totfact> 0.12722239E+05</totfact>
</mgrwt>
</event>
<event>
 8    1  0.1226832E-016  0.8497437E+02  0.7818608E-02  0.1315500E+00
         -1   -1    0    0    0  501 -0.00000000000E+00  0.00000000000E+00  0.16509548019E+02  0.16509548789E+02  0.50400000000E-02 0.  1.
          2   -1    0    0  501    0  0.00000000000E+00 -0.00000000000E+00 -0.10934042675E+03  0.10934042678E+03  0.25500000000E-02 0. -1.
         24    2    1    2    0    0  0.00000000000E+00  0.00000000000E+00 -0.92830878728E+02  0.12584997557E+03  0.84974374398E+02 0.  0.
         66    2    3    3    0    0 -0.43170754900E+01 -0.40921120178E+02 -0.61972946862E+02  0.74416539549E+02  0.19999995794E+01 0.  0.
        -13    1    3    3    0    0  0.43170754900E+01  0.40921120178E+02 -0.30857931866E+02  0.51433436016E+02  0.10566000000E+00 0.  1.
         13    1    4    4    0    0 -0.35235143201E+01 -0.29725759716E+02 -0.45512095997E+02  0.54473828486E+02  0.10566000000E+00 0. -1.
        -13    1    4    4    0    0 -0.52611139452E+00 -0.56723477394E+01 -0.76105057545E+01  0.95070123567E+01  0.10566000000E+00 0.  1.
        -14    1    4    4    0    0 -0.26744977531E+00 -0.55230127226E+01 -0.88503451105E+01  0.10435698706E+02  0.00000000000E+00 0.  1.
<mgrwt>
<rscale>  0 0.84974374E+02</rscale>
<asrwt>0</asrwt>
<pdfrwt beam="1">  1        2 0.16821604E-01 0.84974374E+02</pdfrwt>
<pdfrwt beam="2">  1       -1 0.25399306E-02 0.84974374E+02</pdfrwt>
<totfact> 0.15465861E+05</totfact>
</mgrwt>
</event>
<event>
 8    1  0.1226832E-016  0.7971892E+02  0.7818608E-02  0.1329851E+00
          2   -1    0    0  501    0  0.00000000000E+00  0.00000000000E+00  0.67973970726E+02  0.67973970774E+02  0.25500000000E-02 0. -1.
         -1   -1    0    0    0  501 -0.00000000000E+00 -0.00000000000E+00 -0.23373305504E+02  0.23373306047E+02  0.50400000000E-02 0.  1.
         24    2    1    2    0    0  0.00000000000E+00  0.00000000000E+00  0.44600665222E+02  0.91347276821E+02  0.79718916478E+02 0.  0.
         66    2    3    3    0    0 -0.99061081665E+01 -0.38098207590E+02  0.29300083134E+02  0.49113127406E+02  0.20000028165E+01 0.  0.
        -13    1    3    3    0    0  0.99061081665E+01  0.38098207590E+02  0.15300582088E+02  0.42234149416E+02  0.10566000000E+00 0.  1.
         13    1    4    4    0    0 -0.77939353099E+01 -0.30471087947E+02  0.23762730480E+02  0.39419679758E+02  0.10566000000E+00 0. -1.
        -13    1    4    4    0    0 -0.15062237178E+01 -0.59459303339E+01  0.38976578965E+01  0.72681289571E+01  0.10566000000E+00 0.  1.
         14    1    4    4    0    0 -0.60594913882E+00 -0.16811893094E+01  0.16396947579E+01  0.24253186908E+01  0.00000000000E+00 0. -1.
<mgrwt>
<rscale>  0 0.79718916E+02</rscale>
<asrwt>0</asrwt>
<pdfrwt beam="1">  1        2 0.10457534E-01 0.79718916E+02</pdfrwt>
<pdfrwt beam="2">  1       -1 0.35958932E-02 0.79718916E+02</pdfrwt>
<totfact> 0.16185314E+05</totfact>
</mgrwt>
</event>
<event>
 8    1  0.1226832E-016  0.7762488E+02  0.7818608E-02  0.1335930E+00
         -1   -1    0    0    0  501 -0.00000000000E+00  0.00000000000E+00  0.35871086474E+01  0.35871121881E+01  0.50400000000E-02 0.  1.
          2   -1    0    0  501    0  0.00000000000E+00 -0.00000000000E+00 -0.41994952150E+03  0.41994952151E+03  0.25500000000E-02 0. -1.
         24    2    1    2    0    0  0.00000000000E+00  0.71054273576E-14 -0.41636241285E+03  0.42353663370E+03  0.77624875175E+02 0.  0.
         66    2    3    3    0    0  0.20670018451E+02  0.32182387289E+02 -0.24344467362E+03  0.24643917064E+03  0.19999997395E+01 0.  0.
        -13    1    3    3    0    0 -0.20670018451E+02 -0.32182387289E+02 -0.17291773923E+03  0.17709746305E+03  0.10566000000E+00 0.  1.
         13    1    4    4    0    0  0.22940850468E+01  0.43308940371E+01 -0.34353236709E+02  0.34701232050E+02  0.10566000000E+00 0. -1.
        -13    1    4    4    0    0  0.12055004824E+02  0.18755682866E+02 -0.13994720327E+03  0.14171213656E+03  0.10566000000E+00 0.  1.
         14    1    4    4    0    0  0.63209285805E+01  0.90958103857E+01 -0.69144233640E+02  0.70025802033E+02  0.00000000000E+00 0. -1.
<mgrwt>
<rscale>  0 0.77624875E+02</rscale>
<asrwt>0</asrwt>
<pdfrwt beam="1">  1        2 0.64607580E-01 0.77624875E+02</pdfrwt>
<pdfrwt beam="2">  1       -1 0.55186347E-03 0.77624875E+02</pdfrwt>
<totfact> 0.31083644E+05</totfact>
</mgrwt>
</event>
<event>
 8    1  0.1226832E-016  0.7603899E+02  0.7818608E-02  0.1340683E+00
         -1   -1    0    0    0  501 -0.00000000000E+00  0.00000000000E+00  0.24289170960E+02  0.24289171483E+02  0.50400000000E-02 0.  1.
          2   -1    0    0  501    0  0.00000000000E+00 -0.00000000000E+00 -0.59511373210E+02  0.59511373265E+02  0.25500000000E-02 0. -1.
         24    2    1    2    0    0  0.00000000000E+00  0.00000000000E+00 -0.35222202251E+02  0.83800544748E+02  0.76038988477E+02 0.  0.
         66    2    3    3    0    0  0.48503508253E+01 -0.27614683706E+02 -0.45879784237E+02  0.53805680569E+02  0.20000001341E+01 0.  0.
        -13    1    3    3    0    0 -0.48503508253E+01  0.27614683706E+02  0.10657581986E+02  0.29994864179E+02  0.10566000000E+00 0.  1.
         13    1    4    4    0    0  0.16170728374E+01 -0.12529826518E+02 -0.22058313064E+02  0.25420303232E+02  0.10566000000E+00 0. -1.
        -13    1    4    4    0    0  0.27488474280E+01 -0.13548365845E+02 -0.21354845615E+02  0.25439240840E+02  0.10566000000E+00 0.  1.
        -14    1    4    4    0    0  0.48443055998E+00 -0.15364913428E+01 -0.24666255581E+01  0.29461364968E+01  0.00000000000E+00 0.  1.
<mgrwt>
<rscale>  0 0.76038988E+02</rscale>
<asrwt>0</asrwt>
<pdfrwt beam="1">  1        2 0.91555959E-02 0.76038988E+02</pdfrwt>
<pdfrwt beam="2">  1       -1 0.37367956E-02 0.76038988E+02</pdfrwt>
<totfact> 0.17831018E+05</totfact>
</mgrwt>
</event>
<event>
 8    1  0.1226832E-016  0.7975853E+02  0.7818608E-02  0.1329738E+00
          2   -1    0    0  501    0  0.00000000000E+00  0.00000000000E+00  0.17940431129E+02  0.17940431311E+02  0.25500000000E-02 0. -1.
         -1   -1    0    0    0  501 -0.00000000000E+00 -0.00000000000E+00 -0.88646453886E+02  0.88646454029E+02  0.50400000000E-02 0.  1.
         24    2    1    2    0    0  0.00000000000E+00  0.00000000000E+00 -0.70706022757E+02  0.10658688534E+03  0.79758526017E+02 0.  0.
         66    2    3    3    0    0  0.75048282328E+01 -0.35540869554E+02 -0.57288172176E+02  0.67863175113E+02  0.20000024322E+01 0.  0.
        -13    1    3    3    0    0 -0.75048282328E+01  0.35540869554E+02 -0.13417850580E+02  0.38723710227E+02  0.10566000000E+00 0.  1.
         13    1    4    4    0    0  0.29344359862E+01 -0.10643540404E+02 -0.16717153169E+02  0.20034226738E+02  0.10566000000E+00 0. -1.
        -13    1    4    4    0    0  0.67723831872E+00 -0.53873779271E+01 -0.83366268914E+01  0.99495228344E+01  0.10566000000E+00 0.  1.
         14    1    4    4    0    0  0.38931539279E+01 -0.19509951223E+02 -0.32234392116E+02  0.37879425541E+02  0.00000000000E+00 0. -1.
<mgrwt>
<rscale>  0 0.79758526E+02</rscale>
<asrwt>0</asrwt>
<pdfrwt beam="1">  1        2 0.27600664E-02 0.79758526E+02</pdfrwt>
<pdfrwt beam="2">  1       -1 0.13637916E-01 0.79758526E+02</pdfrwt>
<totfact> 0.12249137E+05</totfact>
</mgrwt>
</event>
<event>
 8    1  0.1226832E-016  0.7699528E+02  0.7818608E-02  0.1337801E+00
          2   -1    0    0  501    0  0.00000000000E+00  0.00000000000E+00  0.45090942738E+03  0.45090942738E+03  0.25500000000E-02 0. -1.
         -1   -1    0    0    0  501 -0.00000000000E+00 -0.00000000000E+00 -0.32868403884E+01  0.32868442526E+01  0.50400000000E-02 0.  1.
         24    2    1    2    0    0  0.00000000000E+00  0.00000000000E+00  0.44762258699E+03  0.45419627164E+03  0.76995277689E+02 0.  0.
         66    2    3    3    0    0 -0.26950104292E+02  0.76209279797E+01  0.37955242160E+03  0.38058957871E+03  0.20000024672E+01 0.  0.
        -13    1    3    3    0    0  0.26950104292E+02 -0.76209279797E+01  0.68070165385E+02  0.73606692931E+02  0.10566000000E+00 0.  1.
         13    1    4    4    0    0 -0.23359844965E+02  0.59999663991E+01  0.32223008852E+03  0.32313143311E+03  0.10566000000E+00 0. -1.
        -13    1    4    4    0    0 -0.15203466961E+01  0.73850624071E+00  0.23259422997E+02  0.23320994141E+02  0.10566000000E+00 0.  1.
         14    1    4    4    0    0 -0.20699126309E+01  0.88245533997E+00  0.34062910086E+02  0.34137151452E+02  0.00000000000E+00 0. -1.
<mgrwt>
<rscale>  0 0.76995278E+02</rscale>
<asrwt>0</asrwt>
<pdfrwt beam="1">  1        2 0.69370703E-01 0.76995278E+02</pdfrwt>
<pdfrwt beam="2">  1       -1 0.50566789E-03 0.76995278E+02</pdfrwt>
<totfact> 0.32524256E+05</totfact>
</mgrwt>
</event>
<event>
 8    1  0.1226832E-016  0.8079482E+02  0.7818608E-02  0.1326811E+00
         -1   -1    0    0    0  501 -0.00000000000E+00  0.00000000000E+00  0.34048701359E+01  0.34048738661E+01  0.50400000000E-02 0.  1.
          2   -1    0    0  501    0  0.00000000000E+00 -0.00000000000E+00 -0.47929864410E+03  0.47929864411E+03  0.25500000000E-02 0. -1.
         24    2    1    2    0    0  0.71054273576E-14  0.00000000000E+00 -0.47589377397E+03  0.48270351798E+03  0.80794815215E+02 0.  0.
         66    2    3    3    0    0  0.24650593311E+02 -0.11038319356E+02 -0.41737012493E+03  0.41824791383E+03  0.19999992369E+01 0.  0.
        -13    1    3    3    0    0 -0.24650593311E+02  0.11038319356E+02 -0.58523649038E+02  0.64455604143E+02  0.10566000000E+00 0.  1.
         13    1    4    4    0    0  0.12826175663E+02 -0.60173134270E+01 -0.21118112377E+03  0.21165584576E+03  0.10566000000E+00 0. -1.
        -13    1    4    4    0    0  0.71571579841E+01 -0.33388190167E+01 -0.13434217690E+03  0.13457415904E+03  0.10566000000E+00 0.  1.
        -14    1    4    4    0    0  0.46672596636E+01 -0.16821869120E+01 -0.71846824256E+02  0.72017909031E+02  0.00000000000E+00 0.  1.
<mgrwt>
<rscale>  0 0.80794815E+02</rscale>
<asrwt>0</asrwt>
<pdfrwt beam="1">  1        2 0.73738199E-01 0.80794815E+02</pdfrwt>
<pdfrwt beam="2">  1       -1 0.52382685E-03 0.80794815E+02</pdfrwt>
<totfact> 0.29274294E+05</totfact>
</mgrwt>
</event>
<event>
 8    1  0.1226832E-016  0.7992781E+02  0.7818608E-02  0.1329256E+00
         -1   -1    0    0    0  501 -0.00000000000E+00  0.00000000000E+00  0.39290313566E+02  0.39290313889E+02  0.50400000000E-02 0.  1.
          2   -1    0    0  501    0  0.00000000000E+00 -0.00000000000E+00 -0.40649040747E+02  0.40649040827E+02  0.25500000000E-02 0. -1.
         24    2    1    2    0    0  0.17763568394E-14  0.00000000000E+00 -0.13587271804E+01  0.79939354716E+02  0.79927806756E+02 0.  0.
         66    2    3    3    0    0 -0.95851430575E+01 -0.20746763982E+02 -0.33438228636E+02  0.40551428129E+02  0.20000014548E+01 0.  0.
        -13    1    3    3    0    0  0.95851430575E+01  0.20746763982E+02  0.32079501455E+02  0.39387926587E+02  0.10566000000E+00 0.  1.
         13    1    4    4    0    0 -0.54251904465E+01 -0.13275468392E+02 -0.19935742567E+02  0.24558415017E+02  0.10566000000E+00 0. -1.
        -13    1    4    4    0    0 -0.16152197384E+00 -0.36885943862E+00 -0.76637864635E+00  0.87215073162E+00  0.10566000000E+00 0. -1.
         14    1    4    4    0    0 -0.39984306372E+01 -0.71024361514E+01 -0.12736107422E+02  0.15120862380E+02  0.00000000000E+00 0. -1.
<mgrwt>
<rscale>  0 0.79927807E+02</rscale>
<asrwt>0</asrwt>
<pdfrwt beam="1">  1        2 0.62536986E-02 0.79927807E+02</pdfrwt>
<pdfrwt beam="2">  1       -1 0.60446637E-02 0.79927807E+02</pdfrwt>
<totfact> 0.14338268E+05</totfact>
</mgrwt>
</event>
<event>
 8    1  0.1226832E-016  0.7952474E+02  0.7818608E-02  0.1330406E+00
         -1   -1    0    0    0  501 -0.00000000000E+00  0.00000000000E+00  0.56047915880E+01  0.56047938541E+01  0.50400000000E-02 0.  1.
          2   -1    0    0  501    0  0.00000000000E+00 -0.00000000000E+00 -0.28208822567E+03  0.28208822568E+03  0.25500000000E-02 0. -1.
         24    2    1    2    0    0  0.00000000000E+00  0.00000000000E+00 -0.27648343408E+03  0.28769301954E+03  0.79524739344E+02 0.  0.
         66    2    3    3    0    0  0.33959125527E+02  0.10328310965E+02 -0.20295695322E+03  0.20604713313E+03  0.19999998704E+01 0.  0.
        -13    1    3    3    0    0 -0.33959125527E+02 -0.10328310965E+02 -0.73526480868E+02  0.81645886405E+02  0.10566000000E+00 0.  1.
         13    1    4    4    0    0  0.21293945760E+02  0.65032607163E+01 -0.12690530245E+03  0.12884367070E+03  0.10566000000E+00 0.  1.
        -13    1    4    4    0    0  0.90118585168E+01  0.32880669468E+01 -0.54910921633E+02  0.55742671776E+02  0.10566000000E+00 0. -1.
        -14    1    4    4    0    0  0.36533212509E+01  0.53698330230E+00 -0.21140729135E+02  0.21460790656E+02  0.00000000000E+00 0.  1.
<mgrwt>
<rscale>  0 0.79524739E+02</rscale>
<asrwt>0</asrwt>
<pdfrwt beam="1">  1        2 0.43398178E-01 0.79524739E+02</pdfrwt>
<pdfrwt beam="2">  1       -1 0.86227603E-03 0.79524739E+02</pdfrwt>
<totfact> 0.25324975E+05</totfact>
</mgrwt>
</event>
<event>
 8    1  0.1226832E-016  0.8048706E+02  0.7818608E-02  0.1327675E+00
         -1   -1    0    0    0  501 -0.00000000000E+00  0.00000000000E+00  0.40752216405E+01  0.40752247571E+01  0.50400000000E-02 0.  1.
          2   -1    0    0  501    0  0.00000000000E+00 -0.00000000000E+00 -0.39741173955E+03  0.39741173956E+03  0.25500000000E-02 0. -1.
         24    2    1    2    0    0  0.35527136788E-14 -0.71054273576E-14 -0.39333651791E+03  0.40148696432E+03  0.80487056064E+02 0.  0.
         66    2    3    3    0    0  0.22452090603E+02 -0.32765734074E+02 -0.22827717233E+03  0.23171568162E+03  0.19999995939E+01 0.  0.
        -13    1    3    3    0    0 -0.22452090603E+02  0.32765734074E+02 -0.16505934558E+03  0.16977128270E+03  0.10566000000E+00 0.  1.
         13    1    4    4    0    0  0.18664972395E+01 -0.29806539876E+01 -0.22902695171E+02  0.23171377177E+02  0.10566000000E+00 0. -1.
        -13    1    4    4    0    0  0.92854338264E+01 -0.14244605918E+02 -0.94959303968E+02  0.96469729207E+02  0.10566000000E+00 0.  1.
        -14    1    4    4    0    0  0.11300159537E+02 -0.15540474168E+02 -0.11041517319E+03  0.11207457523E+03  0.00000000000E+00 0.  1.
<mgrwt>
<rscale>  0 0.80487056E+02</rscale>
<asrwt>0</asrwt>
<pdfrwt beam="1">  1        2 0.61140237E-01 0.80487056E+02</pdfrwt>
<pdfrwt beam="2">  1       -1 0.62695773E-03 0.80487056E+02</pdfrwt>
<totfact> 0.27745922E+05</totfact>
</mgrwt>
</event>
<event>
 8    1  0.1226832E-016  0.8110605E+02  0.7818608E-02  0.1325942E+00
          2   -1    0    0  501    0  0.00000000000E+00  0.00000000000E+00  0.20234507100E+03  0.20234507102E+03  0.25500000000E-02 0. -1.
         -1   -1    0    0    0  501 -0.00000000000E+00 -0.00000000000E+00 -0.81274402505E+01  0.81274418132E+01  0.50400000000E-02 0.  1.
         24    2    1    2    0    0  0.22204460493E-15  0.71054273576E-14  0.19421763075E+03  0.21047251283E+03  0.81106045168E+02 0.  0.
         66    2    3    3    0    0 -0.10496769654E+01 -0.22572991848E+02  0.18447415563E+03  0.18586381002E+03  0.19999989633E+01 0.  0.
        -13    1    3    3    0    0  0.10496769654E+01  0.22572991848E+02  0.97434751212E+01  0.24608702814E+02  0.10566000000E+00 0.  1.
         13    1    4    4    0    0 -0.97551732222E+00 -0.77290040251E+01  0.63763835134E+02  0.64238049257E+02  0.10566000000E+00 0. -1.
        -13    1    4    4    0    0 -0.40995262090E+00 -0.21142706236E+01  0.18501575599E+02  0.18626799647E+02  0.10566000000E+00 0.  1.
        -14    1    4    4    0    0  0.33579297768E+00 -0.12729717200E+02  0.10220874490E+03  0.10299896111E+03  0.00000000000E+00 0.  1.
<mgrwt>
<rscale>  0 0.81106045E+02</rscale>
<asrwt>0</asrwt>
<pdfrwt beam="1">  1        2 0.31130010E-01 0.81106045E+02</pdfrwt>
<pdfrwt beam="2">  1       -1 0.12503756E-02 0.81106045E+02</pdfrwt>
<totfact> 0.21359653E+05</totfact>
</mgrwt>
</event>
<event>
 8    1  0.1226832E-016  0.7748556E+02  0.7818608E-02  0.1336342E+00
         -1   -1    0    0    0  501 -0.00000000000E+00  0.00000000000E+00  0.24706857883E+01  0.24706909289E+01  0.50400000000E-02 0.  1.
          2   -1    0    0  501    0  0.00000000000E+00 -0.00000000000E+00 -0.60752415257E+03  0.60752415257E+03  0.25500000000E-02 0. -1.
         24    2    1    2    0    0  0.00000000000E+00  0.00000000000E+00 -0.60505346678E+03  0.60999484350E+03  0.77485556314E+02 0.  0.
         66    2    3    3    0    0  0.35316730713E+02  0.38075908650E+01 -0.42397975779E+03  0.42546986289E+03  0.20000001645E+01 0.  0.
        -13    1    3    3    0    0 -0.35316730713E+02 -0.38075908650E+01 -0.18107370899E+03  0.18452498061E+03  0.10566000000E+00 0.  1.
         13    1    4    4    0    0  0.23751544254E+02  0.28977241038E+01 -0.27649898969E+03  0.27753240373E+03  0.10566000000E+00 0. -1.
        -13    1    4    4    0    0  0.14125656156E+01  0.37144212817E-01 -0.19907550749E+02  0.19957917280E+02  0.10566000000E+00 0.  1.
        -14    1    4    4    0    0  0.10152620843E+02  0.87272254841E+00 -0.12757321735E+03  0.12797954188E+03  0.00000000000E+00 0.  1.
<mgrwt>
<rscale>  0 0.77485556E+02</rscale>
<asrwt>0</asrwt>
<pdfrwt beam="1">  1        2 0.93465136E-01 0.77485556E+02</pdfrwt>
<pdfrwt beam="2">  1       -1 0.38010639E-03 0.77485556E+02</pdfrwt>
<totfact> 0.35066281E+05</totfact>
</mgrwt>
</event>
<event>
 8    1  0.1226832E-016  0.7987303E+02  0.7818608E-02  0.1329412E+00
         -1   -1    0    0    0  501 -0.00000000000E+00  0.00000000000E+00  0.18686312212E+02  0.18686312891E+02  0.50400000000E-02 0.  1.
          2   -1    0    0  501    0  0.00000000000E+00 -0.00000000000E+00 -0.85352600307E+02  0.85352600345E+02  0.25500000000E-02 0. -1.
         24    2    1    2    0    0  0.00000000000E+00 -0.35527136788E-14 -0.66666288095E+02  0.10403891324E+03  0.79873033616E+02 0.  0.
         66    2    3    3    0    0  0.34299221809E+02 -0.18209534703E+02 -0.21352336742E+02  0.44361537942E+02  0.19999983680E+01 0.  0.
        -13    1    3    3    0    0 -0.34299221809E+02  0.18209534703E+02 -0.45313951353E+02  0.59677375295E+02  0.10566000000E+00 0.  1.
         13    1    4    4    0    0  0.18126412310E+01 -0.74498948790E+00 -0.79865265932E+00  0.21188883112E+01  0.10566000000E+00 0. -1.
        -13    1    4    4    0    0  0.11209398292E+01 -0.83982774331E+00 -0.71243782401E+00  0.15749756912E+01  0.10566000000E+00 0.  1.
         14    1    4    4    0    0  0.31365640748E+02 -0.16624717472E+02 -0.19841246259E+02  0.40667673940E+02  0.00000000000E+00 0. -1.
<mgrwt>
<rscale>  0 0.79873034E+02</rscale>
<asrwt>0</asrwt>
<pdfrwt beam="1">  1        2 0.13131169E-01 0.79873034E+02</pdfrwt>
<pdfrwt beam="2">  1       -1 0.28748174E-02 0.79873034E+02</pdfrwt>
<totfact> 0.17052047E+05</totfact>
</mgrwt>
</event>
<event>
 8    1  0.1226832E-016  0.8177715E+02  0.7818608E-02  0.1324082E+00
          2   -1    0    0  501    0  0.00000000000E+00  0.00000000000E+00  0.21960711770E+03  0.21960711771E+03  0.25500000000E-02 0. -1.
         -1   -1    0    0    0  501 -0.00000000000E+00 -0.00000000000E+00 -0.76130296100E+01  0.76130312783E+01  0.50400000000E-02 0.  1.
         24    2    1    2    0    0  0.00000000000E+00 -0.17763568394E-14  0.21199408809E+03  0.22722014899E+03  0.81777152819E+02 0.  0.
         66    2    3    3    0    0  0.20995719781E+02  0.10535013577E+02  0.19896721078E+03  0.20035907201E+03  0.20000024572E+01 0.  0.
        -13    1    3    3    0    0 -0.20995719781E+02 -0.10535013577E+02  0.13026877304E+02  0.26861076980E+02  0.10566000000E+00 0.  1.
         13    1    4    4    0    0  0.38351138885E+01  0.12340786566E+01  0.33151785832E+02  0.33395854781E+02  0.10566000000E+00 0. -1.
        -13    1    4    4    0    0  0.61362119982E+01  0.35495068350E+01  0.63859898563E+02  0.64252236576E+02  0.10566000000E+00 0.  1.
         14    1    4    4    0    0  0.11024393894E+02  0.57514280854E+01  0.10195552639E+03  0.10271098065E+03  0.00000000000E+00 0. -1.
<mgrwt>
<rscale>  0 0.81777153E+02</rscale>
<asrwt>0</asrwt>
<pdfrwt beam="1">  1        2 0.33785714E-01 0.81777153E+02</pdfrwt>
<pdfrwt beam="2">  1       -1 0.11712353E-02 0.81777153E+02</pdfrwt>
<totfact> 0.21509590E+05</totfact>
</mgrwt>
</event>
<event>
 8    1  0.1226832E-016  0.8197882E+02  0.7818608E-02  0.1323528E+00
         -1   -1    0    0    0  501 -0.00000000000E+00  0.00000000000E+00  0.33909276876E+02  0.33909277250E+02  0.50400000000E-02 0.  1.
          2   -1    0    0  501    0  0.00000000000E+00 -0.00000000000E+00 -0.49547852224E+02  0.49547852289E+02  0.25500000000E-02 0. -1.
         24    2    1    2    0    0 -0.35527136788E-14  0.00000000000E+00 -0.15638575348E+02  0.83457129540E+02  0.81978823071E+02 0.  0.
         66    2    3    3    0    0  0.20478755516E+02  0.23237903496E+01 -0.43864984229E+02  0.48506868433E+02  0.20000036574E+01 0.  0.
        -13    1    3    3    0    0 -0.20478755516E+02 -0.23237903496E+01  0.28226408881E+02  0.34950261107E+02  0.10566000000E+00 0.  1.
         13    1    4    4    0    0  0.13035122536E+02  0.80742488680E+00 -0.28917590386E+02  0.31730183615E+02  0.10566000000E+00 0. -1.
        -13    1    4    4    0    0  0.66147445558E+01  0.13838390258E+01 -0.13645653826E+02  0.15227767018E+02  0.10566000000E+00 0. -1.
         14    1    4    4    0    0  0.82888842447E+00  0.13252643706E+00 -0.13017400173E+01  0.15489177994E+01  0.00000000000E+00 0. -1.
<mgrwt>
<rscale>  0 0.81978823E+02</rscale>
<asrwt>0</asrwt>
<pdfrwt beam="1">  1        2 0.76227465E-02 0.81978823E+02</pdfrwt>
<pdfrwt beam="2">  1       -1 0.52168119E-02 0.81978823E+02</pdfrwt>
<totfact> 0.13946030E+05</totfact>
</mgrwt>
</event>
<event>
 8    1  0.1226832E-016  0.8722389E+02  0.7818608E-02  0.1309717E+00
         -1   -1    0    0    0  501 -0.00000000000E+00  0.00000000000E+00  0.27260696116E+01  0.27260742706E+01  0.50400000000E-02 0.  1.
          2   -1    0    0  501    0  0.00000000000E+00 -0.00000000000E+00 -0.69770782557E+03  0.69770782557E+03  0.25500000000E-02 0. -1.
         24    2    1    2    0    0  0.00000000000E+00  0.35527136788E-14 -0.69498175595E+03  0.70043389984E+03  0.87223889717E+02 0.  0.
         66    2    3    3    0    0  0.16946482210E+02 -0.19395225961E+02 -0.63006553461E+03  0.63059490638E+03  0.20000014220E+01 0.  0.
        -13    1    3    3    0    0 -0.16946482210E+02  0.19395225961E+02 -0.64916221348E+02  0.69838993460E+02  0.10566000000E+00 0.  1.
         13    1    4    4    0    0  0.93917872083E+01 -0.10274787171E+02 -0.34119293026E+03  0.34147679825E+03  0.10566000000E+00 0. -1.
        -13    1    4    4    0    0  0.30039626362E+01 -0.29595101396E+01 -0.11335725659E+03  0.11343571429E+03  0.10566000000E+00 0.  1.
        -14    1    4    4    0    0  0.45507323652E+01 -0.61609286500E+01 -0.17551534776E+03  0.17568239384E+03  0.00000000000E+00 0.  1.
<mgrwt>
<rscale>  0 0.87223890E+02</rscale>
<asrwt>0</asrwt>
<pdfrwt beam="1">  1        2 0.10733952E+00 0.87223890E+02</pdfrwt>
<pdfrwt beam="2">  1       -1 0.41939624E-03 0.87223890E+02</pdfrwt>
<totfact> 0.26673065E+05</totfact>
</mgrwt>
</event>
<event>
 8    1  0.1226832E-016  0.7606311E+02  0.7818608E-02  0.1340610E+00
          2   -1    0    0  501    0  0.00000000000E+00  0.00000000000E+00  0.22788949929E+03  0.22788949930E+03  0.25500000000E-02 0. -1.
         -1   -1    0    0    0  501 -0.00000000000E+00 -0.00000000000E+00 -0.63469312532E+01  0.63469332543E+01  0.50400000000E-02 0.  1.
         24    2    1    2    0    0  0.00000000000E+00  0.00000000000E+00  0.22154256803E+03  0.23423643255E+03  0.76063111199E+02 0.  0.
         66    2    3    3    0    0 -0.57057904598E+01  0.17356279652E+02  0.21347397813E+03  0.21426370627E+03  0.19999993789E+01 0.  0.
        -13    1    3    3    0    0  0.57057904598E+01 -0.17356279652E+02  0.80685898995E+01  0.19972726282E+02  0.10566000000E+00 0.  1.
         13    1    4    4    0    0 -0.19693166504E+01  0.53200435125E+01  0.60624825046E+02  0.60889749933E+02  0.10566000000E+00 0. -1.
        -13    1    4    4    0    0 -0.15281031789E+01  0.41563747987E+01  0.61254476664E+02  0.61414433371E+02  0.10566000000E+00 0.  1.
         14    1    4    4    0    0 -0.22083706304E+01  0.78798613408E+01  0.91594676423E+02  0.91959522969E+02  0.00000000000E+00 0. -1.
<mgrwt>
<rscale>  0 0.76063111E+02</rscale>
<asrwt>0</asrwt>
<pdfrwt beam="1">  1        2 0.35059922E-01 0.76063111E+02</pdfrwt>
<pdfrwt beam="2">  1       -1 0.97645114E-03 0.76063111E+02</pdfrwt>
<totfact> 0.26365647E+05</totfact>
</mgrwt>
</event>
<event>
 8    1  0.1226832E-016  0.8000842E+02  0.7818608E-02  0.1329028E+00
         -1   -1    0    0    0  501 -0.00000000000E+00  0.00000000000E+00  0.46555939791E+01  0.46555967072E+01  0.50400000000E-02 0.  1.
          2   -1    0    0  501    0  0.00000000000E+00 -0.00000000000E+00 -0.34374484760E+03  0.34374484761E+03  0.25500000000E-02 0. -1.
         24    2    1    2    0    0  0.00000000000E+00 -0.88817841970E-15 -0.33908925363E+03  0.34840044432E+03  0.80008422550E+02 0.  0.
         66    2    3    3    0    0  0.15037336769E+02 -0.72227286635E+01 -0.32786138306E+03  0.32829160179E+03  0.19999994801E+01 0.  0.
        -13    1    3    3    0    0 -0.15037336769E+02  0.72227286635E+01 -0.11227870565E+02  0.20108842530E+02  0.10566000000E+00 0.  1.
         13    1    4    4    0    0  0.81006990704E+01 -0.39835684805E+01 -0.19490522524E+03  0.19511419255E+03  0.10566000000E+00 0. -1.
        -13    1    4    4    0    0  0.17028604928E+01 -0.68114835328E+00 -0.28935292087E+02  0.28993550820E+02  0.10566000000E+00 0. -1.
         14    1    4    4    0    0  0.52337772056E+01 -0.25580118297E+01 -0.10402086573E+03  0.10418385842E+03  0.00000000000E+00 0. -1.
<mgrwt>
<rscale>  0 0.80008423E+02</rscale>
<asrwt>0</asrwt>
<pdfrwt beam="1">  1        2 0.52883803E-01 0.80008423E+02</pdfrwt>
<pdfrwt beam="2">  1       -1 0.71624571E-03 0.80008423E+02</pdfrwt>
<totfact> 0.26769014E+05</totfact>
</mgrwt>
</event>
<event>
 8    1  0.1226832E-016  0.7947644E+02  0.7818608E-02  0.1330544E+00
         -1   -1    0    0    0  501 -0.00000000000E+00  0.00000000000E+00  0.48927023049E+01  0.48927049008E+01  0.50400000000E-02 0.  1.
          2   -1    0    0  501    0  0.00000000000E+00 -0.00000000000E+00 -0.32275125115E+03  0.32275125116E+03  0.25500000000E-02 0. -1.
         24    2    1    2    0    0  0.35527136788E-14  0.00000000000E+00 -0.31785854885E+03  0.32764395606E+03  0.79476442229E+02 0.  0.
         66    2    3    3    0    0 -0.22240221439E+02 -0.63574651676E+01 -0.29210986484E+03  0.29303108699E+03  0.19999988269E+01 0.  0.
        -13    1    3    3    0    0  0.22240221439E+02  0.63574651676E+01 -0.25748684007E+02  0.34612869069E+02  0.10566000000E+00 0.  1.
         13    1    4    4    0    0 -0.12390236419E+01 -0.22108702360E+00 -0.13168173603E+02  0.13228606092E+02  0.10566000000E+00 0. -1.
        -13    1    4    4    0    0 -0.62040511008E+01 -0.14475082174E+01 -0.73992166071E+02  0.74265990426E+02  0.10566000000E+00 0. -1.
        -14    1    4    4    0    0 -0.14797146696E+02 -0.46888699266E+01 -0.20494952517E+03  0.20553649048E+03  0.00000000000E+00 0.  1.
<mgrwt>
<rscale>  0 0.79476442E+02</rscale>
<asrwt>0</asrwt>
<pdfrwt beam="1">  1        2 0.49654022E-01 0.79476442E+02</pdfrwt>
<pdfrwt beam="2">  1       -1 0.75272389E-03 0.79476442E+02</pdfrwt>
<totfact> 0.26630850E+05</totfact>
</mgrwt>
</event>
<event>
 8    1  0.1226832E-016  0.7153509E+02  0.7818608E-02  0.1354949E+00
          2   -1    0    0  501    0  0.00000000000E+00  0.00000000000E+00  0.16495195810E+03  0.16495195812E+03  0.25500000000E-02 0. -1.
         -1   -1    0    0    0  501 -0.00000000000E+00 -0.00000000000E+00 -0.77556962983E+01  0.77556979359E+01  0.50400000000E-02 0.  1.
         24    2    1    2    0    0  0.00000000000E+00  0.88817841970E-15  0.15719626181E+03  0.17270765606E+03  0.71535094436E+02 0.  0.
         66    2    3    3    0    0  0.22607195347E+02 -0.63131961671E+01  0.14372802571E+03  0.14564575896E+03  0.20000000015E+01 0.  0.
        -13    1    3    3    0    0 -0.22607195347E+02  0.63131961671E+01  0.13468236095E+02  0.27061897104E+02  0.10566000000E+00 0.  1.
         13    1    4    4    0    0  0.16047053292E+02 -0.44263683006E+01  0.97901875592E+02  0.99307044383E+02  0.10566000000E+00 0. -1.
        -13    1    4    4    0    0  0.45649495455E+01 -0.95912553640E+00  0.32101583006E+02  0.32438888416E+02  0.10566000000E+00 0.  1.
         14    1    4    4    0    0  0.19951925092E+01 -0.92770233004E+00  0.13724567113E+02  0.13899826158E+02  0.00000000000E+00 0. -1.
<mgrwt>
<rscale>  0 0.71535094E+02</rscale>
<asrwt>0</asrwt>
<pdfrwt beam="1">  1        2 0.25377224E-01 0.71535094E+02</pdfrwt>
<pdfrwt beam="2">  1       -1 0.11931842E-02 0.71535094E+02</pdfrwt>
<totfact> 0.27727730E+05</totfact>
</mgrwt>
</event>
<event>
 8    1  0.1226832E-016  0.8024938E+02  0.7818608E-02  0.1328345E+00
         -1   -1    0    0    0  501 -0.00000000000E+00  0.00000000000E+00  0.20123093253E+02  0.20123093884E+02  0.50400000000E-02 0.  1.
          2   -1    0    0  501    0  0.00000000000E+00 -0.00000000000E+00 -0.80007111980E+02  0.80007112020E+02  0.25500000000E-02 0. -1.
         24    2    1    2    0    0  0.00000000000E+00  0.17763568394E-14 -0.59884018727E+02  0.10013020590E+03  0.80249376543E+02 0.  0.
         66    2    3    3    0    0 -0.25212788386E+02 -0.13700817363E+02 -0.64910333384E+02  0.70998228668E+02  0.19999998382E+01 0.  0.
        -13    1    3    3    0    0  0.25212788386E+02  0.13700817363E+02  0.50263146572E+01  0.29131977236E+02  0.10566000000E+00 0.  1.
         13    1    4    4    0    0 -0.16420746314E+02 -0.91535409038E+01 -0.43094725058E+02  0.47016961965E+02  0.10566000000E+00 0. -1.
        -13    1    4    4    0    0 -0.34601235581E+00 -0.34586218344E+00 -0.15248466178E+01  0.16048882963E+01  0.10566000000E+00 0.  1.
         14    1    4    4    0    0 -0.84460297163E+01 -0.42014142757E+01 -0.20290761708E+02  0.22376378406E+02  0.00000000000E+00 0. -1.
<mgrwt>
<rscale>  0 0.80249377E+02</rscale>
<asrwt>0</asrwt>
<pdfrwt beam="1">  1        2 0.12308786E-01 0.80249377E+02</pdfrwt>
<pdfrwt beam="2">  1       -1 0.30958606E-02 0.80249377E+02</pdfrwt>
<totfact> 0.16556503E+05</totfact>
</mgrwt>
</event>
<event>
 8    1  0.1226832E-016  0.7748460E+02  0.7818608E-02  0.1336345E+00
          2   -1    0    0  501    0  0.00000000000E+00  0.00000000000E+00  0.12847448506E+04  0.12847448506E+04  0.25500000000E-02 0. -1.
         -1   -1    0    0    0  501 -0.00000000000E+00 -0.00000000000E+00 -0.11682933212E+01  0.11683041924E+01  0.50400000000E-02 0.  1.
         24    2    1    2    0    0 -0.35527136788E-14  0.00000000000E+00  0.12835765573E+04  0.12859131548E+04  0.77484600271E+02 0.  0.
         66    2    3    3    0    0  0.22557865647E+02 -0.41590964201E+01  0.11598325302E+04  0.11600610560E+04  0.20000007714E+01 0.  0.
        -13    1    3    3    0    0 -0.22557865647E+02  0.41590964201E+01  0.12374402709E+03  0.12585209887E+03  0.10566000000E+00 0.  1.
         13    1    4    4    0    0  0.58317480070E+01 -0.13958470733E+01  0.33570244982E+03  0.33575601804E+03  0.10566000000E+00 0. -1.
        -13    1    4    4    0    0  0.75031949449E+01 -0.14002224083E+01  0.34846066805E+03  0.34854426821E+03  0.10566000000E+00 0.  1.
         14    1    4    4    0    0  0.92229226956E+01 -0.13630269385E+01  0.47566941236E+03  0.47576076971E+03  0.00000000000E+00 0. -1.
<mgrwt>
<rscale>  0 0.77484600E+02</rscale>
<asrwt>0</asrwt>
<pdfrwt beam="1">  1        2 0.19765243E+00 0.77484600E+02</pdfrwt>
<pdfrwt beam="2">  1       -1 0.17973884E-03 0.77484600E+02</pdfrwt>
<totfact> 0.37689420E+05</totfact>
</mgrwt>
</event>
<event>
 8    1  0.1226832E-016  0.8066946E+02  0.7818608E-02  0.1327162E+00
          2   -1    0    0  501    0  0.00000000000E+00  0.00000000000E+00  0.12492998793E+03  0.12492998796E+03  0.25500000000E-02 0. -1.
         -1   -1    0    0    0  501 -0.00000000000E+00 -0.00000000000E+00 -0.13022416950E+02  0.13022417925E+02  0.50400000000E-02 0.  1.
         24    2    1    2    0    0  0.35527136788E-14  0.17763568394E-14  0.11190757098E+03  0.13795240588E+03  0.80669460430E+02 0.  0.
         66    2    3    3    0    0  0.17361494359E+02  0.93889016026E+01  0.11609279870E+03  0.11777568031E+03  0.20000009261E+01 0.  0.
        -13    1    3    3    0    0 -0.17361494359E+02 -0.93889016026E+01 -0.41852277168E+01  0.20176725571E+02  0.10566000000E+00 0.  1.
         13    1    4    4    0    0  0.12940961685E+02  0.74709791045E+01  0.87606052875E+02  0.88871343427E+02  0.10566000000E+00 0. -1.
        -13    1    4    4    0    0  0.12128456428E+01  0.93184166015E+00  0.82539415756E+01  0.83951199516E+01  0.10566000000E+00 0.  1.
         14    1    4    4    0    0  0.32076870315E+01  0.98608083795E+00  0.20232804249E+02  0.20509216935E+02  0.00000000000E+00 0. -1.
<mgrwt>
<rscale>  0 0.80669460E+02</rscale>
<asrwt>0</asrwt>
<pdfrwt beam="1">  1        2 0.19219999E-01 0.80669460E+02</pdfrwt>
<pdfrwt beam="2">  1       -1 0.20034488E-02 0.80669460E+02</pdfrwt>
<totfact> 0.18499385E+05</totfact>
</mgrwt>
</event>
<event>
 8    1  0.1295897E-016  0.7908357E+02  0.7818608E-02  0.1331672E+00
         -1   -1    0    0    0  501 -0.00000000000E+00  0.00000000000E+00  0.14936521649E+01  0.14936606681E+01  0.50400000000E-02 0.  1.
          2   -1    0    0  501    0  0.00000000000E+00 -0.00000000000E+00 -0.10467954791E+04  0.10467954791E+04  0.25500000000E-02 0. -1.
         24    2    1    2    0    0  0.17763568394E-14  0.44408920985E-15 -0.10453018269E+04  0.10482891397E+04  0.79083570786E+02 0.  0.
         66    2    3    3    0    0 -0.15242950989E+02 -0.36943876898E+01 -0.10037669066E+04  0.10038914279E+04  0.19999995824E+01 0.  0.
        -13    1    3    3    0    0  0.15242950989E+02  0.36943876898E+01 -0.41534920249E+02  0.44397711870E+02  0.10566000000E+00 0.  1.
         13    1    4    4    0    0 -0.47212456701E+01 -0.10168125970E+01 -0.30629407907E+03  0.30633216956E+03  0.10566000000E+00 0. -1.
        -13    1    4    4    0    0 -0.65763172665E+01 -0.19116311766E+01 -0.48576067224E+03  0.48580895848E+03  0.10566000000E+00 0.  1.
        -14    1    4    4    0    0 -0.39453880520E+01 -0.76594391610E+00 -0.21171215533E+03  0.21175029982E+03  0.00000000000E+00 0.  1.
<mgrwt>
<rscale>  0 0.79083571E+02</rscale>
<asrwt>0</asrwt>
<pdfrwt beam="1">  1        2 0.16104487E+00 0.79083571E+02</pdfrwt>
<pdfrwt beam="2">  1       -1 0.22979413E-03 0.79083571E+02</pdfrwt>
<totfact> 0.36342212E+05</totfact>
</mgrwt>
</event>
<event>
 8    1  0.1226832E-016  0.8241298E+02  0.7818608E-02  0.1322340E+00
          2   -1    0    0  501    0  0.00000000000E+00  0.00000000000E+00  0.25375539917E+03  0.25375539919E+03  0.25500000000E-02 0. -1.
         -1   -1    0    0    0  501 -0.00000000000E+00 -0.00000000000E+00 -0.66913832834E+01  0.66913851815E+01  0.50400000000E-02 0.  1.
         24    2    1    2    0    0  0.00000000000E+00  0.35527136788E-14  0.24706401589E+03  0.26044678437E+03  0.82412981622E+02 0.  0.
         66    2    3    3    0    0 -0.24840280712E+02 -0.28506993904E+02  0.17517418384E+03  0.17921964996E+03  0.20000004403E+01 0.  0.
        -13    1    3    3    0    0  0.24840280712E+02  0.28506993904E+02  0.71889832049E+02  0.81227134403E+02  0.10566000000E+00 0.  1.
         13    1    4    4    0    0 -0.86624103696E+01 -0.10397278674E+02  0.62171647537E+02  0.63627554399E+02  0.10566000000E+00 0. -1.
        -13    1    4    4    0    0 -0.12477456259E+02 -0.14791047137E+02  0.91105579798E+02  0.93138068610E+02  0.10566000000E+00 0.  1.
        -14    1    4    4    0    0 -0.37004140832E+01 -0.33186680929E+01  0.21896956506E+02  0.22454026956E+02  0.00000000000E+00 0.  1.
<mgrwt>
<rscale>  0 0.82412982E+02</rscale>
<asrwt>0</asrwt>
<pdfrwt beam="1">  1        2 0.39039284E-01 0.82412982E+02</pdfrwt>
<pdfrwt beam="2">  1       -1 0.10294439E-02 0.82412982E+02</pdfrwt>
<totfact> 0.22190738E+05</totfact>
</mgrwt>
</event>
<event>
 8    1  0.1226832E-016  0.7905785E+02  0.7818608E-02  0.1331747E+00
          2   -1    0    0  501    0  0.00000000000E+00  0.00000000000E+00  0.64823316313E+01  0.64823321329E+01  0.25500000000E-02 0. -1.
         -1   -1    0    0    0  501 -0.00000000000E+00 -0.00000000000E+00 -0.24104531363E+03  0.24104531369E+03  0.50400000000E-02 0.  1.
         24    2    1    2    0    0  0.00000000000E+00  0.71054273576E-14 -0.23456298200E+03  0.24752764582E+03  0.79057845398E+02 0.  0.
         66    2    3    3    0    0 -0.12210133794E+02 -0.36706277837E+02 -0.14242220054E+03  0.14759580419E+03  0.20000016034E+01 0.  0.
        -13    1    3    3    0    0  0.12210133794E+02  0.36706277837E+02 -0.92140781458E+02  0.99931841630E+02  0.10566000000E+00 0.  1.
         13    1    4    4    0    0 -0.15419582719E+01 -0.49471664867E+01 -0.17378662181E+02  0.18135080777E+02  0.10566000000E+00 0. -1.
        -13    1    4    4    0    0 -0.35313854839E+01 -0.87277069077E+01 -0.34567554996E+02  0.35826953174E+02  0.10566000000E+00 0.  1.
        -14    1    4    4    0    0 -0.71367900387E+01 -0.23031404442E+02 -0.90475983367E+02  0.93633770238E+02  0.00000000000E+00 0.  1.
<mgrwt>
<rscale>  0 0.79057845E+02</rscale>
<asrwt>0</asrwt>
<pdfrwt beam="1">  1        2 0.99728202E-03 0.79057845E+02</pdfrwt>
<pdfrwt beam="2">  1       -1 0.37083888E-01 0.79057845E+02</pdfrwt>
<totfact> 0.96671342E+04</totfact>
</mgrwt>
</event>
<event>
 8    1  0.1226832E-016  0.8181181E+02  0.7818608E-02  0.1323987E+00
         -1   -1    0    0    0  501 -0.00000000000E+00  0.00000000000E+00  0.25315492916E+01  0.25315543086E+01  0.50400000000E-02 0.  1.
          2   -1    0    0  501    0  0.00000000000E+00 -0.00000000000E+00 -0.66097520591E+03  0.66097520591E+03  0.25500000000E-02 0. -1.
         24    2    1    2    0    0 -0.17763568394E-14 -0.17763568394E-14 -0.65844365662E+03  0.66350676022E+03  0.81811807957E+02 0.  0.
         66    2    3    3    0    0  0.14178937623E+02  0.14758610558E+02 -0.61643392109E+03  0.61677681371E+03  0.20000010966E+01 0.  0.
        -13    1    3    3    0    0 -0.14178937623E+02 -0.14758610558E+02 -0.42009735523E+02  0.46729946506E+02  0.10566000000E+00 0.  1.
         13    1    4    4    0    0  0.22935279120E+01  0.27361836793E+01 -0.11323846539E+03  0.11329478443E+03  0.10566000000E+00 0. -1.
        -13    1    4    4    0    0  0.41592904896E+01  0.49587403518E+01 -0.17507747096E+03  0.17519709131E+03  0.10566000000E+00 0.  1.
        -14    1    4    4    0    0  0.77261192214E+01  0.70636865273E+01 -0.32811798475E+03  0.32828493798E+03  0.00000000000E+00 0.  1.
<mgrwt>
<rscale>  0 0.81811808E+02</rscale>
<asrwt>0</asrwt>
<pdfrwt beam="1">  1        2 0.10168836E+00 0.81811808E+02</pdfrwt>
<pdfrwt beam="2">  1       -1 0.38947004E-03 0.81811808E+02</pdfrwt>
<totfact> 0.31127377E+05</totfact>
</mgrwt>
</event>
<event>
 8    1  0.1226832E-016  0.8366152E+02  0.7818608E-02  0.1318970E+00
          2   -1    0    0  501    0  0.00000000000E+00  0.00000000000E+00  0.78440701140E+03  0.78440701140E+03  0.25500000000E-02 0. -1.
         -1   -1    0    0    0  501 -0.00000000000E+00 -0.00000000000E+00 -0.22307429948E+01  0.22307486883E+01  0.50400000000E-02 0.  1.
         24    2    1    2    0    0  0.00000000000E+00  0.00000000000E+00  0.78217626840E+03  0.78663776009E+03  0.83661524891E+02 0.  0.
         66    2    3    3    0    0  0.31693816785E+02  0.50172219343E+00  0.64761794361E+03  0.64839629134E+03  0.19999970537E+01 0.  0.
        -13    1    3    3    0    0 -0.31693816785E+02 -0.50172219343E+00  0.13455832480E+03  0.13824146875E+03  0.10566000000E+00 0.  1.
         13    1    4    4    0    0  0.19416991112E+02  0.46250636666E-01  0.38535359638E+03  0.38584249000E+03  0.10566000000E+00 0. -1.
        -13    1    4    4    0    0  0.12014782398E+02  0.30109019982E+00  0.25500581341E+03  0.25528889848E+03  0.10566000000E+00 0.  1.
        -14    1    4    4    0    0  0.26204327484E+00  0.15438135695E+00  0.72585338199E+01  0.72649028552E+01  0.00000000000E+00 0.  1.
<mgrwt>
<rscale>  0 0.83661525E+02</rscale>
<asrwt>0</asrwt>
<pdfrwt beam="1">  1        2 0.12067822E+00 0.83661525E+02</pdfrwt>
<pdfrwt beam="2">  1       -1 0.34319105E-03 0.83661525E+02</pdfrwt>
<totfact> 0.30479226E+05</totfact>
</mgrwt>
</event>
<event>
 8    1  0.1226832E-016  0.7994820E+02  0.7818608E-02  0.1329198E+00
          2   -1    0    0  501    0  0.00000000000E+00  0.00000000000E+00  0.10437490728E+02  0.10437491039E+02  0.25500000000E-02 0. -1.
         -1   -1    0    0    0  501 -0.00000000000E+00 -0.00000000000E+00 -0.15309511333E+03  0.15309511341E+03  0.50400000000E-02 0.  1.
         24    2    1    2    0    0  0.71054273576E-14  0.00000000000E+00 -0.14265762260E+03  0.16353260445E+03  0.79948204685E+02 0.  0.
         66    2    3    3    0    0 -0.38440733735E+02  0.10123840001E+02 -0.79488953725E+02  0.88896996072E+02  0.19999999787E+01 0.  0.
        -13    1    3    3    0    0  0.38440733735E+02 -0.10123840001E+02 -0.63168668876E+02  0.74635608379E+02  0.10566000000E+00 0.  1.
         13    1    4    4    0    0 -0.62987361283E+01  0.13768995592E+01 -0.14253575265E+02  0.15644344061E+02  0.10566000000E+00 0. -1.
        -13    1    4    4    0    0 -0.25337072588E+01  0.49954436900E+00 -0.52119543204E+01  0.58176325875E+01  0.10566000000E+00 0.  1.
         14    1    4    4    0    0 -0.29608290348E+02  0.82473960723E+01 -0.60023424139E+02  0.67435019424E+02  0.00000000000E+00 0. -1.
<mgrwt>
<rscale>  0 0.79948205E+02</rscale>
<asrwt>0</asrwt>
<pdfrwt beam="1">  1        2 0.16057679E-02 0.79948205E+02</pdfrwt>
<pdfrwt beam="2">  1       -1 0.23553093E-01 0.79948205E+02</pdfrwt>
<totfact> 0.10748531E+05</totfact>
</mgrwt>
</event>
<event>
 8    1  0.1226832E-016  0.7986777E+02  0.7818608E-02  0.1329427E+00
          2   -1    0    0  501    0  0.00000000000E+00  0.00000000000E+00  0.16641731856E+04  0.16641731856E+04  0.25500000000E-02 0. -1.
         -1   -1    0    0    0  501 -0.00000000000E+00 -0.00000000000E+00 -0.95825602378E+00  0.95826927777E+00  0.50400000000E-02 0.  1.
         24    2    1    2    0    0  0.00000000000E+00  0.00000000000E+00  0.16632149296E+04  0.16651314549E+04  0.79867766118E+02 0.  0.
         66    2    3    3    0    0 -0.34055678935E+01 -0.11466286243E+02  0.16259191560E+04  0.16259643832E+04  0.19999994476E+01 0.  0.
        -13    1    3    3    0    0  0.34055678935E+01  0.11466286243E+02  0.37295773619E+02  0.39167071716E+02  0.10566000000E+00 0.  1.
         13    1    4    4    0    0 -0.17707135733E+01 -0.53621893266E+01  0.73281515938E+03  0.73283692420E+03  0.10566000000E+00 0. -1.
        -13    1    4    4    0    0 -0.12415198495E+01 -0.20564965972E+01  0.31983535082E+03  0.31984438927E+03  0.10566000000E+00 0.  1.
        -14    1    4    4    0    0 -0.39333447075E+00 -0.40476003190E+01  0.57326864578E+03  0.57328306971E+03  0.00000000000E+00 0.  1.
<mgrwt>
<rscale>  0 0.79867766E+02</rscale>
<asrwt>0</asrwt>
<pdfrwt beam="1">  1        2 0.25602350E+00 0.79867766E+02</pdfrwt>
<pdfrwt beam="2">  1       -1 0.14742683E-03 0.79867766E+02</pdfrwt>
<totfact> 0.31848456E+05</totfact>
</mgrwt>
</event>
<event>
 8    1  0.1226832E-016  0.8152639E+02  0.7818608E-02  0.1324775E+00
         -1   -1    0    0    0  501 -0.00000000000E+00  0.00000000000E+00  0.19855238450E+01  0.19855302417E+01  0.50400000000E-02 0.  1.
          2   -1    0    0  501    0  0.00000000000E+00 -0.00000000000E+00 -0.83687505980E+03  0.83687505980E+03  0.25500000000E-02 0. -1.
         24    2    1    2    0    0  0.00000000000E+00  0.00000000000E+00 -0.83488953595E+03  0.83886059004E+03  0.81526390110E+02 0.  0.
         66    2    3    3    0    0  0.61031900518E+01  0.23962549666E+02 -0.75082210496E+03  0.75123184571E+03  0.20000000607E+01 0.  0.
        -13    1    3    3    0    0 -0.61031900518E+01 -0.23962549666E+02 -0.84067430990E+02  0.87628744329E+02  0.10566000000E+00 0.  1.
         13    1    4    4    0    0  0.14392790968E+01  0.53157005170E+01 -0.17203610271E+03  0.17212425743E+03  0.10566000000E+00 0. -1.
        -13    1    4    4    0    0  0.31170158791E+01  0.12203006430E+02 -0.40273221458E+03  0.40292912153E+03  0.10566000000E+00 0.  1.
        -14    1    4    4    0    0  0.15468950759E+01  0.64438427182E+01 -0.17605378767E+03  0.17617846675E+03  0.00000000000E+00 0.  1.
<mgrwt>
<rscale>  0 0.81526390E+02</rscale>
<asrwt>0</asrwt>
<pdfrwt beam="1">  1        2 0.12874973E+00 0.81526390E+02</pdfrwt>
<pdfrwt beam="2">  1       -1 0.30546637E-03 0.81526390E+02</pdfrwt>
<totfact> 0.32956779E+05</totfact>
</mgrwt>
</event>
<event>
 8    1  0.1226832E-016  0.7799610E+02  0.7818608E-02  0.1334836E+00
          2   -1    0    0  501    0  0.00000000000E+00  0.00000000000E+00  0.19728119559E+03  0.19728119561E+03  0.25500000000E-02 0. -1.
         -1   -1    0    0    0  501 -0.00000000000E+00 -0.00000000000E+00 -0.77090353847E+01  0.77090370322E+01  0.50400000000E-02 0.  1.
         24    2    1    2    0    0  0.00000000000E+00  0.00000000000E+00  0.18957216021E+03  0.20499023264E+03  0.77996099597E+02 0.  0.
         66    2    3    3    0    0 -0.23157914748E+02  0.23666357986E+02  0.14886788048E+03  0.15251895413E+03  0.20000040895E+01 0.  0.
        -13    1    3    3    0    0  0.23157914748E+02 -0.23666357986E+02  0.40704279731E+02  0.52471278508E+02  0.10566000000E+00 0.  1.
         13    1    4    4    0    0 -0.31053691192E+01  0.29093089762E+01  0.17288492837E+02  0.17804789937E+02  0.10566000000E+00 0. -1.
        -13    1    4    4    0    0 -0.89732158962E+01  0.90687027903E+01  0.61188132003E+02  0.62504068955E+02  0.10566000000E+00 0.  1.
         14    1    4    4    0    0 -0.11079329733E+02  0.11688346220E+02  0.70391255636E+02  0.72210095240E+02  0.00000000000E+00 0. -1.
<mgrwt>
<rscale>  0 0.77996100E+02</rscale>
<asrwt>0</asrwt>
<pdfrwt beam="1">  1        2 0.30350947E-01 0.77996100E+02</pdfrwt>
<pdfrwt beam="2">  1       -1 0.11860058E-02 0.77996100E+02</pdfrwt>
<totfact> 0.23472254E+05</totfact>
</mgrwt>
</event>
<event>
 8    1  0.1226832E-016  0.7597260E+02  0.7818608E-02  0.1340885E+00
          2   -1    0    0  501    0  0.00000000000E+00  0.00000000000E+00  0.17428269394E+03  0.17428269396E+03  0.25500000000E-02 0. -1.
         -1   -1    0    0    0  501 -0.00000000000E+00 -0.00000000000E+00 -0.82794157617E+01  0.82794172957E+01  0.50400000000E-02 0.  1.
         24    2    1    2    0    0  0.35527136788E-14  0.35527136788E-14  0.16600327818E+03  0.18256211126E+03  0.75972600980E+02 0.  0.
         66    2    3    3    0    0  0.29988740321E+02  0.19560218483E+02  0.11336228381E+03  0.11889883970E+03  0.19999994052E+01 0.  0.
        -13    1    3    3    0    0 -0.29988740321E+02 -0.19560218483E+02  0.52640994367E+02  0.63663271556E+02  0.10566000000E+00 0.  1.
         13    1    4    4    0    0  0.65998527662E+01  0.40294186966E+01  0.23738976226E+02  0.24966866600E+02  0.10566000000E+00 0. -1.
        -13    1    4    4    0    0  0.10608868986E+02  0.67413917746E+01  0.37586909673E+02  0.39633084753E+02  0.10566000000E+00 0.  1.
         14    1    4    4    0    0  0.12780018569E+02  0.87894080120E+01  0.52036397913E+02  0.54298888346E+02  0.00000000000E+00 0. -1.
<mgrwt>
<rscale>  0 0.75972601E+02</rscale>
<asrwt>0</asrwt>
<pdfrwt beam="1">  1        2 0.26812722E-01 0.75972601E+02</pdfrwt>
<pdfrwt beam="2">  1       -1 0.12737564E-02 0.75972601E+02</pdfrwt>
<totfact> 0.24116005E+05</totfact>
</mgrwt>
</event>
<event>
 8    1  0.1226832E-016  0.7992925E+02  0.7818608E-02  0.1329252E+00
         -1   -1    0    0    0  501 -0.00000000000E+00  0.00000000000E+00  0.37212333449E+02  0.37212333790E+02  0.50400000000E-02 0.  1.
          2   -1    0    0  501    0  0.00000000000E+00 -0.00000000000E+00 -0.42920483953E+02  0.42920484029E+02  0.25500000000E-02 0. -1.
         24    2    1    2    0    0  0.00000000000E+00  0.00000000000E+00 -0.57081505038E+01  0.80132817819E+02  0.79929253152E+02 0.  0.
         66    2    3    3    0    0  0.19540055663E+02  0.26024409111E+02 -0.26068285696E+02  0.41744930224E+02  0.20000088537E+01 0.  0.
        -13    1    3    3    0    0 -0.19540055663E+02 -0.26024409111E+02  0.20360135192E+02  0.38387887595E+02  0.10566000000E+00 0.  1.
         13    1    4    4    0    0  0.24715442245E+01  0.40529422607E+01 -0.38859715671E+01  0.61356997057E+01  0.10566000000E+00 0. -1.
        -13    1    4    4    0    0  0.80907120563E+01  0.93134363182E+01 -0.97701064425E+01  0.15737403266E+02  0.10566000000E+00 0.  1.
         14    1    4    4    0    0  0.89777993819E+01  0.12658030532E+02 -0.12412207686E+02  0.19871827252E+02  0.00000000000E+00 0. -1.
<mgrwt>
<rscale>  0 0.79929253E+02</rscale>
<asrwt>0</asrwt>
<pdfrwt beam="1">  1        2 0.66031514E-02 0.79929253E+02</pdfrwt>
<pdfrwt beam="2">  1       -1 0.57249744E-02 0.79929253E+02</pdfrwt>
<totfact> 0.14500100E+05</totfact>
</mgrwt>
</event>
<event>
 8    1  0.1226832E-016  0.8103280E+02  0.7818608E-02  0.1326146E+00
          2   -1    0    0  501    0  0.00000000000E+00  0.00000000000E+00  0.16115993092E+03  0.16115993094E+03  0.25500000000E-02 0. -1.
         -1   -1    0    0    0  501 -0.00000000000E+00 -0.00000000000E+00 -0.10186020738E+02  0.10186021985E+02  0.50400000000E-02 0.  1.
         24    2    1    2    0    0 -0.88817841970E-15  0.35527136788E-14  0.15097391019E+03  0.17134595293E+03  0.81032796005E+02 0.  0.
         66    2    3    3    0    0 -0.68462423283E+01  0.24348804689E+02  0.14239458454E+03  0.14463731544E+03  0.19999973274E+01 0.  0.
        -13    1    3    3    0    0  0.68462423283E+01 -0.24348804689E+02  0.85793256508E+01  0.26708637488E+02  0.10566000000E+00 0.  1.
         13    1    4    4    0    0 -0.23808603963E+01  0.82915856872E+01  0.51668269973E+02  0.52383586890E+02  0.10566000000E+00 0. -1.
        -13    1    4    4    0    0 -0.19211228079E+01  0.52708925134E+01  0.28183168371E+02  0.28736303941E+02  0.10566000000E+00 0.  1.
         14    1    4    4    0    0 -0.25442591241E+01  0.10786326489E+02  0.62543146192E+02  0.63517424611E+02  0.00000000000E+00 0. -1.
<mgrwt>
<rscale>  0 0.81032796E+02</rscale>
<asrwt>0</asrwt>
<pdfrwt beam="1">  1        2 0.24793835E-01 0.81032796E+02</pdfrwt>
<pdfrwt beam="2">  1       -1 0.15670802E-02 0.81032796E+02</pdfrwt>
<totfact> 0.19817848E+05</totfact>
</mgrwt>
</event>
<event>
 8    1  0.1226832E-016  0.8161641E+02  0.7818608E-02  0.1324526E+00
         -1   -1    0    0    0  501 -0.00000000000E+00  0.00000000000E+00  0.91143021579E+02  0.91143021718E+02  0.50400000000E-02 0.  1.
          2   -1    0    0  501    0  0.00000000000E+00 -0.00000000000E+00 -0.18271389222E+02  0.18271389400E+02  0.25500000000E-02 0. -1.
         24    2    1    2    0    0  0.00000000000E+00  0.00000000000E+00  0.72871632357E+02  0.10941441112E+03  0.81616411082E+02 0.  0.
         66    2    3    3    0    0 -0.17917411406E+01  0.31175302511E+02  0.12892238162E+01  0.31317278011E+02  0.19999952440E+01 0.  0.
        -13    1    3    3    0    0  0.17917411406E+01 -0.31175302511E+02  0.71582408541E+02  0.78097133107E+02  0.10566000000E+00 0.  1.
         13    1    4    4    0    0 -0.13809571147E+01  0.25106182063E+02  0.17119438165E+01  0.25202566060E+02  0.10566000000E+00 0. -1.
        -13    1    4    4    0    0 -0.13525603959E+00  0.32795988339E+01 -0.29881465495E-01  0.32842228373E+01  0.10566000000E+00 0.  1.
         14    1    4    4    0    0 -0.27552798629E+00  0.27895216140E+01 -0.39283853489E+00  0.28304891133E+01  0.00000000000E+00 0. -1.
<mgrwt>
<rscale>  0 0.81616411E+02</rscale>
<asrwt>0</asrwt>
<pdfrwt beam="1">  1        2 0.28109830E-02 0.81616411E+02</pdfrwt>
<pdfrwt beam="2">  1       -1 0.14022003E-01 0.81616411E+02</pdfrwt>
<totfact> 0.11502113E+05</totfact>
</mgrwt>
</event>
<event>
 8    1  0.1226832E-016  0.8098562E+02  0.7818608E-02  0.1326277E+00
          2   -1    0    0  501    0  0.00000000000E+00  0.00000000000E+00  0.64753372160E+01  0.64753377181E+01  0.25500000000E-02 0. -1.
         -1   -1    0    0    0  501 -0.00000000000E+00 -0.00000000000E+00 -0.25321730023E+03  0.25321730028E+03  0.50400000000E-02 0.  1.
         24    2    1    2    0    0  0.00000000000E+00  0.71054273576E-14 -0.24674196301E+03  0.25969263799E+03  0.80985615503E+02 0.  0.
         66    2    3    3    0    0  0.84694846548E+01 -0.33701099173E+02 -0.56938621920E+02  0.66734570765E+02  0.20000033171E+01 0.  0.
        -13    1    3    3    0    0 -0.84694846548E+01  0.33701099173E+02 -0.18980334109E+03  0.19295806723E+03  0.10566000000E+00 0.  1.
         13    1    4    4    0    0  0.35736452146E+01 -0.12861708178E+02 -0.21999567458E+02  0.25732986802E+02  0.10566000000E+00 0. -1.
        -13    1    4    4    0    0  0.13306752949E+01 -0.37651124098E+01 -0.58497264548E+01  0.70835889089E+01  0.10566000000E+00 0.  1.
        -14    1    4    4    0    0  0.35651641453E+01 -0.17074278585E+02 -0.29089328008E+02  0.33917995054E+02  0.00000000000E+00 0.  1.
<mgrwt>
<rscale>  0 0.80985616E+02</rscale>
<asrwt>0</asrwt>
<pdfrwt beam="1">  1        2 0.99620596E-03 0.80985616E+02</pdfrwt>
<pdfrwt beam="2">  1       -1 0.38956500E-01 0.80985616E+02</pdfrwt>
<totfact> 0.89346510E+04</totfact>
</mgrwt>
</event>
<event>
 8    1  0.1226832E-016  0.8114346E+02  0.7818608E-02  0.1325837E+00
         -1   -1    0    0    0  501 -0.00000000000E+00  0.00000000000E+00  0.13101061886E+01  0.13101158831E+01  0.50400000000E-02 0.  1.
          2   -1    0    0  501    0  0.00000000000E+00 -0.00000000000E+00 -0.12564317634E+04  0.12564317634E+04  0.25500000000E-02 0. -1.
         24    2    1    2    0    0  0.88817841970E-15  0.00000000000E+00 -0.12551216572E+04  0.12577418793E+04  0.81143456346E+02 0.  0.
         66    2    3    3    0    0  0.69342004631E+01  0.24382813400E+02 -0.11184577506E+04  0.11187467742E+04  0.20000006196E+01 0.  0.
        -13    1    3    3    0    0 -0.69342004631E+01 -0.24382813400E+02 -0.13666390657E+03  0.13899510512E+03  0.10566000000E+00 0.  1.
         13    1    4    4    0    0  0.47591323082E+01  0.15964859565E+02 -0.75551026538E+03  0.75569391843E+03  0.10566000000E+00 0. -1.
        -13    1    4    4    0    0  0.18869173601E+01  0.80715268719E+01 -0.34698274356E+03  0.34708175621E+03  0.10566000000E+00 0.  1.
        -14    1    4    4    0    0  0.28815079484E+00  0.34642696271E+00 -0.15964741690E+02  0.15971099516E+02  0.00000000000E+00 0.  1.
<mgrwt>
<rscale>  0 0.81143456E+02</rscale>
<asrwt>0</asrwt>
<pdfrwt beam="1">  1        2 0.19329623E+00 0.81143456E+02</pdfrwt>
<pdfrwt beam="2">  1       -1 0.20155655E-03 0.81143456E+02</pdfrwt>
<totfact> 0.33563334E+05</totfact>
</mgrwt>
</event>
<event>
 8    1  0.1226832E-016  0.7948161E+02  0.7818608E-02  0.1330529E+00
         -1   -1    0    0    0  501 -0.00000000000E+00  0.00000000000E+00  0.29835203766E+02  0.29835204191E+02  0.50400000000E-02 0.  1.
          2   -1    0    0  501    0  0.00000000000E+00 -0.00000000000E+00 -0.52935165835E+02  0.52935165896E+02  0.25500000000E-02 0. -1.
         24    2    1    2    0    0 -0.22204460493E-15  0.00000000000E+00 -0.23099962069E+02  0.82770370088E+02  0.79481607413E+02 0.  0.
         66    2    3    3    0    0 -0.16934839219E+01 -0.39666180503E+02 -0.10488775771E+02  0.41113114448E+02  0.19999997380E+01 0.  0.
        -13    1    3    3    0    0  0.16934839219E+01  0.39666180503E+02 -0.12611186298E+02  0.41657255639E+02  0.10566000000E+00 0.  1.
         13    1    4    4    0    0  0.27063277458E+00 -0.35481250046E+01 -0.10366579845E+01  0.37078642046E+01  0.10566000000E+00 0. -1.
        -13    1    4    4    0    0 -0.66648351747E+00 -0.75403309711E+01 -0.15618542075E+01  0.77298993547E+01  0.10566000000E+00 0.  1.
         14    1    4    4    0    0 -0.12976331790E+01 -0.28577724528E+02 -0.78902635791E+01  0.29675350889E+02  0.00000000000E+00 0. -1.
<mgrwt>
<rscale>  0 0.79481607E+02</rscale>
<asrwt>0</asrwt>
<pdfrwt beam="1">  1        2 0.81438717E-02 0.79481607E+02</pdfrwt>
<pdfrwt beam="2">  1       -1 0.45900314E-02 0.79481607E+02</pdfrwt>
<totfact> 0.15402512E+05</totfact>
</mgrwt>
</event>
<event>
 8    1  0.1226832E-016  0.7940029E+02  0.7818608E-02  0.1330762E+00
         -1   -1    0    0    0  501 -0.00000000000E+00  0.00000000000E+00  0.23140870764E+01  0.23140925649E+01  0.50400000000E-02 0.  1.
          2   -1    0    0  501    0  0.00000000000E+00 -0.00000000000E+00 -0.68108924795E+03  0.68108924796E+03  0.25500000000E-02 0. -1.
         24    2    1    2    0    0  0.00000000000E+00 -0.44408920985E-15 -0.67877516088E+03  0.68340334052E+03  0.79400294801E+02 0.  0.
         66    2    3    3    0    0  0.18204326461E+02 -0.37391590539E+01 -0.64130632277E+03  0.64157866114E+03  0.19999985277E+01 0.  0.
        -13    1    3    3    0    0 -0.18204326461E+02  0.37391590539E+01 -0.37468838109E+02  0.41824679385E+02  0.10566000000E+00 0.  1.
         13    1    4    4    0    0  0.67457072926E+01 -0.14587561650E+01 -0.22172110202E+03  0.22182851661E+03  0.10566000000E+00 0. -1.
        -13    1    4    4    0    0  0.28441254612E+01 -0.63876351988E+00 -0.85062548590E+02  0.85112545522E+02  0.10566000000E+00 0.  1.
        -14    1    4    4    0    0  0.86144937072E+01 -0.16416393690E+01 -0.33452267215E+03  0.33463759900E+03  0.00000000000E+00 0.  1.
<mgrwt>
<rscale>  0 0.79400295E+02</rscale>
<asrwt>0</asrwt>
<pdfrwt beam="1">  1        2 0.10478280E+00 0.79400295E+02</pdfrwt>
<pdfrwt beam="2">  1       -1 0.35601436E-03 0.79400295E+02</pdfrwt>
<totfact> 0.33894578E+05</totfact>
</mgrwt>
</event>
<event>
 8    1  0.1226832E-016  0.7990340E+02  0.7818608E-02  0.1329326E+00
         -1   -1    0    0    0  501 -0.00000000000E+00  0.00000000000E+00  0.10984933438E+03  0.10984933450E+03  0.50400000000E-02 0.  1.
          2   -1    0    0  501    0  0.00000000000E+00 -0.00000000000E+00 -0.14530250606E+02  0.14530250830E+02  0.25500000000E-02 0. -1.
         24    2    1    2    0    0  0.00000000000E+00  0.00000000000E+00  0.95319083773E+02  0.12437958533E+03  0.79903401144E+02 0.  0.
         66    2    3    3    0    0 -0.72275025846E+01 -0.29525697855E+02  0.73931913992E+01  0.31347454633E+02  0.20000013587E+01 0.  0.
        -13    1    3    3    0    0  0.72275025846E+01  0.29525697855E+02  0.87925892374E+02  0.93032130693E+02  0.10566000000E+00 0.  1.
         13    1    4    4    0    0 -0.52718399281E+01 -0.22869930424E+02  0.50793832097E+01  0.24013273656E+02  0.10566000000E+00 0. -1.
        -13    1    4    4    0    0 -0.72940738890E-01 -0.59141534009E+00  0.12766243961E+00  0.61850965228E+00  0.10566000000E+00 0. -1.
         14    1    4    4    0    0 -0.18827219176E+01 -0.60643520905E+01  0.21861457499E+01  0.67156713244E+01  0.00000000000E+00 0. -1.
<mgrwt>
<rscale>  0 0.79903401E+02</rscale>
<asrwt>0</asrwt>
<pdfrwt beam="1">  1        2 0.22354231E-02 0.79903401E+02</pdfrwt>
<pdfrwt beam="2">  1       -1 0.16899898E-01 0.79903401E+02</pdfrwt>
<totfact> 0.11648281E+05</totfact>
</mgrwt>
</event>
<event>
 8    1  0.1226832E-016  0.7395632E+02  0.7818608E-02  0.1347134E+00
          2   -1    0    0  501    0  0.00000000000E+00  0.00000000000E+00  0.39138131525E+02  0.39138131608E+02  0.25500000000E-02 0. -1.
         -1   -1    0    0    0  501 -0.00000000000E+00 -0.00000000000E+00 -0.34937392959E+02  0.34937393322E+02  0.50400000000E-02 0.  1.
         24    2    1    2    0    0  0.35527136788E-14  0.00000000000E+00  0.42007385665E+01  0.74075524931E+02  0.73956319468E+02 0.  0.
         66    2    3    3    0    0  0.18109034459E+02 -0.21750327528E+02  0.25896571894E+02  0.38414142114E+02  0.20000004814E+01 0.  0.
        -13    1    3    3    0    0 -0.18109034459E+02  0.21750327528E+02 -0.21695833327E+02  0.35661382817E+02  0.10566000000E+00 0.  1.
         13    1    4    4    0    0  0.19357842426E+01 -0.17797813587E+01  0.23118179858E+01  0.35029343062E+01  0.10566000000E+00 0. -1.
        -13    1    4    4    0    0  0.42507028969E+01 -0.46128748695E+01  0.64140024499E+01  0.89720499966E+01  0.10566000000E+00 0.  1.
         14    1    4    4    0    0  0.11922547319E+02 -0.15357671300E+02  0.17170751458E+02  0.25939157811E+02  0.00000000000E+00 0. -1.
<mgrwt>
<rscale>  0 0.73956319E+02</rscale>
<asrwt>0</asrwt>
<pdfrwt beam="1">  1        2 0.60212510E-02 0.73956319E+02</pdfrwt>
<pdfrwt beam="2">  1       -1 0.53749836E-02 0.73956319E+02</pdfrwt>
<totfact> 0.17612144E+05</totfact>
</mgrwt>
</event>
<event>
 8    1  0.1226832E-016  0.7892867E+02  0.7818608E-02  0.1332120E+00
          2   -1    0    0  501    0  0.00000000000E+00  0.00000000000E+00  0.31727228229E+03  0.31727228230E+03  0.25500000000E-02 0. -1.
         -1   -1    0    0    0  501 -0.00000000000E+00 -0.00000000000E+00 -0.49088220544E+01  0.49088246417E+01  0.50400000000E-02 0.  1.
         24    2    1    2    0    0  0.00000000000E+00 -0.17763568394E-14  0.31236346024E+03  0.32218110694E+03  0.78928666402E+02 0.  0.
         66    2    3    3    0    0 -0.35721511995E+02 -0.10086789389E+02  0.21068923423E+03  0.21394327096E+03  0.20000077306E+01 0.  0.
        -13    1    3    3    0    0  0.35721511995E+02  0.10086789389E+02  0.10167422601E+03  0.10823783598E+03  0.10566000000E+00 0.  1.
         13    1    4    4    0    0 -0.25210551101E+02 -0.71255233417E+01  0.14637153760E+03  0.14869762322E+03  0.10566000000E+00 0. -1.
        -13    1    4    4    0    0 -0.24863313213E+01 -0.82139065097E+00  0.13189800131E+02  0.13447621260E+02  0.10566000000E+00 0.  1.
         14    1    4    4    0    0 -0.80246295725E+01 -0.21398753962E+01  0.51127896501E+02  0.51798026479E+02  0.00000000000E+00 0. -1.
<mgrwt>
<rscale>  0 0.78928666E+02</rscale>
<asrwt>0</asrwt>
<pdfrwt beam="1">  1        2 0.48811122E-01 0.78928666E+02</pdfrwt>
<pdfrwt beam="2">  1       -1 0.75520358E-03 0.78928666E+02</pdfrwt>
<totfact> 0.26950433E+05</totfact>
</mgrwt>
</event>
<event>
 8    1  0.1226832E-016  0.8151159E+02  0.7818608E-02  0.1324816E+00
         -1   -1    0    0    0  501 -0.00000000000E+00  0.00000000000E+00  0.21013763453E+02  0.21013764058E+02  0.50400000000E-02 0.  1.
          2   -1    0    0  501    0  0.00000000000E+00 -0.00000000000E+00 -0.79045092070E+02  0.79045092111E+02  0.25500000000E-02 0. -1.
         24    2    1    2    0    0  0.71054273576E-14 -0.35527136788E-14 -0.58031328616E+02  0.10005885617E+03  0.81511591794E+02 0.  0.
         66    2    3    3    0    0  0.28416276698E+02 -0.28742743885E+02 -0.22846493083E+02  0.46471414329E+02  0.19999990212E+01 0.  0.
        -13    1    3    3    0    0 -0.28416276698E+02  0.28742743885E+02 -0.35184835533E+02  0.53587441840E+02  0.10566000000E+00 0.  1.
         13    1    4    4    0    0  0.17800122845E+02 -0.17352748981E+02 -0.14834976225E+02  0.28949092457E+02  0.10566000000E+00 0. -1.
        -13    1    4    4    0    0  0.51099360863E+01 -0.53740556465E+01 -0.34755957575E+01  0.81904121266E+01  0.10566000000E+00 0.  1.
         14    1    4    4    0    0  0.55062177672E+01 -0.60159392577E+01 -0.45359211008E+01  0.93319097448E+01  0.00000000000E+00 0. -1.
<mgrwt>
<rscale>  0 0.81511592E+02</rscale>
<asrwt>0</asrwt>
<pdfrwt beam="1">  1        2 0.12160783E-01 0.81511592E+02</pdfrwt>
<pdfrwt beam="2">  1       -1 0.32328868E-02 0.81511592E+02</pdfrwt>
<totfact> 0.15824038E+05</totfact>
</mgrwt>
</event>
<event>
 8    1  0.1226832E-016  0.8256496E+02  0.7818608E-02  0.1321926E+00
         -1   -1    0    0    0  501 -0.00000000000E+00  0.00000000000E+00  0.11427569976E+02  0.11427571088E+02  0.50400000000E-02 0.  1.
          2   -1    0    0  501    0  0.00000000000E+00 -0.00000000000E+00 -0.14913432901E+03  0.14913432903E+03  0.25500000000E-02 0. -1.
         24    2    1    2    0    0  0.00000000000E+00  0.17763568394E-14 -0.13770675903E+03  0.16056190012E+03  0.82564957979E+02 0.  0.
         66    2    3    3    0    0 -0.39603903489E+02 -0.10637099990E+02 -0.77724500044E+02  0.87901734792E+02  0.20000011322E+01 0.  0.
        -13    1    3    3    0    0  0.39603903489E+02  0.10637099990E+02 -0.59982258986E+02  0.72660165323E+02  0.10566000000E+00 0.  1.
         13    1    4    4    0    0 -0.12214634672E+02 -0.28565540635E+01 -0.23573438607E+02  0.26703471181E+02  0.10566000000E+00 0. -1.
        -13    1    4    4    0    0 -0.12074555872E+02 -0.29317710310E+01 -0.24799522310E+02  0.27738378679E+02  0.10566000000E+00 0.  1.
        -14    1    4    4    0    0 -0.15314712945E+02 -0.48487748959E+01 -0.29351539127E+02  0.33459884933E+02  0.00000000000E+00 0.  1.
<mgrwt>
<rscale>  0 0.82564958E+02</rscale>
<asrwt>0</asrwt>
<pdfrwt beam="1">  1        2 0.22943742E-01 0.82564958E+02</pdfrwt>
<pdfrwt beam="2">  1       -1 0.17580879E-02 0.82564958E+02</pdfrwt>
<totfact> 0.18383884E+05</totfact>
</mgrwt>
</event>
<event>
 8    1  0.1226832E-016  0.8238753E+02  0.7818608E-02  0.1322409E+00
          2   -1    0    0  501    0  0.00000000000E+00  0.00000000000E+00  0.58884984980E+02  0.58884985035E+02  0.25500000000E-02 0. -1.
         -1   -1    0    0    0  501 -0.00000000000E+00 -0.00000000000E+00 -0.28817642513E+02  0.28817642954E+02  0.50400000000E-02 0.  1.
         24    2    1    2    0    0  0.00000000000E+00  0.00000000000E+00  0.30067342467E+02  0.87702627988E+02  0.82387534695E+02 0.  0.
         66    2    3    3    0    0  0.13556446357E+02 -0.70763610335E+01 -0.25647384047E+02  0.29927252283E+02  0.19999993682E+01 0.  0.
        -13    1    3    3    0    0 -0.13556446357E+02  0.70763610335E+01  0.55714726514E+02  0.57775375705E+02  0.10566000000E+00 0.  1.
         13    1    4    4    0    0  0.20979502564E+01 -0.94649434966E+00 -0.33401035221E+01  0.40576720427E+01  0.10566000000E+00 0. -1.
        -13    1    4    4    0    0  0.82585245999E+00 -0.64062357115E+00 -0.27278546092E+01  0.29231465324E+01  0.10566000000E+00 0.  1.
         14    1    4    4    0    0  0.10632643640E+02 -0.54892431127E+01 -0.19579425916E+02  0.22946433708E+02  0.00000000000E+00 0. -1.
<mgrwt>
<rscale>  0 0.82387535E+02</rscale>
<asrwt>0</asrwt>
<pdfrwt beam="1">  1        2 0.90592284E-02 0.82387535E+02</pdfrwt>
<pdfrwt beam="2">  1       -1 0.44334836E-02 0.82387535E+02</pdfrwt>
<totfact> 0.14304163E+05</totfact>
</mgrwt>
</event>
<event>
 8    1  0.1226832E-016  0.8016414E+02  0.7818608E-02  0.1328586E+00
          2   -1    0    0  501    0  0.00000000000E+00  0.00000000000E+00  0.31789135572E+03  0.31789135573E+03  0.25500000000E-02 0. -1.
         -1   -1    0    0    0  501 -0.00000000000E+00 -0.00000000000E+00 -0.50538399367E+01  0.50538424498E+01  0.50400000000E-02 0.  1.
         24    2    1    2    0    0 -0.22204460493E-15  0.00000000000E+00  0.31283751578E+03  0.32294519818E+03  0.80164142521E+02 0.  0.
         66    2    3    3    0    0  0.18602816219E+01  0.24854296289E+02  0.28284609055E+03  0.28394912859E+03  0.19999992520E+01 0.  0.
        -13    1    3    3    0    0 -0.18602816219E+01 -0.24854296289E+02  0.29991425232E+02  0.38996069587E+02  0.10566000000E+00 0.  1.
         13    1    4    4    0    0  0.12751135363E-01  0.47730509138E+01  0.59434081742E+02  0.59625526531E+02  0.10566000000E+00 0. -1.
        -13    1    4    4    0    0  0.40293904102E+00  0.31242514734E+01  0.30534800871E+02  0.30697044408E+02  0.10566000000E+00 0.  1.
         14    1    4    4    0    0  0.14445914455E+01  0.16956993902E+02  0.19287720794E+03  0.19362655765E+03  0.00000000000E+00 0. -1.
<mgrwt>
<rscale>  0 0.80164143E+02</rscale>
<asrwt>0</asrwt>
<pdfrwt beam="1">  1        2 0.48906362E-01 0.80164143E+02</pdfrwt>
<pdfrwt beam="2">  1       -1 0.77751404E-03 0.80164143E+02</pdfrwt>
<totfact> 0.25894632E+05</totfact>
</mgrwt>
</event>
<event>
 8    1  0.1226832E-016  0.8860428E+02  0.7818608E-02  0.1306267E+00
         -1   -1    0    0    0  501 -0.00000000000E+00  0.00000000000E+00  0.35541958094E+02  0.35541958452E+02  0.50400000000E-02 0.  1.
          2   -1    0    0  501    0  0.00000000000E+00 -0.00000000000E+00 -0.55221480079E+02  0.55221480138E+02  0.25500000000E-02 0. -1.
         24    2    1    2    0    0  0.00000000000E+00  0.00000000000E+00 -0.19679521985E+02  0.90763438590E+02  0.88604278672E+02 0.  0.
         66    2    3    3    0    0 -0.29840291615E+02 -0.20313144589E+01 -0.43291692030E+02  0.52656812127E+02  0.20000056370E+01 0.  0.
        -13    1    3    3    0    0  0.29840291615E+02  0.20313144589E+01  0.23612170045E+02  0.38106626462E+02  0.10566000000E+00 0.  1.
         13    1    4    4    0    0 -0.47417035375E+01 -0.45081630669E+00 -0.63641471673E+01  0.79498755325E+01  0.10566000000E+00 0. -1.
        -13    1    4    4    0    0 -0.20937421897E+02 -0.10950970554E+01 -0.29739342989E+02  0.36387010852E+02  0.10566000000E+00 0.  1.
        -14    1    4    4    0    0 -0.41611661806E+01 -0.48540109677E+00 -0.71882018730E+01  0.83199257433E+01  0.00000000000E+00 0.  1.
<mgrwt>
<rscale>  0 0.88604279E+02</rscale>
<asrwt>0</asrwt>
<pdfrwt beam="1">  1        2 0.84956124E-02 0.88604279E+02</pdfrwt>
<pdfrwt beam="2">  1       -1 0.54679936E-02 0.88604279E+02</pdfrwt>
<totfact> 0.11535077E+05</totfact>
</mgrwt>
</event>
<event>
 8    1  0.1226832E-016  0.8081611E+02  0.7818608E-02  0.1326751E+00
         -1   -1    0    0    0  501 -0.00000000000E+00  0.00000000000E+00  0.71195320576E+01  0.71195338415E+01  0.50400000000E-02 0.  1.
          2   -1    0    0  501    0  0.00000000000E+00 -0.00000000000E+00 -0.22934244406E+03  0.22934244407E+03  0.25500000000E-02 0. -1.
         24    2    1    2    0    0  0.00000000000E+00  0.00000000000E+00 -0.22222291200E+03  0.23646197791E+03  0.80816114611E+02 0.  0.
         66    2    3    3    0    0  0.21158866029E+02  0.19265856146E+02 -0.19455205284E+03  0.19665546544E+03  0.19999995472E+01 0.  0.
        -13    1    3    3    0    0 -0.21158866029E+02 -0.19265856146E+02 -0.27670859161E+02  0.39806512475E+02  0.10566000000E+00 0.  1.
         13    1    4    4    0    0  0.56026385983E+01  0.51959682900E+01 -0.54796626242E+02  0.55326928862E+02  0.10566000000E+00 0. -1.
        -13    1    4    4    0    0  0.37728413172E+01  0.39323034948E+01 -0.39878560192E+02  0.40249323838E+02  0.10566000000E+00 0.  1.
        -14    1    4    4    0    0  0.11783386114E+02  0.10137584361E+02 -0.99876866404E+02  0.10107921274E+03  0.00000000000E+00 0.  1.
<mgrwt>
<rscale>  0 0.80816115E+02</rscale>
<asrwt>0</asrwt>
<pdfrwt beam="1">  1        2 0.35283447E-01 0.80816115E+02</pdfrwt>
<pdfrwt beam="2">  1       -1 0.10953129E-02 0.80816115E+02</pdfrwt>
<totfact> 0.22534820E+05</totfact>
</mgrwt>
</event>
<event>
 8    1  0.1226832E-016  0.7825935E+02  0.7818608E-02  0.1334065E+00
          2   -1    0    0  501    0  0.00000000000E+00  0.00000000000E+00  0.50540093128E+03  0.50540093129E+03  0.25500000000E-02 0. -1.
         -1   -1    0    0    0  501 -0.00000000000E+00 -0.00000000000E+00 -0.30295360395E+01  0.30295402319E+01  0.50400000000E-02 0.  1.
         24    2    1    2    0    0  0.35527136788E-14  0.00000000000E+00  0.50237139524E+03  0.50843047152E+03  0.78259348403E+02 0.  0.
         66    2    3    3    0    0  0.30464873864E+02  0.83114988128E+01  0.40118848010E+03  0.40243432521E+03  0.19999974082E+01 0.  0.
        -13    1    3    3    0    0 -0.30464873864E+02 -0.83114988128E+01  0.10118291514E+03  0.10599614631E+03  0.10566000000E+00 0.  1.
         13    1    4    4    0    0  0.17963229733E+02  0.51612286634E+01  0.23139592303E+03  0.23214952135E+03  0.10566000000E+00 0. -1.
        -13    1    4    4    0    0  0.46323486138E+01  0.17048233093E+01  0.65272426832E+02  0.65458887439E+02  0.10566000000E+00 0.  1.
         14    1    4    4    0    0  0.78692955164E+01  0.14454468401E+01  0.10452013024E+03  0.10482591642E+03  0.00000000000E+00 0. -1.
<mgrwt>
<rscale>  0 0.78259348E+02</rscale>
<asrwt>0</asrwt>
<pdfrwt beam="1">  1        2 0.77753908E-01 0.78259348E+02</pdfrwt>
<pdfrwt beam="2">  1       -1 0.46608328E-03 0.78259348E+02</pdfrwt>
<totfact> 0.32356250E+05</totfact>
</mgrwt>
</event>
<event>
 8    1  0.1226832E-016  0.7807051E+02  0.7818608E-02  0.1334618E+00
         -1   -1    0    0    0  501 -0.00000000000E+00  0.00000000000E+00  0.10527621932E+03  0.10527621945E+03  0.50400000000E-02 0.  1.
          2   -1    0    0  501    0  0.00000000000E+00 -0.00000000000E+00 -0.14473839134E+02  0.14473839358E+02  0.25500000000E-02 0. -1.
         24    2    1    2    0    0  0.00000000000E+00  0.00000000000E+00  0.90802380191E+02  0.11975005880E+03  0.78070508741E+02 0.  0.
         66    2    3    3    0    0  0.27245722758E+02 -0.16945947171E+02  0.11399307191E+02  0.34109217496E+02  0.19999949004E+01 0.  0.
        -13    1    3    3    0    0 -0.27245722758E+02  0.16945947171E+02  0.79403073000E+02  0.85640841308E+02  0.10566000000E+00 0.  1.
         13    1    4    4    0    0  0.31575908418E+01 -0.22183630379E+01  0.19789538149E+01  0.43380798436E+01  0.10566000000E+00 0. -1.
        -13    1    4    4    0    0  0.18430825177E+01 -0.13000180519E+01  0.76136284955E+00  0.23828213375E+01  0.10566000000E+00 0.  1.
         14    1    4    4    0    0  0.22245049398E+02 -0.13427566082E+02  0.86589905268E+01  0.27388316314E+02  0.00000000000E+00 0. -1.
<mgrwt>
<rscale>  0 0.78070509E+02</rscale>
<asrwt>0</asrwt>
<pdfrwt beam="1">  1        2 0.22267444E-02 0.78070509E+02</pdfrwt>
<pdfrwt beam="2">  1       -1 0.16196342E-01 0.78070509E+02</pdfrwt>
<totfact> 0.12459119E+05</totfact>
</mgrwt>
</event>
<event>
 8    1  0.1226832E-016  0.8047611E+02  0.7818608E-02  0.1327706E+00
         -1   -1    0    0    0  501 -0.00000000000E+00  0.00000000000E+00  0.59003066605E+01  0.59003088131E+01  0.50400000000E-02 0.  1.
          2   -1    0    0  501    0  0.00000000000E+00 -0.00000000000E+00 -0.27440957611E+03  0.27440957612E+03  0.25500000000E-02 0. -1.
         24    2    1    2    0    0  0.71054273576E-14  0.00000000000E+00 -0.26850926945E+03  0.28030988493E+03  0.80476107087E+02 0.  0.
         66    2    3    3    0    0  0.35721626349E+02 -0.50343097900E+01 -0.19622732774E+03  0.19952579538E+03  0.20000013326E+01 0.  0.
        -13    1    3    3    0    0 -0.35721626349E+02  0.50343097900E+01 -0.72281941703E+02  0.80784089550E+02  0.10566000000E+00 0.  1.
         13    1    4    4    0    0  0.20847674197E+02 -0.25599708357E+01 -0.11743493299E+03  0.11929859019E+03  0.10566000000E+00 0.  1.
        -13    1    4    4    0    0  0.11187963755E+02 -0.20119144666E+01 -0.61204172987E+02  0.62250946080E+02  0.10566000000E+00 0. -1.
        -14    1    4    4    0    0  0.36859883972E+01 -0.46242448766E+00 -0.17588221765E+02  0.17976259114E+02  0.00000000000E+00 0.  1.
<mgrwt>
<rscale>  0 0.80476107E+02</rscale>
<asrwt>0</asrwt>
<pdfrwt beam="1">  1        2 0.42216848E-01 0.80476107E+02</pdfrwt>
<pdfrwt beam="2">  1       -1 0.90773987E-03 0.80476107E+02</pdfrwt>
<totfact> 0.24302573E+05</totfact>
</mgrwt>
</event>
<event>
 8    1  0.1226832E-016  0.7853573E+02  0.7818608E-02  0.1333259E+00
         -1   -1    0    0    0  501 -0.00000000000E+00  0.00000000000E+00  0.19606885163E+01  0.19606949941E+01  0.50400000000E-02 0.  1.
          2   -1    0    0  501    0  0.00000000000E+00 -0.00000000000E+00 -0.78643934450E+03  0.78643934451E+03  0.25500000000E-02 0. -1.
         24    2    1    2    0    0  0.00000000000E+00  0.00000000000E+00 -0.78447865599E+03  0.78840003950E+03  0.78535728091E+02 0.  0.
         66    2    3    3    0    0 -0.27879407902E+02  0.45927166924E+00 -0.66969466248E+03  0.67027786273E+03  0.19999995886E+01 0.  0.
        -13    1    3    3    0    0  0.27879407902E+02 -0.45927166924E+00 -0.11478399351E+03  0.11812217677E+03  0.10566000000E+00 0.  1.
         13    1    4    4    0    0 -0.18124137786E+02  0.41617175542E+00 -0.43930897828E+03  0.43968289384E+03  0.10566000000E+00 0. -1.
        -13    1    4    4    0    0 -0.88878399722E+01  0.34169694588E+00 -0.20565381039E+03  0.20584608655E+03  0.10566000000E+00 0.  1.
        -14    1    4    4    0    0 -0.86743014399E+00 -0.29859703206E+00 -0.24731873810E+02  0.24748882346E+02  0.00000000000E+00 0.  1.
<mgrwt>
<rscale>  0 0.78535728E+02</rscale>
<asrwt>0</asrwt>
<pdfrwt beam="1">  1        2 0.12099042E+00 0.78535728E+02</pdfrwt>
<pdfrwt beam="2">  1       -1 0.30164551E-03 0.78535728E+02</pdfrwt>
<totfact> 0.35944837E+05</totfact>
</mgrwt>
</event>
<event>
 8    1  0.1226832E-016  0.7744746E+02  0.7818608E-02  0.1336455E+00
          2   -1    0    0  501    0  0.00000000000E+00  0.00000000000E+00  0.16237323061E+03  0.16237323063E+03  0.25500000000E-02 0. -1.
         -1   -1    0    0    0  501 -0.00000000000E+00 -0.00000000000E+00 -0.92350640241E+01  0.92350653994E+01  0.50400000000E-02 0.  1.
         24    2    1    2    0    0  0.17763568394E-14  0.88817841970E-15  0.15313816659E+03  0.17160829603E+03  0.77447460907E+02 0.  0.
         66    2    3    3    0    0  0.11492307770E+02 -0.59046296312E+01  0.15744623622E+03  0.15798814857E+03  0.20000000866E+01 0.  0.
        -13    1    3    3    0    0 -0.11492307770E+02  0.59046296312E+01 -0.43080696283E+01  0.13620147463E+02  0.10566000000E+00 0.  1.
         13    1    4    4    0    0  0.31232055919E+01 -0.76757055687E+00  0.37946716651E+02  0.38082910161E+02  0.10566000000E+00 0. -1.
        -13    1    4    4    0    0  0.90615241307E+00 -0.76887722210E+00  0.16795221815E+02  0.16837545077E+02  0.10566000000E+00 0. -1.
         14    1    4    4    0    0  0.74629497652E+01 -0.43681818523E+01  0.10270429775E+03  0.10306769333E+03  0.00000000000E+00 0. -1.
<mgrwt>
<rscale>  0 0.77447461E+02</rscale>
<asrwt>0</asrwt>
<pdfrwt beam="1">  1        2 0.24980496E-01 0.77447461E+02</pdfrwt>
<pdfrwt beam="2">  1       -1 0.14207792E-02 0.77447461E+02</pdfrwt>
<totfact> 0.22394608E+05</totfact>
</mgrwt>
</event>
<event>
 8    1  0.1226832E-016  0.7709158E+02  0.7818608E-02  0.1337514E+00
          2   -1    0    0  501    0  0.00000000000E+00  0.00000000000E+00  0.25508098796E+02  0.25508098923E+02  0.25500000000E-02 0. -1.
         -1   -1    0    0    0  501 -0.00000000000E+00 -0.00000000000E+00 -0.58247296330E+02  0.58247296548E+02  0.50400000000E-02 0.  1.
         24    2    1    2    0    0  0.00000000000E+00  0.35527136788E-14 -0.32739197534E+02  0.83755395471E+02  0.77091576812E+02 0.  0.
         66    2    3    3    0    0 -0.14060164450E+02 -0.21132888463E+02  0.15097805126E+02  0.29601197234E+02  0.19999897238E+01 0.  0.
        -13    1    3    3    0    0  0.14060164450E+02  0.21132888463E+02 -0.47837002661E+02  0.54154198237E+02  0.10566000000E+00 0.  1.
         13    1    4    4    0    0 -0.13039786356E+01 -0.16449338889E+01  0.11945254427E+01  0.24174827507E+01  0.10566000000E+00 0. -1.
        -13    1    4    4    0    0 -0.12131594088E+02 -0.18995187241E+02  0.13187161442E+02  0.26113312780E+02  0.10566000000E+00 0.  1.
        -14    1    4    4    0    0 -0.62459172621E+00 -0.49276733331E+00  0.71611824208E+00  0.10704017030E+01  0.00000000000E+00 0.  1.
<mgrwt>
<rscale>  0 0.77091577E+02</rscale>
<asrwt>0</asrwt>
<pdfrwt beam="1">  1        2 0.39243229E-02 0.77091577E+02</pdfrwt>
<pdfrwt beam="2">  1       -1 0.89611225E-02 0.77091577E+02</pdfrwt>
<totfact> 0.14465967E+05</totfact>
</mgrwt>
</event>
<event>
 8    1  0.1264186E-016  0.7786706E+02  0.7818608E-02  0.1335216E+00
          2   -1    0    0  501    0  0.00000000000E+00  0.00000000000E+00  0.54876257568E+03  0.54876257568E+03  0.25500000000E-02 0. -1.
         -1   -1    0    0    0  501 -0.00000000000E+00 -0.00000000000E+00 -0.27622481330E+01  0.27622527310E+01  0.50400000000E-02 0.  1.
         24    2    1    2    0    0  0.00000000000E+00  0.00000000000E+00  0.54600032754E+03  0.55152482841E+03  0.77867057725E+02 0.  0.
         66    2    3    3    0    0 -0.21603929945E+02 -0.28557830387E+02  0.38095522250E+03  0.38263972745E+03  0.20000013694E+01 0.  0.
        -13    1    3    3    0    0  0.21603929945E+02  0.28557830387E+02  0.16504510504E+03  0.16888510096E+03  0.10566000000E+00 0.  1.
         13    1    4    4    0    0 -0.11120639542E+02 -0.15078142453E+02  0.19721339283E+03  0.19810136920E+03  0.10566000000E+00 0. -1.
        -13    1    4    4    0    0 -0.75369292923E+01 -0.10469068838E+02  0.14171160255E+03  0.14229756206E+03  0.10566000000E+00 0.  1.
        -14    1    4    4    0    0 -0.29463611108E+01 -0.30106190957E+01  0.42030227126E+02  0.42240796198E+02  0.00000000000E+00 0.  1.
<mgrwt>
<rscale>  0 0.77867058E+02</rscale>
<asrwt>0</asrwt>
<pdfrwt beam="1">  1        2 0.84424936E-01 0.77867058E+02</pdfrwt>
<pdfrwt beam="2">  1       -1 0.42496199E-03 0.77867058E+02</pdfrwt>
<totfact> 0.33623628E+05</totfact>
</mgrwt>
</event>
<event>
 8    1  0.1226832E-016  0.7910991E+02  0.7818608E-02  0.1331597E+00
         -1   -1    0    0    0  501 -0.00000000000E+00  0.00000000000E+00  0.18817014552E+01  0.18817082048E+01  0.50400000000E-02 0.  1.
          2   -1    0    0  501    0  0.00000000000E+00 -0.00000000000E+00 -0.83147712980E+03  0.83147712981E+03  0.25500000000E-02 0. -1.
         24    2    1    2    0    0 -0.35527136788E-14  0.00000000000E+00 -0.82959542835E+03  0.83335883801E+03  0.79109911873E+02 0.  0.
         66    2    3    3    0    0  0.16359839668E+02 -0.26479580044E+02 -0.67175440006E+03  0.67247809371E+03  0.20000004274E+01 0.  0.
        -13    1    3    3    0    0 -0.16359839668E+02  0.26479580044E+02 -0.15784102829E+03  0.16088074430E+03  0.10566000000E+00 0.  1.
         13    1    4    4    0    0  0.39156706756E+01 -0.74538473191E+01 -0.18875023442E+03  0.18893796462E+03  0.10566000000E+00 0. -1.
        -13    1    4    4    0    0  0.96767546236E+01 -0.15529443048E+02 -0.38500331747E+03  0.38543789229E+03  0.10566000000E+00 0.  1.
        -14    1    4    4    0    0  0.27674143685E+01 -0.34962896770E+01 -0.98000848164E+02  0.98102236798E+02  0.00000000000E+00 0.  1.
<mgrwt>
<rscale>  0 0.79109912E+02</rscale>
<asrwt>0</asrwt>
<pdfrwt beam="1">  1        2 0.12791927E+00 0.79109912E+02</pdfrwt>
<pdfrwt beam="2">  1       -1 0.28949372E-03 0.79109912E+02</pdfrwt>
<totfact> 0.35601647E+05</totfact>
</mgrwt>
</event>
<event>
 8    1  0.1226832E-016  0.7896294E+02  0.7818608E-02  0.1332020E+00
          2   -1    0    0  501    0  0.00000000000E+00  0.00000000000E+00  0.47622162244E+02  0.47622162312E+02  0.25500000000E-02 0. -1.
         -1   -1    0    0    0  501 -0.00000000000E+00 -0.00000000000E+00 -0.32732373801E+02  0.32732374189E+02  0.50400000000E-02 0.  1.
         24    2    1    2    0    0  0.71054273576E-14 -0.17763568394E-14  0.14889788443E+02  0.80354536501E+02  0.78962939006E+02 0.  0.
         66    2    3    3    0    0 -0.37875346401E+02  0.84303351452E+01  0.14728978283E+02  0.41551837631E+02  0.19999984086E+01 0.  0.
        -13    1    3    3    0    0  0.37875346401E+02 -0.84303351452E+01  0.16081015989E+00  0.38802698870E+02  0.10566000000E+00 0.  1.
         13    1    4    4    0    0 -0.28369771011E+00 -0.51847258237E-01  0.13682475369E+00  0.33624035708E+00  0.10566000000E+00 0. -1.
        -13    1    4    4    0    0 -0.36413340910E+02  0.83633529765E+01  0.14125088837E+02  0.39942538326E+02  0.10566000000E+00 0. -1.
        -14    1    4    4    0    0 -0.11783077805E+01  0.11882942696E+00  0.46706469205E+00  0.12730589479E+01  0.00000000000E+00 0.  1.
<mgrwt>
<rscale>  0 0.78962939E+02</rscale>
<asrwt>0</asrwt>
<pdfrwt beam="1">  1        2 0.73264865E-02 0.78962939E+02</pdfrwt>
<pdfrwt beam="2">  1       -1 0.50357499E-02 0.78962939E+02</pdfrwt>
<totfact> 0.15325043E+05</totfact>
</mgrwt>
</event>
<event>
 8    1  0.1226832E-016  0.8143421E+02  0.7818608E-02  0.1325030E+00
          2   -1    0    0  501    0  0.00000000000E+00  0.00000000000E+00  0.33790947684E+03  0.33790947685E+03  0.25500000000E-02 0. -1.
         -1   -1    0    0    0  501 -0.00000000000E+00 -0.00000000000E+00 -0.49062907768E+01  0.49062933654E+01  0.50400000000E-02 0.  1.
         24    2    1    2    0    0  0.00000000000E+00  0.00000000000E+00  0.33300318607E+03  0.34281577022E+03  0.81434208905E+02 0.  0.
         66    2    3    3    0    0 -0.13160772179E+02  0.23455380605E+02  0.29515475153E+03  0.29638435882E+03  0.19999994503E+01 0.  0.
        -13    1    3    3    0    0  0.13160772179E+02 -0.23455380605E+02  0.37848434534E+02  0.46431411397E+02  0.10566000000E+00 0.  1.
         13    1    4    4    0    0 -0.69172476137E+01  0.13308539838E+02  0.16317401687E+03  0.16386194339E+03  0.10566000000E+00 0. -1.
        -13    1    4    4    0    0 -0.10602830164E+00  0.66898804251E-01  0.22763824446E+01  0.22822792381E+01  0.10566000000E+00 0.  1.
         14    1    4    4    0    0 -0.61374962633E+01  0.10079941963E+02  0.12970435222E+03  0.13024013619E+03  0.00000000000E+00 0. -1.
<mgrwt>
<rscale>  0 0.81434209E+02</rscale>
<asrwt>0</asrwt>
<pdfrwt beam="1">  1        2 0.51986089E-01 0.81434209E+02</pdfrwt>
<pdfrwt beam="2">  1       -1 0.75481394E-03 0.81434209E+02</pdfrwt>
<totfact> 0.25402090E+05</totfact>
</mgrwt>
</event>
<event>
 8    1  0.1226832E-016  0.7407148E+02  0.7818608E-02  0.1346771E+00
          2   -1    0    0  501    0  0.00000000000E+00  0.00000000000E+00  0.40423819355E+03  0.40423819356E+03  0.25500000000E-02 0. -1.
         -1   -1    0    0    0  501 -0.00000000000E+00 -0.00000000000E+00 -0.33931611098E+01  0.33931648528E+01  0.50400000000E-02 0.  1.
         24    2    1    2    0    0  0.00000000000E+00  0.00000000000E+00  0.40084503244E+03  0.40763135841E+03  0.74071481205E+02 0.  0.
         66    2    3    3    0    0 -0.32250829092E+02  0.13461113209E+02  0.26759090876E+03  0.26987073200E+03  0.19999990092E+01 0.  0.
        -13    1    3    3    0    0  0.32250829092E+02 -0.13461113209E+02  0.13325412369E+03  0.13776062641E+03  0.10566000000E+00 0.  1.
         13    1    4    4    0    0 -0.13131123184E+02  0.53531641569E+01  0.11500332507E+03  0.11587432289E+03  0.10566000000E+00 0. -1.
        -13    1    4    4    0    0 -0.44847669891E+01  0.21983038834E+01  0.37993859384E+02  0.38320884513E+02  0.10566000000E+00 0.  1.
         14    1    4    4    0    0 -0.14634938919E+02  0.59096451685E+01  0.11459372430E+03  0.11567552460E+03  0.00000000000E+00 0. -1.
<mgrwt>
<rscale>  0 0.74071481E+02</rscale>
<asrwt>0</asrwt>
<pdfrwt beam="1">  1        2 0.62190502E-01 0.74071481E+02</pdfrwt>
<pdfrwt beam="2">  1       -1 0.52202499E-03 0.74071481E+02</pdfrwt>
<totfact> 0.34646337E+05</totfact>
</mgrwt>
</event>
<event>
 8    1  0.1226832E-016  0.8383216E+02  0.7818608E-02  0.1318515E+00
          2   -1    0    0  501    0  0.00000000000E+00  0.00000000000E+00  0.21592976063E+02  0.21592976214E+02  0.25500000000E-02 0. -1.
         -1   -1    0    0    0  501 -0.00000000000E+00 -0.00000000000E+00 -0.81367096581E+02  0.81367096737E+02  0.50400000000E-02 0.  1.
         24    2    1    2    0    0  0.00000000000E+00 -0.35527136788E-14 -0.59774120517E+02  0.10296007295E+03  0.83832160525E+02 0.  0.
         66    2    3    3    0    0 -0.17635007121E+02 -0.20315523551E+02  0.95360580843E+01  0.28612066958E+02  0.19999996228E+01 0.  0.
        -13    1    3    3    0    0  0.17635007121E+02  0.20315523551E+02 -0.69310178602E+02  0.74348005993E+02  0.10566000000E+00 0.  1.
         13    1    4    4    0    0 -0.36359797978E+01 -0.35691919588E+01  0.14731641002E+01  0.53047956445E+01  0.10566000000E+00 0. -1.
        -13    1    4    4    0    0 -0.72104743523E+00 -0.77937372056E+00  0.69041687351E+00  0.12708942895E+01  0.10566000000E+00 0.  1.
         14    1    4    4    0    0 -0.13277979888E+02 -0.15966957872E+02  0.73724771106E+01  0.22036377024E+02  0.00000000000E+00 0. -1.
<mgrwt>
<rscale>  0 0.83832161E+02</rscale>
<asrwt>0</asrwt>
<pdfrwt beam="1">  1        2 0.33219964E-02 0.83832161E+02</pdfrwt>
<pdfrwt beam="2">  1       -1 0.12518015E-01 0.83832161E+02</pdfrwt>
<totfact> 0.11023653E+05</totfact>
</mgrwt>
</event>
<event>
 8    1  0.1226832E-016  0.8070850E+02  0.7818608E-02  0.1327053E+00
          2   -1    0    0  501    0  0.00000000000E+00  0.00000000000E+00  0.18877586004E+02  0.18877586176E+02  0.25500000000E-02 0. -1.
         -1   -1    0    0    0  501 -0.00000000000E+00 -0.00000000000E+00 -0.86264495990E+02  0.86264496138E+02  0.50400000000E-02 0.  1.
         24    2    1    2    0    0  0.00000000000E+00  0.00000000000E+00 -0.67386909987E+02  0.10514208231E+03  0.80708499154E+02 0.  0.
         66    2    3    3    0    0 -0.18166262224E+02  0.12265052798E+02  0.10387337231E+02  0.24338064483E+02  0.20000011793E+01 0.  0.
        -13    1    3    3    0    0  0.18166262224E+02 -0.12265052798E+02 -0.77774247217E+02  0.80804017831E+02  0.10566000000E+00 0.  1.
         13    1    4    4    0    0 -0.65239082547E+01  0.45505805872E+01  0.34228218181E+01  0.86600251634E+01  0.10566000000E+00 0. -1.
        -13    1    4    4    0    0 -0.84746842012E+00  0.31826276496E+00  0.14769482648E+00  0.92329394454E+00  0.10566000000E+00 0.  1.
        -14    1    4    4    0    0 -0.10794885549E+02  0.73962094455E+01  0.68168205863E+01  0.14754745375E+02  0.00000000000E+00 0.  1.
<mgrwt>
<rscale>  0 0.80708499E+02</rscale>
<asrwt>0</asrwt>
<pdfrwt beam="1">  1        2 0.29042441E-02 0.80708499E+02</pdfrwt>
<pdfrwt beam="2">  1       -1 0.13271461E-01 0.80708499E+02</pdfrwt>
<totfact> 0.11962226E+05</totfact>
</mgrwt>
</event>
<event>
 8    1  0.1226832E-016  0.7991462E+02  0.7818608E-02  0.1329294E+00
         -1   -1    0    0    0  501 -0.00000000000E+00  0.00000000000E+00  0.90004531084E+01  0.90004545195E+01  0.50400000000E-02 0.  1.
          2   -1    0    0  501    0  0.00000000000E+00 -0.00000000000E+00 -0.17738954979E+03  0.17738954980E+03  0.25500000000E-02 0. -1.
         24    2    1    2    0    0  0.00000000000E+00  0.00000000000E+00 -0.16838909668E+03  0.18639000432E+03  0.79914615884E+02 0.  0.
         66    2    3    3    0    0 -0.25134429832E+02  0.30515816203E+02 -0.71130432659E+02  0.81403274247E+02  0.20000015861E+01 0.  0.
        -13    1    3    3    0    0  0.25134429832E+02 -0.30515816203E+02 -0.97258664018E+02  0.10498673008E+03  0.10566000000E+00 0.  1.
         13    1    4    4    0    0 -0.96724823941E+01  0.10645283635E+02 -0.25928483858E+02  0.29650909237E+02  0.10566000000E+00 0. -1.
        -13    1    4    4    0    0 -0.71707826927E+01  0.90289137197E+01 -0.21778130749E+02  0.24642231034E+02  0.10566000000E+00 0.  1.
        -14    1    4    4    0    0 -0.82911647448E+01  0.10841618849E+02 -0.23423818052E+02  0.27110133976E+02  0.00000000000E+00 0.  1.
<mgrwt>
<rscale>  0 0.79914616E+02</rscale>
<asrwt>0</asrwt>
<pdfrwt beam="1">  1        2 0.27290697E-01 0.79914616E+02</pdfrwt>
<pdfrwt beam="2">  1       -1 0.13846853E-02 0.79914616E+02</pdfrwt>
<totfact> 0.21229215E+05</totfact>
</mgrwt>
</event>
<event>
 8    1  0.1226832E-016  0.8010683E+02  0.7818608E-02  0.1328749E+00
          2   -1    0    0  501    0  0.00000000000E+00  0.00000000000E+00  0.53754621384E+02  0.53754621444E+02  0.25500000000E-02 0. -1.
         -1   -1    0    0    0  501 -0.00000000000E+00 -0.00000000000E+00 -0.29844428743E+02  0.29844429169E+02  0.50400000000E-02 0.  1.
         24    2    1    2    0    0  0.00000000000E+00  0.00000000000E+00  0.23910192641E+02  0.83599050613E+02  0.80106828369E+02 0.  0.
         66    2    3    3    0    0  0.17095249196E+02 -0.81824399078E+01  0.48756764701E+02  0.52349039812E+02  0.19999992966E+01 0.  0.
        -13    1    3    3    0    0 -0.17095249196E+02  0.81824399078E+01 -0.24846572060E+02  0.31250010802E+02  0.10566000000E+00 0.  1.
         13    1    4    4    0    0  0.11994860408E+02 -0.50883372609E+01  0.31832273301E+02  0.34395823000E+02  0.10566000000E+00 0. -1.
        -13    1    4    4    0    0  0.14785322281E+01 -0.69143478309E+00  0.42246970319E+01  0.45302724703E+01  0.10566000000E+00 0. -1.
         14    1    4    4    0    0  0.36218565591E+01 -0.24026678639E+01  0.12699794368E+02  0.13422944341E+02  0.00000000000E+00 0. -1.
<mgrwt>
<rscale>  0 0.80106828E+02</rscale>
<asrwt>0</asrwt>
<pdfrwt beam="1">  1        2 0.82699417E-02 0.80106828E+02</pdfrwt>
<pdfrwt beam="2">  1       -1 0.45914507E-02 0.80106828E+02</pdfrwt>
<totfact> 0.15127810E+05</totfact>
</mgrwt>
</event>
<event>
 8    1  0.1226832E-016  0.8007288E+02  0.7818608E-02  0.1328845E+00
          2   -1    0    0  501    0  0.00000000000E+00  0.00000000000E+00  0.10156430690E+04  0.10156430690E+04  0.25500000000E-02 0. -1.
         -1   -1    0    0    0  501 -0.00000000000E+00 -0.00000000000E+00 -0.15782242819E+01  0.15782323294E+01  0.50400000000E-02 0.  1.
         24    2    1    2    0    0  0.00000000000E+00  0.00000000000E+00  0.10140648447E+04  0.10172213013E+04  0.80072882998E+02 0.  0.
         66    2    3    3    0    0  0.11852196871E+02  0.14894258888E+02  0.95443810629E+03  0.95462998709E+03  0.20000002740E+01 0.  0.
        -13    1    3    3    0    0 -0.11852196871E+02 -0.14894258888E+02  0.59626738410E+02  0.62591314221E+02  0.10566000000E+00 0.  1.
         13    1    4    4    0    0  0.56011355881E+01  0.75425827887E+01  0.47111906861E+03  0.47121274521E+03  0.10566000000E+00 0. -1.
        -13    1    4    4    0    0  0.17793762380E+01  0.21610348851E+01  0.17214348379E+03  0.17216627553E+03  0.10566000000E+00 0.  1.
        -14    1    4    4    0    0  0.44716850447E+01  0.51906412137E+01  0.31117555389E+03  0.31125096636E+03  0.00000000000E+00 0.  1.
<mgrwt>
<rscale>  0 0.80072883E+02</rscale>
<asrwt>0</asrwt>
<pdfrwt beam="1">  1        2 0.15625312E+00 0.80072883E+02</pdfrwt>
<pdfrwt beam="2">  1       -1 0.24280382E-03 0.80072883E+02</pdfrwt>
<totfact> 0.35167812E+05</totfact>
</mgrwt>
</event>
<event>
 8    1  0.1226832E-016  0.7889401E+02  0.7818608E-02  0.1332220E+00
         -1   -1    0    0    0  501 -0.00000000000E+00  0.00000000000E+00  0.29760721597E+01  0.29760764274E+01  0.50400000000E-02 0.  1.
          2   -1    0    0  501    0  0.00000000000E+00 -0.00000000000E+00 -0.52285864022E+03  0.52285864023E+03  0.25500000000E-02 0. -1.
         24    2    1    2    0    0 -0.17763568394E-14  0.00000000000E+00 -0.51988256806E+03  0.52583471665E+03  0.78894009058E+02 0.  0.
         66    2    3    3    0    0 -0.13908945024E+02 -0.28923042613E+02 -0.41268722141E+03  0.41393809180E+03  0.19999959857E+01 0.  0.
        -13    1    3    3    0    0  0.13908945024E+02  0.28923042613E+02 -0.10719534665E+03  0.11189662485E+03  0.10566000000E+00 0.  1.
         13    1    4    4    0    0 -0.10715409808E+02 -0.23329520719E+02 -0.33125044786E+03  0.33224382148E+03  0.10566000000E+00 0. -1.
        -13    1    4    4    0    0 -0.21141422361E+01 -0.43168306134E+01 -0.59657844060E+02  0.59851266869E+02  0.10566000000E+00 0.  1.
        -14    1    4    4    0    0 -0.10793929794E+01 -0.12766912804E+01 -0.21778929493E+02  0.21843003449E+02  0.00000000000E+00 0.  1.
<mgrwt>
<rscale>  0 0.78894009E+02</rscale>
<asrwt>0</asrwt>
<pdfrwt beam="1">  1        2 0.80439718E-01 0.78894009E+02</pdfrwt>
<pdfrwt beam="2">  1       -1 0.45785800E-03 0.78894009E+02</pdfrwt>
<totfact> 0.32022164E+05</totfact>
</mgrwt>
</event>
<event>
 8    1  0.1226832E-016  0.7733482E+02  0.7818608E-02  0.1336790E+00
          2   -1    0    0  501    0  0.00000000000E+00  0.00000000000E+00  0.50751735900E+02  0.50751735964E+02  0.25500000000E-02 0. -1.
         -1   -1    0    0    0  501 -0.00000000000E+00 -0.00000000000E+00 -0.29460439400E+02  0.29460439831E+02  0.50400000000E-02 0.  1.
         24    2    1    2    0    0  0.71054273576E-14 -0.17763568394E-14  0.21291296501E+02  0.80212175795E+02  0.77334816474E+02 0.  0.
         66    2    3    3    0    0 -0.37028235390E+02  0.10618473200E+02  0.74860646616E+01  0.39292281131E+02  0.20000007927E+01 0.  0.
        -13    1    3    3    0    0  0.37028235390E+02 -0.10618473200E+02  0.13805231839E+02  0.40919894664E+02  0.10566000000E+00 0.  1.
         13    1    4    4    0    0 -0.15496884434E+01  0.27926993929E+00  0.41146990609E+00  0.16309498735E+01  0.10566000000E+00 0. -1.
        -13    1    4    4    0    0 -0.14150231790E+02  0.48910762557E+01  0.31875728823E+01  0.15307627888E+02  0.10566000000E+00 0. -1.
         14    1    4    4    0    0 -0.21328315156E+02  0.54481270051E+01  0.38870218732E+01  0.22353703369E+02  0.00000000000E+00 0. -1.
<mgrwt>
<rscale>  0 0.77334816E+02</rscale>
<asrwt>0</asrwt>
<pdfrwt beam="1">  1        2 0.78079593E-02 0.77334816E+02</pdfrwt>
<pdfrwt beam="2">  1       -1 0.45323754E-02 0.77334816E+02</pdfrwt>
<totfact> 0.16445243E+05</totfact>
</mgrwt>
</event>
<event>
 8    1  0.1226832E-016  0.7681048E+02  0.7818608E-02  0.1338354E+00
          2   -1    0    0  501    0  0.00000000000E+00  0.00000000000E+00  0.64043896403E+01  0.64043901480E+01  0.25500000000E-02 0. -1.
         -1   -1    0    0    0  501 -0.00000000000E+00 -0.00000000000E+00 -0.23030492574E+03  0.23030492580E+03  0.50400000000E-02 0.  1.
         24    2    1    2    0    0  0.00000000000E+00 -0.35527136788E-14 -0.22390053610E+03  0.23670931595E+03  0.76810482283E+02 0.  0.
         66    2    3    3    0    0 -0.11488844635E+02 -0.30897811261E+02 -0.51456845463E+02  0.61143072330E+02  0.20000143157E+01 0.  0.
        -13    1    3    3    0    0  0.11488844635E+02  0.30897811261E+02 -0.17244369064E+03  0.17556624361E+03  0.10566000000E+00 0.  1.
         13    1    4    4    0    0 -0.32008920263E+01 -0.10953754876E+02 -0.18113446008E+02  0.21408842705E+02  0.10566000000E+00 0. -1.
        -13    1    4    4    0    0 -0.12978497258E+01 -0.38429072106E+01 -0.61853947393E+01  0.73974740187E+01  0.10566000000E+00 0. -1.
         14    1    4    4    0    0 -0.69901028829E+01 -0.16101149174E+02 -0.27158004716E+02  0.32336755607E+02  0.00000000000E+00 0. -1.
<mgrwt>
<rscale>  0 0.76810482E+02</rscale>
<asrwt>0</asrwt>
<pdfrwt beam="1">  1        2 0.98529093E-03 0.76810482E+02</pdfrwt>
<pdfrwt beam="2">  1       -1 0.35431521E-01 0.76810482E+02</pdfrwt>
<totfact> 0.10565963E+05</totfact>
</mgrwt>
</event>
<event>
 8    1  0.1226832E-016  0.7886671E+02  0.7818608E-02  0.1332299E+00
          2   -1    0    0  501    0  0.00000000000E+00  0.00000000000E+00  0.10171591577E+02  0.10171591897E+02  0.25500000000E-02 0. -1.
         -1   -1    0    0    0  501 -0.00000000000E+00 -0.00000000000E+00 -0.15287570856E+03  0.15287570865E+03  0.50400000000E-02 0.  1.
         24    2    1    2    0    0 -0.35527136788E-14 -0.35527136788E-14 -0.14270411699E+03  0.16304730054E+03  0.78866705330E+02 0.  0.
         66    2    3    3    0    0 -0.24169293894E+02 -0.30385683097E+02 -0.57446482339E+02  0.69365285544E+02  0.20000002182E+01 0.  0.
        -13    1    3    3    0    0  0.24169293894E+02  0.30385683097E+02 -0.85257634648E+02  0.93682015000E+02  0.10566000000E+00 0.  1.
         13    1    4    4    0    0 -0.32235788540E+01 -0.36637174378E+01 -0.75674170538E+01  0.90050680727E+01  0.10566000000E+00 0. -1.
        -13    1    4    4    0    0 -0.42117120038E+01 -0.62519287627E+01 -0.11775622376E+02  0.13982187870E+02  0.10566000000E+00 0.  1.
         14    1    4    4    0    0 -0.16734003036E+02 -0.20470036897E+02 -0.38103442909E+02  0.46378029601E+02  0.00000000000E+00 0. -1.
<mgrwt>
<rscale>  0 0.78866705E+02</rscale>
<asrwt>0</asrwt>
<pdfrwt beam="1">  1        2 0.15648604E-02 0.78866705E+02</pdfrwt>
<pdfrwt beam="2">  1       -1 0.23519338E-01 0.78866705E+02</pdfrwt>
<totfact> 0.11129225E+05</totfact>
</mgrwt>
</event>
<event>
 8    1  0.1226832E-016  0.8057965E+02  0.7818608E-02  0.1327414E+00
         -1   -1    0    0    0  501 -0.00000000000E+00  0.00000000000E+00  0.28634993252E+02  0.28634993696E+02  0.50400000000E-02 0.  1.
          2   -1    0    0  501    0  0.00000000000E+00 -0.00000000000E+00 -0.56688325276E+02  0.56688325334E+02  0.25500000000E-02 0. -1.
         24    2    1    2    0    0  0.00000000000E+00 -0.71054273576E-14 -0.28053332024E+02  0.85323319030E+02  0.80579645895E+02 0.  0.
         66    2    3    3    0    0  0.30807248218E+01 -0.31461534508E+02  0.12371692315E+02  0.34005556258E+02  0.20000166618E+01 0.  0.
        -13    1    3    3    0    0 -0.30807248218E+01  0.31461534508E+02 -0.40425024339E+02  0.51317762772E+02  0.10566000000E+00 0.  1.
         13    1    4    4    0    0  0.89045991754E+00 -0.65548288528E+01  0.20658207554E+01  0.69309075584E+01  0.10566000000E+00 0. -1.
        -13    1    4    4    0    0 -0.70514350008E-01 -0.33672934386E+01  0.16390644726E+01  0.37471767714E+01  0.10566000000E+00 0.  1.
         14    1    4    4    0    0  0.22607792543E+01 -0.21539412217E+02  0.86668070869E+01  0.23327471928E+02  0.00000000000E+00 0. -1.
<mgrwt>
<rscale>  0 0.80579646E+02</rscale>
<asrwt>0</asrwt>
<pdfrwt beam="1">  1        2 0.87212808E-02 0.80579646E+02</pdfrwt>
<pdfrwt beam="2">  1       -1 0.44053836E-02 0.80579646E+02</pdfrwt>
<totfact> 0.15065692E+05</totfact>
</mgrwt>
</event>
<event>
 8    1  0.1226832E-016  0.8119489E+02  0.7818608E-02  0.1325694E+00
         -1   -1    0    0    0  501 -0.00000000000E+00  0.00000000000E+00  0.39760899007E+02  0.39760899327E+02  0.50400000000E-02 0.  1.
          2   -1    0    0  501    0  0.00000000000E+00 -0.00000000000E+00 -0.41451588612E+02  0.41451588691E+02  0.25500000000E-02 0. -1.
         24    2    1    2    0    0  0.00000000000E+00  0.00000000000E+00 -0.16906896053E+01  0.81212488017E+02  0.81194887639E+02 0.  0.
         66    2    3    3    0    0 -0.73847674100E+01 -0.84429453682E+01 -0.39845709328E+02  0.41442715448E+02  0.19999989212E+01 0.  0.
        -13    1    3    3    0    0  0.73847674100E+01  0.84429453682E+01  0.38155019722E+02  0.39769772570E+02  0.10566000000E+00 0.  1.
         13    1    4    4    0    0 -0.42238649163E+01 -0.40054660792E+01 -0.19894759938E+02  0.20729144468E+02  0.10566000000E+00 0. -1.
        -13    1    4    4    0    0 -0.25242519231E+01 -0.28840181181E+01 -0.12448826766E+02  0.13025891914E+02  0.10566000000E+00 0.  1.
         14    1    4    4    0    0 -0.63665057054E+00 -0.15534611709E+01 -0.75021226236E+01  0.76876790658E+01  0.00000000000E+00 0. -1.
<mgrwt>
<rscale>  0 0.81194888E+02</rscale>
<asrwt>0</asrwt>
<pdfrwt beam="1">  1        2 0.63771675E-02 0.81194888E+02</pdfrwt>
<pdfrwt beam="2">  1       -1 0.61170614E-02 0.81194888E+02</pdfrwt>
<totfact> 0.13784043E+05</totfact>
</mgrwt>
</event>
<event>
 8    1  0.1226832E-016  0.7959288E+02  0.7818608E-02  0.1330211E+00
         -1   -1    0    0    0  501 -0.00000000000E+00  0.00000000000E+00  0.18688399088E+02  0.18688399767E+02  0.50400000000E-02 0.  1.
          2   -1    0    0  501    0  0.00000000000E+00 -0.00000000000E+00 -0.84745433370E+02  0.84745433408E+02  0.25500000000E-02 0. -1.
         24    2    1    2    0    0  0.00000000000E+00  0.00000000000E+00 -0.66057034282E+02  0.10343383318E+03  0.79592876988E+02 0.  0.
         66    2    3    3    0    0  0.20164230747E+02  0.31547513936E+02 -0.50480050016E+02  0.62881454207E+02  0.19999991206E+01 0.  0.
        -13    1    3    3    0    0 -0.20164230747E+02 -0.31547513936E+02 -0.15576984267E+02  0.40552378969E+02  0.10566000000E+00 0.  1.
         13    1    4    4    0    0  0.59113589593E+01  0.10052823049E+02 -0.17029353342E+02  0.20640093393E+02  0.10566000000E+00 0. -1.
        -13    1    4    4    0    0  0.73859837214E+01  0.11420634577E+02 -0.17382115812E+02  0.22071084337E+02  0.10566000000E+00 0.  1.
         14    1    4    4    0    0  0.68668880662E+01  0.10074056309E+02 -0.16068580861E+02  0.20170276476E+02  0.00000000000E+00 0. -1.
<mgrwt>
<rscale>  0 0.79592877E+02</rscale>
<asrwt>0</asrwt>
<pdfrwt beam="1">  1        2 0.13037759E-01 0.79592877E+02</pdfrwt>
<pdfrwt beam="2">  1       -1 0.28751384E-02 0.79592877E+02</pdfrwt>
<totfact> 0.17181676E+05</totfact>
</mgrwt>
</event>
<event>
 8    1  0.1226832E-016  0.7957964E+02  0.7818608E-02  0.1330249E+00
         -1   -1    0    0    0  501 -0.00000000000E+00  0.00000000000E+00  0.28229205066E+01  0.28229250058E+01  0.50400000000E-02 0.  1.
          2   -1    0    0  501    0  0.00000000000E+00 -0.00000000000E+00 -0.56084776866E+03  0.56084776867E+03  0.25500000000E-02 0. -1.
         24    2    1    2    0    0  0.00000000000E+00  0.00000000000E+00 -0.55802484815E+03  0.56367069367E+03  0.79579644053E+02 0.  0.
         66    2    3    3    0    0 -0.24849455009E+02  0.27368348458E+02 -0.38297507440E+03  0.38476022342E+03  0.20000001586E+01 0.  0.
        -13    1    3    3    0    0  0.24849455009E+02 -0.27368348458E+02 -0.17504977375E+03  0.17891047025E+03  0.10566000000E+00 0.  1.
         13    1    4    4    0    0 -0.14497330487E+02  0.15067697840E+02 -0.21957258092E+03  0.22056594834E+03  0.10566000000E+00 0. -1.
        -13    1    4    4    0    0 -0.29301542733E+01  0.41504383254E+01 -0.52199021026E+02  0.52445790131E+02  0.10566000000E+00 0.  1.
        -14    1    4    4    0    0 -0.74219702486E+01  0.81502122935E+01 -0.11120347246E+03  0.11174848495E+03  0.00000000000E+00 0.  1.
<mgrwt>
<rscale>  0 0.79579644E+02</rscale>
<asrwt>0</asrwt>
<pdfrwt beam="1">  1        2 0.86284184E-01 0.79579644E+02</pdfrwt>
<pdfrwt beam="2">  1       -1 0.43429626E-03 0.79579644E+02</pdfrwt>
<totfact> 0.31981711E+05</totfact>
</mgrwt>
</event>
<event>
 8    1  0.1226832E-016  0.7764339E+02  0.7818608E-02  0.1335875E+00
         -1   -1    0    0    0  501 -0.00000000000E+00  0.00000000000E+00  0.22107203436E+02  0.22107204010E+02  0.50400000000E-02 0.  1.
          2   -1    0    0  501    0  0.00000000000E+00 -0.00000000000E+00 -0.68173430521E+02  0.68173430568E+02  0.25500000000E-02 0. -1.
         24    2    1    2    0    0  0.00000000000E+00  0.00000000000E+00 -0.46066227085E+02  0.90280634579E+02  0.77643388013E+02 0.  0.
         66    2    3    3    0    0  0.16969331328E+02 -0.48601816901E+01 -0.63218971489E+02  0.65667480039E+02  0.20000017060E+01 0.  0.
        -13    1    3    3    0    0 -0.16969331328E+02  0.48601816901E+01  0.17152744404E+02  0.24613154540E+02  0.10566000000E+00 0.  1.
         13    1    4    4    0    0  0.96654481851E+01 -0.29229572350E+01 -0.35070129331E+02  0.36495064090E+02  0.10566000000E+00 0. -1.
        -13    1    4    4    0    0  0.43643481909E+01 -0.65044385082E+00 -0.17694549376E+02  0.18236744610E+02  0.10566000000E+00 0.  1.
         14    1    4    4    0    0  0.29395349516E+01 -0.12867806043E+01 -0.10454292782E+02  0.10935671339E+02  0.00000000000E+00 0. -1.
<mgrwt>
<rscale>  0 0.77643388E+02</rscale>
<asrwt>0</asrwt>
<pdfrwt beam="1">  1        2 0.10488220E-01 0.77643388E+02</pdfrwt>
<pdfrwt beam="2">  1       -1 0.34011083E-02 0.77643388E+02</pdfrwt>
<totfact> 0.17393998E+05</totfact>
</mgrwt>
</event>
<event>
 8    1  0.1226832E-016  0.7990860E+02  0.7818608E-02  0.1329311E+00
         -1   -1    0    0    0  501 -0.00000000000E+00  0.00000000000E+00  0.96157943595E+01  0.96157956804E+01  0.50400000000E-02 0.  1.
          2   -1    0    0  501    0  0.00000000000E+00 -0.00000000000E+00 -0.16601290414E+03  0.16601290416E+03  0.25500000000E-02 0. -1.
         24    2    1    2    0    0  0.00000000000E+00  0.00000000000E+00 -0.15639710978E+03  0.17562869984E+03  0.79908599412E+02 0.  0.
         66    2    3    3    0    0  0.21636719168E+02  0.21161302992E+01 -0.15185850703E+03  0.15341978941E+03  0.20000000128E+01 0.  0.
        -13    1    3    3    0    0 -0.21636719168E+02 -0.21161302992E+01 -0.45386027531E+01  0.22208910437E+02  0.10566000000E+00 0.  1.
         13    1    4    4    0    0  0.55507172077E+01  0.82032506354E+00 -0.39665767692E+02  0.40060799859E+02  0.10566000000E+00 0. -1.
        -13    1    4    4    0    0  0.13497778923E+02  0.16184256505E+01 -0.95892551996E+02  0.96851443096E+02  0.10566000000E+00 0.  1.
        -14    1    4    4    0    0  0.25882230379E+01 -0.32262041483E+00 -0.16300187343E+02  0.16507546451E+02  0.00000000000E+00 0.  1.
<mgrwt>
<rscale>  0 0.79908599E+02</rscale>
<asrwt>0</asrwt>
<pdfrwt beam="1">  1        2 0.25540445E-01 0.79908599E+02</pdfrwt>
<pdfrwt beam="2">  1       -1 0.14793532E-02 0.79908599E+02</pdfrwt>
<totfact> 0.20768060E+05</totfact>
</mgrwt>
</event>
<event>
 8    1  0.1226832E-016  0.8102295E+02  0.7818608E-02  0.1326173E+00
          2   -1    0    0  501    0  0.00000000000E+00  0.00000000000E+00  0.13282797250E+04  0.13282797250E+04  0.25500000000E-02 0. -1.
         -1   -1    0    0    0  501 -0.00000000000E+00 -0.00000000000E+00 -0.12355626136E+01  0.12355728929E+01  0.50400000000E-02 0.  1.
         24    2    1    2    0    0  0.00000000000E+00  0.00000000000E+00  0.13270441623E+04  0.13295152979E+04  0.81022949920E+02 0.  0.
         66    2    3    3    0    0  0.43333017965E+01  0.16841431863E+02  0.12638717760E+04  0.12639929895E+04  0.19999996963E+01 0.  0.
        -13    1    3    3    0    0 -0.43333017965E+01 -0.16841431863E+02  0.63172386322E+02  0.65522308333E+02  0.10566000000E+00 0.  1.
         13    1    4    4    0    0  0.24625229972E+01  0.10289160910E+02  0.79463719135E+03  0.79470762416E+03  0.10566000000E+00 0. -1.
        -13    1    4    4    0    0 -0.41341560669E-01  0.64235454276E-01  0.12831456260E+02  0.12832118652E+02  0.10566000000E+00 0.  1.
         14    1    4    4    0    0  0.19121203599E+01  0.64880354984E+01  0.45640312841E+03  0.45645324671E+03  0.00000000000E+00 0. -1.
<mgrwt>
<rscale>  0 0.81022950E+02</rscale>
<asrwt>0</asrwt>
<pdfrwt beam="1">  1        2 0.20435031E+00 0.81022950E+02</pdfrwt>
<pdfrwt beam="2">  1       -1 0.19008773E-03 0.81022950E+02</pdfrwt>
<totfact> 0.33344348E+05</totfact>
</mgrwt>
</event>
<event>
 8    1  0.1226832E-016  0.8012256E+02  0.7818608E-02  0.1328704E+00
          2   -1    0    0  501    0  0.00000000000E+00  0.00000000000E+00  0.79315574917E+01  0.79315579016E+01  0.25500000000E-02 0. -1.
         -1   -1    0    0    0  501 -0.00000000000E+00 -0.00000000000E+00 -0.20234439642E+03  0.20234439648E+03  0.50400000000E-02 0.  1.
         24    2    1    2    0    0  0.00000000000E+00  0.00000000000E+00 -0.19441283892E+03  0.21027595438E+03  0.80122562690E+02 0.  0.
         66    2    3    3    0    0  0.23723173562E+01 -0.32737545884E+02 -0.37103457480E+02  0.49578638116E+02  0.20000000748E+01 0.  0.
        -13    1    3    3    0    0 -0.23723173562E+01  0.32737545884E+02 -0.15730938144E+03  0.16069731626E+03  0.10566000000E+00 0.  1.
         13    1    4    4    0    0  0.23357880339E+01 -0.30941451302E+02 -0.35281818550E+02  0.46985606292E+02  0.10566000000E+00 0. -1.
        -13    1    4    4    0    0  0.17248556991E+00 -0.15426502959E+01 -0.14931552733E+01  0.21564317548E+01  0.10566000000E+00 0.  1.
        -14    1    4    4    0    0 -0.13595624755E+00 -0.25344428674E+00 -0.32848365733E+00  0.43660006970E+00  0.00000000000E+00 0.  1.
<mgrwt>
<rscale>  0 0.80122563E+02</rscale>
<asrwt>0</asrwt>
<pdfrwt beam="1">  1        2 0.12202398E-02 0.80122563E+02</pdfrwt>
<pdfrwt beam="2">  1       -1 0.31129903E-01 0.80122563E+02</pdfrwt>
<totfact> 0.98865829E+04</totfact>
</mgrwt>
</event>
<event>
 8    1  0.1226832E-016  0.7912609E+02  0.7818608E-02  0.1331550E+00
         -1   -1    0    0    0  501 -0.00000000000E+00  0.00000000000E+00  0.10949069766E+03  0.10949069778E+03  0.50400000000E-02 0.  1.
          2   -1    0    0  501    0  0.00000000000E+00 -0.00000000000E+00 -0.14295592757E+02  0.14295592984E+02  0.25500000000E-02 0. -1.
         24    2    1    2    0    0  0.00000000000E+00  0.00000000000E+00  0.95195104903E+02  0.12378629076E+03  0.79126087876E+02 0.  0.
         66    2    3    3    0    0  0.35848245932E+02 -0.57216361028E+01  0.23121094977E+02  0.43086179688E+02  0.19999977649E+01 0.  0.
        -13    1    3    3    0    0 -0.35848245932E+02  0.57216361028E+01  0.72074009926E+02  0.80700111072E+02  0.10566000000E+00 0.  1.
         13    1    4    4    0    0  0.16394915265E+02 -0.29025552647E+01  0.95675831824E+01  0.19203330065E+02  0.10566000000E+00 0. -1.
        -13    1    4    4    0    0  0.95013111471E+01 -0.13465254615E+01  0.69423327689E+01  0.11844627163E+02  0.10566000000E+00 0.  1.
        -14    1    4    4    0    0  0.99520195207E+01 -0.14725553766E+01  0.66111790257E+01  0.12038222460E+02  0.00000000000E+00 0.  1.
<mgrwt>
<rscale>  0 0.79126088E+02</rscale>
<asrwt>0</asrwt>
<pdfrwt beam="1">  1        2 0.21993219E-02 0.79126088E+02</pdfrwt>
<pdfrwt beam="2">  1       -1 0.16844723E-01 0.79126088E+02</pdfrwt>
<totfact> 0.11945277E+05</totfact>
</mgrwt>
</event>
<event>
 8    1  0.1226832E-016  0.7864495E+02  0.7818608E-02  0.1332941E+00
          2   -1    0    0  501    0  0.00000000000E+00  0.00000000000E+00  0.21732086633E+02  0.21732086783E+02  0.25500000000E-02 0. -1.
         -1   -1    0    0    0  501 -0.00000000000E+00 -0.00000000000E+00 -0.71150885593E+02  0.71150885772E+02  0.50400000000E-02 0.  1.
         24    2    1    2    0    0 -0.44408920985E-15 -0.71054273576E-14 -0.49418798960E+02  0.92882972555E+02  0.78644954702E+02 0.  0.
         66    2    3    3    0    0 -0.34168939980E+01  0.38971973857E+02 -0.20343944729E+02  0.44140299019E+02  0.19999998667E+01 0.  0.
        -13    1    3    3    0    0  0.34168939980E+01 -0.38971973857E+02 -0.29074854231E+02  0.48742673536E+02  0.10566000000E+00 0.  1.
         13    1    4    4    0    0 -0.10567313358E+01  0.11503806996E+02 -0.63974851515E+01  0.13205803149E+02  0.10566000000E+00 0. -1.
        -13    1    4    4    0    0 -0.84161515723E+00  0.39607125610E+01 -0.18330331363E+01  0.44459795971E+01  0.10566000000E+00 0.  1.
        -14    1    4    4    0    0 -0.15185475050E+01  0.23507454300E+02 -0.12113426441E+02  0.26488516273E+02  0.00000000000E+00 0.  1.
<mgrwt>
<rscale>  0 0.78644955E+02</rscale>
<asrwt>0</asrwt>
<pdfrwt beam="1">  1        2 0.33433980E-02 0.78644955E+02</pdfrwt>
<pdfrwt beam="2">  1       -1 0.10946290E-01 0.78644955E+02</pdfrwt>
<totfact> 0.13254909E+05</totfact>
</mgrwt>
</event>
<event>
 8    1  0.1226832E-016  0.8143935E+02  0.7818608E-02  0.1325016E+00
          2   -1    0    0  501    0  0.00000000000E+00  0.00000000000E+00  0.10591879867E+04  0.10591879867E+04  0.25500000000E-02 0. -1.
         -1   -1    0    0    0  501 -0.00000000000E+00 -0.00000000000E+00 -0.15654329100E+01  0.15654410233E+01  0.50400000000E-02 0.  1.
         24    2    1    2    0    0 -0.71054273576E-14  0.00000000000E+00  0.10576225538E+04  0.10607534277E+04  0.81439352574E+02 0.  0.
         66    2    3    3    0    0 -0.28592467025E+02  0.12372724587E+02  0.87014589340E+03  0.87070574203E+03  0.19999786821E+01 0.  0.
        -13    1    3    3    0    0  0.28592467025E+02 -0.12372724587E+02  0.18747666036E+03  0.19004768567E+03  0.10566000000E+00 0.  1.
         13    1    4    4    0    0 -0.11770191005E+02  0.56028715422E+01  0.38029565075E+03  0.38051901754E+03  0.10566000000E+00 0. -1.
        -13    1    4    4    0    0 -0.18966671843E+00  0.77095639619E-01  0.65768641228E+01  0.65808983374E+01  0.10566000000E+00 0. -1.
         14    1    4    4    0    0 -0.16632609301E+02  0.66927574047E+01  0.48327337853E+03  0.48360582615E+03  0.00000000000E+00 0. -1.
<mgrwt>
<rscale>  0 0.81439353E+02</rscale>
<asrwt>0</asrwt>
<pdfrwt beam="1">  1        2 0.16295194E+00 0.81439353E+02</pdfrwt>
<pdfrwt beam="2">  1       -1 0.24083655E-03 0.81439353E+02</pdfrwt>
<totfact> 0.33676236E+05</totfact>
</mgrwt>
</event>
<event>
 8    1  0.1226832E-016  0.7896697E+02  0.7818608E-02  0.1332009E+00
          2   -1    0    0  501    0  0.00000000000E+00  0.00000000000E+00  0.18826223045E+03  0.18826223047E+03  0.25500000000E-02 0. -1.
         -1   -1    0    0    0  501 -0.00000000000E+00 -0.00000000000E+00 -0.82807133318E+01  0.82807148656E+01  0.50400000000E-02 0.  1.
         24    2    1    2    0    0  0.17763568394E-14  0.00000000000E+00  0.17998151712E+03  0.19654294533E+03  0.78966973198E+02 0.  0.
         66    2    3    3    0    0 -0.12232315154E+02  0.17632843520E+02  0.17246124363E+03  0.17380284019E+03  0.19999994866E+01 0.  0.
        -13    1    3    3    0    0  0.12232315154E+02 -0.17632843520E+02  0.75202734864E+01  0.22740105144E+02  0.10566000000E+00 0.  1.
         13    1    4    4    0    0 -0.63571007006E+01  0.10295711808E+02  0.99017583473E+02  0.99754235057E+02  0.10566000000E+00 0. -1.
        -13    1    4    4    0    0 -0.39907723943E+00  0.25130738586E+00  0.44553552507E+01  0.44814922169E+01  0.10566000000E+00 0. -1.
         14    1    4    4    0    0 -0.54761372136E+01  0.70858243267E+01  0.68988304909E+02  0.69567112915E+02  0.00000000000E+00 0. -1.
<mgrwt>
<rscale>  0 0.78966973E+02</rscale>
<asrwt>0</asrwt>
<pdfrwt beam="1">  1        2 0.28963416E-01 0.78966973E+02</pdfrwt>
<pdfrwt beam="2">  1       -1 0.12739562E-02 0.78966973E+02</pdfrwt>
<totfact> 0.22356820E+05</totfact>
</mgrwt>
</event>
<event>
 8    1  0.1226832E-016  0.7584385E+02  0.7818608E-02  0.1341278E+00
         -1   -1    0    0    0  501 -0.00000000000E+00  0.00000000000E+00  0.33974881032E+01  0.33974918415E+01  0.50400000000E-02 0.  1.
          2   -1    0    0  501    0  0.00000000000E+00 -0.00000000000E+00 -0.42327493541E+03  0.42327493542E+03  0.25500000000E-02 0. -1.
         24    2    1    2    0    0  0.00000000000E+00  0.00000000000E+00 -0.41987744731E+03  0.42667242726E+03  0.75843848968E+02 0.  0.
         66    2    3    3    0    0  0.26324504555E+02 -0.22528380111E+02 -0.29642687847E+03  0.29845167402E+03  0.19999991907E+01 0.  0.
        -13    1    3    3    0    0 -0.26324504555E+02  0.22528380111E+02 -0.12345056884E+03  0.12822075324E+03  0.10566000000E+00 0.  1.
         13    1    4    4    0    0  0.13649907070E+02 -0.11316568841E+02 -0.14394136444E+03  0.14502934963E+03  0.10566000000E+00 0. -1.
        -13    1    4    4    0    0  0.10352788153E+02 -0.89863478219E+01 -0.12233352977E+03  0.12309930276E+03  0.10566000000E+00 0.  1.
        -14    1    4    4    0    0  0.23218093315E+01 -0.22254634479E+01 -0.30151984263E+02  0.30323021636E+02  0.00000000000E+00 0.  1.
<mgrwt>
<rscale>  0 0.75843849E+02</rscale>
<asrwt>0</asrwt>
<pdfrwt beam="1">  1        2 0.65119179E-01 0.75843849E+02</pdfrwt>
<pdfrwt beam="2">  1       -1 0.52269110E-03 0.75843849E+02</pdfrwt>
<totfact> 0.33106625E+05</totfact>
</mgrwt>
</event>
<event>
 8    1  0.1226832E-016  0.8072845E+02  0.7818608E-02  0.1326997E+00
         -1   -1    0    0    0  501 -0.00000000000E+00  0.00000000000E+00  0.24627000970E+02  0.24627001485E+02  0.50400000000E-02 0.  1.
          2   -1    0    0  501    0  0.00000000000E+00 -0.00000000000E+00 -0.66157896171E+02  0.66157896221E+02  0.25500000000E-02 0. -1.
         24    2    1    2    0    0 -0.35527136788E-14  0.00000000000E+00 -0.41530895202E+02  0.90784897706E+02  0.80728448488E+02 0.  0.
         66    2    3    3    0    0 -0.31870363241E+02 -0.18101593786E+02 -0.39725694889E+02  0.54088063198E+02  0.19999988581E+01 0.  0.
        -13    1    3    3    0    0  0.31870363241E+02  0.18101593786E+02 -0.18052003124E+01  0.36696834508E+02  0.10566000000E+00 0.  1.
         13    1    4    4    0    0 -0.18101426421E+02 -0.96673993917E+01 -0.21485895404E+02  0.29711531681E+02  0.10566000000E+00 0. -1.
        -13    1    4    4    0    0 -0.67422093756E+01 -0.42105269176E+01 -0.96385809410E+01  0.12493971778E+02  0.10566000000E+00 0.  1.
        -14    1    4    4    0    0 -0.70267274437E+01 -0.42236674768E+01 -0.86012185441E+01  0.11882559740E+02  0.00000000000E+00 0.  1.
<mgrwt>
<rscale>  0 0.80728448E+02</rscale>
<asrwt>0</asrwt>
<pdfrwt beam="1">  1        2 0.10178138E-01 0.80728448E+02</pdfrwt>
<pdfrwt beam="2">  1       -1 0.37887695E-02 0.80728448E+02</pdfrwt>
<totfact> 0.15540751E+05</totfact>
</mgrwt>
</event>
<event>
 8    1  0.1226832E-016  0.7598606E+02  0.7818608E-02  0.1340844E+00
         -1   -1    0    0    0  501 -0.00000000000E+00  0.00000000000E+00  0.58997806613E+01  0.58997828141E+01  0.50400000000E-02 0.  1.
          2   -1    0    0  501    0  0.00000000000E+00 -0.00000000000E+00 -0.24466506778E+03  0.24466506779E+03  0.25500000000E-02 0. -1.
         24    2    1    2    0    0  0.00000000000E+00  0.00000000000E+00 -0.23876528712E+03  0.25056485061E+03  0.75986064690E+02 0.  0.
         66    2    3    3    0    0 -0.58040033578E+01 -0.32594344355E+02 -0.18074807858E+03  0.18376600788E+03  0.20000007516E+01 0.  0.
        -13    1    3    3    0    0  0.58040033578E+01  0.32594344355E+02 -0.58017208533E+02  0.66798842722E+02  0.10566000000E+00 0.  1.
         13    1    4    4    0    0 -0.17473372502E+01 -0.86964758747E+01 -0.46454638107E+02  0.47294042392E+02  0.10566000000E+00 0. -1.
        -13    1    4    4    0    0 -0.26457576226E+01 -0.17457460350E+02 -0.94339027156E+02  0.95977216901E+02  0.10566000000E+00 0.  1.
        -14    1    4    4    0    0 -0.14109084851E+01 -0.64404081304E+01 -0.39954413321E+02  0.40494748591E+02  0.00000000000E+00 0.  1.
<mgrwt>
<rscale>  0 0.75986065E+02</rscale>
<asrwt>0</asrwt>
<pdfrwt beam="1">  1        2 0.37640772E-01 0.75986065E+02</pdfrwt>
<pdfrwt beam="2">  1       -1 0.90765892E-03 0.75986065E+02</pdfrwt>
<totfact> 0.27108671E+05</totfact>
</mgrwt>
</event>
<event>
 8    1  0.1226832E-016  0.7850323E+02  0.7818608E-02  0.1333354E+00
          2   -1    0    0  501    0  0.00000000000E+00  0.00000000000E+00  0.41748587093E+02  0.41748587171E+02  0.25500000000E-02 0. -1.
         -1   -1    0    0    0  501 -0.00000000000E+00 -0.00000000000E+00 -0.36903987048E+02  0.36903987392E+02  0.50400000000E-02 0.  1.
         24    2    1    2    0    0  0.00000000000E+00  0.00000000000E+00  0.48446000449E+01  0.78652574563E+02  0.78503231372E+02 0.  0.
         66    2    3    3    0    0  0.84374111889E+01 -0.12347300369E+02  0.38756316642E+02  0.41589635924E+02  0.20000006724E+01 0.  0.
        -13    1    3    3    0    0 -0.84374111889E+01  0.12347300369E+02 -0.33911716597E+02  0.37062938639E+02  0.10566000000E+00 0.  1.
         13    1    4    4    0    0  0.54973787182E+01 -0.84713262505E+01  0.28244117253E+02  0.29995430730E+02  0.10566000000E+00 0. -1.
        -13    1    4    4    0    0  0.23189254461E+01 -0.29872474303E+01  0.86143975519E+01  0.94085105969E+01  0.10566000000E+00 0.  1.
         14    1    4    4    0    0  0.62110702464E+00 -0.88872668792E+00  0.18978018370E+01  0.21856945977E+01  0.00000000000E+00 0. -1.
<mgrwt>
<rscale>  0 0.78503231E+02</rscale>
<asrwt>0</asrwt>
<pdfrwt beam="1">  1        2 0.64228596E-02 0.78503231E+02</pdfrwt>
<pdfrwt beam="2">  1       -1 0.56775365E-02 0.78503231E+02</pdfrwt>
<totfact> 0.15149928E+05</totfact>
</mgrwt>
</event>
<event>
 8    1  0.1226832E-016  0.7982195E+02  0.7818608E-02  0.1329557E+00
         -1   -1    0    0    0  501 -0.00000000000E+00  0.00000000000E+00  0.10965348351E+02  0.10965349509E+02  0.50400000000E-02 0.  1.
          2   -1    0    0  501    0  0.00000000000E+00 -0.00000000000E+00 -0.14526542334E+03  0.14526542336E+03  0.25500000000E-02 0. -1.
         24    2    1    2    0    0  0.00000000000E+00  0.00000000000E+00 -0.13430007499E+03  0.15623077287E+03  0.79821953434E+02 0.  0.
         66    2    3    3    0    0  0.21503075068E+02 -0.19204779403E+02 -0.12113795057E+03  0.12453758003E+03  0.19999954940E+01 0.  0.
        -13    1    3    3    0    0 -0.21503075068E+02  0.19204779403E+02 -0.13162124420E+02  0.31693192843E+02  0.10566000000E+00 0.  1.
         13    1    4    4    0    0  0.12360863466E+02 -0.11768439974E+02 -0.71036168854E+02  0.73057755061E+02  0.10566000000E+00 0. -1.
        -13    1    4    4    0    0  0.36523518859E+01 -0.30010631698E+01 -0.17926971413E+02  0.18540051848E+02  0.10566000000E+00 0.  1.
        -14    1    4    4    0    0  0.54898597163E+01 -0.44352762590E+01 -0.32174810298E+02  0.32939773116E+02  0.00000000000E+00 0.  1.
<mgrwt>
<rscale>  0 0.79821953E+02</rscale>
<asrwt>0</asrwt>
<pdfrwt beam="1">  1        2 0.22348525E-01 0.79821953E+02</pdfrwt>
<pdfrwt beam="2">  1       -1 0.16869769E-02 0.79821953E+02</pdfrwt>
<totfact> 0.19942676E+05</totfact>
</mgrwt>
</event>
<event>
 8    1  0.1226832E-016  0.7958491E+02  0.7818608E-02  0.1330234E+00
          2   -1    0    0  501    0  0.00000000000E+00  0.00000000000E+00  0.99391402481E+03  0.99391402481E+03  0.25500000000E-02 0. -1.
         -1   -1    0    0    0  501 -0.00000000000E+00 -0.00000000000E+00 -0.15931310832E+01  0.15931390554E+01  0.50400000000E-02 0.  1.
         24    2    1    2    0    0  0.00000000000E+00  0.00000000000E+00  0.99232089373E+03  0.99550716387E+03  0.79584905523E+02 0.  0.
         66    2    3    3    0    0  0.23615644836E+02  0.76885428708E+01  0.88497402152E+03  0.88532470379E+03  0.20000005011E+01 0.  0.
        -13    1    3    3    0    0 -0.23615644836E+02 -0.76885428708E+01  0.10734687221E+03  0.11018246008E+03  0.10566000000E+00 0.  1.
         13    1    4    4    0    0  0.15038244329E+02  0.41534458996E+01  0.57430379922E+03  0.57451567852E+03  0.10566000000E+00 0. -1.
        -13    1    4    4    0    0  0.53521808534E+00  0.19100950000E+00  0.19132949332E+02  0.19141678537E+02  0.10566000000E+00 0. -1.
         14    1    4    4    0    0  0.80421824216E+01  0.33440874712E+01  0.29153727297E+03  0.29166734673E+03  0.00000000000E+00 0. -1.
<mgrwt>
<rscale>  0 0.79584906E+02</rscale>
<asrwt>0</asrwt>
<pdfrwt beam="1">  1        2 0.15290924E+00 0.79584906E+02</pdfrwt>
<pdfrwt beam="2">  1       -1 0.24509869E-03 0.79584906E+02</pdfrwt>
<totfact> 0.35700509E+05</totfact>
</mgrwt>
</event>
<event>
 8    1  0.1226832E-016  0.8044610E+02  0.7818608E-02  0.1327790E+00
          2   -1    0    0  501    0  0.00000000000E+00  0.00000000000E+00  0.49094107423E+03  0.49094107423E+03  0.25500000000E-02 0. -1.
         -1   -1    0    0    0  501 -0.00000000000E+00 -0.00000000000E+00 -0.32954932343E+01  0.32954970883E+01  0.50400000000E-02 0.  1.
         24    2    1    2    0    0  0.35527136788E-14  0.00000000000E+00  0.48764558099E+03  0.49423657132E+03  0.80446104756E+02 0.  0.
         66    2    3    3    0    0 -0.11208595569E+02 -0.29390506932E+02  0.39774413493E+03  0.39899101667E+03  0.20000003703E+01 0.  0.
        -13    1    3    3    0    0  0.11208595569E+02  0.29390506932E+02  0.89901446063E+02  0.95245554650E+02  0.10566000000E+00 0.  1.
         13    1    4    4    0    0 -0.15062884073E+01 -0.42773669755E+01  0.49577854985E+02  0.49784933885E+02  0.10566000000E+00 0. -1.
        -13    1    4    4    0    0 -0.41526550159E+01 -0.10677265031E+02  0.15166130127E+03  0.15209342523E+03  0.10566000000E+00 0.  1.
         14    1    4    4    0    0 -0.55496521456E+01 -0.14435874926E+02  0.19650497868E+03  0.19711265756E+03  0.00000000000E+00 0. -1.
<mgrwt>
<rscale>  0 0.80446105E+02</rscale>
<asrwt>0</asrwt>
<pdfrwt beam="1">  1        2 0.75529426E-01 0.80446105E+02</pdfrwt>
<pdfrwt beam="2">  1       -1 0.50699906E-03 0.80446105E+02</pdfrwt>
<totfact> 0.29837762E+05</totfact>
</mgrwt>
</event>
<event>
 8    1  0.1226832E-016  0.8166392E+02  0.7818608E-02  0.1324395E+00
         -1   -1    0    0    0  501 -0.00000000000E+00  0.00000000000E+00  0.30330992521E+01  0.30331034395E+01  0.50400000000E-02 0.  1.
          2   -1    0    0  501    0  0.00000000000E+00 -0.00000000000E+00 -0.54968455034E+03  0.54968455035E+03  0.25500000000E-02 0. -1.
         24    2    1    2    0    0  0.00000000000E+00  0.00000000000E+00 -0.54665145109E+03  0.55271765379E+03  0.81663919998E+02 0.  0.
         66    2    3    3    0    0  0.10747489255E+02  0.30241842735E+02 -0.44406479122E+03  0.44522760065E+03  0.19999993127E+01 0.  0.
        -13    1    3    3    0    0 -0.10747489255E+02 -0.30241842735E+02 -0.10258665986E+03  0.10749005314E+03  0.10566000000E+00 0.  1.
         13    1    4    4    0    0  0.64509837495E+01  0.15735958012E+02 -0.23241373955E+03  0.23303517559E+03  0.10566000000E+00 0. -1.
        -13    1    4    4    0    0  0.34974930926E+00  0.13882036910E+01 -0.22891878439E+02  0.22936841469E+02  0.10566000000E+00 0.  1.
         14    1    4    4    0    0  0.39467561959E+01  0.13117681032E+02 -0.18875917324E+03  0.18925558359E+03  0.00000000000E+00 0. -1.
<mgrwt>
<rscale>  0 0.81663920E+02</rscale>
<asrwt>0</asrwt>
<pdfrwt beam="1">  1        2 0.84566775E-01 0.81663920E+02</pdfrwt>
<pdfrwt beam="2">  1       -1 0.46663141E-03 0.81663920E+02</pdfrwt>
<totfact> 0.29719373E+05</totfact>
</mgrwt>
</event>
<event>
 8    1  0.1226832E-016  0.7801915E+02  0.7818608E-02  0.1334769E+00
         -1   -1    0    0    0  501 -0.00000000000E+00  0.00000000000E+00  0.10437381084E+01  0.10437502769E+01  0.50400000000E-02 0.  1.
          2   -1    0    0  501    0  0.00000000000E+00 -0.00000000000E+00 -0.14579694115E+04  0.14579694115E+04  0.25500000000E-02 0. -1.
         24    2    1    2    0    0  0.00000000000E+00 -0.44408920985E-15 -0.14569256734E+04  0.14590131618E+04  0.78019154427E+02 0.  0.
         66    2    3    3    0    0  0.19916674768E+02  0.27939944835E+01 -0.13534602630E+04  0.13536111568E+04  0.19999988714E+01 0.  0.
        -13    1    3    3    0    0 -0.19916674768E+02 -0.27939944835E+01 -0.10346541042E+03  0.10540200499E+03  0.10566000000E+00 0.  1.
         13    1    4    4    0    0  0.42885116252E+01  0.10145002724E+01 -0.32463494826E+03  0.32466487543E+03  0.10566000000E+00 0. -1.
        -13    1    4    4    0    0  0.46834353476E+01  0.10879301778E+01 -0.31999174398E+03  0.32002788244E+03  0.10566000000E+00 0.  1.
         14    1    4    4    0    0  0.10944727795E+02  0.69156403337E+00 -0.70883357076E+03  0.70891839895E+03  0.00000000000E+00 0. -1.
<mgrwt>
<rscale>  0 0.78019154E+02</rscale>
<asrwt>0</asrwt>
<pdfrwt beam="1">  1        2 0.22430136E+00 0.78019154E+02</pdfrwt>
<pdfrwt beam="2">  1       -1 0.16057720E-03 0.78019154E+02</pdfrwt>
<totfact> 0.35848413E+05</totfact>
</mgrwt>
</event>
<event>
 8    1  0.1226832E-016  0.8030992E+02  0.7818608E-02  0.1328174E+00
          2   -1    0    0  501    0  0.00000000000E+00  0.00000000000E+00  0.20862685073E+03  0.20862685075E+03  0.25500000000E-02 0. -1.
         -1   -1    0    0    0  501 -0.00000000000E+00 -0.00000000000E+00 -0.77287302979E+01  0.77287319412E+01  0.50400000000E-02 0.  1.
         24    2    1    2    0    0  0.35527136788E-14  0.00000000000E+00  0.20089812043E+03  0.21635558269E+03  0.80309920724E+02 0.  0.
         66    2    3    3    0    0  0.26088775339E+02 -0.30338500029E+02  0.10875638067E+03  0.11590081598E+03  0.20000067414E+01 0.  0.
        -13    1    3    3    0    0 -0.26088775339E+02  0.30338500029E+02  0.92141739767E+02  0.10045476671E+03  0.10566000000E+00 0.  1.
         13    1    4    4    0    0  0.27574306803E+01 -0.39928669506E+01  0.13889612276E+02  0.14713222069E+02  0.10566000000E+00 0. -1.
        -13    1    4    4    0    0  0.24170203873E+01 -0.24618500382E+01  0.97899484050E+01  0.10380604364E+02  0.10566000000E+00 0.  1.
         14    1    4    4    0    0  0.20914324271E+02 -0.23883783040E+02  0.85076819986E+02  0.90806989549E+02  0.00000000000E+00 0. -1.
<mgrwt>
<rscale>  0 0.80309921E+02</rscale>
<asrwt>0</asrwt>
<pdfrwt beam="1">  1        2 0.32096436E-01 0.80309921E+02</pdfrwt>
<pdfrwt beam="2">  1       -1 0.11890356E-02 0.80309921E+02</pdfrwt>
<totfact> 0.22158601E+05</totfact>
</mgrwt>
</event>
<event>
 8    1  0.1226832E-016  0.7883377E+02  0.7818608E-02  0.1332394E+00
          2   -1    0    0  501    0  0.00000000000E+00  0.00000000000E+00  0.56838557299E+01  0.56838563019E+01  0.25500000000E-02 0. -1.
         -1   -1    0    0    0  501 -0.00000000000E+00 -0.00000000000E+00 -0.27335157626E+03  0.27335157631E+03  0.50400000000E-02 0.  1.
         24    2    1    2    0    0  0.17763568394E-14  0.71054273576E-14 -0.26766772053E+03  0.27903543261E+03  0.78833774724E+02 0.  0.
         66    2    3    3    0    0 -0.12072266748E+02 -0.33510940518E+02 -0.74379312749E+02  0.82492453834E+02  0.20000039328E+01 0.  0.
        -13    1    3    3    0    0  0.12072266748E+02  0.33510940518E+02 -0.19328840778E+03  0.19654297878E+03  0.10566000000E+00 0.  1.
         13    1    4    4    0    0 -0.43098670658E+01 -0.12417938550E+02 -0.28166566134E+02  0.31082901469E+02  0.10566000000E+00 0. -1.
        -13    1    4    4    0    0 -0.58608184082E+01 -0.14445586225E+02 -0.33003017335E+02  0.36499787274E+02  0.10566000000E+00 0.  1.
        -14    1    4    4    0    0 -0.19015812745E+01 -0.66474157439E+01 -0.13209729281E+02  0.14909765092E+02  0.00000000000E+00 0.  1.
<mgrwt>
<rscale>  0 0.78833775E+02</rscale>
<asrwt>0</asrwt>
<pdfrwt beam="1">  1        2 0.87443960E-03 0.78833775E+02</pdfrwt>
<pdfrwt beam="2">  1       -1 0.42054079E-01 0.78833775E+02</pdfrwt>
<totfact> 0.93069722E+04</totfact>
</mgrwt>
</event>
<event>
 8    1  0.1226832E-016  0.8160067E+02  0.7818608E-02  0.1324569E+00
          2   -1    0    0  501    0  0.00000000000E+00  0.00000000000E+00  0.16706316392E+02  0.16706316586E+02  0.25500000000E-02 0. -1.
         -1   -1    0    0    0  501 -0.00000000000E+00 -0.00000000000E+00 -0.99642978608E+02  0.99642978736E+02  0.50400000000E-02 0.  1.
         24    2    1    2    0    0  0.35527136788E-14 -0.35527136788E-14 -0.82936662216E+02  0.11634929532E+03  0.81600665330E+02 0.  0.
         66    2    3    3    0    0 -0.16169610662E+02  0.28998119843E+02 -0.77422115411E+01  0.34150975146E+02  0.20000001172E+01 0.  0.
        -13    1    3    3    0    0  0.16169610662E+02 -0.28998119843E+02 -0.75194450675E+02  0.82198320176E+02  0.10566000000E+00 0.  1.
         13    1    4    4    0    0 -0.64405268768E+01  0.11977492518E+02 -0.32372485986E+01  0.13979687264E+02  0.10566000000E+00 0. -1.
        -13    1    4    4    0    0 -0.32902687210E+01  0.65191483630E+01 -0.10545421287E+01  0.73789150132E+01  0.10566000000E+00 0.  1.
        -14    1    4    4    0    0 -0.64388150644E+01  0.10501478962E+02 -0.34504208138E+01  0.12792372869E+02  0.00000000000E+00 0.  1.
<mgrwt>
<rscale>  0 0.81600665E+02</rscale>
<asrwt>0</asrwt>
<pdfrwt beam="1">  1        2 0.25702026E-02 0.81600665E+02</pdfrwt>
<pdfrwt beam="2">  1       -1 0.15329689E-01 0.81600665E+02</pdfrwt>
<totfact> 0.11290684E+05</totfact>
</mgrwt>
</event>
<event>
 8    1  0.1226832E-016  0.6974581E+02  0.7818608E-02  0.1360960E+00
         -1   -1    0    0    0  501 -0.00000000000E+00  0.00000000000E+00  0.52836061826E+01  0.52836085864E+01  0.50400000000E-02 0.  1.
          2   -1    0    0  501    0  0.00000000000E+00 -0.00000000000E+00 -0.23016843304E+03  0.23016843306E+03  0.25500000000E-02 0. -1.
         24    2    1    2    0    0  0.00000000000E+00  0.00000000000E+00 -0.22488482686E+03  0.23545204164E+03  0.69745813939E+02 0.  0.
         66    2    3    3    0    0 -0.16066238300E+02 -0.27849936064E+02 -0.15787328570E+03  0.16112640162E+03  0.20000024605E+01 0.  0.
        -13    1    3    3    0    0  0.16066238300E+02  0.27849936064E+02 -0.67011541156E+02  0.74325640018E+02  0.10566000000E+00 0.  1.
         13    1    4    4    0    0 -0.52766663893E+01 -0.10415666636E+02 -0.58464956307E+02  0.59619557191E+02  0.10566000000E+00 0. -1.
        -13    1    4    4    0    0 -0.54553389731E+01 -0.77731888837E+01 -0.45616390755E+02  0.46594521762E+02  0.10566000000E+00 0.  1.
         14    1    4    4    0    0 -0.53342329380E+01 -0.96610805450E+01 -0.53791938641E+02  0.54912322671E+02  0.00000000000E+00 0. -1.
<mgrwt>
<rscale>  0 0.69745814E+02</rscale>
<asrwt>0</asrwt>
<pdfrwt beam="1">  1        2 0.35410520E-01 0.69745814E+02</pdfrwt>
<pdfrwt beam="2">  1       -1 0.81286286E-03 0.69745814E+02</pdfrwt>
<totfact> 0.33158903E+05</totfact>
</mgrwt>
</event>
<event>
 8    1  0.1226832E-016  0.7990290E+02  0.7818608E-02  0.1329327E+00
          2   -1    0    0  501    0  0.00000000000E+00  0.00000000000E+00  0.97034741515E+01  0.97034744865E+01  0.25500000000E-02 0. -1.
         -1   -1    0    0    0  501 -0.00000000000E+00 -0.00000000000E+00 -0.16448937156E+03  0.16448937164E+03  0.50400000000E-02 0.  1.
         24    2    1    2    0    0 -0.17763568394E-14 -0.71054273576E-14 -0.15478589741E+03  0.17419284612E+03  0.79902901100E+02 0.  0.
         66    2    3    3    0    0 -0.11244995747E+02 -0.36317358219E+02 -0.10402664304E+03  0.11077428807E+03  0.19999995355E+01 0.  0.
        -13    1    3    3    0    0  0.11244995747E+02  0.36317358219E+02 -0.50759254368E+02  0.63418558052E+02  0.10566000000E+00 0.  1.
         13    1    4    4    0    0 -0.69296969719E+00 -0.18441608877E+01 -0.55335802052E+01  0.58747604466E+01  0.10566000000E+00 0. -1.
        -13    1    4    4    0    0 -0.68791790877E+01 -0.22888866580E+02 -0.62797097974E+02  0.67191591708E+02  0.10566000000E+00 0.  1.
        -14    1    4    4    0    0 -0.36728469624E+01 -0.11584330751E+02 -0.35695964862E+02  0.37707935918E+02  0.00000000000E+00 0.  1.
<mgrwt>
<rscale>  0 0.79902901E+02</rscale>
<asrwt>0</asrwt>
<pdfrwt beam="1">  1        2 0.14928423E-02 0.79902901E+02</pdfrwt>
<pdfrwt beam="2">  1       -1 0.25306055E-01 0.79902901E+02</pdfrwt>
<totfact> 0.10562868E+05</totfact>
</mgrwt>
</event>
<event>
 8    1  0.1226832E-016  0.8042653E+02  0.7818608E-02  0.1327845E+00
          2   -1    0    0  501    0  0.00000000000E+00  0.00000000000E+00  0.32644912518E+03  0.32644912519E+03  0.25500000000E-02 0. -1.
         -1   -1    0    0    0  501 -0.00000000000E+00 -0.00000000000E+00 -0.49536236015E+01  0.49536261654E+01  0.50400000000E-02 0.  1.
         24    2    1    2    0    0  0.00000000000E+00  0.00000000000E+00  0.32149550158E+03  0.33140275136E+03  0.80426525915E+02 0.  0.
         66    2    3    3    0    0 -0.21686134686E+02  0.28672412679E+02  0.23486877830E+03  0.23761258110E+03  0.19999976816E+01 0.  0.
        -13    1    3    3    0    0  0.21686134686E+02 -0.28672412679E+02  0.86626723281E+02  0.93790170258E+02  0.10566000000E+00 0.  1.
         13    1    4    4    0    0 -0.39844942922E+00  0.64041120239E+00  0.43349463559E+01  0.44013421135E+01  0.10566000000E+00 0. -1.
        -13    1    4    4    0    0 -0.26218081993E+01  0.28138270940E+01  0.27360817133E+02  0.27630001436E+02  0.10566000000E+00 0.  1.
         14    1    4    4    0    0 -0.18665877057E+02  0.25218174383E+02  0.20317301481E+03  0.20558123755E+03  0.00000000000E+00 0. -1.
<mgrwt>
<rscale>  0 0.80426526E+02</rscale>
<asrwt>0</asrwt>
<pdfrwt beam="1">  1        2 0.50222943E-01 0.80426526E+02</pdfrwt>
<pdfrwt beam="2">  1       -1 0.76209612E-03 0.80426526E+02</pdfrwt>
<totfact> 0.25921004E+05</totfact>
</mgrwt>
</event>
<event>
 8    1  0.1226832E-016  0.8071262E+02  0.7818608E-02  0.1327041E+00
          2   -1    0    0  501    0  0.00000000000E+00  0.00000000000E+00  0.83052085203E+02  0.83052085243E+02  0.25500000000E-02 0. -1.
         -1   -1    0    0    0  501 -0.00000000000E+00 -0.00000000000E+00 -0.19609763373E+02  0.19609764021E+02  0.50400000000E-02 0.  1.
         24    2    1    2    0    0  0.00000000000E+00 -0.17763568394E-14  0.63442321830E+02  0.10266184926E+03  0.80712620420E+02 0.  0.
         66    2    3    3    0    0 -0.32071511584E+02  0.10998738024E+02  0.59522354304E+02  0.68530757824E+02  0.20000031457E+01 0.  0.
        -13    1    3    3    0    0  0.32071511584E+02 -0.10998738024E+02  0.39199675257E+01  0.34131091440E+02  0.10566000000E+00 0.  1.
         13    1    4    4    0    0 -0.95023580172E+01  0.34027641551E+01  0.17742048552E+02  0.20412375232E+02  0.10566000000E+00 0. -1.
        -13    1    4    4    0    0 -0.57712102555E+01  0.24930214977E+01  0.10036975432E+02  0.11843735215E+02  0.10566000000E+00 0.  1.
        -14    1    4    4    0    0 -0.16797943312E+02  0.51029523711E+01  0.31743330321E+02  0.36274647376E+02  0.00000000000E+00 0.  1.
<mgrwt>
<rscale>  0 0.80712620E+02</rscale>
<asrwt>0</asrwt>
<pdfrwt beam="1">  1        2 0.12777244E-01 0.80712620E+02</pdfrwt>
<pdfrwt beam="2">  1       -1 0.30168867E-02 0.80712620E+02</pdfrwt>
<totfact> 0.16460120E+05</totfact>
</mgrwt>
</event>
<event>
 8    1  0.1226832E-016  0.7856434E+02  0.7818608E-02  0.1333176E+00
         -1   -1    0    0    0  501 -0.00000000000E+00  0.00000000000E+00  0.26458343483E+01  0.26458391486E+01  0.50400000000E-02 0.  1.
          2   -1    0    0  501    0  0.00000000000E+00 -0.00000000000E+00 -0.58321395424E+03  0.58321395425E+03  0.25500000000E-02 0. -1.
         24    2    1    2    0    0  0.00000000000E+00  0.00000000000E+00 -0.58056811990E+03  0.58585979340E+03  0.78564341030E+02 0.  0.
         66    2    3    3    0    0 -0.20685838577E+02  0.38024858809E+01 -0.53765087948E+03  0.53806582406E+03  0.19999988611E+01 0.  0.
        -13    1    3    3    0    0  0.20685838577E+02 -0.38024858809E+01 -0.42917240417E+02  0.47793969343E+02  0.10566000000E+00 0.  1.
         13    1    4    4    0    0 -0.40456688768E+01  0.37549931904E+00 -0.10780974919E+03  0.10788633658E+03  0.10566000000E+00 0. -1.
        -13    1    4    4    0    0 -0.96371519491E+00  0.37927899596E+00 -0.19590740789E+02  0.19618381386E+02  0.10566000000E+00 0.  1.
         14    1    4    4    0    0 -0.15676454505E+02  0.30477075659E+01 -0.41025038950E+03  0.41056110609E+03  0.00000000000E+00 0. -1.
<mgrwt>
<rscale>  0 0.78564341E+02</rscale>
<asrwt>0</asrwt>
<pdfrwt beam="1">  1        2 0.89725122E-01 0.78564341E+02</pdfrwt>
<pdfrwt beam="2">  1       -1 0.40705227E-03 0.78564341E+02</pdfrwt>
<totfact> 0.33445464E+05</totfact>
</mgrwt>
</event>
<event>
 8    1  0.1226832E-016  0.7994158E+02  0.7818608E-02  0.1329217E+00
          2   -1    0    0  501    0  0.00000000000E+00  0.00000000000E+00  0.69565803012E+03  0.69565803012E+03  0.25500000000E-02 0. -1.
         -1   -1    0    0    0  501 -0.00000000000E+00 -0.00000000000E+00 -0.22966198756E+01  0.22966254059E+01  0.50400000000E-02 0.  1.
         24    2    1    2    0    0 -0.17763568394E-14  0.00000000000E+00  0.69336141024E+03  0.69795465553E+03  0.79941578423E+02 0.  0.
         66    2    3    3    0    0 -0.98428896450E+01 -0.78192163234E+01  0.67793598480E+03  0.67805547126E+03  0.19999995829E+01 0.  0.
        -13    1    3    3    0    0  0.98428896450E+01  0.78192163234E+01  0.15425425446E+02  0.19899184273E+02  0.10566000000E+00 0.  1.
         13    1    4    4    0    0 -0.50676206973E+01 -0.36351484828E+01  0.37409987626E+03  0.37415187246E+03  0.10566000000E+00 0. -1.
        -13    1    4    4    0    0 -0.52333201151E+00 -0.43510232203E+00  0.23100860989E+02  0.23111125738E+02  0.10566000000E+00 0. -1.
        -14    1    4    4    0    0 -0.42519369362E+01 -0.37489655186E+01  0.28073524755E+03  0.28079247306E+03  0.00000000000E+00 0.  1.
<mgrwt>
<rscale>  0 0.79941578E+02</rscale>
<asrwt>0</asrwt>
<pdfrwt beam="1">  1        2 0.10702435E+00 0.79941578E+02</pdfrwt>
<pdfrwt beam="2">  1       -1 0.35332642E-03 0.79941578E+02</pdfrwt>
<totfact> 0.33467370E+05</totfact>
</mgrwt>
</event>
<event>
 8    1  0.1226832E-016  0.7924507E+02  0.7818608E-02  0.1331208E+00
          2   -1    0    0  501    0  0.00000000000E+00  0.00000000000E+00  0.45847250464E+03  0.45847250464E+03  0.25500000000E-02 0. -1.
         -1   -1    0    0    0  501 -0.00000000000E+00 -0.00000000000E+00 -0.34242930806E+01  0.34242967896E+01  0.50400000000E-02 0.  1.
         24    2    1    2    0    0  0.55511151231E-16  0.00000000000E+00  0.45504821155E+03  0.46189680143E+03  0.79245065045E+02 0.  0.
         66    2    3    3    0    0  0.46811162050E+00  0.36364407770E+02  0.31896772889E+03  0.32104049803E+03  0.20000057892E+01 0.  0.
        -13    1    3    3    0    0 -0.46811162050E+00 -0.36364407770E+02  0.13608048267E+03  0.14085630340E+03  0.10566000000E+00 0.  1.
         13    1    4    4    0    0  0.53102538273E+00  0.91284993773E+01  0.78403105798E+02  0.78934590971E+02  0.10566000000E+00 0. -1.
        -13    1    4    4    0    0  0.49645069770E+00  0.60778410086E+01  0.56687335577E+02  0.57014487576E+02  0.10566000000E+00 0.  1.
        -14    1    4    4    0    0 -0.55936445992E+00  0.21158067384E+02  0.18387728751E+03  0.18509141948E+03  0.00000000000E+00 0.  1.
<mgrwt>
<rscale>  0 0.79245065E+02</rscale>
<asrwt>0</asrwt>
<pdfrwt beam="1">  1        2 0.70534260E-01 0.79245065E+02</pdfrwt>
<pdfrwt beam="2">  1       -1 0.52681440E-03 0.79245065E+02</pdfrwt>
<totfact> 0.30343416E+05</totfact>
</mgrwt>
</event>
<event>
 8    1  0.1226832E-016  0.8164273E+02  0.7818608E-02  0.1324453E+00
          2   -1    0    0  501    0  0.00000000000E+00  0.00000000000E+00  0.19997185527E+02  0.19997185689E+02  0.25500000000E-02 0. -1.
         -1   -1    0    0    0  501 -0.00000000000E+00 -0.00000000000E+00 -0.83330914158E+02  0.83330914311E+02  0.50400000000E-02 0.  1.
         24    2    1    2    0    0  0.00000000000E+00  0.00000000000E+00 -0.63333728632E+02  0.10332810000E+03  0.81642728196E+02 0.  0.
         66    2    3    3    0    0 -0.19232763329E+02 -0.10529171019E+02  0.11855985015E+02  0.25006539559E+02  0.20000030936E+01 0.  0.
        -13    1    3    3    0    0  0.19232763329E+02  0.10529171019E+02 -0.75189713647E+02  0.78321560441E+02  0.10566000000E+00 0.  1.
         13    1    4    4    0    0 -0.17044525234E+02 -0.86926902815E+01  0.10702071533E+02  0.21923143112E+02  0.10566000000E+00 0. -1.
        -13    1    4    4    0    0 -0.17461576943E+01 -0.14575755516E+01  0.92886128638E+00  0.24591747614E+01  0.10566000000E+00 0.  1.
         14    1    4    4    0    0 -0.44208040089E+00 -0.37890518626E+00  0.22505219568E+00  0.62422168482E+00  0.00000000000E+00 0. -1.
<mgrwt>
<rscale>  0 0.81642728E+02</rscale>
<asrwt>0</asrwt>
<pdfrwt beam="1">  1        2 0.30764901E-02 0.81642728E+02</pdfrwt>
<pdfrwt beam="2">  1       -1 0.12820140E-01 0.81642728E+02</pdfrwt>
<totfact> 0.11709868E+05</totfact>
</mgrwt>
</event>
<event>
 8    1  0.1226832E-016  0.7986083E+02  0.7818608E-02  0.1329447E+00
         -1   -1    0    0    0  501 -0.00000000000E+00  0.00000000000E+00  0.21161337809E+02  0.21161338409E+02  0.50400000000E-02 0.  1.
          2   -1    0    0  501    0  0.00000000000E+00 -0.00000000000E+00 -0.75346750824E+02  0.75346750867E+02  0.25500000000E-02 0. -1.
         24    2    1    2    0    0  0.00000000000E+00  0.00000000000E+00 -0.54185413015E+02  0.96508089276E+02  0.79860830901E+02 0.  0.
         66    2    3    3    0    0  0.39396318185E+02 -0.15520694998E+01 -0.34554577949E+02  0.52464251390E+02  0.20000026157E+01 0.  0.
        -13    1    3    3    0    0 -0.39396318185E+02  0.15520694998E+01 -0.19630835067E+02  0.44043837886E+02  0.10566000000E+00 0.  1.
         13    1    4    4    0    0  0.22014430220E+02 -0.17653412303E+00 -0.19404839743E+02  0.29346639871E+02  0.10566000000E+00 0. -1.
        -13    1    4    4    0    0  0.52879247785E+01 -0.34454822046E+00 -0.51659069740E+01  0.74012580579E+01  0.10566000000E+00 0.  1.
        -14    1    4    4    0    0  0.12093963187E+02 -0.10309871564E+01 -0.99838312312E+01  0.15716353462E+02  0.00000000000E+00 0.  1.
<mgrwt>
<rscale>  0 0.79860831E+02</rscale>
<asrwt>0</asrwt>
<pdfrwt beam="1">  1        2 0.11591808E-01 0.79860831E+02</pdfrwt>
<pdfrwt beam="2">  1       -1 0.32555905E-02 0.79860831E+02</pdfrwt>
<totfact> 0.16520984E+05</totfact>
</mgrwt>
</event>
<event>
 8    1  0.1226832E-016  0.7969318E+02  0.7818608E-02  0.1329924E+00
         -1   -1    0    0    0  501 -0.00000000000E+00  0.00000000000E+00  0.17366868495E+02  0.17366869226E+02  0.50400000000E-02 0.  1.
          2   -1    0    0  501    0  0.00000000000E+00 -0.00000000000E+00 -0.91424113406E+02  0.91424113442E+02  0.25500000000E-02 0. -1.
         24    2    1    2    0    0 -0.88817841970E-15 -0.35527136788E-14 -0.74057244912E+02  0.10879098267E+03  0.79693176533E+02 0.  0.
         66    2    3    3    0    0  0.34625477247E+01  0.23926660695E+02  0.61445306135E+01  0.25024579556E+02  0.19999991873E+01 0.  0.
        -13    1    3    3    0    0 -0.34625477247E+01 -0.23926660695E+02 -0.80201775525E+02  0.83766403111E+02  0.10566000000E+00 0.  1.
         13    1    4    4    0    0  0.18054590980E+01  0.12622253910E+02  0.33764891551E+01  0.13190633774E+02  0.10566000000E+00 0. -1.
        -13    1    4    4    0    0  0.11604616439E+00  0.21289758764E+00 -0.85619210363E-01  0.27800499973E+00  0.10566000000E+00 0.  1.
        -14    1    4    4    0    0  0.15410424623E+01  0.11091509198E+02  0.28536606687E+01  0.11555940782E+02  0.00000000000E+00 0.  1.
<mgrwt>
<rscale>  0 0.79693177E+02</rscale>
<asrwt>0</asrwt>
<pdfrwt beam="1">  1        2 0.14065248E-01 0.79693177E+02</pdfrwt>
<pdfrwt beam="2">  1       -1 0.26718260E-02 0.79693177E+02</pdfrwt>
<totfact> 0.17473123E+05</totfact>
</mgrwt>
</event>
<event>
 8    1  0.1226832E-016  0.7991220E+02  0.7818608E-02  0.1329301E+00
         -1   -1    0    0    0  501 -0.00000000000E+00  0.00000000000E+00  0.11024381790E+03  0.11024381802E+03  0.50400000000E-02 0.  1.
          2   -1    0    0  501    0  0.00000000000E+00 -0.00000000000E+00 -0.14481446580E+02  0.14481446805E+02  0.25500000000E-02 0. -1.
         24    2    1    2    0    0  0.00000000000E+00  0.00000000000E+00  0.95762371324E+02  0.12472526482E+03  0.79912201345E+02 0.  0.
         66    2    3    3    0    0 -0.25128063684E+02  0.71282552272E+01  0.77006018459E+00  0.26207337792E+02  0.19999885902E+01 0.  0.
        -13    1    3    3    0    0  0.25128063684E+02 -0.71282552272E+01  0.94992311139E+02  0.98517927032E+02  0.10566000000E+00 0.  1.
         13    1    4    4    0    0 -0.15071284701E+02  0.47459672190E+01  0.45394362805E+00  0.15807753042E+02  0.10566000000E+00 0. -1.
        -13    1    4    4    0    0 -0.56744390718E+01  0.10465598794E+01 -0.28938828453E+00  0.57783610112E+01  0.10566000000E+00 0.  1.
        -14    1    4    4    0    0 -0.43823399110E+01  0.13357281287E+01  0.60550484107E+00  0.46212237386E+01  0.00000000000E+00 0.  1.
<mgrwt>
<rscale>  0 0.79912201E+02</rscale>
<asrwt>0</asrwt>
<pdfrwt beam="1">  1        2 0.22279149E-02 0.79912201E+02</pdfrwt>
<pdfrwt beam="2">  1       -1 0.16960587E-01 0.79912201E+02</pdfrwt>
<totfact> 0.11635840E+05</totfact>
</mgrwt>
</event>
<event>
 8    1  0.1226832E-016  0.8004865E+02  0.7818608E-02  0.1328913E+00
          2   -1    0    0  501    0  0.00000000000E+00  0.00000000000E+00  0.16964832307E+04  0.16964832307E+04  0.25500000000E-02 0. -1.
         -1   -1    0    0    0  501 -0.00000000000E+00 -0.00000000000E+00 -0.94426830539E+00  0.94428175571E+00  0.50400000000E-02 0.  1.
         24    2    1    2    0    0  0.00000000000E+00  0.00000000000E+00  0.16955389624E+04  0.16974275125E+04  0.80048654267E+02 0.  0.
         66    2    3    3    0    0  0.13458584643E+02 -0.23714363191E+01  0.16454409719E+04  0.16454989363E+04  0.19999992630E+01 0.  0.
        -13    1    3    3    0    0 -0.13458584643E+02  0.23714363191E+01  0.50097990486E+02  0.51928576194E+02  0.10566000000E+00 0.  1.
         13    1    4    4    0    0  0.34781186898E+01 -0.77046583827E+00  0.37721772142E+03  0.37723455760E+03  0.10566000000E+00 0.  1.
        -13    1    4    4    0    0  0.57723173655E+01 -0.13420409355E+01  0.81291147343E+03  0.81293308182E+03  0.10566000000E+00 0. -1.
        -14    1    4    4    0    0  0.42081485876E+01 -0.25892954532E+00  0.45531177710E+03  0.45533129688E+03  0.00000000000E+00 0.  1.
<mgrwt>
<rscale>  0 0.80048654E+02</rscale>
<asrwt>0</asrwt>
<pdfrwt beam="1">  1        2 0.26099656E+00 0.80048654E+02</pdfrwt>
<pdfrwt beam="2">  1       -1 0.14527356E-03 0.80048654E+02</pdfrwt>
<totfact> 0.31322683E+05</totfact>
</mgrwt>
</event>
<event>
 8    1  0.1226832E-016  0.7974791E+02  0.7818608E-02  0.1329768E+00
          2   -1    0    0  501    0  0.00000000000E+00  0.00000000000E+00  0.61534094107E+03  0.61534094108E+03  0.25500000000E-02 0. -1.
         -1   -1    0    0    0  501 -0.00000000000E+00 -0.00000000000E+00 -0.25838206536E+01  0.25838255691E+01  0.50400000000E-02 0.  1.
         24    2    1    2    0    0  0.00000000000E+00  0.00000000000E+00  0.61275712042E+03  0.61792476665E+03  0.79747906628E+02 0.  0.
         66    2    3    3    0    0 -0.25519638426E+02 -0.19917928982E+02  0.48662092983E+03  0.48770063071E+03  0.20000013452E+01 0.  0.
        -13    1    3    3    0    0  0.25519638426E+02  0.19917928982E+02  0.12613619059E+03  0.13022413594E+03  0.10566000000E+00 0.  1.
         13    1    4    4    0    0 -0.34408562878E+01 -0.31514253631E+01  0.72210319719E+02  0.72360986808E+02  0.10566000000E+00 0. -1.
        -13    1    4    4    0    0 -0.16729883819E+02 -0.13382820207E+02  0.31493359903E+03  0.31566148300E+03  0.10566000000E+00 0.  1.
        -14    1    4    4    0    0 -0.53488983198E+01 -0.33836834122E+01  0.99477011086E+02  0.99678160904E+02  0.00000000000E+00 0.  1.
<mgrwt>
<rscale>  0 0.79747907E+02</rscale>
<asrwt>0</asrwt>
<pdfrwt beam="1">  1        2 0.94667934E-01 0.79747907E+02</pdfrwt>
<pdfrwt beam="2">  1       -1 0.39751084E-03 0.79747907E+02</pdfrwt>
<totfact> 0.32654411E+05</totfact>
</mgrwt>
</event>
<event>
 8    1  0.1226832E-016  0.7990109E+02  0.7818608E-02  0.1329332E+00
         -1   -1    0    0    0  501 -0.00000000000E+00  0.00000000000E+00  0.37554525243E+01  0.37554559063E+01  0.50400000000E-02 0.  1.
          2   -1    0    0  501    0  0.00000000000E+00 -0.00000000000E+00 -0.42499414123E+03  0.42499414124E+03  0.25500000000E-02 0. -1.
         24    2    1    2    0    0  0.35527136788E-14  0.35527136788E-14 -0.42123868871E+03  0.42874959715E+03  0.79901090034E+02 0.  0.
         66    2    3    3    0    0  0.26762153793E+02  0.24863955607E+02 -0.29721056255E+03  0.29945374878E+03  0.19999998101E+01 0.  0.
        -13    1    3    3    0    0 -0.26762153793E+02 -0.24863955607E+02 -0.12402812616E+03  0.12929584837E+03  0.10566000000E+00 0.  1.
         13    1    4    4    0    0  0.10473726559E+02  0.90922634230E+01 -0.11129938834E+03  0.11216030141E+03  0.10566000000E+00 0. -1.
        -13    1    4    4    0    0  0.53861118770E+01  0.49597740721E+01 -0.55222748350E+02  0.55706127665E+02  0.10566000000E+00 0.  1.
        -14    1    4    4    0    0  0.10902315358E+02  0.10811918111E+02 -0.13068842586E+03  0.13158731971E+03  0.00000000000E+00 0.  1.
<mgrwt>
<rscale>  0 0.79901090E+02</rscale>
<asrwt>0</asrwt>
<pdfrwt beam="1">  1        2 0.65383676E-01 0.79901090E+02</pdfrwt>
<pdfrwt beam="2">  1       -1 0.57776252E-03 0.79901090E+02</pdfrwt>
<totfact> 0.28946409E+05</totfact>
</mgrwt>
</event>
<event>
 8    1  0.1226832E-016  0.8019676E+02  0.7818608E-02  0.1328494E+00
         -1   -1    0    0    0  501 -0.00000000000E+00  0.00000000000E+00  0.25414892722E+01  0.25414942696E+01  0.50400000000E-02 0.  1.
          2   -1    0    0  501    0  0.00000000000E+00 -0.00000000000E+00 -0.63265204359E+03  0.63265204360E+03  0.25500000000E-02 0. -1.
         24    2    1    2    0    0 -0.17763568394E-14  0.00000000000E+00 -0.63011055432E+03  0.63519353787E+03  0.80196757306E+02 0.  0.
         66    2    3    3    0    0  0.12041808023E+02 -0.89309248415E+01 -0.60960007398E+03  0.60978768172E+03  0.20000039477E+01 0.  0.
        -13    1    3    3    0    0 -0.12041808023E+02  0.89309248415E+01 -0.20510480339E+02  0.25405856151E+02  0.10566000000E+00 0.  1.
         13    1    4    4    0    0  0.13662319789E+01 -0.16986532660E+01 -0.88863734938E+02  0.88890531351E+02  0.10566000000E+00 0. -1.
        -13    1    4    4    0    0  0.10373713894E+02 -0.68073109585E+01 -0.50386700308E+03  0.50401976288E+03  0.10566000000E+00 0.  1.
        -14    1    4    4    0    0  0.30186214992E+00 -0.42496061702E+00 -0.16869335967E+02  0.16877387483E+02  0.00000000000E+00 0.  1.
<mgrwt>
<rscale>  0 0.80196757E+02</rscale>
<asrwt>0</asrwt>
<pdfrwt beam="1">  1        2 0.97330958E-01 0.80196757E+02</pdfrwt>
<pdfrwt beam="2">  1       -1 0.39099924E-03 0.80196757E+02</pdfrwt>
<totfact> 0.32420391E+05</totfact>
</mgrwt>
</event>
<event>
 8    1  0.1226832E-016  0.7930441E+02  0.7818608E-02  0.1331037E+00
         -1   -1    0    0    0  501 -0.00000000000E+00  0.00000000000E+00  0.70643784058E+01  0.70643802036E+01  0.50400000000E-02 0.  1.
          2   -1    0    0  501    0  0.00000000000E+00 -0.00000000000E+00 -0.22256694930E+03  0.22256694931E+03  0.25500000000E-02 0. -1.
         24    2    1    2    0    0 -0.35527136788E-14 -0.35527136788E-14 -0.21550257089E+03  0.22963132951E+03  0.79304409929E+02 0.  0.
         66    2    3    3    0    0  0.16793564511E+02 -0.21147711795E+02 -0.19179324438E+03  0.19369537467E+03  0.20000135336E+01 0.  0.
        -13    1    3    3    0    0 -0.16793564511E+02  0.21147711795E+02 -0.23709326507E+02  0.35935954845E+02  0.10566000000E+00 0.  1.
         13    1    4    4    0    0  0.13212323513E+01 -0.25906771796E+01 -0.20740740351E+02  0.20943894994E+02  0.10566000000E+00 0. -1.
        -13    1    4    4    0    0  0.13204915442E+01 -0.15106283096E+01 -0.15117706593E+02  0.15250636462E+02  0.10566000000E+00 0.  1.
         14    1    4    4    0    0  0.14151840615E+02 -0.17046406306E+02 -0.15593479744E+03  0.15750084321E+03  0.00000000000E+00 0. -1.
<mgrwt>
<rscale>  0 0.79304410E+02</rscale>
<asrwt>0</asrwt>
<pdfrwt beam="1">  1        2 0.34241064E-01 0.79304410E+02</pdfrwt>
<pdfrwt beam="2">  1       -1 0.10868278E-02 0.79304410E+02</pdfrwt>
<totfact> 0.23433467E+05</totfact>
</mgrwt>
</event>
<event>
 8    1  0.1226832E-016  0.7543783E+02  0.7818608E-02  0.1342521E+00
         -1   -1    0    0    0  501 -0.00000000000E+00  0.00000000000E+00  0.18324928075E+03  0.18324928082E+03  0.50400000000E-02 0.  1.
          2   -1    0    0  501    0  0.00000000000E+00 -0.00000000000E+00 -0.77638317042E+01  0.77638321230E+01  0.25500000000E-02 0. -1.
         24    2    1    2    0    0  0.00000000000E+00  0.00000000000E+00  0.17548544904E+03  0.19101311294E+03  0.75437831948E+02 0.  0.
         66    2    3    3    0    0  0.37000226871E+02  0.43785226157E+01  0.73364038601E+02  0.82307170675E+02  0.19999839768E+01 0.  0.
        -13    1    3    3    0    0 -0.37000226871E+02 -0.43785226157E+01  0.10212141044E+03  0.10870594226E+03  0.10566000000E+00 0.  1.
         13    1    4    4    0    0  0.26394270637E+01  0.34568857586E+00  0.50291546908E+01  0.56911893973E+01  0.10566000000E+00 0. -1.
        -13    1    4    4    0    0  0.34273196733E+01  0.75218544685E+00  0.79166573798E+01  0.86600768585E+01  0.10566000000E+00 0.  1.
        -14    1    4    4    0    0  0.30933480134E+02  0.32806485930E+01  0.60418226530E+02  0.67955904419E+02  0.00000000000E+00 0.  1.
<mgrwt>
<rscale>  0 0.75437832E+02</rscale>
<asrwt>0</asrwt>
<pdfrwt beam="1">  1        2 0.11944356E-02 0.75437832E+02</pdfrwt>
<pdfrwt beam="2">  1       -1 0.28192198E-01 0.75437832E+02</pdfrwt>
<totfact> 0.11862395E+05</totfact>
</mgrwt>
</event>
<event>
 8    1  0.1226832E-016  0.8074783E+02  0.7818608E-02  0.1326943E+00
          2   -1    0    0  501    0  0.00000000000E+00  0.00000000000E+00  0.60513177585E+02  0.60513177639E+02  0.25500000000E-02 0. -1.
         -1   -1    0    0    0  501 -0.00000000000E+00 -0.00000000000E+00 -0.26937155654E+02  0.26937156126E+02  0.50400000000E-02 0.  1.
         24    2    1    2    0    0 -0.35527136788E-14  0.00000000000E+00  0.33576021931E+02  0.87450333765E+02  0.80747827382E+02 0.  0.
         66    2    3    3    0    0  0.28824951147E+02 -0.27210736998E+02  0.24956548756E+02  0.46884233404E+02  0.19999998659E+01 0.  0.
        -13    1    3    3    0    0 -0.28824951147E+02  0.27210736998E+02  0.86194731747E+01  0.40566100361E+02  0.10566000000E+00 0.  1.
         13    1    4    4    0    0  0.78980958270E+01 -0.74020011810E+01  0.64815178861E+01  0.12617082758E+02  0.10566000000E+00 0. -1.
        -13    1    4    4    0    0  0.59842847372E+01 -0.48989476733E+01  0.54783235133E+01  0.94781087076E+01  0.10566000000E+00 0.  1.
         14    1    4    4    0    0  0.14942570583E+02 -0.14909788144E+02  0.12996707357E+02  0.24789041939E+02  0.00000000000E+00 0. -1.
<mgrwt>
<rscale>  0 0.80747827E+02</rscale>
<asrwt>0</asrwt>
<pdfrwt beam="1">  1        2 0.93097195E-02 0.80747827E+02</pdfrwt>
<pdfrwt beam="2">  1       -1 0.41441779E-02 0.80747827E+02</pdfrwt>
<totfact> 0.15206889E+05</totfact>
</mgrwt>
</event>
<event>
 8    1  0.1226832E-016  0.8377384E+02  0.7818608E-02  0.1318671E+00
          2   -1    0    0  501    0  0.00000000000E+00  0.00000000000E+00  0.52053319312E+03  0.52053319313E+03  0.25500000000E-02 0. -1.
         -1   -1    0    0    0  501 -0.00000000000E+00 -0.00000000000E+00 -0.33706074048E+01  0.33706111729E+01  0.50400000000E-02 0.  1.
         24    2    1    2    0    0  0.00000000000E+00  0.00000000000E+00  0.51716258572E+03  0.52390380430E+03  0.83773838969E+02 0.  0.
         66    2    3    3    0    0 -0.38648535249E+02 -0.93998215453E+01  0.34037387105E+03  0.34269583892E+03  0.19999983609E+01 0.  0.
        -13    1    3    3    0    0  0.38648535249E+02  0.93998215453E+01  0.17678871466E+03  0.18120796538E+03  0.10566000000E+00 0.  1.
         13    1    4    4    0    0 -0.11326281351E+02 -0.27518182500E+01  0.10323806577E+03  0.10389401590E+03  0.10566000000E+00 0. -1.
        -13    1    4    4    0    0 -0.12844144817E+02 -0.23984924449E+01  0.11189810568E+03  0.11265843085E+03  0.10566000000E+00 0.  1.
        -14    1    4    4    0    0 -0.14478109082E+02 -0.42495108504E+01  0.12523769960E+03  0.12614339217E+03  0.00000000000E+00 0.  1.
<mgrwt>
<rscale>  0 0.83773839E+02</rscale>
<asrwt>0</asrwt>
<pdfrwt beam="1">  1        2 0.80081996E-01 0.83773839E+02</pdfrwt>
<pdfrwt beam="2">  1       -1 0.51855549E-03 0.83773839E+02</pdfrwt>
<totfact> 0.27342516E+05</totfact>
</mgrwt>
</event>
<event>
 8    1  0.1226832E-016  0.8005982E+02  0.7818608E-02  0.1328882E+00
         -1   -1    0    0    0  501 -0.00000000000E+00  0.00000000000E+00  0.12798465071E+02  0.12798466063E+02  0.50400000000E-02 0.  1.
          2   -1    0    0  501    0  0.00000000000E+00 -0.00000000000E+00 -0.12520201507E+03  0.12520201509E+03  0.25500000000E-02 0. -1.
         24    2    1    2    0    0 -0.35527136788E-14 -0.71054273576E-14 -0.11240355000E+03  0.13800048116E+03  0.80059819808E+02 0.  0.
         66    2    3    3    0    0 -0.18209628943E+02 -0.18768439403E+02 -0.10842138086E+03  0.11154837843E+03  0.19999993086E+01 0.  0.
        -13    1    3    3    0    0  0.18209628943E+02  0.18768439403E+02 -0.39821691331E+01  0.26452102731E+02  0.10566000000E+00 0.  1.
         13    1    4    4    0    0 -0.13760997642E+02 -0.14199439097E+02 -0.85148202292E+02  0.87414052900E+02  0.10566000000E+00 0. -1.
        -13    1    4    4    0    0 -0.14059679487E+01 -0.13560696682E+01 -0.77095031976E+01  0.79538213713E+01  0.10566000000E+00 0.  1.
        -14    1    4    4    0    0 -0.30426633526E+01 -0.32129306372E+01 -0.15563675374E+02  0.16180504155E+02  0.00000000000E+00 0.  1.
<mgrwt>
<rscale>  0 0.80059820E+02</rscale>
<asrwt>0</asrwt>
<pdfrwt beam="1">  1        2 0.19261848E-01 0.80059820E+02</pdfrwt>
<pdfrwt beam="2">  1       -1 0.19689948E-02 0.80059820E+02</pdfrwt>
<totfact> 0.18889730E+05</totfact>
</mgrwt>
</event>
<event>
 8    1  0.1226832E-016  0.8018689E+02  0.7818608E-02  0.1328522E+00
          2   -1    0    0  501    0  0.00000000000E+00  0.00000000000E+00  0.48459923767E+03  0.48459923768E+03  0.25500000000E-02 0. -1.
         -1   -1    0    0    0  501 -0.00000000000E+00 -0.00000000000E+00 -0.33171400668E+01  0.33171438956E+01  0.50400000000E-02 0.  1.
         24    2    1    2    0    0  0.71054273576E-14  0.00000000000E+00  0.48128209761E+03  0.48791638158E+03  0.80186893775E+02 0.  0.
         66    2    3    3    0    0 -0.37432636558E+02  0.14278941518E+02  0.24458565970E+03  0.24785325377E+03  0.20000056448E+01 0.  0.
        -13    1    3    3    0    0  0.37432636558E+02 -0.14278941518E+02  0.23669643790E+03  0.24006312780E+03  0.10566000000E+00 0.  1.
         13    1    4    4    0    0 -0.24080651400E+02  0.86570669243E+01  0.15870572156E+03  0.16075552805E+03  0.10566000000E+00 0. -1.
        -13    1    4    4    0    0 -0.23542478247E+00  0.14807037094E+00  0.20466288589E+01  0.20681400786E+01  0.10566000000E+00 0. -1.
        -14    1    4    4    0    0 -0.13116560375E+02  0.54738042228E+01  0.83833309286E+02  0.85029585643E+02  0.00000000000E+00 0.  1.
<mgrwt>
<rscale>  0 0.80186894E+02</rscale>
<asrwt>0</asrwt>
<pdfrwt beam="1">  1        2 0.74553741E-01 0.80186894E+02</pdfrwt>
<pdfrwt beam="2">  1       -1 0.51032946E-03 0.80186894E+02</pdfrwt>
<totfact> 0.29963795E+05</totfact>
</mgrwt>
</event>
<event>
 8    1  0.1226832E-016  0.7977531E+02  0.7818608E-02  0.1329690E+00
         -1   -1    0    0    0  501 -0.00000000000E+00  0.00000000000E+00  0.50967113906E+01  0.50967138826E+01  0.50400000000E-02 0.  1.
          2   -1    0    0  501    0  0.00000000000E+00 -0.00000000000E+00 -0.31216686931E+03  0.31216686932E+03  0.25500000000E-02 0. -1.
         24    2    1    2    0    0 -0.17763568394E-14  0.00000000000E+00 -0.30707015791E+03  0.31726358320E+03  0.79775305340E+02 0.  0.
         66    2    3    3    0    0  0.88633333527E+01 -0.24232357300E+02 -0.27447176848E+03  0.27568916827E+03  0.19999983435E+01 0.  0.
        -13    1    3    3    0    0 -0.88633333527E+01  0.24232357300E+02 -0.32598389437E+02  0.41574414925E+02  0.10566000000E+00 0.  1.
         13    1    4    4    0    0  0.51878678050E+01 -0.11384653160E+02 -0.13124746671E+03  0.13184245515E+03  0.10566000000E+00 0. -1.
        -13    1    4    4    0    0  0.17300179027E+01 -0.60593674814E+01 -0.69064960962E+02  0.69351920615E+02  0.10566000000E+00 0.  1.
         14    1    4    4    0    0  0.19454476450E+01 -0.67883366590E+01 -0.74159340808E+02  0.74494792504E+02  0.00000000000E+00 0. -1.
<mgrwt>
<rscale>  0 0.79775305E+02</rscale>
<asrwt>0</asrwt>
<pdfrwt beam="1">  1        2 0.48025657E-01 0.79775305E+02</pdfrwt>
<pdfrwt beam="2">  1       -1 0.78410988E-03 0.79775305E+02</pdfrwt>
<totfact> 0.26055070E+05</totfact>
</mgrwt>
</event>
<event>
 8    1  0.1226832E-016  0.7905218E+02  0.7818608E-02  0.1331763E+00
         -1   -1    0    0    0  501 -0.00000000000E+00  0.00000000000E+00  0.74534011504E+00  0.74535715512E+00  0.50400000000E-02 0.  1.
          2   -1    0    0  501    0  0.00000000000E+00 -0.00000000000E+00 -0.20960819405E+04  0.20960819405E+04  0.25500000000E-02 0. -1.
         24    2    1    2    0    0  0.00000000000E+00  0.00000000000E+00 -0.20953366004E+04  0.20968272977E+04  0.79052180776E+02 0.  0.
         66    2    3    3    0    0  0.14506616018E+02 -0.20970945382E+01 -0.20212754475E+04  0.20213295808E+04  0.20000014213E+01 0.  0.
        -13    1    3    3    0    0 -0.14506616018E+02  0.20970945382E+01 -0.74061152960E+02  0.75497716890E+02  0.10566000000E+00 0.  1.
         13    1    4    4    0    0  0.16214369636E+01 -0.73562270652E-01 -0.29964958298E+03  0.29965399750E+03  0.10566000000E+00 0. -1.
        -13    1    4    4    0    0  0.11442856475E+01  0.69788769103E-02 -0.12664212352E+03  0.12664733733E+03  0.10566000000E+00 0.  1.
         14    1    4    4    0    0  0.11740893407E+02 -0.20305111445E+01 -0.15949837410E+04  0.15950282460E+04  0.00000000000E+00 0. -1.
<mgrwt>
<rscale>  0 0.79052181E+02</rscale>
<asrwt>0</asrwt>
<pdfrwt beam="1">  1        2 0.32246943E+00 0.79052181E+02</pdfrwt>
<pdfrwt beam="2">  1       -1 0.11467070E-03 0.79052181E+02</pdfrwt>
<totfact> 0.27340970E+05</totfact>
</mgrwt>
</event>
<event>
 8    1  0.1226832E-016  0.7861440E+02  0.7818608E-02  0.1333030E+00
         -1   -1    0    0    0  501 -0.00000000000E+00  0.00000000000E+00  0.46744934798E+02  0.46744935070E+02  0.50400000000E-02 0.  1.
          2   -1    0    0  501    0  0.00000000000E+00 -0.00000000000E+00 -0.33052906806E+02  0.33052906904E+02  0.25500000000E-02 0. -1.
         24    2    1    2    0    0  0.00000000000E+00  0.00000000000E+00  0.13692027992E+02  0.79797841974E+02  0.78614400419E+02 0.  0.
         66    2    3    3    0    0 -0.38651924478E+02  0.69925208465E+01  0.64145090662E+01  0.39849875075E+02  0.20000008132E+01 0.  0.
        -13    1    3    3    0    0  0.38651924478E+02 -0.69925208465E+01  0.72775189262E+01  0.39947966900E+02  0.10566000000E+00 0.  1.
         13    1    4    4    0    0 -0.95366459166E+01  0.16992068386E+01  0.97044941060E+00  0.97359054696E+01  0.10566000000E+00 0.  1.
        -13    1    4    4    0    0 -0.26996687707E+02  0.45981371333E+01  0.49329911253E+01  0.27826418701E+02  0.10566000000E+00 0. -1.
         14    1    4    4    0    0 -0.21185908543E+01  0.69517687457E+00  0.51106853024E+00  0.22875509038E+01  0.00000000000E+00 0. -1.
<mgrwt>
<rscale>  0 0.78614400E+02</rscale>
<asrwt>0</asrwt>
<pdfrwt beam="1">  1        2 0.50850626E-02 0.78614400E+02</pdfrwt>
<pdfrwt beam="2">  1       -1 0.71915285E-02 0.78614400E+02</pdfrwt>
<totfact> 0.14400122E+05</totfact>
</mgrwt>
</event>
<event>
 8    1  0.1226832E-016  0.7686864E+02  0.7818608E-02  0.1338180E+00
         -1   -1    0    0    0  501 -0.00000000000E+00  0.00000000000E+00  0.11784726326E+03  0.11784726336E+03  0.50400000000E-02 0.  1.
          2   -1    0    0  501    0  0.00000000000E+00 -0.00000000000E+00 -0.12534841869E+02  0.12534842128E+02  0.25500000000E-02 0. -1.
         24    2    1    2    0    0  0.00000000000E+00 -0.35527136788E-14  0.10531242139E+03  0.13038210549E+03  0.76868636869E+02 0.  0.
         66    2    3    3    0    0  0.43001219169E+01  0.19186848354E+02 -0.32706181229E+01  0.20033050981E+02  0.19999976132E+01 0.  0.
        -13    1    3    3    0    0 -0.43001219169E+01 -0.19186848354E+02  0.10858303951E+03  0.11034905451E+03  0.10566000000E+00 0.  1.
         13    1    4    4    0    0  0.24369874188E+01  0.11423169885E+02 -0.18393377145E+01  0.11824637210E+02  0.10566000000E+00 0. -1.
        -13    1    4    4    0    0  0.10026385005E+01  0.57559684512E+01 -0.14625703318E+01  0.60238470088E+01  0.10566000000E+00 0.  1.
         14    1    4    4    0    0  0.86049599760E+00  0.20077100179E+01  0.31289923535E-01  0.21845667619E+01  0.00000000000E+00 0. -1.
<mgrwt>
<rscale>  0 0.76868637E+02</rscale>
<asrwt>0</asrwt>
<pdfrwt beam="1">  1        2 0.19284373E-02 0.76868637E+02</pdfrwt>
<pdfrwt beam="2">  1       -1 0.18130347E-01 0.76868637E+02</pdfrwt>
<totfact> 0.12635505E+05</totfact>
</mgrwt>
</event>
<event>
 8    1  0.1425735E-016  0.7898267E+02  0.7818608E-02  0.1331963E+00
         -1   -1    0    0    0  501 -0.00000000000E+00  0.00000000000E+00  0.30009919663E+01  0.30009961985E+01  0.50400000000E-02 0.  1.
          2   -1    0    0  501    0  0.00000000000E+00 -0.00000000000E+00 -0.51968301730E+03  0.51968301731E+03  0.25500000000E-02 0. -1.
         24    2    1    2    0    0  0.00000000000E+00  0.35527136788E-14 -0.51668202533E+03  0.52268401350E+03  0.78982673229E+02 0.  0.
         66    2    3    3    0    0  0.24868991356E+02 -0.29287971770E+02 -0.31817892969E+03  0.32049661982E+03  0.19999987014E+01 0.  0.
        -13    1    3    3    0    0 -0.24868991356E+02  0.29287971770E+02 -0.19850309564E+03  0.20218739368E+03  0.10566000000E+00 0.  1.
         13    1    4    4    0    0  0.14061101138E+02 -0.16576307672E+02 -0.18181863025E+03  0.18311339113E+03  0.10566000000E+00 0. -1.
        -13    1    4    4    0    0  0.28966291213E+01 -0.41789141676E+01 -0.43911962897E+02  0.44205490987E+02  0.10566000000E+00 0.  1.
        -14    1    4    4    0    0  0.79112610966E+01 -0.85327499305E+01 -0.92448336549E+02  0.93177737707E+02  0.00000000000E+00 0.  1.
<mgrwt>
<rscale>  0 0.78982673E+02</rscale>
<asrwt>0</asrwt>
<pdfrwt beam="1">  1        2 0.79951162E-01 0.78982673E+02</pdfrwt>
<pdfrwt beam="2">  1       -1 0.46169181E-03 0.78982673E+02</pdfrwt>
<totfact> 0.31868404E+05</totfact>
</mgrwt>
</event>
<event>
 8    1  0.1226832E-016  0.7984393E+02  0.7818608E-02  0.1329495E+00
         -1   -1    0    0    0  501 -0.00000000000E+00  0.00000000000E+00  0.30160025774E+02  0.30160026195E+02  0.50400000000E-02 0.  1.
          2   -1    0    0  501    0  0.00000000000E+00 -0.00000000000E+00 -0.52843567220E+02  0.52843567281E+02  0.25500000000E-02 0. -1.
         24    2    1    2    0    0  0.00000000000E+00  0.00000000000E+00 -0.22683541446E+02  0.83003593476E+02  0.79843932001E+02 0.  0.
         66    2    3    3    0    0 -0.37697409731E+02 -0.11381374814E+02 -0.46819683972E+01  0.39705808436E+02  0.20000005889E+01 0.  0.
        -13    1    3    3    0    0  0.37697409731E+02  0.11381374814E+02 -0.18001573049E+02  0.43297785040E+02  0.10566000000E+00 0.  1.
         13    1    4    4    0    0 -0.19389917989E+02 -0.54625706472E+01 -0.30268753336E+01  0.20371100511E+02  0.10566000000E+00 0. -1.
        -13    1    4    4    0    0 -0.15064457751E+02 -0.45734698108E+01 -0.11248402703E+01  0.15783882384E+02  0.10566000000E+00 0.  1.
        -14    1    4    4    0    0 -0.32430339910E+01 -0.13453343560E+01 -0.53025279322E+00  0.35508255408E+01  0.00000000000E+00 0.  1.
<mgrwt>
<rscale>  0 0.79843932E+02</rscale>
<asrwt>0</asrwt>
<pdfrwt beam="1">  1        2 0.81297796E-02 0.79843932E+02</pdfrwt>
<pdfrwt beam="2">  1       -1 0.46400040E-02 0.79843932E+02</pdfrwt>
<totfact> 0.15206495E+05</totfact>
</mgrwt>
</event>
<event>
 8    1  0.1226832E-016  0.7735239E+02  0.7818608E-02  0.1336737E+00
         -1   -1    0    0    0  501 -0.00000000000E+00  0.00000000000E+00  0.16814360202E+02  0.16814360958E+02  0.50400000000E-02 0.  1.
          2   -1    0    0  501    0  0.00000000000E+00 -0.00000000000E+00 -0.88962521085E+02  0.88962521121E+02  0.25500000000E-02 0. -1.
         24    2    1    2    0    0  0.00000000000E+00 -0.17763568394E-14 -0.72148160883E+02  0.10577688208E+03  0.77352386282E+02 0.  0.
         66    2    3    3    0    0 -0.32992834569E+02 -0.14511747121E+02 -0.55180308355E+02  0.65939247601E+02  0.20000016530E+01 0.  0.
        -13    1    3    3    0    0  0.32992834569E+02  0.14511747121E+02 -0.16967852527E+02  0.39837634478E+02  0.10566000000E+00 0.  1.
         13    1    4    4    0    0 -0.18145420679E+02 -0.81249364185E+01 -0.30099133826E+02  0.36072703039E+02  0.10566000000E+00 0. -1.
        -13    1    4    4    0    0 -0.11513363247E+02 -0.46823569975E+01 -0.20142671015E+02  0.23668974628E+02  0.10566000000E+00 0.  1.
        -14    1    4    4    0    0 -0.33340506425E+01 -0.17044537050E+01 -0.49385035141E+01  0.61975699333E+01  0.00000000000E+00 0.  1.
<mgrwt>
<rscale>  0 0.77352386E+02</rscale>
<asrwt>0</asrwt>
<pdfrwt beam="1">  1        2 0.13686541E-01 0.77352386E+02</pdfrwt>
<pdfrwt beam="2">  1       -1 0.25868248E-02 0.77352386E+02</pdfrwt>
<totfact> 0.18788720E+05</totfact>
</mgrwt>
</event>
<event>
 8    1  0.1226832E-016  0.8398886E+02  0.7818608E-02  0.1318098E+00
          2   -1    0    0  501    0  0.00000000000E+00  0.00000000000E+00  0.50731863733E+02  0.50731863797E+02  0.25500000000E-02 0. -1.
         -1   -1    0    0    0  501 -0.00000000000E+00 -0.00000000000E+00 -0.34761828254E+02  0.34761828619E+02  0.50400000000E-02 0.  1.
         24    2    1    2    0    0  0.00000000000E+00  0.00000000000E+00  0.15970035479E+02  0.85493692417E+02  0.83988864797E+02 0.  0.
         66    2    3    3    0    0  0.61090150602E+01  0.37661217558E+02  0.25791150857E+02  0.46096321385E+02  0.20000024320E+01 0.  0.
        -13    1    3    3    0    0 -0.61090150602E+01 -0.37661217558E+02 -0.98211153774E+01  0.39397371032E+02  0.10566000000E+00 0.  1.
         13    1    4    4    0    0  0.71354675641E+00  0.37787806474E+01  0.22621897899E+01  0.44628464948E+01  0.10566000000E+00 0. -1.
        -13    1    4    4    0    0  0.15221742463E+00  0.38254797711E+01  0.23737517947E+01  0.45059213533E+01  0.10566000000E+00 0.  1.
        -14    1    4    4    0    0  0.52432508792E+01  0.30056957139E+02  0.21155209272E+02  0.37127553537E+02  0.00000000000E+00 0.  1.
<mgrwt>
<rscale>  0 0.83988865E+02</rscale>
<asrwt>0</asrwt>
<pdfrwt beam="1">  1        2 0.78049021E-02 0.83988865E+02</pdfrwt>
<pdfrwt beam="2">  1       -1 0.53479736E-02 0.83988865E+02</pdfrwt>
<totfact> 0.13114715E+05</totfact>
</mgrwt>
</event>
<event>
 8    1  0.1226832E-016  0.7964426E+02  0.7818608E-02  0.1330064E+00
         -1   -1    0    0    0  501 -0.00000000000E+00  0.00000000000E+00  0.71394900057E+01  0.71394917847E+01  0.50400000000E-02 0.  1.
          2   -1    0    0  501    0  0.00000000000E+00 -0.00000000000E+00 -0.22211698845E+03  0.22211698846E+03  0.25500000000E-02 0. -1.
         24    2    1    2    0    0  0.35527136788E-14  0.35527136788E-14 -0.21497749844E+03  0.22925648025E+03  0.79644264696E+02 0.  0.
         66    2    3    3    0    0 -0.16336040288E+02 -0.17964020526E+02 -0.19831947082E+03  0.19981037195E+03  0.19999965149E+01 0.  0.
        -13    1    3    3    0    0  0.16336040288E+02  0.17964020526E+02 -0.16658027627E+02  0.29446108304E+02  0.10566000000E+00 0.  1.
         13    1    4    4    0    0 -0.12794188826E+02 -0.13329836987E+02 -0.15009377272E+03  0.15122674232E+03  0.10566000000E+00 0. -1.
        -13    1    4    4    0    0 -0.66468883069E+00 -0.10833760624E+01 -0.83401451008E+01  0.84371025401E+01  0.10566000000E+00 0.  1.
        -14    1    4    4    0    0 -0.28771626314E+01 -0.35508074764E+01 -0.39885553001E+02  0.40146527082E+02  0.00000000000E+00 0.  1.
<mgrwt>
<rscale>  0 0.79644265E+02</rscale>
<asrwt>0</asrwt>
<pdfrwt beam="1">  1        2 0.34171839E-01 0.79644265E+02</pdfrwt>
<pdfrwt beam="2">  1       -1 0.10983834E-02 0.79644265E+02</pdfrwt>
<totfact> 0.23154630E+05</totfact>
</mgrwt>
</event>
<event>
 8    1  0.1226832E-016  0.7897056E+02  0.7818608E-02  0.1331998E+00
          2   -1    0    0  501    0  0.00000000000E+00  0.00000000000E+00  0.24541698276E+02  0.24541698409E+02  0.25500000000E-02 0. -1.
         -1   -1    0    0    0  501 -0.00000000000E+00 -0.00000000000E+00 -0.63528091870E+02  0.63528092070E+02  0.50400000000E-02 0.  1.
         24    2    1    2    0    0 -0.35527136788E-14  0.00000000000E+00 -0.38986393594E+02  0.88069790479E+02  0.78970558498E+02 0.  0.
         66    2    3    3    0    0  0.16279590552E+02 -0.35942529817E+02 -0.19994095101E+02  0.44279276845E+02  0.20000002055E+01 0.  0.
        -13    1    3    3    0    0 -0.16279590552E+02  0.35942529817E+02 -0.18992298493E+02  0.43790513634E+02  0.10566000000E+00 0.  1.
         13    1    4    4    0    0  0.10588562603E+02 -0.22704537685E+02 -0.12702056226E+02  0.28088557918E+02  0.10566000000E+00 0. -1.
        -13    1    4    4    0    0  0.88954600921E+00 -0.14199151214E+01 -0.57883755004E+00  0.17758569760E+01  0.10566000000E+00 0.  1.
         14    1    4    4    0    0  0.48014819398E+01 -0.11818077010E+02 -0.67132013247E+01  0.14414861951E+02  0.00000000000E+00 0. -1.
<mgrwt>
<rscale>  0 0.78970558E+02</rscale>
<asrwt>0</asrwt>
<pdfrwt beam="1">  1        2 0.37756459E-02 0.78970558E+02</pdfrwt>
<pdfrwt beam="2">  1       -1 0.97735526E-02 0.78970558E+02</pdfrwt>
<totfact> 0.13416122E+05</totfact>
</mgrwt>
</event>
<event>
 8    1  0.1226832E-016  0.7582114E+02  0.7818608E-02  0.1341347E+00
          2   -1    0    0  501    0  0.00000000000E+00  0.00000000000E+00  0.39019018202E+02  0.39019018285E+02  0.25500000000E-02 0. -1.
         -1   -1    0    0    0  501 -0.00000000000E+00 -0.00000000000E+00 -0.36833613318E+02  0.36833613663E+02  0.50400000000E-02 0.  1.
         24    2    1    2    0    0  0.00000000000E+00  0.00000000000E+00  0.21854048832E+01  0.75852631948E+02  0.75821143351E+02 0.  0.
         66    2    3    3    0    0 -0.31370004868E+02  0.11809341574E+02  0.18754936405E+02  0.38461479349E+02  0.20000000771E+01 0.  0.
        -13    1    3    3    0    0  0.31370004868E+02 -0.11809341574E+02 -0.16569531521E+02  0.37391152600E+02  0.10566000000E+00 0.  1.
         13    1    4    4    0    0 -0.10771202728E+02  0.41469652151E+01  0.56893631660E+01  0.12868416607E+02  0.10566000000E+00 0. -1.
        -13    1    4    4    0    0 -0.83052225340E+01  0.36756107032E+01  0.53817383517E+01  0.10557514248E+02  0.10566000000E+00 0.  1.
        -14    1    4    4    0    0 -0.12293579606E+02  0.39867656559E+01  0.76838348870E+01  0.15035548494E+02  0.00000000000E+00 0.  1.
<mgrwt>
<rscale>  0 0.75821143E+02</rscale>
<asrwt>0</asrwt>
<pdfrwt beam="1">  1        2 0.60029259E-02 0.75821143E+02</pdfrwt>
<pdfrwt beam="2">  1       -1 0.56667098E-02 0.75821143E+02</pdfrwt>
<totfact> 0.16442894E+05</totfact>
</mgrwt>
</event>
<event>
 8    1  0.1226832E-016  0.8103413E+02  0.7818608E-02  0.1326142E+00
         -1   -1    0    0    0  501 -0.00000000000E+00  0.00000000000E+00  0.26868308672E+01  0.26868355942E+01  0.50400000000E-02 0.  1.
          2   -1    0    0  501    0  0.00000000000E+00 -0.00000000000E+00 -0.61099162304E+03  0.61099162304E+03  0.25500000000E-02 0. -1.
         24    2    1    2    0    0  0.00000000000E+00  0.00000000000E+00 -0.60830479217E+03  0.61367845864E+03  0.81034131190E+02 0.  0.
         66    2    3    3    0    0 -0.27367443441E+01 -0.34803569513E+02 -0.45969609631E+03  0.46102416335E+03  0.20000022334E+01 0.  0.
        -13    1    3    3    0    0  0.27367443441E+01  0.34803569513E+02 -0.14860869586E+03  0.15265429529E+03  0.10566000000E+00 0.  1.
         13    1    4    4    0    0  0.33457551103E-01 -0.21737988906E+01 -0.25162685632E+02  0.25256651268E+02  0.10566000000E+00 0. -1.
        -13    1    4    4    0    0 -0.58715436369E+00 -0.57525912136E+01 -0.83221343236E+02  0.83422060571E+02  0.10566000000E+00 0.  1.
         14    1    4    4    0    0 -0.21830475315E+01 -0.26877179409E+02 -0.35131206744E+03  0.35234545151E+03  0.00000000000E+00 0. -1.
<mgrwt>
<rscale>  0 0.81034131E+02</rscale>
<asrwt>0</asrwt>
<pdfrwt beam="1">  1        2 0.93998601E-01 0.81034131E+02</pdfrwt>
<pdfrwt beam="2">  1       -1 0.41335945E-03 0.81034131E+02</pdfrwt>
<totfact> 0.31261910E+05</totfact>
</mgrwt>
</event>
<event>
 8    1  0.1226832E-016  0.8082382E+02  0.7818608E-02  0.1326730E+00
          2   -1    0    0  501    0  0.00000000000E+00  0.00000000000E+00  0.17663497943E+03  0.17663497945E+03  0.25500000000E-02 0. -1.
         -1   -1    0    0    0  501 -0.00000000000E+00 -0.00000000000E+00 -0.92457465674E+01  0.92457479411E+01  0.50400000000E-02 0.  1.
         24    2    1    2    0    0  0.35527136788E-14  0.17763568394E-14  0.16738923286E+03  0.18588072739E+03  0.80823817879E+02 0.  0.
         66    2    3    3    0    0 -0.27920777204E+02 -0.15929853914E+02  0.13997575850E+03  0.14363336314E+03  0.19999985348E+01 0.  0.
        -13    1    3    3    0    0  0.27920777204E+02  0.15929853914E+02  0.27413474366E+02  0.42247364252E+02  0.10566000000E+00 0.  1.
         13    1    4    4    0    0 -0.21878935193E+02 -0.12593958128E+02  0.10795819642E+03  0.11087055030E+03  0.10566000000E+00 0. -1.
        -13    1    4    4    0    0 -0.53197066385E+01 -0.30556185002E+01  0.29379872429E+02  0.30013732709E+02  0.10566000000E+00 0.  1.
        -14    1    4    4    0    0 -0.72213537258E+00 -0.28027728636E+00  0.26376896461E+01  0.27490801230E+01  0.00000000000E+00 0.  1.
<mgrwt>
<rscale>  0 0.80823818E+02</rscale>
<asrwt>0</asrwt>
<pdfrwt beam="1">  1        2 0.27174610E-01 0.80823818E+02</pdfrwt>
<pdfrwt beam="2">  1       -1 0.14224228E-02 0.80823818E+02</pdfrwt>
<totfact> 0.20573436E+05</totfact>
</mgrwt>
</event>
<event>
 8    1  0.1226832E-016  0.8225699E+02  0.7818608E-02  0.1322766E+00
         -1   -1    0    0    0  501 -0.00000000000E+00  0.00000000000E+00  0.41075152951E+01  0.41075183872E+01  0.50400000000E-02 0.  1.
          2   -1    0    0  501    0  0.00000000000E+00 -0.00000000000E+00 -0.41181887094E+03  0.41181887095E+03  0.25500000000E-02 0. -1.
         24    2    1    2    0    0 -0.35527136788E-14  0.35527136788E-14 -0.40771135565E+03  0.41592638934E+03  0.82256986472E+02 0.  0.
         66    2    3    3    0    0 -0.26254982350E+02  0.27500989137E+02 -0.28294672179E+03  0.28549689296E+03  0.20000029567E+01 0.  0.
        -13    1    3    3    0    0  0.26254982350E+02 -0.27500989137E+02 -0.12476463385E+03  0.13042949638E+03  0.10566000000E+00 0.  1.
         13    1    4    4    0    0 -0.97549504659E+01  0.90386349604E+01 -0.99537457145E+02  0.10042197229E+03  0.10566000000E+00 0.  1.
        -13    1    4    4    0    0 -0.13383941368E+02  0.14960497598E+02 -0.14627937522E+03  0.14765030699E+03  0.10566000000E+00 0. -1.
        -14    1    4    4    0    0 -0.31160905162E+01  0.35018565785E+01 -0.37129889429E+02  0.37424613674E+02  0.00000000000E+00 0.  1.
<mgrwt>
<rscale>  0 0.82256986E+02</rscale>
<asrwt>0</asrwt>
<pdfrwt beam="1">  1        2 0.63356717E-01 0.82256986E+02</pdfrwt>
<pdfrwt beam="2">  1       -1 0.63192599E-03 0.82256986E+02</pdfrwt>
<totfact> 0.26538740E+05</totfact>
</mgrwt>
</event>
<event>
 8    1  0.1226832E-016  0.8136022E+02  0.7818608E-02  0.1325235E+00
          2   -1    0    0  501    0  0.00000000000E+00  0.00000000000E+00  0.87646633737E+03  0.87646633737E+03  0.25500000000E-02 0. -1.
         -1   -1    0    0    0  501 -0.00000000000E+00 -0.00000000000E+00 -0.18881139145E+01  0.18881206412E+01  0.50400000000E-02 0.  1.
         24    2    1    2    0    0 -0.35527136788E-14 -0.17763568394E-14  0.87457822345E+03  0.87835445801E+03  0.81360217380E+02 0.  0.
         66    2    3    3    0    0 -0.30555623075E+02 -0.13051405436E+02  0.69048055303E+03  0.69128241653E+03  0.20000012729E+01 0.  0.
        -13    1    3    3    0    0  0.30555623075E+02  0.13051405436E+02  0.18409767042E+03  0.18707204148E+03  0.10566000000E+00 0.  1.
         13    1    4    4    0    0 -0.17939421191E+02 -0.78539230922E+01  0.41683308221E+03  0.41729286662E+03  0.10566000000E+00 0. -1.
        -13    1    4    4    0    0 -0.65997489822E+01 -0.32898720954E+01  0.14847227614E+03  0.14865533253E+03  0.10566000000E+00 0.  1.
        -14    1    4    4    0    0 -0.60164529011E+01 -0.19076102483E+01  0.12517519468E+03  0.12533421737E+03  0.00000000000E+00 0.  1.
<mgrwt>
<rscale>  0 0.81360217E+02</rscale>
<asrwt>0</asrwt>
<pdfrwt beam="1">  1        2 0.13484075E+00 0.81360217E+02</pdfrwt>
<pdfrwt beam="2">  1       -1 0.29048007E-03 0.81360217E+02</pdfrwt>
<totfact> 0.33344174E+05</totfact>
</mgrwt>
</event>
<event>
 8    1  0.1226832E-016  0.8137803E+02  0.7818608E-02  0.1325186E+00
          2   -1    0    0  501    0  0.00000000000E+00  0.00000000000E+00  0.40963004527E+02  0.40963004606E+02  0.25500000000E-02 0. -1.
         -1   -1    0    0    0  501 -0.00000000000E+00 -0.00000000000E+00 -0.40416858263E+02  0.40416858577E+02  0.50400000000E-02 0.  1.
         24    2    1    2    0    0  0.00000000000E+00  0.00000000000E+00  0.54614626357E+00  0.81379863184E+02  0.81378030549E+02 0.  0.
         66    2    3    3    0    0 -0.30332275277E+02 -0.13429660700E+01  0.27324549162E+02  0.40895983588E+02  0.20000013423E+01 0.  0.
        -13    1    3    3    0    0  0.30332275277E+02  0.13429660700E+01 -0.26778402898E+02  0.40483879596E+02  0.10566000000E+00 0.  1.
         13    1    4    4    0    0 -0.58844120221E+01  0.12662415194E+00  0.49181453744E+01  0.76708315378E+01  0.10566000000E+00 0. -1.
        -13    1    4    4    0    0 -0.23076568214E+01 -0.63014630633E-01  0.16055973904E+01  0.28139576871E+01  0.10566000000E+00 0.  1.
         14    1    4    4    0    0 -0.22140206433E+02 -0.14065755913E+01  0.20800806397E+02  0.30411194363E+02  0.00000000000E+00 0. -1.
<mgrwt>
<rscale>  0 0.81378031E+02</rscale>
<asrwt>0</asrwt>
<pdfrwt beam="1">  1        2 0.63020007E-02 0.81378031E+02</pdfrwt>
<pdfrwt beam="2">  1       -1 0.62179783E-02 0.81378031E+02</pdfrwt>
<totfact> 0.13664476E+05</totfact>
</mgrwt>
</event>
<event>
 8    1  0.1226832E-016  0.8025314E+02  0.7818608E-02  0.1328335E+00
          2   -1    0    0  501    0  0.00000000000E+00  0.00000000000E+00  0.24596867218E+03  0.24596867219E+03  0.25500000000E-02 0. -1.
         -1   -1    0    0    0  501 -0.00000000000E+00 -0.00000000000E+00 -0.65461245138E+01  0.65461264540E+01  0.50400000000E-02 0.  1.
         24    2    1    2    0    0  0.35527136788E-14 -0.35527136788E-14  0.23942254767E+03  0.25251479865E+03  0.80253144517E+02 0.  0.
         66    2    3    3    0    0  0.24219539574E+02 -0.21088882438E+02  0.19535396360E+03  0.19798610597E+03  0.20000005732E+01 0.  0.
        -13    1    3    3    0    0 -0.24219539574E+02  0.21088882438E+02  0.44068584064E+02  0.54528692678E+02  0.10566000000E+00 0.  1.
         13    1    4    4    0    0  0.77755127486E+01 -0.70840261649E+01  0.65939775468E+02  0.66773551486E+02  0.10566000000E+00 0. -1.
        -13    1    4    4    0    0  0.14684328593E+02 -0.11897321443E+02  0.11387454455E+03  0.11543222611E+03  0.10566000000E+00 0.  1.
        -14    1    4    4    0    0  0.17596982323E+01 -0.21075348303E+01  0.15539643582E+02  0.15780328374E+02  0.00000000000E+00 0.  1.
<mgrwt>
<rscale>  0 0.80253145E+02</rscale>
<asrwt>0</asrwt>
<pdfrwt beam="1">  1        2 0.37841328E-01 0.80253145E+02</pdfrwt>
<pdfrwt beam="2">  1       -1 0.10070964E-02 0.80253145E+02</pdfrwt>
<totfact> 0.23533525E+05</totfact>
</mgrwt>
</event>
<event>
 8    1  0.1226832E-016  0.7782401E+02  0.7818608E-02  0.1335342E+00
         -1   -1    0    0    0  501 -0.00000000000E+00  0.00000000000E+00  0.62028344260E+01  0.62028364736E+01  0.50400000000E-02 0.  1.
          2   -1    0    0  501    0  0.00000000000E+00 -0.00000000000E+00 -0.24410515810E+03  0.24410515811E+03  0.25500000000E-02 0. -1.
         24    2    1    2    0    0  0.00000000000E+00  0.00000000000E+00 -0.23790232367E+03  0.25030799458E+03  0.77824010078E+02 0.  0.
         66    2    3    3    0    0 -0.93979479502E+01 -0.10227025402E+02 -0.23585043632E+03  0.23626752166E+03  0.20000007220E+01 0.  0.
        -13    1    3    3    0    0  0.93979479502E+01  0.10227025402E+02 -0.20518873490E+01  0.14040472926E+02  0.10566000000E+00 0.  1.
         13    1    4    4    0    0 -0.33451984029E+01 -0.33349153072E+01 -0.85908835620E+02  0.86038661159E+02  0.10566000000E+00 0. -1.
        -13    1    4    4    0    0 -0.30729245606E+00 -0.38726571572E-01 -0.71426725251E+01  0.71501652595E+01  0.10566000000E+00 0.  1.
         14    1    4    4    0    0 -0.57454570912E+01 -0.68533835236E+01 -0.14279892818E+03  0.14307869524E+03  0.00000000000E+00 0. -1.
<mgrwt>
<rscale>  0 0.77824010E+02</rscale>
<asrwt>0</asrwt>
<pdfrwt beam="1">  1        2 0.37554632E-01 0.77824010E+02</pdfrwt>
<pdfrwt beam="2">  1       -1 0.95428257E-03 0.77824010E+02</pdfrwt>
<totfact> 0.25442992E+05</totfact>
</mgrwt>
</event>
<event>
 8    1  0.1381200E-016  0.7844309E+02  0.7818608E-02  0.1333529E+00
         -1   -1    0    0    0  501 -0.00000000000E+00  0.00000000000E+00  0.90118109707E+02  0.90118109848E+02  0.50400000000E-02 0.  1.
          2   -1    0    0  501    0  0.00000000000E+00 -0.00000000000E+00 -0.17070150039E+02  0.17070150229E+02  0.25500000000E-02 0. -1.
         24    2    1    2    0    0  0.17763568394E-14 -0.71054273576E-14  0.73047959668E+02  0.10718826008E+03  0.78443092026E+02 0.  0.
         66    2    3    3    0    0 -0.84106260595E+01  0.35777086197E+02  0.17932556592E+02  0.40942827421E+02  0.20000009531E+01 0.  0.
        -13    1    3    3    0    0  0.84106260595E+01 -0.35777086197E+02  0.55115403076E+02  0.66245432656E+02  0.10566000000E+00 0.  1.
         13    1    4    4    0    0 -0.40208983271E+01  0.17957327480E+02  0.90091403008E+01  0.20489241239E+02  0.10566000000E+00 0. -1.
        -13    1    4    4    0    0 -0.35199011992E+01  0.12553702690E+02  0.58069446757E+01  0.14272943851E+02  0.10566000000E+00 0.  1.
        -14    1    4    4    0    0 -0.86982653322E+00  0.52660560280E+01  0.31164716159E+01  0.61806423307E+01  0.00000000000E+00 0.  1.
<mgrwt>
<rscale>  0 0.78443092E+02</rscale>
<asrwt>0</asrwt>
<pdfrwt beam="1">  1        2 0.26261769E-02 0.78443092E+02</pdfrwt>
<pdfrwt beam="2">  1       -1 0.13864325E-01 0.78443092E+02</pdfrwt>
<totfact> 0.12721744E+05</totfact>
</mgrwt>
</event>
<event>
 8    1  0.1226832E-016  0.8035311E+02  0.7818608E-02  0.1328052E+00
          2   -1    0    0  501    0  0.00000000000E+00  0.00000000000E+00  0.10384997233E+04  0.10384997233E+04  0.25500000000E-02 0. -1.
         -1   -1    0    0    0  501 -0.00000000000E+00 -0.00000000000E+00 -0.15543108053E+01  0.15543189766E+01  0.50400000000E-02 0.  1.
         24    2    1    2    0    0  0.00000000000E+00  0.35527136788E-14  0.10369454125E+04  0.10400540422E+04  0.80353110508E+02 0.  0.
         66    2    3    3    0    0  0.17131886580E+02  0.19425418152E+02  0.91590934882E+03  0.91627767829E+03  0.20000176332E+01 0.  0.
        -13    1    3    3    0    0 -0.17131886580E+02 -0.19425418152E+02  0.12103606364E+03  0.12377636396E+03  0.10566000000E+00 0.  1.
         13    1    4    4    0    0  0.75705321679E+01  0.84708633831E+01  0.38063565457E+03  0.38080517483E+03  0.10566000000E+00 0.  1.
        -13    1    4    4    0    0  0.95948114080E+01  0.10874804028E+02  0.53251805969E+03  0.53271551210E+03  0.10566000000E+00 0. -1.
        -14    1    4    4    0    0 -0.33456995885E-01  0.79750740332E-01  0.27556345592E+01  0.27569913629E+01  0.00000000000E+00 0.  1.
<mgrwt>
<rscale>  0 0.80353111E+02</rscale>
<asrwt>0</asrwt>
<pdfrwt beam="1">  1        2 0.15976993E+00 0.80353111E+02</pdfrwt>
<pdfrwt beam="2">  1       -1 0.23912425E-03 0.80353111E+02</pdfrwt>
<totfact> 0.34867703E+05</totfact>
</mgrwt>
</event>
<event>
 8    1  0.1226832E-016  0.7903345E+02  0.7818608E-02  0.1331817E+00
          2   -1    0    0  501    0  0.00000000000E+00  0.00000000000E+00  0.26856649876E+02  0.26856649997E+02  0.25500000000E-02 0. -1.
         -1   -1    0    0    0  501 -0.00000000000E+00 -0.00000000000E+00 -0.58144689483E+02  0.58144689701E+02  0.50400000000E-02 0.  1.
         24    2    1    2    0    0  0.00000000000E+00  0.00000000000E+00 -0.31288039607E+02  0.85001339698E+02  0.79033450690E+02 0.  0.
         66    2    3    3    0    0  0.14654440707E+02 -0.89541410388E+01  0.22593029956E+02  0.28449504224E+02  0.20000034538E+01 0.  0.
        -13    1    3    3    0    0 -0.14654440707E+02  0.89541410388E+01 -0.53881069563E+02  0.56551835474E+02  0.10566000000E+00 0.  1.
         13    1    4    4    0    0  0.39307691409E+01 -0.23623187850E+01  0.72273917806E+01  0.85602483648E+01  0.10566000000E+00 0. -1.
        -13    1    4    4    0    0  0.22370941723E+01 -0.13132227742E+01  0.25705513005E+01  0.36534972854E+01  0.10566000000E+00 0.  1.
        -14    1    4    4    0    0  0.84865773938E+01 -0.52785994796E+01  0.12795086875E+02  0.16235758574E+02  0.00000000000E+00 0.  1.
<mgrwt>
<rscale>  0 0.79033451E+02</rscale>
<asrwt>0</asrwt>
<pdfrwt beam="1">  1        2 0.41317923E-02 0.79033451E+02</pdfrwt>
<pdfrwt beam="2">  1       -1 0.89453369E-02 0.79033451E+02</pdfrwt>
<totfact> 0.13623597E+05</totfact>
</mgrwt>
</event>
<event>
 8    1  0.1226832E-016  0.8105648E+02  0.7818608E-02  0.1326080E+00
          2   -1    0    0  501    0  0.00000000000E+00  0.00000000000E+00  0.15140892380E+02  0.15140892595E+02  0.25500000000E-02 0. -1.
         -1   -1    0    0    0  501 -0.00000000000E+00 -0.00000000000E+00 -0.10848357470E+03  0.10848357481E+03  0.50400000000E-02 0.  1.
         24    2    1    2    0    0 -0.88817841970E-15  0.00000000000E+00 -0.93342682317E+02  0.12362446741E+03  0.81056477842E+02 0.  0.
         66    2    3    3    0    0 -0.70049426105E+01  0.39744303260E+02 -0.41448520845E+02  0.57884874914E+02  0.20000002369E+01 0.  0.
        -13    1    3    3    0    0  0.70049426105E+01 -0.39744303260E+02 -0.51894161472E+02  0.65739592496E+02  0.10566000000E+00 0.  1.
         13    1    4    4    0    0 -0.36151060025E+01  0.24832311842E+02 -0.25897620570E+02  0.36061206553E+02  0.10566000000E+00 0. -1.
        -13    1    4    4    0    0 -0.57144957940E+00  0.15966951108E+01 -0.16159002087E+01  0.23448427280E+01  0.10566000000E+00 0.  1.
        -14    1    4    4    0    0 -0.28183870285E+01  0.13315296307E+02 -0.13935000066E+02  0.19478825633E+02  0.00000000000E+00 0.  1.
<mgrwt>
<rscale>  0 0.81056478E+02</rscale>
<asrwt>0</asrwt>
<pdfrwt beam="1">  1        2 0.23293682E-02 0.81056478E+02</pdfrwt>
<pdfrwt beam="2">  1       -1 0.16689780E-01 0.81056478E+02</pdfrwt>
<totfact> 0.11269378E+05</totfact>
</mgrwt>
</event>
<event>
 8    1  0.1226832E-016  0.7657806E+02  0.7818608E-02  0.1339053E+00
          2   -1    0    0  501    0  0.00000000000E+00  0.00000000000E+00  0.13465542244E+03  0.13465542247E+03  0.25500000000E-02 0. -1.
         -1   -1    0    0    0  501 -0.00000000000E+00 -0.00000000000E+00 -0.10887416077E+02  0.10887417244E+02  0.50400000000E-02 0.  1.
         24    2    1    2    0    0  0.00000000000E+00  0.00000000000E+00  0.12376800637E+03  0.14554283971E+03  0.76578056852E+02 0.  0.
         66    2    3    3    0    0  0.35876257165E+02 -0.11009384199E+02  0.76114726393E+02  0.84886771384E+02  0.20000033768E+01 0.  0.
        -13    1    3    3    0    0 -0.35876257165E+02  0.11009384199E+02  0.47653279972E+02  0.60656068326E+02  0.10566000000E+00 0.  1.
         13    1    4    4    0    0  0.17076866311E+02 -0.49312573906E+01  0.35817116539E+02  0.39985168045E+02  0.10566000000E+00 0. -1.
        -13    1    4    4    0    0  0.14471336103E+02 -0.45302296345E+01  0.32150692151E+02  0.35547443212E+02  0.10566000000E+00 0.  1.
         14    1    4    4    0    0  0.43280547518E+01 -0.15478971743E+01  0.81469177040E+01  0.93541601265E+01  0.00000000000E+00 0. -1.
<mgrwt>
<rscale>  0 0.76578057E+02</rscale>
<asrwt>0</asrwt>
<pdfrwt beam="1">  1        2 0.20716218E-01 0.76578057E+02</pdfrwt>
<pdfrwt beam="2">  1       -1 0.16749872E-02 0.76578057E+02</pdfrwt>
<totfact> 0.21736848E+05</totfact>
</mgrwt>
</event>
<event>
 8    1  0.1226832E-016  0.8000371E+02  0.7818608E-02  0.1329041E+00
         -1   -1    0    0    0  501 -0.00000000000E+00  0.00000000000E+00  0.13974638932E+03  0.13974638941E+03  0.50400000000E-02 0.  1.
          2   -1    0    0  501    0  0.00000000000E+00 -0.00000000000E+00 -0.11450374411E+02  0.11450374695E+02  0.25500000000E-02 0. -1.
         24    2    1    2    0    0  0.00000000000E+00  0.35527136788E-14  0.12829601491E+03  0.15119676411E+03  0.80003712632E+02 0.  0.
         66    2    3    3    0    0  0.14865363473E+02 -0.30831861441E+02  0.25155799616E+02  0.42525250425E+02  0.19999895806E+01 0.  0.
        -13    1    3    3    0    0 -0.14865363473E+02  0.30831861441E+02  0.10314021529E+03  0.10867151368E+03  0.10566000000E+00 0.  1.
         13    1    4    4    0    0  0.11427171670E+02 -0.23338521672E+02  0.18127560792E+02  0.31684167505E+02  0.10566000000E+00 0. -1.
        -13    1    4    4    0    0  0.28637509411E+01 -0.59215339445E+01  0.57040486142E+01  0.87070642778E+01  0.10566000000E+00 0.  1.
         14    1    4    4    0    0  0.57444086261E+00 -0.15718058246E+01  0.13241902100E+01  0.21340186426E+01  0.00000000000E+00 0. -1.
<mgrwt>
<rscale>  0 0.80003713E+02</rscale>
<asrwt>0</asrwt>
<pdfrwt beam="1">  1        2 0.17615960E-02 0.80003713E+02</pdfrwt>
<pdfrwt beam="2">  1       -1 0.21499446E-01 0.80003713E+02</pdfrwt>
<totfact> 0.10978898E+05</totfact>
</mgrwt>
</event>
<event>
 8    1  0.1226832E-016  0.8077681E+02  0.7818608E-02  0.1326861E+00
          2   -1    0    0  501    0  0.00000000000E+00  0.00000000000E+00  0.31961024839E+03  0.31961024840E+03  0.25500000000E-02 0. -1.
         -1   -1    0    0    0  501 -0.00000000000E+00 -0.00000000000E+00 -0.51037872543E+01  0.51037897428E+01  0.50400000000E-02 0.  1.
         24    2    1    2    0    0  0.00000000000E+00  0.00000000000E+00  0.31450646114E+03  0.32471403814E+03  0.80776806516E+02 0.  0.
         66    2    3    3    0    0  0.22863252829E+02  0.55015652330E+01  0.28922526400E+03  0.29018657599E+03  0.20000000753E+01 0.  0.
        -13    1    3    3    0    0 -0.22863252829E+02 -0.55015652330E+01  0.25281197136E+02  0.34527462151E+02  0.10566000000E+00 0.  1.
         13    1    4    4    0    0  0.59264962636E+01  0.18323323909E+01  0.78159181922E+02  0.78405036080E+02  0.10566000000E+00 0. -1.
        -13    1    4    4    0    0  0.14005994556E+02  0.28457085911E+01  0.18006740805E+03  0.18063374144E+03  0.10566000000E+00 0.  1.
        -14    1    4    4    0    0  0.29307620090E+01  0.82352425100E+00  0.30998674028E+02  0.31147798472E+02  0.00000000000E+00 0.  1.
<mgrwt>
<rscale>  0 0.80776807E+02</rscale>
<asrwt>0</asrwt>
<pdfrwt beam="1">  1        2 0.49170826E-01 0.80776807E+02</pdfrwt>
<pdfrwt beam="2">  1       -1 0.78519794E-03 0.80776807E+02</pdfrwt>
<totfact> 0.25432460E+05</totfact>
</mgrwt>
</event>
<event>
 8    1  0.1226832E-016  0.8193009E+02  0.7818608E-02  0.1323662E+00
          2   -1    0    0  501    0  0.00000000000E+00  0.00000000000E+00  0.47291783337E+01  0.47291790212E+01  0.25500000000E-02 0. -1.
         -1   -1    0    0    0  501 -0.00000000000E+00 -0.00000000000E+00 -0.35484696725E+03  0.35484696729E+03  0.50400000000E-02 0.  1.
         24    2    1    2    0    0  0.00000000000E+00  0.00000000000E+00 -0.35011778892E+03  0.35957614631E+03  0.81930085300E+02 0.  0.
         66    2    3    3    0    0  0.26155530952E+02  0.25966658717E+02 -0.25339603771E+03  0.25607016829E+03  0.19999994779E+01 0.  0.
        -13    1    3    3    0    0 -0.26155530952E+02 -0.25966658717E+02 -0.96721751208E+02  0.10350597802E+03  0.10566000000E+00 0.  1.
         13    1    4    4    0    0  0.17295255168E+02  0.17532838703E+02 -0.16876251908E+03  0.17055006682E+03  0.10566000000E+00 0. -1.
        -13    1    4    4    0    0  0.34176763127E+01  0.39989869335E+01 -0.36458092429E+02  0.36835798830E+02  0.10566000000E+00 0.  1.
        -14    1    4    4    0    0  0.54425994714E+01  0.44348330809E+01 -0.48175426201E+02  0.48684302636E+02  0.00000000000E+00 0.  1.
<mgrwt>
<rscale>  0 0.81930085E+02</rscale>
<asrwt>0</asrwt>
<pdfrwt beam="1">  1        2 0.72756623E-03 0.81930085E+02</pdfrwt>
<pdfrwt beam="2">  1       -1 0.54591821E-01 0.81930085E+02</pdfrwt>
<totfact> 0.75586377E+04</totfact>
</mgrwt>
</event>
<event>
 8    1  0.1226832E-016  0.7625104E+02  0.7818608E-02  0.1340040E+00
          2   -1    0    0  501    0  0.00000000000E+00  0.00000000000E+00  0.73428840308E+01  0.73428844735E+01  0.25500000000E-02 0. -1.
         -1   -1    0    0    0  501 -0.00000000000E+00 -0.00000000000E+00 -0.19795427438E+03  0.19795427444E+03  0.50400000000E-02 0.  1.
         24    2    1    2    0    0  0.00000000000E+00  0.00000000000E+00 -0.19061139035E+03  0.20529715891E+03  0.76251041493E+02 0.  0.
         66    2    3    3    0    0  0.23982109065E+02 -0.20375563398E+02 -0.37547743826E+02  0.49032011843E+02  0.19999950129E+01 0.  0.
        -13    1    3    3    0    0 -0.23982109065E+02  0.20375563398E+02 -0.15306364652E+03  0.15626514707E+03  0.10566000000E+00 0.  1.
         13    1    4    4    0    0  0.12600643281E+02 -0.10330004659E+02 -0.20322533750E+02  0.26048066136E+02  0.10566000000E+00 0. -1.
        -13    1    4    4    0    0  0.95881135501E+00 -0.56543700877E+00 -0.14892952918E+01  0.18623111253E+01  0.10566000000E+00 0.  1.
         14    1    4    4    0    0  0.10422654428E+02 -0.94801217303E+01 -0.15735914784E+02  0.21121634582E+02  0.00000000000E+00 0. -1.
<mgrwt>
<rscale>  0 0.76251041E+02</rscale>
<asrwt>0</asrwt>
<pdfrwt beam="1">  1        2 0.11296747E-02 0.76251041E+02</pdfrwt>
<pdfrwt beam="2">  1       -1 0.30454500E-01 0.76251041E+02</pdfrwt>
<totfact> 0.11288049E+05</totfact>
</mgrwt>
</event>
<event>
 8    1  0.1226832E-016  0.8603798E+02  0.7818608E-02  0.1312740E+00
         -1   -1    0    0    0  501 -0.00000000000E+00  0.00000000000E+00  0.28761046309E+01  0.28761090469E+01  0.50400000000E-02 0.  1.
          2   -1    0    0  501    0  0.00000000000E+00 -0.00000000000E+00 -0.64345090494E+03  0.64345090494E+03  0.25500000000E-02 0. -1.
         24    2    1    2    0    0 -0.88817841970E-15  0.35527136788E-14 -0.64057480031E+03  0.64632701399E+03  0.86037981291E+02 0.  0.
         66    2    3    3    0    0 -0.71421054233E+01  0.23457941544E+02 -0.58577094313E+03  0.58628737195E+03  0.19999987202E+01 0.  0.
        -13    1    3    3    0    0  0.71421054233E+01 -0.23457941544E+02 -0.54803857173E+02  0.60039642041E+02  0.10566000000E+00 0.  1.
         13    1    4    4    0    0 -0.44426794012E+01  0.11826935879E+02 -0.28874625184E+03  0.28902253014E+03  0.10566000000E+00 0. -1.
        -13    1    4    4    0    0 -0.22122631802E+01  0.94578180333E+01 -0.23795900597E+03  0.23815718363E+03  0.10566000000E+00 0.  1.
         14    1    4    4    0    0 -0.48716284181E+00  0.21731876323E+01 -0.59065685324E+02  0.59107658175E+02  0.00000000000E+00 0. -1.
<mgrwt>
<rscale>  0 0.86037981E+02</rscale>
<asrwt>0</asrwt>
<pdfrwt beam="1">  1        2 0.98992332E-01 0.86037981E+02</pdfrwt>
<pdfrwt beam="2">  1       -1 0.44247849E-03 0.86037981E+02</pdfrwt>
<totfact> 0.27103396E+05</totfact>
</mgrwt>
</event>
<event>
 8    1  0.1226832E-016  0.7863123E+02  0.7818608E-02  0.1332981E+00
         -1   -1    0    0    0  501 -0.00000000000E+00  0.00000000000E+00  0.38515991250E+01  0.38516024226E+01  0.50400000000E-02 0.  1.
          2   -1    0    0  501    0  0.00000000000E+00 -0.00000000000E+00 -0.40131823873E+03  0.40131823874E+03  0.25500000000E-02 0. -1.
         24    2    1    2    0    0  0.00000000000E+00  0.00000000000E+00 -0.39746663960E+03  0.40516984116E+03  0.78631231627E+02 0.  0.
         66    2    3    3    0    0  0.26312588549E+02 -0.11794354835E+02 -0.33637947037E+03  0.33761902672E+03  0.19999991451E+01 0.  0.
        -13    1    3    3    0    0 -0.26312588549E+02  0.11794354835E+02 -0.61087169238E+02  0.67550814442E+02  0.10566000000E+00 0.  1.
         13    1    4    4    0    0  0.49847038819E+01 -0.16034187506E+01 -0.58051944508E+02  0.58287714398E+02  0.10566000000E+00 0. -1.
        -13    1    4    4    0    0  0.31514813361E+01 -0.11453645979E+01 -0.38271148042E+02  0.38417907688E+02  0.10566000000E+00 0.  1.
         14    1    4    4    0    0  0.18176403331E+02 -0.90455714864E+01 -0.24005637782E+03  0.24091340463E+03  0.00000000000E+00 0. -1.
<mgrwt>
<rscale>  0 0.78631232E+02</rscale>
<asrwt>0</asrwt>
<pdfrwt beam="1">  1        2 0.61741234E-01 0.78631232E+02</pdfrwt>
<pdfrwt beam="2">  1       -1 0.59255429E-03 0.78631232E+02</pdfrwt>
<totfact> 0.29589256E+05</totfact>
</mgrwt>
</event>
<event>
 8    1  0.1226832E-016  0.7906146E+02  0.7818608E-02  0.1331736E+00
          2   -1    0    0  501    0  0.00000000000E+00  0.00000000000E+00  0.12383845459E+04  0.12383845459E+04  0.25500000000E-02 0. -1.
         -1   -1    0    0    0  501 -0.00000000000E+00 -0.00000000000E+00 -0.12618636649E+01  0.12618737299E+01  0.50400000000E-02 0.  1.
         24    2    1    2    0    0  0.88817841970E-15  0.00000000000E+00  0.12371226823E+04  0.12396464197E+04  0.79061462214E+02 0.  0.
         66    2    3    3    0    0 -0.76288972750E+01 -0.18701202899E+02  0.11513074987E+04  0.11514863836E+04  0.19999999030E+01 0.  0.
        -13    1    3    3    0    0  0.76288972750E+01  0.18701202899E+02  0.85815183578E+02  0.88160036071E+02  0.10566000000E+00 0.  1.
         13    1    4    4    0    0 -0.27624899262E+01 -0.58287853074E+01  0.35399201724E+03  0.35405079511E+03  0.10566000000E+00 0. -1.
        -13    1    4    4    0    0 -0.34280127540E+01 -0.89602553508E+01  0.51533694576E+03  0.51542624717E+03  0.10566000000E+00 0.  1.
         14    1    4    4    0    0 -0.14383945948E+01 -0.39121622411E+01  0.28197853570E+03  0.28200934131E+03  0.00000000000E+00 0. -1.
<mgrwt>
<rscale>  0 0.79061462E+02</rscale>
<asrwt>0</asrwt>
<pdfrwt beam="1">  1        2 0.19052087E+00 0.79061462E+02</pdfrwt>
<pdfrwt beam="2">  1       -1 0.19413347E-03 0.79061462E+02</pdfrwt>
<totfact> 0.35984704E+05</totfact>
</mgrwt>
</event>
<event>
 8    1  0.1226832E-016  0.7808169E+02  0.7818608E-02  0.1334585E+00
          2   -1    0    0  501    0  0.00000000000E+00  0.00000000000E+00  0.26359757913E+03  0.26359757914E+03  0.25500000000E-02 0. -1.
         -1   -1    0    0    0  501 -0.00000000000E+00 -0.00000000000E+00 -0.57822509863E+01  0.57822531828E+01  0.50400000000E-02 0.  1.
         24    2    1    2    0    0  0.00000000000E+00 -0.35527136788E-14  0.25781532814E+03  0.26937983233E+03  0.78081692077E+02 0.  0.
         66    2    3    3    0    0 -0.18886592384E+02  0.23160669937E+02  0.21552123238E+03  0.21759255875E+03  0.20000033494E+01 0.  0.
        -13    1    3    3    0    0  0.18886592384E+02 -0.23160669937E+02  0.42294095768E+02  0.51787273578E+02  0.10566000000E+00 0.  1.
         13    1    4    4    0    0 -0.46731245481E+01  0.49246767743E+01  0.47671928294E+02  0.48153031532E+02  0.10566000000E+00 0. -1.
        -13    1    4    4    0    0 -0.13969914481E+02  0.18130948425E+02  0.16549611486E+03  0.16707143681E+03  0.10566000000E+00 0.  1.
        -14    1    4    4    0    0 -0.24355335508E+00  0.10504473730E+00  0.23531892240E+01  0.23680904031E+01  0.00000000000E+00 0.  1.
<mgrwt>
<rscale>  0 0.78081692E+02</rscale>
<asrwt>0</asrwt>
<pdfrwt beam="1">  1        2 0.40553476E-01 0.78081692E+02</pdfrwt>
<pdfrwt beam="2">  1       -1 0.88957721E-03 0.78081692E+02</pdfrwt>
<totfact> 0.25927179E+05</totfact>
</mgrwt>
</event>
<event>
 8    1  0.1226832E-016  0.7833143E+02  0.7818608E-02  0.1333854E+00
          2   -1    0    0  501    0  0.00000000000E+00  0.00000000000E+00  0.70642724197E+03  0.70642724197E+03  0.25500000000E-02 0. -1.
         -1   -1    0    0    0  501 -0.00000000000E+00 -0.00000000000E+00 -0.21714214518E+01  0.21714273009E+01  0.50400000000E-02 0.  1.
         24    2    1    2    0    0  0.00000000000E+00  0.00000000000E+00  0.70425582052E+03  0.70859866927E+03  0.78331432805E+02 0.  0.
         66    2    3    3    0    0 -0.34717811180E+02 -0.10262514044E+02  0.48692975717E+03  0.48827782463E+03  0.20000018176E+01 0.  0.
        -13    1    3    3    0    0  0.34717811180E+02  0.10262514044E+02  0.21732606335E+03  0.22032084464E+03  0.10566000000E+00 0.  1.
         13    1    4    4    0    0 -0.60041559579E+01 -0.21013835031E+01  0.82724518541E+02  0.82968806387E+02  0.10566000000E+00 0. -1.
        -13    1    4    4    0    0 -0.24197188883E+01 -0.25695668475E+00  0.32895297801E+02  0.32985342922E+02  0.10566000000E+00 0.  1.
         14    1    4    4    0    0 -0.26293936334E+02 -0.79041738565E+01  0.37130994083E+03  0.37232367533E+03  0.00000000000E+00 0. -1.
<mgrwt>
<rscale>  0 0.78331433E+02</rscale>
<asrwt>0</asrwt>
<pdfrwt beam="1">  1        2 0.10868120E+00 0.78331433E+02</pdfrwt>
<pdfrwt beam="2">  1       -1 0.33406502E-03 0.78331433E+02</pdfrwt>
<totfact> 0.35407009E+05</totfact>
</mgrwt>
</event>
<event>
 8    1  0.1226832E-016  0.7091423E+02  0.7818608E-02  0.1357011E+00
          2   -1    0    0  501    0  0.00000000000E+00  0.00000000000E+00  0.49749025389E+02  0.49749025454E+02  0.25500000000E-02 0. -1.
         -1   -1    0    0    0  501 -0.00000000000E+00 -0.00000000000E+00 -0.25270984443E+02  0.25270984946E+02  0.50400000000E-02 0.  1.
         24    2    1    2    0    0  0.00000000000E+00  0.00000000000E+00  0.24478040946E+02  0.75020010400E+02  0.70914226160E+02 0.  0.
         66    2    3    3    0    0 -0.13627956642E+02 -0.31506382153E+01  0.46684147423E+02  0.48775581423E+02  0.19999998027E+01 0.  0.
        -13    1    3    3    0    0  0.13627956642E+02  0.31506382153E+01 -0.22206106477E+02  0.26244428976E+02  0.10566000000E+00 0.  1.
         13    1    4    4    0    0 -0.50710172643E+01 -0.58341511157E+00  0.15401545217E+02  0.16225731059E+02  0.10566000000E+00 0. -1.
        -13    1    4    4    0    0 -0.25203867393E+01 -0.88542761153E+00  0.11063483316E+02  0.11381922443E+02  0.10566000000E+00 0.  1.
         14    1    4    4    0    0 -0.60365526380E+01 -0.16817954922E+01  0.20219118890E+02  0.21167927922E+02  0.00000000000E+00 0. -1.
<mgrwt>
<rscale>  0 0.70914226E+02</rscale>
<asrwt>0</asrwt>
<pdfrwt beam="1">  1        2 0.76536962E-02 0.70914226E+02</pdfrwt>
<pdfrwt beam="2">  1       -1 0.38878438E-02 0.70914226E+02</pdfrwt>
<totfact> 0.20702516E+05</totfact>
</mgrwt>
</event>
<event>
 8    1  0.1226832E-016  0.8000392E+02  0.7818608E-02  0.1329040E+00
          2   -1    0    0  501    0  0.00000000000E+00  0.00000000000E+00  0.56404981306E+02  0.56404981363E+02  0.25500000000E-02 0. -1.
         -1   -1    0    0    0  501 -0.00000000000E+00 -0.00000000000E+00 -0.28369067315E+02  0.28369067763E+02  0.50400000000E-02 0.  1.
         24    2    1    2    0    0  0.00000000000E+00  0.00000000000E+00  0.28035913990E+02  0.84774049126E+02  0.80003918229E+02 0.  0.
         66    2    3    3    0    0  0.11235825381E+02 -0.12110213453E+02  0.52601227605E+02  0.55170555432E+02  0.19999998222E+01 0.  0.
        -13    1    3    3    0    0 -0.11235825381E+02  0.12110213453E+02 -0.24565313615E+02  0.29603493694E+02  0.10566000000E+00 0.  1.
         13    1    4    4    0    0  0.36104418162E+01 -0.45208127728E+01  0.19344531486E+02  0.20191461084E+02  0.10566000000E+00 0. -1.
        -13    1    4    4    0    0  0.32003032046E+01 -0.39713723381E+01  0.14533224335E+02  0.15402581357E+02  0.10566000000E+00 0.  1.
         14    1    4    4    0    0  0.44250803606E+01 -0.36180283416E+01  0.18723471784E+02  0.19576512992E+02  0.00000000000E+00 0. -1.
<mgrwt>
<rscale>  0 0.80003918E+02</rscale>
<asrwt>0</asrwt>
<pdfrwt beam="1">  1        2 0.86776894E-02 0.80003918E+02</pdfrwt>
<pdfrwt beam="2">  1       -1 0.43644720E-02 0.80003918E+02</pdfrwt>
<totfact> 0.15345871E+05</totfact>
</mgrwt>
</event>
<event>
 8    1  0.1226832E-016  0.7866787E+02  0.7818608E-02  0.1332875E+00
         -1   -1    0    0    0  501 -0.00000000000E+00  0.00000000000E+00  0.33109891234E+02  0.33109891617E+02  0.50400000000E-02 0.  1.
          2   -1    0    0  501    0  0.00000000000E+00 -0.00000000000E+00 -0.46727978607E+02  0.46727978676E+02  0.25500000000E-02 0. -1.
         24    2    1    2    0    0  0.35527136788E-14 -0.35527136788E-14 -0.13618087373E+02  0.79837870294E+02  0.78667866562E+02 0.  0.
         66    2    3    3    0    0  0.19732528585E+02 -0.27544698644E+02 -0.27036416964E+02  0.43394135019E+02  0.20000010194E+01 0.  0.
        -13    1    3    3    0    0 -0.19732528585E+02  0.27544698644E+02  0.13418329591E+02  0.36443735275E+02  0.10566000000E+00 0.  1.
         13    1    4    4    0    0  0.12012157161E+02 -0.17572042426E+02 -0.17236971629E+02  0.27389650411E+02  0.10566000000E+00 0. -1.
        -13    1    4    4    0    0  0.21472384442E+01 -0.32173544163E+01 -0.25325657760E+01  0.46246141268E+01  0.10566000000E+00 0.  1.
        -14    1    4    4    0    0  0.55731329801E+01 -0.67553018013E+01 -0.72668795594E+01  0.11379870481E+02  0.00000000000E+00 0.  1.
<mgrwt>
<rscale>  0 0.78667867E+02</rscale>
<asrwt>0</asrwt>
<pdfrwt beam="1">  1        2 0.71889198E-02 0.78667867E+02</pdfrwt>
<pdfrwt beam="2">  1       -1 0.50938295E-02 0.78667867E+02</pdfrwt>
<totfact> 0.15420815E+05</totfact>
</mgrwt>
</event>
<event>
 8    1  0.1226832E-016  0.8029496E+02  0.7818608E-02  0.1328216E+00
          2   -1    0    0  501    0  0.00000000000E+00  0.00000000000E+00  0.19814635979E+02  0.19814636143E+02  0.25500000000E-02 0. -1.
         -1   -1    0    0    0  501 -0.00000000000E+00 -0.00000000000E+00 -0.81344928963E+02  0.81344929119E+02  0.50400000000E-02 0.  1.
         24    2    1    2    0    0  0.00000000000E+00  0.00000000000E+00 -0.61530292984E+02  0.10115956526E+03  0.80294960548E+02 0.  0.
         66    2    3    3    0    0  0.78223640259E+01  0.36453742949E+02 -0.12108193702E+02  0.39251408971E+02  0.19999993895E+01 0.  0.
        -13    1    3    3    0    0 -0.78223640259E+01 -0.36453742949E+02 -0.49422099282E+02  0.61908156291E+02  0.10566000000E+00 0.  1.
         13    1    4    4    0    0  0.35484828782E+01  0.14107940394E+02 -0.40135749141E+01  0.15091244499E+02  0.10566000000E+00 0. -1.
        -13    1    4    4    0    0  0.21078927199E+00  0.93463846529E+00 -0.46243685609E+00  0.10691085349E+01  0.10566000000E+00 0.  1.
         14    1    4    4    0    0  0.40630918757E+01  0.21411164089E+02 -0.76321819319E+01  0.23091055937E+02  0.00000000000E+00 0. -1.
<mgrwt>
<rscale>  0 0.80294961E+02</rscale>
<asrwt>0</asrwt>
<pdfrwt beam="1">  1        2 0.30484056E-02 0.80294961E+02</pdfrwt>
<pdfrwt beam="2">  1       -1 0.12514604E-01 0.80294961E+02</pdfrwt>
<totfact> 0.12261904E+05</totfact>
</mgrwt>
</event>
<event>
 8    1  0.1226832E-016  0.8141986E+02  0.7818608E-02  0.1325070E+00
          2   -1    0    0  501    0  0.00000000000E+00  0.00000000000E+00  0.42794966170E+02  0.42794966246E+02  0.25500000000E-02 0. -1.
         -1   -1    0    0    0  501 -0.00000000000E+00 -0.00000000000E+00 -0.38726478819E+02  0.38726479147E+02  0.50400000000E-02 0.  1.
         24    2    1    2    0    0  0.35527136788E-14 -0.35527136788E-14  0.40684873515E+01  0.81521445393E+02  0.81419859185E+02 0.  0.
         66    2    3    3    0    0  0.15939378312E+02 -0.14717791554E+02  0.36496664915E+02  0.42505102236E+02  0.19999992421E+01 0.  0.
        -13    1    3    3    0    0 -0.15939378312E+02  0.14717791554E+02 -0.32428177564E+02  0.39016343157E+02  0.10566000000E+00 0.  1.
         13    1    4    4    0    0  0.42845704819E+01 -0.34066936455E+01  0.86629548386E+01  0.10247978161E+02  0.10566000000E+00 0. -1.
        -13    1    4    4    0    0  0.41287537136E+01 -0.48882777909E+01  0.11486627392E+02  0.13148978663E+02  0.10566000000E+00 0.  1.
        -14    1    4    4    0    0  0.75260541163E+01 -0.64228201179E+01  0.16347082684E+02  0.19108145413E+02  0.00000000000E+00 0.  1.
<mgrwt>
<rscale>  0 0.81419859E+02</rscale>
<asrwt>0</asrwt>
<pdfrwt beam="1">  1        2 0.65838410E-02 0.81419859E+02</pdfrwt>
<pdfrwt beam="2">  1       -1 0.59579199E-02 0.81419859E+02</pdfrwt>
<totfact> 0.13770803E+05</totfact>
</mgrwt>
</event>
<event>
 8    1  0.1226832E-016  0.8102730E+02  0.7818608E-02  0.1326161E+00
         -1   -1    0    0    0  501 -0.00000000000E+00  0.00000000000E+00  0.11601949630E+03  0.11601949641E+03  0.50400000000E-02 0.  1.
          2   -1    0    0  501    0  0.00000000000E+00 -0.00000000000E+00 -0.14147242060E+02  0.14147242290E+02  0.25500000000E-02 0. -1.
         24    2    1    2    0    0  0.00000000000E+00  0.00000000000E+00  0.10187225424E+03  0.13016673870E+03  0.81027302063E+02 0.  0.
         66    2    3    3    0    0 -0.21766230893E+02  0.18972463762E+02  0.53701168495E+01  0.29437413905E+02  0.19999984908E+01 0.  0.
        -13    1    3    3    0    0  0.21766230893E+02 -0.18972463762E+02  0.96502137388E+02  0.10072932479E+03  0.10566000000E+00 0.  1.
         13    1    4    4    0    0 -0.12308417171E+02  0.11489978061E+02  0.26228604866E+01  0.17041340624E+02  0.10566000000E+00 0. -1.
        -13    1    4    4    0    0 -0.85257317381E+01  0.65826254071E+01  0.26726604228E+01  0.11098348377E+02  0.10566000000E+00 0.  1.
        -14    1    4    4    0    0 -0.93208198360E+00  0.89986029446E+00  0.74595940076E-01  0.12977249046E+01  0.00000000000E+00 0.  1.
<mgrwt>
<rscale>  0 0.81027302E+02</rscale>
<asrwt>0</asrwt>
<pdfrwt beam="1">  1        2 0.21764989E-02 0.81027302E+02</pdfrwt>
<pdfrwt beam="2">  1       -1 0.17849152E-01 0.81027302E+02</pdfrwt>
<totfact> 0.11110966E+05</totfact>
</mgrwt>
</event>
<event>
 8    1  0.1226832E-016  0.8119958E+02  0.7818608E-02  0.1325681E+00
         -1   -1    0    0    0  501 -0.00000000000E+00  0.00000000000E+00  0.10343912165E+01  0.10344034950E+01  0.50400000000E-02 0.  1.
          2   -1    0    0  501    0  0.00000000000E+00 -0.00000000000E+00 -0.15935296111E+04  0.15935296111E+04  0.25500000000E-02 0. -1.
         24    2    1    2    0    0  0.35527136788E-14  0.00000000000E+00 -0.15924952198E+04  0.15945640146E+04  0.81199576943E+02 0.  0.
         66    2    3    3    0    0  0.13479493169E+02  0.10847286833E+02 -0.15174522842E+04  0.15175522380E+04  0.20000001801E+01 0.  0.
        -13    1    3    3    0    0 -0.13479493169E+02 -0.10847286833E+02 -0.75042935656E+02  0.77011776526E+02  0.10566000000E+00 0.  1.
         13    1    4    4    0    0  0.70849886125E+01  0.59615592703E+01 -0.78454845179E+03  0.78460309815E+03  0.10566000000E+00 0. -1.
        -13    1    4    4    0    0  0.21200249031E+01  0.10865081215E+01 -0.25287439875E+03  0.25288564157E+03  0.10566000000E+00 0.  1.
        -14    1    4    4    0    0  0.42744796530E+01  0.37992194411E+01 -0.48002943364E+03  0.48006349831E+03  0.00000000000E+00 0.  1.
<mgrwt>
<rscale>  0 0.81199577E+02</rscale>
<asrwt>0</asrwt>
<pdfrwt beam="1">  1        2 0.24515644E+00 0.81199577E+02</pdfrwt>
<pdfrwt beam="2">  1       -1 0.15913933E-03 0.81199577E+02</pdfrwt>
<totfact> 0.31182364E+05</totfact>
</mgrwt>
</event>
<event>
 8    1  0.1226832E-016  0.7673576E+02  0.7818608E-02  0.1338579E+00
          2   -1    0    0  501    0  0.00000000000E+00  0.00000000000E+00  0.11951116876E+04  0.11951116876E+04  0.25500000000E-02 0. -1.
         -1   -1    0    0    0  501 -0.00000000000E+00 -0.00000000000E+00 -0.12317578321E+01  0.12317681432E+01  0.50400000000E-02 0.  1.
         24    2    1    2    0    0  0.00000000000E+00  0.00000000000E+00  0.11938799298E+04  0.11963434557E+04  0.76735763522E+02 0.  0.
         66    2    3    3    0    0 -0.91238067380E+01 -0.56181865034E+01  0.11712927068E+04  0.11713434223E+04  0.19999961134E+01 0.  0.
        -13    1    3    3    0    0  0.91238067380E+01  0.56181865034E+01  0.22587222925E+02  0.25000033450E+02  0.10566000000E+00 0.  1.
         13    1    4    4    0    0 -0.43917751845E+01 -0.25462486910E+01  0.52084056701E+03  0.52086531702E+03  0.10566000000E+00 0. -1.
        -13    1    4    4    0    0 -0.42482886667E+01 -0.26053290196E+01  0.61015559964E+03  0.61017596038E+03  0.10566000000E+00 0.  1.
        -14    1    4    4    0    0 -0.48374288685E+00 -0.46660879280E+00  0.40296540190E+02  0.40302144884E+02  0.00000000000E+00 0.  1.
<mgrwt>
<rscale>  0 0.76735764E+02</rscale>
<asrwt>0</asrwt>
<pdfrwt beam="1">  1        2 0.18386255E+00 0.76735764E+02</pdfrwt>
<pdfrwt beam="2">  1       -1 0.18950281E-03 0.76735764E+02</pdfrwt>
<totfact> 0.39048267E+05</totfact>
</mgrwt>
</event>
<event>
 8    1  0.1226832E-016  0.8005973E+02  0.7818608E-02  0.1328882E+00
         -1   -1    0    0    0  501 -0.00000000000E+00  0.00000000000E+00  0.33768033136E+02  0.33768033512E+02  0.50400000000E-02 0.  1.
          2   -1    0    0  501    0  0.00000000000E+00 -0.00000000000E+00 -0.47452867572E+02  0.47452867641E+02  0.25500000000E-02 0. -1.
         24    2    1    2    0    0  0.00000000000E+00 -0.35527136788E-14 -0.13684834436E+02  0.81220901153E+02  0.80059728269E+02 0.  0.
         66    2    3    3    0    0 -0.29727979757E+02  0.23289684652E+02 -0.20237467820E+02  0.42891925691E+02  0.19999985307E+01 0.  0.
        -13    1    3    3    0    0  0.29727979757E+02 -0.23289684652E+02  0.65526333838E+01  0.38328975461E+02  0.10566000000E+00 0.  1.
         13    1    4    4    0    0 -0.69041358997E+00  0.59847616242E+00 -0.70033732088E+00  0.11560627322E+01  0.10566000000E+00 0. -1.
        -13    1    4    4    0    0 -0.12272031196E+02  0.93123086057E+01 -0.89358580024E+01  0.17809619971E+02  0.10566000000E+00 0.  1.
         14    1    4    4    0    0 -0.16765534971E+02  0.13378899884E+02 -0.10601272497E+02  0.23926242988E+02  0.00000000000E+00 0. -1.
<mgrwt>
<rscale>  0 0.80059728E+02</rscale>
<asrwt>0</asrwt>
<pdfrwt beam="1">  1        2 0.73004412E-02 0.80059728E+02</pdfrwt>
<pdfrwt beam="2">  1       -1 0.51950821E-02 0.80059728E+02</pdfrwt>
<totfact> 0.14744942E+05</totfact>
</mgrwt>
</event>
<event>
 8    1  0.1226832E-016  0.7972635E+02  0.7818608E-02  0.1329830E+00
          2   -1    0    0  501    0  0.00000000000E+00  0.00000000000E+00  0.43501056755E+03  0.43501056756E+03  0.25500000000E-02 0. -1.
         -1   -1    0    0    0  501 -0.00000000000E+00 -0.00000000000E+00 -0.36529505965E+01  0.36529540734E+01  0.50400000000E-02 0.  1.
         24    2    1    2    0    0  0.00000000000E+00  0.71054273576E-14  0.43135761695E+03  0.43866352163E+03  0.79726353898E+02 0.  0.
         66    2    3    3    0    0  0.11360515484E+02  0.38163353127E+02  0.22269750188E+03  0.22623810502E+03  0.19999968823E+01 0.  0.
        -13    1    3    3    0    0 -0.11360515484E+02 -0.38163353127E+02  0.20866011508E+03  0.21242541661E+03  0.10566000000E+00 0.  1.
         13    1    4    4    0    0  0.50831328376E+01  0.16240741349E+02  0.94118099684E+02  0.95644277253E+02  0.10566000000E+00 0. -1.
        -13    1    4    4    0    0  0.17336628512E+01  0.45166894355E+01  0.25043437113E+02  0.25506684944E+02  0.10566000000E+00 0.  1.
         14    1    4    4    0    0  0.45437197949E+01  0.17405922342E+02  0.10353596508E+03  0.10508714283E+03  0.00000000000E+00 0. -1.
<mgrwt>
<rscale>  0 0.79726354E+02</rscale>
<asrwt>0</asrwt>
<pdfrwt beam="1">  1        2 0.66924747E-01 0.79726354E+02</pdfrwt>
<pdfrwt beam="2">  1       -1 0.56199230E-03 0.79726354E+02</pdfrwt>
<totfact> 0.29344826E+05</totfact>
</mgrwt>
</event>
<event>
 8    1  0.1226832E-016  0.8121554E+02  0.7818608E-02  0.1325637E+00
         -1   -1    0    0    0  501 -0.00000000000E+00  0.00000000000E+00  0.25454282675E+01  0.25454332572E+01  0.50400000000E-02 0.  1.
          2   -1    0    0  501    0  0.00000000000E+00 -0.00000000000E+00 -0.64782388458E+03  0.64782388459E+03  0.25500000000E-02 0. -1.
         24    2    1    2    0    0  0.00000000000E+00  0.00000000000E+00 -0.64527845632E+03  0.65036931785E+03  0.81215536750E+02 0.  0.
         66    2    3    3    0    0 -0.19219745606E+02 -0.17615778282E+02 -0.57188927233E+03  0.57248672829E+03  0.19999992675E+01 0.  0.
        -13    1    3    3    0    0  0.19219745606E+02  0.17615778282E+02 -0.73389183987E+02  0.77882589556E+02  0.10566000000E+00 0.  1.
         13    1    4    4    0    0 -0.89695834476E+01 -0.84040251978E+01 -0.26462637584E+03  0.26491170420E+03  0.10566000000E+00 0. -1.
        -13    1    4    4    0    0 -0.89033960060E+01 -0.76559611555E+01 -0.27019399574E+03  0.27044905380E+03  0.10566000000E+00 0.  1.
         14    1    4    4    0    0 -0.13467661528E+01 -0.15557919288E+01 -0.37068900744E+02  0.37125970290E+02  0.00000000000E+00 0. -1.
<mgrwt>
<rscale>  0 0.81215537E+02</rscale>
<asrwt>0</asrwt>
<pdfrwt beam="1">  1        2 0.99665082E-01 0.81215537E+02</pdfrwt>
<pdfrwt beam="2">  1       -1 0.39160525E-03 0.81215537E+02</pdfrwt>
<totfact> 0.31565704E+05</totfact>
</mgrwt>
</event>
<event>
 8    1  0.1226832E-016  0.8410658E+02  0.7818608E-02  0.1317786E+00
          2   -1    0    0  501    0  0.00000000000E+00  0.00000000000E+00  0.26022167794E+03  0.26022167795E+03  0.25500000000E-02 0. -1.
         -1   -1    0    0    0  501 -0.00000000000E+00 -0.00000000000E+00 -0.67960470636E+01  0.67960489325E+01  0.50400000000E-02 0.  1.
         24    2    1    2    0    0 -0.88817841970E-15  0.00000000000E+00  0.25342563088E+03  0.26701772689E+03  0.84106575758E+02 0.  0.
         66    2    3    3    0    0  0.57109906562E+01 -0.40148670328E+02  0.16184236186E+03  0.16685766762E+03  0.20000022852E+01 0.  0.
        -13    1    3    3    0    0 -0.57109906562E+01  0.40148670328E+02  0.91583269019E+02  0.10016005926E+03  0.10566000000E+00 0.  1.
         13    1    4    4    0    0  0.13522656254E+01 -0.95036886210E+01  0.39545918054E+02  0.40694465453E+02  0.10566000000E+00 0. -1.
        -13    1    4    4    0    0  0.34288199583E+01 -0.26162803129E+02  0.10614462720E+03  0.10937523541E+03  0.10566000000E+00 0.  1.
        -14    1    4    4    0    0  0.92990507255E+00 -0.44821785777E+01  0.16151816607E+02  0.16787966761E+02  0.00000000000E+00 0.  1.
<mgrwt>
<rscale>  0 0.84106576E+02</rscale>
<asrwt>0</asrwt>
<pdfrwt beam="1">  1        2 0.40034104E-01 0.84106576E+02</pdfrwt>
<pdfrwt beam="2">  1       -1 0.10455458E-02 0.84106576E+02</pdfrwt>
<totfact> 0.21223481E+05</totfact>
</mgrwt>
</event>
<event>
 8    1  0.1226832E-016  0.8215615E+02  0.7818608E-02  0.1323042E+00
         -1   -1    0    0    0  501 -0.00000000000E+00  0.00000000000E+00  0.37169907139E+02  0.37169907480E+02  0.50400000000E-02 0.  1.
          2   -1    0    0  501    0  0.00000000000E+00 -0.00000000000E+00 -0.45397158854E+02  0.45397158925E+02  0.25500000000E-02 0. -1.
         24    2    1    2    0    0  0.71054273576E-14  0.88817841970E-15 -0.82272517151E+01  0.82567066406E+02  0.82156148790E+02 0.  0.
         66    2    3    3    0    0 -0.39231779563E+02 -0.62303960752E+01 -0.14533850047E+02  0.42345993452E+02  0.20000003237E+01 0.  0.
        -13    1    3    3    0    0  0.39231779563E+02  0.62303960752E+01  0.63065983320E+01  0.40221072953E+02  0.10566000000E+00 0.  1.
         13    1    4    4    0    0 -0.29006225301E+02 -0.50471625807E+01 -0.10891451878E+02  0.31392194004E+02  0.10566000000E+00 0. -1.
        -13    1    4    4    0    0 -0.17108571701E+01 -0.22345484287E+00 -0.29027526377E+00  0.17528228911E+01  0.10566000000E+00 0.  1.
        -14    1    4    4    0    0 -0.85146970925E+01 -0.95977865162E+00 -0.33521229056E+01  0.92009765575E+01  0.00000000000E+00 0.  1.
<mgrwt>
<rscale>  0 0.82156149E+02</rscale>
<asrwt>0</asrwt>
<pdfrwt beam="1">  1        2 0.69841782E-02 0.82156149E+02</pdfrwt>
<pdfrwt beam="2">  1       -1 0.57184473E-02 0.82156149E+02</pdfrwt>
<totfact> 0.13602329E+05</totfact>
</mgrwt>
</event>
<event>
 8    1  0.1226832E-016  0.7901447E+02  0.7818608E-02  0.1331872E+00
          2   -1    0    0  501    0  0.00000000000E+00  0.00000000000E+00  0.55485679979E+02  0.55485680038E+02  0.25500000000E-02 0. -1.
         -1   -1    0    0    0  501 -0.00000000000E+00 -0.00000000000E+00 -0.28130169172E+02  0.28130169624E+02  0.50400000000E-02 0.  1.
         24    2    1    2    0    0 -0.35527136788E-14  0.00000000000E+00  0.27355510807E+02  0.83615849662E+02  0.79014469201E+02 0.  0.
         66    2    3    3    0    0  0.21895653937E+02 -0.18904515644E+02  0.42121640727E+02  0.51137393264E+02  0.19999998053E+01 0.  0.
        -13    1    3    3    0    0 -0.21895653937E+02  0.18904515644E+02 -0.14766129920E+02  0.32478456397E+02  0.10566000000E+00 0.  1.
         13    1    4    4    0    0  0.68345288378E+01 -0.52078794514E+01  0.13588393865E+02  0.16077574589E+02  0.10566000000E+00 0. -1.
        -13    1    4    4    0    0  0.52196299162E+01 -0.42659714834E+01  0.94946690423E+01  0.11644868115E+02  0.10566000000E+00 0.  1.
        -14    1    4    4    0    0  0.98414951834E+01 -0.94306647095E+01  0.19038577820E+02  0.23414950560E+02  0.00000000000E+00 0.  1.
<mgrwt>
<rscale>  0 0.79014469E+02</rscale>
<asrwt>0</asrwt>
<pdfrwt beam="1">  1        2 0.85362584E-02 0.79014469E+02</pdfrwt>
<pdfrwt beam="2">  1       -1 0.43277184E-02 0.79014469E+02</pdfrwt>
<totfact> 0.15816730E+05</totfact>
</mgrwt>
</event>
<event>
 8    1  0.1226832E-016  0.8012091E+02  0.7818608E-02  0.1328709E+00
         -1   -1    0    0    0  501 -0.00000000000E+00  0.00000000000E+00  0.97765262588E+02  0.97765262718E+02  0.50400000000E-02 0.  1.
          2   -1    0    0  501    0  0.00000000000E+00 -0.00000000000E+00 -0.16415239300E+02  0.16415239498E+02  0.25500000000E-02 0. -1.
         24    2    1    2    0    0  0.71054273576E-14  0.17763568394E-14  0.81350023288E+02  0.11418050222E+03  0.80120913608E+02 0.  0.
         66    2    3    3    0    0  0.37188464015E+02  0.10116951721E+02  0.25252500908E+02  0.46119663629E+02  0.20000008067E+01 0.  0.
        -13    1    3    3    0    0 -0.37188464015E+02 -0.10116951721E+02  0.56097522380E+02  0.68060838587E+02  0.10566000000E+00 0.  1.
         13    1    4    4    0    0  0.42838733619E+01  0.77584789486E+00  0.26698255122E+01  0.51080958525E+01  0.10566000000E+00 0. -1.
        -13    1    4    4    0    0  0.14404374750E+02  0.40529014042E+01  0.90471132711E+01  0.17486378822E+02  0.10566000000E+00 0.  1.
         14    1    4    4    0    0  0.18500215903E+02  0.52882024220E+01  0.13535562125E+02  0.23525188955E+02  0.00000000000E+00 0. -1.
<mgrwt>
<rscale>  0 0.80120914E+02</rscale>
<asrwt>0</asrwt>
<pdfrwt beam="1">  1        2 0.25254214E-02 0.80120914E+02</pdfrwt>
<pdfrwt beam="2">  1       -1 0.15040810E-01 0.80120914E+02</pdfrwt>
<totfact> 0.11865633E+05</totfact>
</mgrwt>
</event>
<event>
 8    1  0.1226832E-016  0.7931291E+02  0.7818608E-02  0.1331013E+00
         -1   -1    0    0    0  501 -0.00000000000E+00  0.00000000000E+00  0.42965110810E+01  0.42965140371E+01  0.50400000000E-02 0.  1.
          2   -1    0    0  501    0  0.00000000000E+00 -0.00000000000E+00 -0.36602578822E+03  0.36602578823E+03  0.25500000000E-02 0. -1.
         24    2    1    2    0    0 -0.88817841970E-15 -0.35527136788E-14 -0.36172927714E+03  0.37032230227E+03  0.79312909517E+02 0.  0.
         66    2    3    3    0    0 -0.69549168835E+01 -0.15600408070E+02 -0.34795448861E+03  0.34837920395E+03  0.19999992050E+01 0.  0.
        -13    1    3    3    0    0  0.69549168835E+01  0.15600408070E+02 -0.13774788526E+02  0.21943098318E+02  0.10566000000E+00 0.  1.
         13    1    4    4    0    0 -0.12497343792E+01 -0.20895619003E+01 -0.47692857570E+02  0.47755082789E+02  0.10566000000E+00 0. -1.
        -13    1    4    4    0    0 -0.20421830953E+01 -0.53002649220E+01 -0.13253368739E+03  0.13265539106E+03  0.10566000000E+00 0.  1.
         14    1    4    4    0    0 -0.36629994089E+01 -0.82105812481E+01 -0.16772794365E+03  0.16796873010E+03  0.00000000000E+00 0. -1.
<mgrwt>
<rscale>  0 0.79312910E+02</rscale>
<asrwt>0</asrwt>
<pdfrwt beam="1">  1        2 0.56311635E-01 0.79312910E+02</pdfrwt>
<pdfrwt beam="2">  1       -1 0.66100222E-03 0.79312910E+02</pdfrwt>
<totfact> 0.28006701E+05</totfact>
</mgrwt>
</event>
<event>
 8    1  0.1226832E-016  0.8058141E+02  0.7818608E-02  0.1327410E+00
         -1   -1    0    0    0  501 -0.00000000000E+00  0.00000000000E+00  0.55104590792E+01  0.55104613841E+01  0.50400000000E-02 0.  1.
          2   -1    0    0  501    0  0.00000000000E+00 -0.00000000000E+00 -0.29459259912E+03  0.29459259913E+03  0.25500000000E-02 0. -1.
         24    2    1    2    0    0  0.00000000000E+00  0.00000000000E+00 -0.28908214004E+03  0.30010306052E+03  0.80581407533E+02 0.  0.
         66    2    3    3    0    0 -0.23389516290E+02 -0.12705392691E+02 -0.25715064648E+03  0.25853230252E+03  0.19999956734E+01 0.  0.
        -13    1    3    3    0    0  0.23389516290E+02  0.12705392691E+02 -0.31931493561E+02  0.41570758001E+02  0.10566000000E+00 0.  1.
         13    1    4    4    0    0 -0.14242769375E+02 -0.77973881194E+01 -0.16272144854E+03  0.16352962032E+03  0.10566000000E+00 0. -1.
        -13    1    4    4    0    0 -0.12121544203E+00 -0.34183294538E-01 -0.13290934447E+01  0.13392218268E+01  0.10566000000E+00 0. -1.
         14    1    4    4    0    0 -0.90255314724E+01 -0.48738212771E+01 -0.93100104494E+02  0.93663460372E+02  0.00000000000E+00 0. -1.
<mgrwt>
<rscale>  0 0.80581408E+02</rscale>
<asrwt>0</asrwt>
<pdfrwt beam="1">  1        2 0.45321926E-01 0.80581408E+02</pdfrwt>
<pdfrwt beam="2">  1       -1 0.84776335E-03 0.80581408E+02</pdfrwt>
<totfact> 0.24850510E+05</totfact>
</mgrwt>
</event>
<event>
 8    1  0.1300094E-016  0.8971356E+02  0.7818608E-02  0.1303547E+00
         -1   -1    0    0    0  501 -0.00000000000E+00  0.00000000000E+00  0.73192564438E+00  0.73194299675E+00  0.50400000000E-02 0.  1.
          2   -1    0    0  501    0  0.00000000000E+00 -0.00000000000E+00 -0.27490591744E+04  0.27490591744E+04  0.25500000000E-02 0. -1.
         24    2    1    2    0    0  0.88817841970E-15  0.88817841970E-15 -0.27483272487E+04  0.27497911174E+04  0.89713561226E+02 0.  0.
         66    2    3    3    0    0 -0.76646094530E+01 -0.64609589061E+01 -0.27142648519E+04  0.27142841002E+04  0.19999990074E+01 0.  0.
        -13    1    3    3    0    0  0.76646094530E+01  0.64609589061E+01 -0.34062396802E+02  0.35507017165E+02  0.10566000000E+00 0.  1.
         13    1    4    4    0    0 -0.25883282218E+01 -0.19240847321E+01 -0.74492821972E+03  0.74493520876E+03  0.10566000000E+00 0. -1.
        -13    1    4    4    0    0 -0.32668263375E+01 -0.20026795605E+01 -0.11075910766E+04  0.11075977099E+04  0.10566000000E+00 0.  1.
        -14    1    4    4    0    0 -0.18094548937E+01 -0.25341946136E+01 -0.86174555564E+03  0.86175118157E+03  0.00000000000E+00 0.  1.
<mgrwt>
<rscale>  0 0.89713561E+02</rscale>
<asrwt>0</asrwt>
<pdfrwt beam="1">  1        2 0.42292391E+00 0.89713561E+02</pdfrwt>
<pdfrwt beam="2">  1       -1 0.11260748E-03 0.89713561E+02</pdfrwt>
<totfact> 0.13017519E+05</totfact>
</mgrwt>
</event>
<event>
 8    1  0.1226832E-016  0.7751485E+02  0.7818608E-02  0.1336256E+00
          2   -1    0    0  501    0  0.00000000000E+00  0.00000000000E+00  0.24940023370E+02  0.24940023500E+02  0.25500000000E-02 0. -1.
         -1   -1    0    0    0  501 -0.00000000000E+00 -0.00000000000E+00 -0.60230019974E+02  0.60230020184E+02  0.50400000000E-02 0.  1.
         24    2    1    2    0    0  0.88817841970E-15  0.00000000000E+00 -0.35289996604E+02  0.85170043684E+02  0.77514853292E+02 0.  0.
         66    2    3    3    0    0  0.78845763352E+01  0.15553167954E+02  0.20342924517E+02  0.26868237075E+02  0.20000020512E+01 0.  0.
        -13    1    3    3    0    0 -0.78845763352E+01 -0.15553167954E+02 -0.55632921121E+02  0.58301806609E+02  0.10566000000E+00 0.  1.
         13    1    4    4    0    0  0.53218481808E+01  0.87195098953E+01  0.11954302911E+02  0.15724771636E+02  0.10566000000E+00 0.  1.
        -13    1    4    4    0    0  0.24093242470E+01  0.57931859538E+01  0.73663717396E+01  0.96767992365E+01  0.10566000000E+00 0. -1.
         14    1    4    4    0    0  0.15340390744E+00  0.10404721048E+01  0.10222498667E+01  0.14666662026E+01  0.00000000000E+00 0. -1.
<mgrwt>
<rscale>  0 0.77514853E+02</rscale>
<asrwt>0</asrwt>
<pdfrwt beam="1">  1        2 0.38369267E-02 0.77514853E+02</pdfrwt>
<pdfrwt beam="2">  1       -1 0.92661570E-02 0.77514853E+02</pdfrwt>
<totfact> 0.14183505E+05</totfact>
</mgrwt>
</event>
<event>
 8    1  0.1226832E-016  0.7975120E+02  0.7818608E-02  0.1329759E+00
          2   -1    0    0  501    0  0.00000000000E+00  0.00000000000E+00  0.14103935564E+02  0.14103935794E+02  0.25500000000E-02 0. -1.
         -1   -1    0    0    0  501 -0.00000000000E+00 -0.00000000000E+00 -0.11273898397E+03  0.11273898409E+03  0.50400000000E-02 0.  1.
         24    2    1    2    0    0  0.00000000000E+00 -0.35527136788E-14 -0.98635048410E+02  0.12684291988E+03  0.79751197790E+02 0.  0.
         66    2    3    3    0    0  0.62196606531E+01 -0.27453688545E+02 -0.44847317348E+01  0.28574499279E+02  0.19999992439E+01 0.  0.
        -13    1    3    3    0    0 -0.62196606531E+01  0.27453688545E+02 -0.94150316675E+02  0.98268420601E+02  0.10566000000E+00 0.  1.
         13    1    4    4    0    0  0.16732438399E+01 -0.53872023290E+01 -0.60540641571E+00  0.56744492988E+01  0.10566000000E+00 0. -1.
        -13    1    4    4    0    0  0.87698933418E+00 -0.24397782240E+01 -0.63595693875E+00  0.26715600944E+01  0.10566000000E+00 0.  1.
        -14    1    4    4    0    0  0.36694274790E+01 -0.19626707992E+02 -0.32433683803E+01  0.20228489886E+02  0.00000000000E+00 0.  1.
<mgrwt>
<rscale>  0 0.79751198E+02</rscale>
<asrwt>0</asrwt>
<pdfrwt beam="1">  1        2 0.21698363E-02 0.79751198E+02</pdfrwt>
<pdfrwt beam="2">  1       -1 0.17344459E-01 0.79751198E+02</pdfrwt>
<totfact> 0.11636709E+05</totfact>
</mgrwt>
</event>
<event>
 8    1  0.1226832E-016  0.7963809E+02  0.7818608E-02  0.1330082E+00
          2   -1    0    0  501    0  0.00000000000E+00  0.00000000000E+00  0.38191101084E+03  0.38191101085E+03  0.25500000000E-02 0. -1.
         -1   -1    0    0    0  501 -0.00000000000E+00 -0.00000000000E+00 -0.41516364327E+01  0.41516394920E+01  0.50400000000E-02 0.  1.
         24    2    1    2    0    0  0.00000000000E+00 -0.44408920985E-15  0.37775937441E+03  0.38606265034E+03  0.79638087843E+02 0.  0.
         66    2    3    3    0    0 -0.35466384905E+02  0.33566829909E+01  0.27495755169E+03  0.27726302858E+03  0.20000006226E+01 0.  0.
        -13    1    3    3    0    0  0.35466384905E+02 -0.33566829909E+01  0.10280182271E+03  0.10879962176E+03  0.10566000000E+00 0.  1.
         13    1    4    4    0    0 -0.14006750357E+02  0.17637507324E+01  0.10672828525E+03  0.10765796723E+03  0.10566000000E+00 0. -1.
        -13    1    4    4    0    0 -0.49270852173E+01  0.54521463188E+00  0.42971353107E+02  0.43256465177E+02  0.10566000000E+00 0.  1.
         14    1    4    4    0    0 -0.16532549331E+02  0.10477176266E+01  0.12525791334E+03  0.12634859616E+03  0.00000000000E+00 0. -1.
<mgrwt>
<rscale>  0 0.79638088E+02</rscale>
<asrwt>0</asrwt>
<pdfrwt beam="1">  1        2 0.58755567E-01 0.79638088E+02</pdfrwt>
<pdfrwt beam="2">  1       -1 0.63871324E-03 0.79638088E+02</pdfrwt>
<totfact> 0.28128905E+05</totfact>
</mgrwt>
</event>
<event>
 8    1  0.1226832E-016  0.7917546E+02  0.7818608E-02  0.1331408E+00
          2   -1    0    0  501    0  0.00000000000E+00  0.00000000000E+00  0.46302361896E+02  0.46302361966E+02  0.25500000000E-02 0. -1.
         -1   -1    0    0    0  501 -0.00000000000E+00 -0.00000000000E+00 -0.33846829937E+02  0.33846830313E+02  0.50400000000E-02 0.  1.
         24    2    1    2    0    0  0.00000000000E+00 -0.88817841970E-15  0.12455531959E+02  0.80149192279E+02  0.79175455455E+02 0.  0.
         66    2    3    3    0    0  0.84446099608E+01 -0.76574082896E+01  0.44582157544E+02  0.46059918678E+02  0.19999995505E+01 0.  0.
        -13    1    3    3    0    0 -0.84446099608E+01  0.76574082896E+01 -0.32126625585E+02  0.34089273601E+02  0.10566000000E+00 0.  1.
         13    1    4    4    0    0  0.22132684041E+01 -0.20152909263E+01  0.10351750280E+02  0.10776356177E+02  0.10566000000E+00 0. -1.
        -13    1    4    4    0    0  0.59020252365E+01 -0.46623363293E+01  0.29975455226E+02  0.30904859844E+02  0.10566000000E+00 0.  1.
         14    1    4    4    0    0  0.32931632018E+00 -0.97978103403E+00  0.42549520374E+01  0.43787026565E+01  0.00000000000E+00 0. -1.
<mgrwt>
<rscale>  0 0.79175455E+02</rscale>
<asrwt>0</asrwt>
<pdfrwt beam="1">  1        2 0.71234403E-02 0.79175455E+02</pdfrwt>
<pdfrwt beam="2">  1       -1 0.52072047E-02 0.79175455E+02</pdfrwt>
<totfact> 0.15121966E+05</totfact>
</mgrwt>
</event>
<event>
 8    1  0.1226832E-016  0.7896057E+02  0.7818608E-02  0.1332027E+00
          2   -1    0    0  501    0  0.00000000000E+00  0.00000000000E+00  0.32604615749E+03  0.32604615750E+03  0.25500000000E-02 0. -1.
         -1   -1    0    0    0  501 -0.00000000000E+00 -0.00000000000E+00 -0.47805878238E+01  0.47805904806E+01  0.50400000000E-02 0.  1.
         24    2    1    2    0    0 -0.35527136788E-14  0.00000000000E+00  0.32126556966E+03  0.33082674798E+03  0.78960565641E+02 0.  0.
         66    2    3    3    0    0 -0.18820718527E+02 -0.14732568633E+02  0.29225833908E+03  0.29324086479E+03  0.20000000381E+01 0.  0.
        -13    1    3    3    0    0  0.18820718527E+02  0.14732568633E+02  0.29007230584E+02  0.37585883182E+02  0.10566000000E+00 0.  1.
         13    1    4    4    0    0 -0.37924600023E+01 -0.30184033973E+01  0.55223349902E+02  0.55435756064E+02  0.10566000000E+00 0. -1.
        -13    1    4    4    0    0 -0.55704571215E+00 -0.14794035683E+00  0.59779355560E+01  0.60065850383E+01  0.10566000000E+00 0.  1.
        -14    1    4    4    0    0 -0.14471212812E+02 -0.11566224879E+02  0.23105705362E+03  0.23179852369E+03  0.00000000000E+00 0.  1.
<mgrwt>
<rscale>  0 0.78960566E+02</rscale>
<asrwt>0</asrwt>
<pdfrwt beam="1">  1        2 0.50160960E-01 0.78960566E+02</pdfrwt>
<pdfrwt beam="2">  1       -1 0.73547507E-03 0.78960566E+02</pdfrwt>
<totfact> 0.27187724E+05</totfact>
</mgrwt>
</event>
<event>
 8    1  0.1226832E-016  0.8065314E+02  0.7818608E-02  0.1327208E+00
          2   -1    0    0  501    0  0.00000000000E+00  0.00000000000E+00  0.45897881240E+03  0.45897881241E+03  0.25500000000E-02 0. -1.
         -1   -1    0    0    0  501 -0.00000000000E+00 -0.00000000000E+00 -0.35431511632E+01  0.35431547478E+01  0.50400000000E-02 0.  1.
         24    2    1    2    0    0  0.00000000000E+00 -0.35527136788E-14  0.45543566124E+03  0.46252196716E+03  0.80653137414E+02 0.  0.
         66    2    3    3    0    0 -0.18148862532E+02  0.18883860089E+02  0.40351606491E+03  0.40437012256E+03  0.19999988148E+01 0.  0.
        -13    1    3    3    0    0  0.18148862532E+02 -0.18883860089E+02  0.51919596323E+02  0.58151844592E+02  0.10566000000E+00 0.  1.
         13    1    4    4    0    0 -0.10931473435E+02  0.10823336681E+02  0.22543377534E+03  0.22595804911E+03  0.10566000000E+00 0. -1.
        -13    1    4    4    0    0 -0.39581149284E+01  0.46726579966E+01  0.10566377224E+03  0.10584112780E+03  0.10566000000E+00 0.  1.
        -14    1    4    4    0    0 -0.32592741679E+01  0.33878654111E+01  0.72418517335E+02  0.72570945654E+02  0.00000000000E+00 0.  1.
<mgrwt>
<rscale>  0 0.80653137E+02</rscale>
<asrwt>0</asrwt>
<pdfrwt beam="1">  1        2 0.70612130E-01 0.80653137E+02</pdfrwt>
<pdfrwt beam="2">  1       -1 0.54510042E-03 0.80653137E+02</pdfrwt>
<totfact> 0.28991692E+05</totfact>
</mgrwt>
</event>
<event>
 8    1  0.1226832E-016  0.8002754E+02  0.7818608E-02  0.1328973E+00
         -1   -1    0    0    0  501 -0.00000000000E+00  0.00000000000E+00  0.14720342419E+02  0.14720343282E+02  0.50400000000E-02 0.  1.
          2   -1    0    0  501    0  0.00000000000E+00 -0.00000000000E+00 -0.10876795508E+03  0.10876795511E+03  0.25500000000E-02 0. -1.
         24    2    1    2    0    0  0.00000000000E+00 -0.17763568394E-14 -0.94047612664E+02  0.12348829840E+03  0.80027535217E+02 0.  0.
         66    2    3    3    0    0  0.38690980787E+02  0.91339672584E+01 -0.40384718760E+02  0.56704028553E+02  0.19999981748E+01 0.  0.
        -13    1    3    3    0    0 -0.38690980787E+02 -0.91339672584E+01 -0.53662893904E+02  0.66784269843E+02  0.10566000000E+00 0.  1.
         13    1    4    4    0    0  0.17577207981E+02  0.34248662057E+01 -0.18495404930E+02  0.25744496820E+02  0.10566000000E+00 0. -1.
        -13    1    4    4    0    0  0.66514541951E+01  0.17046695875E+01 -0.62599380683E+01  0.92922403093E+01  0.10566000000E+00 0.  1.
         14    1    4    4    0    0  0.14462318611E+02  0.40044314651E+01 -0.15629375762E+02  0.21667291424E+02  0.00000000000E+00 0. -1.
<mgrwt>
<rscale>  0 0.80027535E+02</rscale>
<asrwt>0</asrwt>
<pdfrwt beam="1">  1        2 0.16733531E-01 0.80027535E+02</pdfrwt>
<pdfrwt beam="2">  1       -1 0.22646682E-02 0.80027535E+02</pdfrwt>
<totfact> 0.18137824E+05</totfact>
</mgrwt>
</event>
<event>
 8    1  0.1226832E-016  0.8077141E+02  0.7818608E-02  0.1326876E+00
         -1   -1    0    0    0  501 -0.00000000000E+00  0.00000000000E+00  0.24882916143E+01  0.24882967185E+01  0.50400000000E-02 0.  1.
          2   -1    0    0  501    0  0.00000000000E+00 -0.00000000000E+00 -0.65547113647E+03  0.65547113648E+03  0.25500000000E-02 0. -1.
         24    2    1    2    0    0  0.00000000000E+00  0.00000000000E+00 -0.65298284486E+03  0.65795943320E+03  0.80771406157E+02 0.  0.
         66    2    3    3    0    0 -0.86901901430E+01  0.30685354598E+02 -0.52819242304E+03  0.52915814853E+03  0.20000002363E+01 0.  0.
        -13    1    3    3    0    0  0.86901901430E+01 -0.30685354598E+02 -0.12479042181E+03  0.12880128467E+03  0.10566000000E+00 0.  1.
         13    1    4    4    0    0 -0.13247076831E+01  0.49186294385E+01 -0.76866184568E+02  0.77034857436E+02  0.10566000000E+00 0. -1.
        -13    1    4    4    0    0 -0.14343216612E+01  0.61052447325E+01 -0.11419393599E+03  0.11436606784E+03  0.10566000000E+00 0.  1.
         14    1    4    4    0    0 -0.59311607986E+01  0.19661480427E+02 -0.33713230249E+03  0.33775722326E+03  0.00000000000E+00 0. -1.
<mgrwt>
<rscale>  0 0.80771406E+02</rscale>
<asrwt>0</asrwt>
<pdfrwt beam="1">  1        2 0.10084158E+00 0.80771406E+02</pdfrwt>
<pdfrwt beam="2">  1       -1 0.38281501E-03 0.80771406E+02</pdfrwt>
<totfact> 0.32115144E+05</totfact>
</mgrwt>
</event>
<event>
 8    1  0.1226832E-016  0.7569862E+02  0.7818608E-02  0.1341721E+00
          2   -1    0    0  501    0  0.00000000000E+00  0.00000000000E+00  0.96835503994E+01  0.96835507352E+01  0.25500000000E-02 0. -1.
         -1   -1    0    0    0  501 -0.00000000000E+00 -0.00000000000E+00 -0.14793853093E+03  0.14793853101E+03  0.50400000000E-02 0.  1.
         24    2    1    2    0    0  0.00000000000E+00  0.00000000000E+00 -0.13825498053E+03  0.15762208175E+03  0.75698619630E+02 0.  0.
         66    2    3    3    0    0  0.20109164689E+02 -0.17371692251E+02 -0.13132572080E+02  0.29708898472E+02  0.20000007023E+01 0.  0.
        -13    1    3    3    0    0 -0.20109164689E+02  0.17371692251E+02 -0.12512240845E+03  0.12791318327E+03  0.10566000000E+00 0.  1.
         13    1    4    4    0    0  0.16899667995E+02 -0.14779608409E+02 -0.10967656660E+02  0.24986721668E+02  0.10566000000E+00 0. -1.
        -13    1    4    4    0    0  0.30181342003E+01 -0.21924183280E+01 -0.20752173333E+01  0.42700729727E+01  0.10566000000E+00 0.  1.
         14    1    4    4    0    0  0.19136249329E+00 -0.39966551430E+00 -0.89698086670E-01  0.45210383089E+00  0.00000000000E+00 0. -1.
<mgrwt>
<rscale>  0 0.75698620E+02</rscale>
<asrwt>0</asrwt>
<pdfrwt beam="1">  1        2 0.14897771E-02 0.75698620E+02</pdfrwt>
<pdfrwt beam="2">  1       -1 0.22759772E-01 0.75698620E+02</pdfrwt>
<totfact> 0.12446249E+05</totfact>
</mgrwt>
</event>
<event>
 8    1  0.1226832E-016  0.7184125E+02  0.7818608E-02  0.1353941E+00
         -1   -1    0    0    0  501 -0.00000000000E+00  0.00000000000E+00  0.13487628623E+02  0.13487629564E+02  0.50400000000E-02 0.  1.
          2   -1    0    0  501    0  0.00000000000E+00 -0.00000000000E+00 -0.95664796891E+02  0.95664796925E+02  0.25500000000E-02 0. -1.
         24    2    1    2    0    0  0.00000000000E+00  0.00000000000E+00 -0.82177168268E+02  0.10915242649E+03  0.71841250155E+02 0.  0.
         66    2    3    3    0    0  0.28322271960E+02  0.20973309561E+02 -0.30786967044E+02  0.46838746219E+02  0.20000011685E+01 0.  0.
        -13    1    3    3    0    0 -0.28322271960E+02 -0.20973309561E+02 -0.51390201224E+02  0.62313680270E+02  0.10566000000E+00 0.  1.
         13    1    4    4    0    0  0.68679110034E+01  0.50075606569E+01 -0.66438697751E+01  0.10788699408E+02  0.10566000000E+00 0.  1.
        -13    1    4    4    0    0  0.14254623253E+02  0.10173381711E+02 -0.16428963820E+02  0.24012788171E+02  0.10566000000E+00 0. -1.
        -14    1    4    4    0    0  0.71997377042E+01  0.57923671932E+01 -0.77141334489E+01  0.12037258640E+02  0.00000000000E+00 0.  1.
<mgrwt>
<rscale>  0 0.71841250E+02</rscale>
<asrwt>0</asrwt>
<pdfrwt beam="1">  1        2 0.14717661E-01 0.71841250E+02</pdfrwt>
<pdfrwt beam="2">  1       -1 0.20750199E-02 0.71841250E+02</pdfrwt>
<totfact> 0.23315433E+05</totfact>
</mgrwt>
</event>
<event>
 8    1  0.1226832E-016  0.7839969E+02  0.7818608E-02  0.1333655E+00
          2   -1    0    0  501    0  0.00000000000E+00  0.00000000000E+00  0.64140775755E+02  0.64140775806E+02  0.25500000000E-02 0. -1.
         -1   -1    0    0    0  501 -0.00000000000E+00 -0.00000000000E+00 -0.23957114129E+02  0.23957114660E+02  0.50400000000E-02 0.  1.
         24    2    1    2    0    0  0.00000000000E+00  0.00000000000E+00  0.40183661626E+02  0.88097890466E+02  0.78399691599E+02 0.  0.
         66    2    3    3    0    0 -0.81551985627E+01 -0.36816434327E+02  0.32032312747E+02  0.49517937734E+02  0.19999993352E+01 0.  0.
        -13    1    3    3    0    0  0.81551985627E+01  0.36816434327E+02  0.81513488792E+01  0.38579952732E+02  0.10566000000E+00 0.  1.
         13    1    4    4    0    0 -0.40008119756E+01 -0.20949922900E+02  0.18225906556E+02  0.28055313219E+02  0.10566000000E+00 0. -1.
        -13    1    4    4    0    0 -0.31824839161E+01 -0.12523384397E+02  0.10339385217E+02  0.16549242017E+02  0.10566000000E+00 0.  1.
        -14    1    4    4    0    0 -0.97190267104E+00 -0.33431270308E+01  0.34670209733E+01  0.49133824984E+01  0.00000000000E+00 0.  1.
<mgrwt>
<rscale>  0 0.78399692E+02</rscale>
<asrwt>0</asrwt>
<pdfrwt beam="1">  1        2 0.98678117E-02 0.78399692E+02</pdfrwt>
<pdfrwt beam="2">  1       -1 0.36857099E-02 0.78399692E+02</pdfrwt>
<totfact> 0.16701115E+05</totfact>
</mgrwt>
</event>
<event>
 8    1  0.1226832E-016  0.7901850E+02  0.7818608E-02  0.1331860E+00
          2   -1    0    0  501    0  0.00000000000E+00  0.00000000000E+00  0.65059557800E+02  0.65059557850E+02  0.25500000000E-02 0. -1.
         -1   -1    0    0    0  501 -0.00000000000E+00 -0.00000000000E+00 -0.23993103518E+02  0.23993104047E+02  0.50400000000E-02 0.  1.
         24    2    1    2    0    0 -0.35527136788E-14 -0.35527136788E-14  0.41066454283E+02  0.89052661897E+02  0.79018497351E+02 0.  0.
         66    2    3    3    0    0 -0.24688775337E+02  0.21963652083E+02  0.44901691137E+02  0.55786194603E+02  0.20000002264E+01 0.  0.
        -13    1    3    3    0    0  0.24688775337E+02 -0.21963652083E+02 -0.38352368541E+01  0.33266467294E+02  0.10566000000E+00 0.  1.
         13    1    4    4    0    0 -0.28772193451E+00  0.29052015099E+00  0.43444738806E+00  0.60588318867E+00  0.10566000000E+00 0.  1.
        -13    1    4    4    0    0 -0.54099297831E+01  0.41392796860E+01  0.99142980303E+01  0.12029357674E+02  0.10566000000E+00 0.  1.
         14    1    4    4    0    0 -0.18991123619E+02  0.17533852246E+02  0.34552945718E+02  0.43150953741E+02  0.00000000000E+00 0. -1.
<mgrwt>
<rscale>  0 0.79018497E+02</rscale>
<asrwt>0</asrwt>
<pdfrwt beam="1">  1        2 0.10009162E-01 0.79018497E+02</pdfrwt>
<pdfrwt beam="2">  1       -1 0.36912468E-02 0.79018497E+02</pdfrwt>
<totfact> 0.16404183E+05</totfact>
</mgrwt>
</event>
<event>
 8    1  0.1226832E-016  0.8016552E+02  0.7818608E-02  0.1328582E+00
          2   -1    0    0  501    0  0.00000000000E+00  0.00000000000E+00  0.42815117120E+03  0.42815117121E+03  0.25500000000E-02 0. -1.
         -1   -1    0    0    0  501 -0.00000000000E+00 -0.00000000000E+00 -0.37524753876E+01  0.37524787722E+01  0.50400000000E-02 0.  1.
         24    2    1    2    0    0  0.71054273576E-14  0.00000000000E+00  0.42439869581E+03  0.43190364998E+03  0.80165515395E+02 0.  0.
         66    2    3    3    0    0 -0.39466758950E+02 -0.57583862711E+01  0.19228898135E+03  0.19639204775E+03  0.19999987924E+01 0.  0.
        -13    1    3    3    0    0  0.39466758950E+02  0.57583862711E+01  0.23210971446E+03  0.23551160223E+03  0.10566000000E+00 0.  1.
         13    1    4    4    0    0 -0.12422214867E+02 -0.26032172514E+01  0.61468898222E+02  0.62765633709E+02  0.10566000000E+00 0. -1.
        -13    1    4    4    0    0 -0.48412211186E+01 -0.33192535676E+00  0.22247932382E+02  0.22771237465E+02  0.10566000000E+00 0.  1.
         14    1    4    4    0    0 -0.22203322964E+02 -0.28232436629E+01  0.10857215075E+03  0.11085517658E+03  0.00000000000E+00 0. -1.
<mgrwt>
<rscale>  0 0.80165515E+02</rscale>
<asrwt>0</asrwt>
<pdfrwt beam="1">  1        2 0.65869365E-01 0.80165515E+02</pdfrwt>
<pdfrwt beam="2">  1       -1 0.57730457E-03 0.80165515E+02</pdfrwt>
<totfact> 0.28770682E+05</totfact>
</mgrwt>
</event>
<event>
 8    1  0.1226832E-016  0.7910237E+02  0.7818608E-02  0.1331618E+00
          2   -1    0    0  501    0  0.00000000000E+00  0.00000000000E+00  0.73571520416E+03  0.73571520416E+03  0.25500000000E-02 0. -1.
         -1   -1    0    0    0  501 -0.00000000000E+00 -0.00000000000E+00 -0.21262222849E+01  0.21262282583E+01  0.50400000000E-02 0.  1.
         24    2    1    2    0    0  0.00000000000E+00  0.17763568394E-14  0.73358898188E+03  0.73784143242E+03  0.79102370831E+02 0.  0.
         66    2    3    3    0    0 -0.28058907289E+02 -0.85612917146E+01  0.61411378798E+03  0.61481732456E+03  0.20000007500E+01 0.  0.
        -13    1    3    3    0    0  0.28058907289E+02  0.85612917146E+01  0.11947519390E+03  0.12302410786E+03  0.10566000000E+00 0.  1.
         13    1    4    4    0    0 -0.17763659995E+02 -0.50721205726E+01  0.38323698175E+03  0.38368198989E+03  0.10566000000E+00 0. -1.
        -13    1    4    4    0    0 -0.40189646927E+01 -0.19407461016E+01  0.95109981588E+02  0.95214696000E+02  0.10566000000E+00 0.  1.
        -14    1    4    4    0    0 -0.62762826012E+01 -0.15484250404E+01  0.13576682465E+03  0.13592063867E+03  0.00000000000E+00 0.  1.
<mgrwt>
<rscale>  0 0.79102371E+02</rscale>
<asrwt>0</asrwt>
<pdfrwt beam="1">  1        2 0.11318697E+00 0.79102371E+02</pdfrwt>
<pdfrwt beam="2">  1       -1 0.32711155E-03 0.79102371E+02</pdfrwt>
<totfact> 0.34824630E+05</totfact>
</mgrwt>
</event>
<event>
 8    1  0.1226832E-016  0.8011324E+02  0.7818608E-02  0.1328730E+00
         -1   -1    0    0    0  501 -0.00000000000E+00  0.00000000000E+00  0.17076236029E+03  0.17076236036E+03  0.50400000000E-02 0.  1.
          2   -1    0    0  501    0  0.00000000000E+00 -0.00000000000E+00 -0.93962902927E+01  0.93962906387E+01  0.25500000000E-02 0. -1.
         24    2    1    2    0    0  0.00000000000E+00  0.00000000000E+00  0.16136606999E+03  0.18015865100E+03  0.80113238511E+02 0.  0.
         66    2    3    3    0    0 -0.12751833024E+02  0.26443266264E+02  0.19531426141E+02  0.35317590050E+02  0.19999959162E+01 0.  0.
        -13    1    3    3    0    0  0.12751833024E+02 -0.26443266264E+02  0.14183464385E+03  0.14484106095E+03  0.10566000000E+00 0.  1.
         13    1    4    4    0    0 -0.10360058036E+02  0.21114188722E+02  0.16390092573E+02  0.28666811237E+02  0.10566000000E+00 0. -1.
        -13    1    4    4    0    0 -0.24125822453E+00  0.43312048196E+00  0.17871506988E+00  0.53749604147E+00  0.10566000000E+00 0. -1.
        -14    1    4    4    0    0 -0.21505167633E+01  0.48959570594E+01  0.29626184982E+01  0.61132827714E+01  0.00000000000E+00 0.  1.
<mgrwt>
<rscale>  0 0.80113239E+02</rscale>
<asrwt>0</asrwt>
<pdfrwt beam="1">  1        2 0.14455832E-02 0.80113239E+02</pdfrwt>
<pdfrwt beam="2">  1       -1 0.26271132E-01 0.80113239E+02</pdfrwt>
<totfact> 0.10386843E+05</totfact>
</mgrwt>
</event>
<event>
 8    1  0.1226832E-016  0.8157205E+02  0.7818608E-02  0.1324648E+00
         -1   -1    0    0    0  501 -0.00000000000E+00  0.00000000000E+00  0.79108511112E+00  0.79110116587E+00  0.50400000000E-02 0.  1.
          2   -1    0    0  501    0  0.00000000000E+00 -0.00000000000E+00 -0.21027862016E+04  0.21027862016E+04  0.25500000000E-02 0. -1.
         24    2    1    2    0    0  0.00000000000E+00  0.00000000000E+00 -0.21019951165E+04  0.21035773028E+04  0.81572047756E+02 0.  0.
         66    2    3    3    0    0 -0.19113740142E+01  0.14143223787E+02 -0.20362453599E+04  0.20362963561E+04  0.20000000806E+01 0.  0.
        -13    1    3    3    0    0  0.19113740142E+01 -0.14143223787E+02 -0.65749756608E+02  0.67280946692E+02  0.10566000000E+00 0.  1.
         13    1    4    4    0    0 -0.78147194111E+00  0.65462219113E+01 -0.10422791571E+04  0.10423000126E+04  0.10566000000E+00 0. -1.
        -13    1    4    4    0    0 -0.70785212063E-01  0.25941761747E+00 -0.61075963279E+02  0.61076646621E+02  0.10566000000E+00 0.  1.
         14    1    4    4    0    0 -0.10591168610E+01  0.73375842582E+01 -0.93289023946E+03  0.93291969684E+03  0.00000000000E+00 0. -1.
<mgrwt>
<rscale>  0 0.81572048E+02</rscale>
<asrwt>0</asrwt>
<pdfrwt beam="1">  1        2 0.32350110E+00 0.81572048E+02</pdfrwt>
<pdfrwt beam="2">  1       -1 0.12170832E-03 0.81572048E+02</pdfrwt>
<totfact> 0.25104970E+05</totfact>
</mgrwt>
</event>
<event>
 8    1  0.1226832E-016  0.8335548E+02  0.7818608E-02  0.1319790E+00
          2   -1    0    0  501    0  0.00000000000E+00  0.00000000000E+00  0.51580234012E+01  0.51580240316E+01  0.25500000000E-02 0. -1.
         -1   -1    0    0    0  501 -0.00000000000E+00 -0.00000000000E+00 -0.33676345490E+03  0.33676345494E+03  0.50400000000E-02 0.  1.
         24    2    1    2    0    0  0.00000000000E+00 -0.44408920985E-15 -0.33160543150E+03  0.34192147897E+03  0.83355477211E+02 0.  0.
         66    2    3    3    0    0 -0.40918480897E+02  0.35963935845E+01 -0.19424981779E+03  0.19855540242E+03  0.19999975419E+01 0.  0.
        -13    1    3    3    0    0  0.40918480897E+02 -0.35963935845E+01 -0.13735561370E+03  0.14336607655E+03  0.10566000000E+00 0.  1.
         13    1    4    4    0    0 -0.91498672023E+01  0.52768027122E+00 -0.44315563892E+02  0.45253495814E+02  0.10566000000E+00 0. -1.
        -13    1    4    4    0    0 -0.14110726363E+02  0.66825350204E+00 -0.68100751348E+02  0.69550576270E+02  0.10566000000E+00 0.  1.
        -14    1    4    4    0    0 -0.17657887332E+02  0.24004598112E+01 -0.81833502552E+02  0.83751330332E+02  0.00000000000E+00 0.  1.
<mgrwt>
<rscale>  0 0.83355477E+02</rscale>
<asrwt>0</asrwt>
<pdfrwt beam="1">  1        2 0.79354238E-03 0.83355477E+02</pdfrwt>
<pdfrwt beam="2">  1       -1 0.51809745E-01 0.83355477E+02</pdfrwt>
<totfact> 0.74045123E+04</totfact>
</mgrwt>
</event>
<event>
 8    1  0.1226832E-016  0.7921773E+02  0.7818608E-02  0.1331286E+00
          2   -1    0    0  501    0  0.00000000000E+00  0.00000000000E+00  0.15569735642E+03  0.15569735644E+03  0.25500000000E-02 0. -1.
         -1   -1    0    0    0  501 -0.00000000000E+00 -0.00000000000E+00 -0.10076355444E+02  0.10076356705E+02  0.50400000000E-02 0.  1.
         24    2    1    2    0    0  0.00000000000E+00  0.00000000000E+00  0.14562100097E+03  0.16577371314E+03  0.79217725572E+02 0.  0.
         66    2    3    3    0    0  0.32223986372E+02  0.77418615353E+01  0.11815326288E+03  0.12272943922E+03  0.20000010754E+01 0.  0.
        -13    1    3    3    0    0 -0.32223986372E+02 -0.77418615353E+01  0.27467738098E+02  0.43044273928E+02  0.10566000000E+00 0.  1.
         13    1    4    4    0    0  0.43661243809E+01  0.13907049586E+01  0.16267909159E+02  0.16901276130E+02  0.10566000000E+00 0. -1.
        -13    1    4    4    0    0  0.24667819780E+02  0.55911281662E+01  0.91957745662E+02  0.95372953179E+02  0.10566000000E+00 0.  1.
        -14    1    4    4    0    0  0.31900422114E+01  0.76002841048E+00  0.99276080543E+01  0.10455209906E+02  0.00000000000E+00 0.  1.
<mgrwt>
<rscale>  0 0.79217726E+02</rscale>
<asrwt>0</asrwt>
<pdfrwt beam="1">  1        2 0.23953440E-01 0.79217726E+02</pdfrwt>
<pdfrwt beam="2">  1       -1 0.15502086E-02 0.79217726E+02</pdfrwt>
<totfact> 0.20808249E+05</totfact>
</mgrwt>
</event>
<event>
 8    1  0.1226832E-016  0.7920488E+02  0.7818608E-02  0.1331323E+00
          2   -1    0    0  501    0  0.00000000000E+00  0.00000000000E+00  0.56997018504E+01  0.56997024209E+01  0.25500000000E-02 0. -1.
         -1   -1    0    0    0  501 -0.00000000000E+00 -0.00000000000E+00 -0.27516407559E+03  0.27516407564E+03  0.50400000000E-02 0.  1.
         24    2    1    2    0    0 -0.35527136788E-14  0.00000000000E+00 -0.26946437374E+03  0.28086377806E+03  0.79204880592E+02 0.  0.
         66    2    3    3    0    0 -0.31776236438E+02  0.23233924093E+02 -0.12028172465E+03  0.12657502803E+03  0.20000013978E+01 0.  0.
        -13    1    3    3    0    0  0.31776236438E+02 -0.23233924093E+02 -0.14918264909E+03  0.15428875003E+03  0.10566000000E+00 0.  1.
         13    1    4    4    0    0 -0.15715233745E+02  0.12245049547E+02 -0.58858469091E+02  0.62138879599E+02  0.10566000000E+00 0. -1.
        -13    1    4    4    0    0 -0.13484952993E+02  0.89257413550E+01 -0.51254388473E+02  0.53745105058E+02  0.10566000000E+00 0.  1.
        -14    1    4    4    0    0 -0.25760497000E+01  0.20631331911E+01 -0.10168867089E+02  0.10691043377E+02  0.00000000000E+00 0.  1.
<mgrwt>
<rscale>  0 0.79204881E+02</rscale>
<asrwt>0</asrwt>
<pdfrwt beam="1">  1        2 0.87687747E-03 0.79204881E+02</pdfrwt>
<pdfrwt beam="2">  1       -1 0.42332924E-01 0.79204881E+02</pdfrwt>
<totfact> 0.91728519E+04</totfact>
</mgrwt>
</event>
<event>
 8    1  0.1226832E-016  0.7898476E+02  0.7818608E-02  0.1331957E+00
          2   -1    0    0  501    0  0.00000000000E+00  0.00000000000E+00  0.18805515120E+03  0.18805515122E+03  0.25500000000E-02 0. -1.
         -1   -1    0    0    0  501 -0.00000000000E+00 -0.00000000000E+00 -0.82935658427E+01  0.82935673741E+01  0.50400000000E-02 0.  1.
         24    2    1    2    0    0  0.00000000000E+00 -0.17763568394E-14  0.17976158536E+03  0.19634871859E+03  0.78984756266E+02 0.  0.
         66    2    3    3    0    0 -0.33802376582E+02  0.11003868122E+02  0.13255957705E+03  0.13725788573E+03  0.19999876517E+01 0.  0.
        -13    1    3    3    0    0  0.33802376582E+02 -0.11003868122E+02  0.47202008307E+02  0.59090832863E+02  0.10566000000E+00 0.  1.
         13    1    4    4    0    0 -0.31527768754E+02  0.10187244016E+02  0.12317758969E+03  0.12755590896E+03  0.10566000000E+00 0. -1.
        -13    1    4    4    0    0 -0.10650974263E+01  0.41474222917E+00  0.54130114638E+01  0.55333805930E+01  0.10566000000E+00 0.  1.
        -14    1    4    4    0    0 -0.12095104013E+01  0.40188187643E+00  0.39689758983E+01  0.41685961827E+01  0.00000000000E+00 0.  1.
<mgrwt>
<rscale>  0 0.78984756E+02</rscale>
<asrwt>0</asrwt>
<pdfrwt beam="1">  1        2 0.28931558E-01 0.78984756E+02</pdfrwt>
<pdfrwt beam="2">  1       -1 0.12759335E-02 0.78984756E+02</pdfrwt>
<totfact> 0.22335127E+05</totfact>
</mgrwt>
</event>
<event>
 8    1  0.1226832E-016  0.7956966E+02  0.7818608E-02  0.1330277E+00
         -1   -1    0    0    0  501 -0.00000000000E+00  0.00000000000E+00  0.28179687467E+01  0.28179732538E+01  0.50400000000E-02 0.  1.
          2   -1    0    0  501    0  0.00000000000E+00 -0.00000000000E+00 -0.56169239707E+03  0.56169239708E+03  0.25500000000E-02 0. -1.
         24    2    1    2    0    0  0.00000000000E+00  0.00000000000E+00 -0.55887442832E+03  0.56451037033E+03  0.79569664923E+02 0.  0.
         66    2    3    3    0    0 -0.28083931067E+02  0.13214101210E+02 -0.45591061618E+03  0.45697025024E+03  0.19999996959E+01 0.  0.
        -13    1    3    3    0    0  0.28083931067E+02 -0.13214101210E+02 -0.10296381214E+03  0.10754012009E+03  0.10566000000E+00 0.  1.
         13    1    4    4    0    0 -0.21707943303E+02  0.10050542182E+02 -0.34518085058E+03  0.34600878453E+03  0.10566000000E+00 0. -1.
        -13    1    4    4    0    0 -0.32805824015E+01  0.12668567596E+01 -0.50526533513E+02  0.50648878564E+02  0.10566000000E+00 0.  1.
         14    1    4    4    0    0 -0.30954053619E+01  0.18967022683E+01 -0.60203232086E+02  0.60312587139E+02  0.00000000000E+00 0. -1.
<mgrwt>
<rscale>  0 0.79569665E+02</rscale>
<asrwt>0</asrwt>
<pdfrwt beam="1">  1        2 0.86414126E-01 0.79569665E+02</pdfrwt>
<pdfrwt beam="2">  1       -1 0.43353445E-03 0.79569665E+02</pdfrwt>
<totfact> 0.32006375E+05</totfact>
</mgrwt>
</event>
<event>
 8    1  0.1226832E-016  0.8276592E+02  0.7818608E-02  0.1321380E+00
         -1   -1    0    0    0  501 -0.00000000000E+00  0.00000000000E+00  0.37134660859E+02  0.37134661201E+02  0.50400000000E-02 0.  1.
          2   -1    0    0  501    0  0.00000000000E+00 -0.00000000000E+00 -0.46117270476E+02  0.46117270547E+02  0.25500000000E-02 0. -1.
         24    2    1    2    0    0 -0.17763568394E-14 -0.35527136788E-14 -0.89826096173E+01  0.83251931748E+02  0.82765916078E+02 0.  0.
         66    2    3    3    0    0  0.13397156620E+02 -0.16035495023E+02 -0.40395572317E+02  0.45523874605E+02  0.19999975254E+01 0.  0.
        -13    1    3    3    0    0 -0.13397156620E+02  0.16035495023E+02  0.31412962700E+02  0.37728057143E+02  0.10566000000E+00 0.  1.
         13    1    4    4    0    0  0.38757581823E+01 -0.46273536261E+01 -0.13049729190E+02  0.14378473460E+02  0.10566000000E+00 0.  1.
        -13    1    4    4    0    0  0.37595416148E+01 -0.44368877393E+01 -0.11929332770E+02  0.13271784745E+02  0.10566000000E+00 0. -1.
        -14    1    4    4    0    0  0.57618568227E+01 -0.69712536572E+01 -0.15416510358E+02  0.17873616400E+02  0.00000000000E+00 0.  1.
<mgrwt>
<rscale>  0 0.82765916E+02</rscale>
<asrwt>0</asrwt>
<pdfrwt beam="1">  1        2 0.70949647E-02 0.82765916E+02</pdfrwt>
<pdfrwt beam="2">  1       -1 0.57130248E-02 0.82765916E+02</pdfrwt>
<totfact> 0.13372724E+05</totfact>
</mgrwt>
</event>
<event>
 8    1  0.1226832E-016  0.7942118E+02  0.7818608E-02  0.1330702E+00
         -1   -1    0    0    0  501 -0.00000000000E+00  0.00000000000E+00  0.52063194281E+01  0.52063218676E+01  0.50400000000E-02 0.  1.
          2   -1    0    0  501    0  0.00000000000E+00 -0.00000000000E+00 -0.30288782696E+03  0.30288782697E+03  0.25500000000E-02 0. -1.
         24    2    1    2    0    0  0.00000000000E+00  0.00000000000E+00 -0.29768150754E+03  0.30809414884E+03  0.79421184970E+02 0.  0.
         66    2    3    3    0    0 -0.28678409638E+02  0.17211908398E+02 -0.23179331418E+03  0.23420256504E+03  0.19999998835E+01 0.  0.
        -13    1    3    3    0    0  0.28678409638E+02 -0.17211908398E+02 -0.65888193352E+02  0.73891583805E+02  0.10566000000E+00 0.  1.
         13    1    4    4    0    0 -0.25242718467E+01  0.18592035243E+01 -0.22645792855E+02  0.22862014001E+02  0.10566000000E+00 0. -1.
        -13    1    4    4    0    0 -0.24564816465E+01  0.16915284535E+01 -0.23490887382E+02  0.23679707021E+02  0.10566000000E+00 0.  1.
         14    1    4    4    0    0 -0.23697656144E+02  0.13661176420E+02 -0.18565663395E+03  0.18766084401E+03  0.00000000000E+00 0. -1.
<mgrwt>
<rscale>  0 0.79421185E+02</rscale>
<asrwt>0</asrwt>
<pdfrwt beam="1">  1        2 0.46598114E-01 0.79421185E+02</pdfrwt>
<pdfrwt beam="2">  1       -1 0.80097265E-03 0.79421185E+02</pdfrwt>
<totfact> 0.26074525E+05</totfact>
</mgrwt>
</event>
<event>
 8    1  0.1226832E-016  0.8285950E+02  0.7818608E-02  0.1321127E+00
          2   -1    0    0  501    0  0.00000000000E+00  0.00000000000E+00  0.50925811714E+02  0.50925811777E+02  0.25500000000E-02 0. -1.
         -1   -1    0    0    0  501 -0.00000000000E+00 -0.00000000000E+00 -0.33704402707E+02  0.33704403084E+02  0.50400000000E-02 0.  1.
         24    2    1    2    0    0  0.00000000000E+00  0.00000000000E+00  0.17221409006E+02  0.84630214862E+02  0.82859497581E+02 0.  0.
         66    2    3    3    0    0  0.34725991693E+02  0.13385003259E+02  0.27151992625E+02  0.46111641856E+02  0.19999999444E+01 0.  0.
        -13    1    3    3    0    0 -0.34725991693E+02 -0.13385003259E+02 -0.99305836190E+01  0.38518573006E+02  0.10566000000E+00 0.  1.
         13    1    4    4    0    0  0.13307244437E+02  0.48334414015E+01  0.10589549096E+02  0.17680345709E+02  0.10566000000E+00 0. -1.
        -13    1    4    4    0    0  0.16981725350E+02  0.65037589683E+01  0.12378501240E+02  0.21998098408E+02  0.10566000000E+00 0.  1.
        -14    1    4    4    0    0  0.44370219065E+01  0.20478028894E+01  0.41839422887E+01  0.64331977389E+01  0.00000000000E+00 0.  1.
<mgrwt>
<rscale>  0 0.82859498E+02</rscale>
<asrwt>0</asrwt>
<pdfrwt beam="1">  1        2 0.78347402E-02 0.82859498E+02</pdfrwt>
<pdfrwt beam="2">  1       -1 0.51852928E-02 0.82859498E+02</pdfrwt>
<totfact> 0.13624514E+05</totfact>
</mgrwt>
</event>
<event>
 8    1  0.1226832E-016  0.7580417E+02  0.7818608E-02  0.1341399E+00
         -1   -1    0    0    0  501 -0.00000000000E+00  0.00000000000E+00  0.95293259716E+01  0.95293273044E+01  0.50400000000E-02 0.  1.
          2   -1    0    0  501    0  0.00000000000E+00 -0.00000000000E+00 -0.15075229476E+03  0.15075229478E+03  0.25500000000E-02 0. -1.
         24    2    1    2    0    0  0.00000000000E+00  0.00000000000E+00 -0.14122296879E+03  0.16028162208E+03  0.75804165222E+02 0.  0.
         66    2    3    3    0    0 -0.61023332505E+01 -0.17057076487E+02 -0.14099087701E+03  0.14216402401E+03  0.19999981078E+01 0.  0.
        -13    1    3    3    0    0  0.61023332505E+01  0.17057076487E+02 -0.23209177486E+00  0.18117598075E+02  0.10566000000E+00 0.  1.
         13    1    4    4    0    0 -0.46764668043E+01 -0.12495056633E+02 -0.99400121019E+02  0.10029153007E+03  0.10566000000E+00 0. -1.
        -13    1    4    4    0    0 -0.10600199530E+00 -0.15221821787E+01 -0.14092918764E+02  0.14175676292E+02  0.10566000000E+00 0.  1.
         14    1    4    4    0    0 -0.13198644508E+01 -0.30398376752E+01 -0.27497837229E+02  0.27696817643E+02  0.00000000000E+00 0. -1.
<mgrwt>
<rscale>  0 0.75804165E+02</rscale>
<asrwt>0</asrwt>
<pdfrwt beam="1">  1        2 0.23192659E-01 0.75804165E+02</pdfrwt>
<pdfrwt beam="2">  1       -1 0.14660504E-02 0.75804165E+02</pdfrwt>
<totfact> 0.23135442E+05</totfact>
</mgrwt>
</event>
<event>
 8    1  0.1226832E-016  0.7693108E+02  0.7818608E-02  0.1337993E+00
          2   -1    0    0  501    0  0.00000000000E+00  0.00000000000E+00  0.40887329559E+02  0.40887329638E+02  0.25500000000E-02 0. -1.
         -1   -1    0    0    0  501 -0.00000000000E+00 -0.00000000000E+00 -0.36187197706E+02  0.36187198057E+02  0.50400000000E-02 0.  1.
         24    2    1    2    0    0 -0.71054273576E-14  0.00000000000E+00  0.47001318530E+01  0.77074527695E+02  0.76931083314E+02 0.  0.
         66    2    3    3    0    0  0.37026795413E+02 -0.31980775027E+01  0.12187373864E+02  0.39163035568E+02  0.19999987403E+01 0.  0.
        -13    1    3    3    0    0 -0.37026795413E+02  0.31980775027E+01 -0.74872420108E+01  0.37911492126E+02  0.10566000000E+00 0.  1.
         13    1    4    4    0    0  0.21876816138E+02 -0.11429256105E+01  0.73916383669E+01  0.23120312391E+02  0.10566000000E+00 0. -1.
        -13    1    4    4    0    0  0.99715772184E+01 -0.98181005213E+00  0.31884603010E+01  0.10515405191E+02  0.10566000000E+00 0.  1.
        -14    1    4    4    0    0  0.51784020567E+01 -0.10733418401E+01  0.16072751958E+01  0.55273179863E+01  0.00000000000E+00 0.  1.
<mgrwt>
<rscale>  0 0.76931083E+02</rscale>
<asrwt>0</asrwt>
<pdfrwt beam="1">  1        2 0.62903584E-02 0.76931083E+02</pdfrwt>
<pdfrwt beam="2">  1       -1 0.55672613E-02 0.76931083E+02</pdfrwt>
<totfact> 0.15948299E+05</totfact>
</mgrwt>
</event>
<event>
 8    1  0.1226832E-016  0.7922492E+02  0.7818608E-02  0.1331265E+00
         -1   -1    0    0    0  501 -0.00000000000E+00  0.00000000000E+00  0.14007108013E+02  0.14007108920E+02  0.50400000000E-02 0.  1.
          2   -1    0    0  501    0  0.00000000000E+00 -0.00000000000E+00 -0.11202505750E+03  0.11202505753E+03  0.25500000000E-02 0. -1.
         24    2    1    2    0    0 -0.71054273576E-14  0.00000000000E+00 -0.98017949486E+02  0.12603216645E+03  0.79224923844E+02 0.  0.
         66    2    3    3    0    0 -0.30899738514E+02 -0.24610407940E+02 -0.44929727383E+02  0.59859388741E+02  0.19999996511E+01 0.  0.
        -13    1    3    3    0    0  0.30899738514E+02  0.24610407940E+02 -0.53088222103E+02  0.66172777706E+02  0.10566000000E+00 0.  1.
         13    1    4    4    0    0 -0.63380863810E+01 -0.47878335080E+01 -0.99811065211E+01  0.12756501875E+02  0.10566000000E+00 0. -1.
        -13    1    4    4    0    0 -0.96951253732E+00 -0.92956792600E+00 -0.12894815896E+01  0.18649337507E+01  0.10566000000E+00 0.  1.
         14    1    4    4    0    0 -0.23592139596E+02 -0.18893006506E+02 -0.33659139272E+02  0.45237953115E+02  0.00000000000E+00 0. -1.
<mgrwt>
<rscale>  0 0.79224924E+02</rscale>
<asrwt>0</asrwt>
<pdfrwt beam="1">  1        2 0.17234624E-01 0.79224924E+02</pdfrwt>
<pdfrwt beam="2">  1       -1 0.21549398E-02 0.79224924E+02</pdfrwt>
<totfact> 0.18792854E+05</totfact>
</mgrwt>
</event>
<event>
 8    1  0.1226832E-016  0.7890547E+02  0.7818608E-02  0.1332187E+00
          2   -1    0    0  501    0  0.00000000000E+00  0.00000000000E+00  0.15390807430E+03  0.15390807432E+03  0.25500000000E-02 0. -1.
         -1   -1    0    0    0  501 -0.00000000000E+00 -0.00000000000E+00 -0.10113296603E+02  0.10113297859E+02  0.50400000000E-02 0.  1.
         24    2    1    2    0    0  0.00000000000E+00  0.00000000000E+00  0.14379477770E+03  0.16402137218E+03  0.78905465203E+02 0.  0.
         66    2    3    3    0    0  0.13967777415E+02 -0.95428983586E+01  0.14597425690E+03  0.14696478962E+03  0.19999990165E+01 0.  0.
        -13    1    3    3    0    0 -0.13967777415E+02  0.95428983586E+01 -0.21794792013E+01  0.17056582560E+02  0.10566000000E+00 0.  1.
         13    1    4    4    0    0  0.60307228101E+01 -0.40040266761E+01  0.65505861147E+02  0.65904710423E+02  0.10566000000E+00 0. -1.
        -13    1    4    4    0    0  0.40967484840E+01 -0.26513408334E+01  0.46044437901E+02  0.46302423069E+02  0.10566000000E+00 0.  1.
         14    1    4    4    0    0  0.38403061211E+01 -0.28875308492E+01  0.34423957850E+02  0.34757656129E+02  0.00000000000E+00 0. -1.
<mgrwt>
<rscale>  0 0.78905465E+02</rscale>
<asrwt>0</asrwt>
<pdfrwt beam="1">  1        2 0.23678165E-01 0.78905465E+02</pdfrwt>
<pdfrwt beam="2">  1       -1 0.15558919E-02 0.78905465E+02</pdfrwt>
<totfact> 0.20948320E+05</totfact>
</mgrwt>
</event>
<event>
 8    1  0.1226832E-016  0.7984650E+02  0.7818608E-02  0.1329488E+00
          2   -1    0    0  501    0  0.00000000000E+00  0.00000000000E+00  0.61446055068E+02  0.61446055121E+02  0.25500000000E-02 0. -1.
         -1   -1    0    0    0  501 -0.00000000000E+00 -0.00000000000E+00 -0.25939270529E+02  0.25939271018E+02  0.50400000000E-02 0.  1.
         24    2    1    2    0    0  0.00000000000E+00  0.00000000000E+00  0.35506784540E+02  0.87385326139E+02  0.79846499461E+02 0.  0.
         66    2    3    3    0    0 -0.19061435332E+02  0.33686683510E+02  0.28360008654E+02  0.48025212669E+02  0.19999995395E+01 0.  0.
        -13    1    3    3    0    0  0.19061435332E+02 -0.33686683510E+02  0.71467758854E+01  0.39360113471E+02  0.10566000000E+00 0.  1.
         13    1    4    4    0    0 -0.87918634702E+01  0.15086576304E+02  0.12337377950E+02  0.21380451506E+02  0.10566000000E+00 0. -1.
        -13    1    4    4    0    0 -0.66498446242E+01  0.11387754013E+02  0.92298708055E+01  0.16096678356E+02  0.10566000000E+00 0.  1.
        -14    1    4    4    0    0 -0.36197272371E+01  0.72123531936E+01  0.67927598984E+01  0.10548082807E+02  0.00000000000E+00 0.  1.
<mgrwt>
<rscale>  0 0.79846499E+02</rscale>
<asrwt>0</asrwt>
<pdfrwt beam="1">  1        2 0.94532392E-02 0.79846499E+02</pdfrwt>
<pdfrwt beam="2">  1       -1 0.39906571E-02 0.79846499E+02</pdfrwt>
<totfact> 0.15734331E+05</totfact>
</mgrwt>
</event>
<event>
 8    1  0.1226832E-016  0.7792595E+02  0.7818608E-02  0.1335042E+00
         -1   -1    0    0    0  501 -0.00000000000E+00  0.00000000000E+00  0.17624133430E+01  0.17624205495E+01  0.50400000000E-02 0.  1.
          2   -1    0    0  501    0  0.00000000000E+00 -0.00000000000E+00 -0.86138159978E+03  0.86138159979E+03  0.25500000000E-02 0. -1.
         24    2    1    2    0    0 -0.17763568394E-14  0.00000000000E+00 -0.85961918644E+03  0.86314402034E+03  0.77925952972E+02 0.  0.
         66    2    3    3    0    0 -0.93272458342E+01  0.10544952807E+02 -0.83220190696E+03  0.83232337916E+03  0.19999997244E+01 0.  0.
        -13    1    3    3    0    0  0.93272458342E+01 -0.10544952807E+02 -0.27417279477E+02  0.30820641176E+02  0.10566000000E+00 0.  1.
         13    1    4    4    0    0 -0.71260640609E+01  0.84159674313E+01 -0.64010152853E+03  0.64019652240E+03  0.10566000000E+00 0. -1.
        -13    1    4    4    0    0 -0.17479099206E+01  0.17357249240E+01 -0.17155419286E+03  0.17157190966E+03  0.10566000000E+00 0.  1.
         14    1    4    4    0    0 -0.45327185273E+00  0.39326045207E+00 -0.20546185570E+02  0.20554947108E+02  0.00000000000E+00 0. -1.
<mgrwt>
<rscale>  0 0.77925953E+02</rscale>
<asrwt>0</asrwt>
<pdfrwt beam="1">  1        2 0.13251991E+00 0.77925953E+02</pdfrwt>
<pdfrwt beam="2">  1       -1 0.27114176E-03 0.77925953E+02</pdfrwt>
<totfact> 0.37209683E+05</totfact>
</mgrwt>
</event>
<event>
 8    1  0.1226832E-016  0.7928729E+02  0.7818608E-02  0.1331086E+00
         -1   -1    0    0    0  501 -0.00000000000E+00  0.00000000000E+00  0.20041106055E+01  0.20041169429E+01  0.50400000000E-02 0.  1.
          2   -1    0    0  501    0  0.00000000000E+00 -0.00000000000E+00 -0.78419630084E+03  0.78419630085E+03  0.25500000000E-02 0. -1.
         24    2    1    2    0    0  0.00000000000E+00  0.00000000000E+00 -0.78219219024E+03  0.78620041779E+03  0.79287290689E+02 0.  0.
         66    2    3    3    0    0  0.43480905369E+01 -0.27564615886E+02 -0.67020693507E+03  0.67079061544E+03  0.20000004261E+01 0.  0.
        -13    1    3    3    0    0 -0.43480905369E+01  0.27564615886E+02 -0.11198525517E+03  0.11540980235E+03  0.10566000000E+00 0.  1.
         13    1    4    4    0    0  0.15459485878E+01 -0.14065704416E+02 -0.33456348499E+03  0.33486261459E+03  0.10566000000E+00 0. -1.
        -13    1    4    4    0    0  0.21148713156E-01 -0.84311791358E+00 -0.17099732377E+02  0.17120844211E+02  0.10566000000E+00 0.  1.
         14    1    4    4    0    0  0.27809932360E+01 -0.12655793557E+02 -0.31854371770E+03  0.31880715663E+03  0.00000000000E+00 0. -1.
<mgrwt>
<rscale>  0 0.79287291E+02</rscale>
<asrwt>0</asrwt>
<pdfrwt beam="1">  1        2 0.12064534E+00 0.79287291E+02</pdfrwt>
<pdfrwt beam="2">  1       -1 0.30832582E-03 0.79287291E+02</pdfrwt>
<totfact> 0.35049470E+05</totfact>
</mgrwt>
</event>
<event>
 8    1  0.1226832E-016  0.7725214E+02  0.7818608E-02  0.1337035E+00
         -1   -1    0    0    0  501 -0.00000000000E+00  0.00000000000E+00  0.96895559365E+01  0.96895572473E+01  0.50400000000E-02 0.  1.
          2   -1    0    0  501    0  0.00000000000E+00 -0.00000000000E+00 -0.15397745998E+03  0.15397746000E+03  0.25500000000E-02 0. -1.
         24    2    1    2    0    0  0.00000000000E+00  0.17763568394E-14 -0.14428790404E+03  0.16366701725E+03  0.77252140952E+02 0.  0.
         66    2    3    3    0    0 -0.77981647139E+01 -0.10899640191E+02 -0.14888329667E+03  0.14949866072E+03  0.19999999648E+01 0.  0.
        -13    1    3    3    0    0  0.77981647139E+01  0.10899640191E+02  0.45953926304E+01  0.14168356527E+02  0.10566000000E+00 0.  1.
         13    1    4    4    0    0 -0.41010104821E+01 -0.45455688869E+01 -0.61453275951E+02  0.61757564497E+02  0.10566000000E+00 0. -1.
        -13    1    4    4    0    0 -0.28716092050E+01 -0.45686783602E+01 -0.66659859055E+02  0.66878000379E+02  0.10566000000E+00 0.  1.
         14    1    4    4    0    0 -0.82554502681E+00 -0.17853929442E+01 -0.20770161666E+02  0.20863095844E+02  0.00000000000E+00 0. -1.
<mgrwt>
<rscale>  0 0.77252141E+02</rscale>
<asrwt>0</asrwt>
<pdfrwt beam="1">  1        2 0.23688838E-01 0.77252141E+02</pdfrwt>
<pdfrwt beam="2">  1       -1 0.14907011E-02 0.77252141E+02</pdfrwt>
<totfact> 0.22158397E+05</totfact>
</mgrwt>
</event>
<event>
 8    1  0.1226832E-016  0.7998941E+02  0.7818608E-02  0.1329081E+00
          2   -1    0    0  501    0  0.00000000000E+00  0.00000000000E+00  0.38444638871E+02  0.38444638956E+02  0.25500000000E-02 0. -1.
         -1   -1    0    0    0  501 -0.00000000000E+00 -0.00000000000E+00 -0.41607273485E+02  0.41607273790E+02  0.50400000000E-02 0.  1.
         24    2    1    2    0    0  0.00000000000E+00  0.35527136788E-14 -0.31626346138E+01  0.80051912746E+02  0.79989414778E+02 0.  0.
         66    2    3    3    0    0  0.22927675351E+02 -0.23030484265E+02  0.21705820573E+02  0.39130857898E+02  0.19999726491E+01 0.  0.
        -13    1    3    3    0    0 -0.22927675351E+02  0.23030484265E+02 -0.24868455187E+02  0.40921054848E+02  0.10566000000E+00 0.  1.
         13    1    4    4    0    0  0.69637147955E+01 -0.71426930214E+01  0.67600177803E+01  0.12050742374E+02  0.10566000000E+00 0. -1.
        -13    1    4    4    0    0  0.73370593384E+01 -0.61668028418E+01  0.62887923433E+01  0.11463942175E+02  0.10566000000E+00 0.  1.
        -14    1    4    4    0    0  0.86269012166E+01 -0.97209884020E+01  0.86570104495E+01  0.15616173348E+02  0.00000000000E+00 0.  1.
<mgrwt>
<rscale>  0 0.79989415E+02</rscale>
<asrwt>0</asrwt>
<pdfrwt beam="1">  1        2 0.59145598E-02 0.79989415E+02</pdfrwt>
<pdfrwt beam="2">  1       -1 0.64011191E-02 0.79989415E+02</pdfrwt>
<totfact> 0.14145126E+05</totfact>
</mgrwt>
</event>
<event>
 8    1  0.1226832E-016  0.7698233E+02  0.7818608E-02  0.1337840E+00
          2   -1    0    0  501    0  0.00000000000E+00  0.00000000000E+00  0.78502650324E+03  0.78502650325E+03  0.25500000000E-02 0. -1.
         -1   -1    0    0    0  501 -0.00000000000E+00 -0.00000000000E+00 -0.18872831226E+01  0.18872898523E+01  0.50400000000E-02 0.  1.
         24    2    1    2    0    0  0.88817841970E-15 -0.35527136788E-14  0.78313922012E+03  0.78691379310E+03  0.76982333554E+02 0.  0.
         66    2    3    3    0    0  0.74773080953E+01 -0.18234993016E+02  0.72949059181E+03  0.72975951426E+03  0.19999998475E+01 0.  0.
        -13    1    3    3    0    0 -0.74773080953E+01  0.18234993016E+02  0.53648628311E+02  0.57154278845E+02  0.10566000000E+00 0.  1.
         13    1    4    4    0    0  0.37919458026E+01 -0.88726037958E+01  0.33252690735E+03  0.33266688628E+03  0.10566000000E+00 0.  1.
        -13    1    4    4    0    0  0.29540622123E+01 -0.82815905342E+01  0.33658856342E+03  0.33670340571E+03  0.10566000000E+00 0. -1.
        -14    1    4    4    0    0  0.73130008035E+00 -0.10807986857E+01  0.60375121037E+02  0.60389222266E+02  0.00000000000E+00 0.  1.
<mgrwt>
<rscale>  0 0.76982334E+02</rscale>
<asrwt>0</asrwt>
<pdfrwt beam="1">  1        2 0.12077315E+00 0.76982334E+02</pdfrwt>
<pdfrwt beam="2">  1       -1 0.29035214E-03 0.76982334E+02</pdfrwt>
<totfact> 0.37841650E+05</totfact>
</mgrwt>
</event>
<event>
 8    1  0.1226832E-016  0.7765639E+02  0.7818608E-02  0.1335837E+00
         -1   -1    0    0    0  501 -0.00000000000E+00  0.00000000000E+00  0.48734419771E+01  0.48734445832E+01  0.50400000000E-02 0.  1.
          2   -1    0    0  501    0  0.00000000000E+00 -0.00000000000E+00 -0.30935594466E+03  0.30935594467E+03  0.25500000000E-02 0. -1.
         24    2    1    2    0    0  0.00000000000E+00  0.00000000000E+00 -0.30448250269E+03  0.31422938926E+03  0.77656388216E+02 0.  0.
         66    2    3    3    0    0 -0.95426172622E+01 -0.36913250621E+02 -0.18151374752E+03  0.18548555241E+03  0.19999993726E+01 0.  0.
        -13    1    3    3    0    0  0.95426172622E+01  0.36913250621E+02 -0.12296875516E+03  0.12874383685E+03  0.10566000000E+00 0.  1.
         13    1    4    4    0    0 -0.78704770306E+01 -0.30417979689E+02 -0.14712557557E+03  0.15044315886E+03  0.10566000000E+00 0. -1.
        -13    1    4    4    0    0 -0.13974577674E+01 -0.47006256551E+01 -0.23884799256E+02  0.24383264123E+02  0.10566000000E+00 0.  1.
         14    1    4    4    0    0 -0.27468246420E+00 -0.17946452760E+01 -0.10503372694E+02  0.10659129423E+02  0.00000000000E+00 0. -1.
<mgrwt>
<rscale>  0 0.77656388E+02</rscale>
<asrwt>0</asrwt>
<pdfrwt beam="1">  1        2 0.47593207E-01 0.77656388E+02</pdfrwt>
<pdfrwt beam="2">  1       -1 0.74976075E-03 0.77656388E+02</pdfrwt>
<totfact> 0.27865220E+05</totfact>
</mgrwt>
</event>
<event>
 8    1  0.1226832E-016  0.8048400E+02  0.7818608E-02  0.1327683E+00
         -1   -1    0    0    0  501 -0.00000000000E+00  0.00000000000E+00  0.50393052629E+02  0.50393052881E+02  0.50400000000E-02 0.  1.
          2   -1    0    0  501    0  0.00000000000E+00 -0.00000000000E+00 -0.32135753129E+02  0.32135753230E+02  0.25500000000E-02 0. -1.
         24    2    1    2    0    0  0.35527136788E-14  0.17763568394E-14  0.18257299500E+02  0.82528806111E+02  0.80484003710E+02 0.  0.
         66    2    3    3    0    0 -0.18110829942E+02 -0.11778586994E+02 -0.25649175130E+02  0.33594902208E+02  0.19999991890E+01 0.  0.
        -13    1    3    3    0    0  0.18110829942E+02  0.11778586994E+02  0.43906474630E+02  0.48933903903E+02  0.10566000000E+00 0.  1.
         13    1    4    4    0    0 -0.32150379531E+01 -0.24089655937E+01 -0.49152632087E+01  0.63490598295E+01  0.10566000000E+00 0. -1.
        -13    1    4    4    0    0 -0.19489790093E+01 -0.77791459961E+00 -0.30716109487E+01  0.37215088551E+01  0.10566000000E+00 0.  1.
         14    1    4    4    0    0 -0.12946812980E+02 -0.85917068003E+01 -0.17662300973E+02  0.23524333523E+02  0.00000000000E+00 0. -1.
<mgrwt>
<rscale>  0 0.80484004E+02</rscale>
<asrwt>0</asrwt>
<pdfrwt beam="1">  1        2 0.49439621E-02 0.80484004E+02</pdfrwt>
<pdfrwt beam="2">  1       -1 0.77527773E-02 0.80484004E+02</pdfrwt>
<totfact> 0.13411645E+05</totfact>
</mgrwt>
</event>
<event>
 8    1  0.1226832E-016  0.7977120E+02  0.7818608E-02  0.1329702E+00
          2   -1    0    0  501    0  0.00000000000E+00  0.00000000000E+00  0.24163770605E+03  0.24163770606E+03  0.25500000000E-02 0. -1.
         -1   -1    0    0    0  501 -0.00000000000E+00 -0.00000000000E+00 -0.65836621469E+01  0.65836640760E+01  0.50400000000E-02 0.  1.
         24    2    1    2    0    0  0.00000000000E+00  0.71054273576E-14  0.23505404390E+03  0.24822137014E+03  0.79771204321E+02 0.  0.
         66    2    3    3    0    0 -0.24857125174E+01  0.36713637580E+02  0.16527994390E+03  0.16933850669E+03  0.20000101269E+01 0.  0.
        -13    1    3    3    0    0  0.24857125174E+01 -0.36713637580E+02  0.69774100004E+02  0.78882863452E+02  0.10566000000E+00 0.  1.
         13    1    4    4    0    0 -0.73586116306E+00  0.88528549328E+01  0.37952134043E+02  0.38978072997E+02  0.10566000000E+00 0. -1.
        -13    1    4    4    0    0 -0.12958814532E+01  0.10945206432E+02  0.52019657590E+02  0.53174550232E+02  0.10566000000E+00 0.  1.
        -14    1    4    4    0    0 -0.45396990118E+00  0.16915576216E+02  0.75308152268E+02  0.77185883459E+02  0.00000000000E+00 0.  1.
<mgrwt>
<rscale>  0 0.79771204E+02</rscale>
<asrwt>0</asrwt>
<pdfrwt beam="1">  1        2 0.37175024E-01 0.79771204E+02</pdfrwt>
<pdfrwt beam="2">  1       -1 0.10128715E-02 0.79771204E+02</pdfrwt>
<totfact> 0.23758003E+05</totfact>
</mgrwt>
</event>
<event>
 8    1  0.1226832E-016  0.7976735E+02  0.7818608E-02  0.1329713E+00
          2   -1    0    0  501    0  0.00000000000E+00  0.00000000000E+00  0.48382876477E+02  0.48382876544E+02  0.25500000000E-02 0. -1.
         -1   -1    0    0    0  501 -0.00000000000E+00 -0.00000000000E+00 -0.32877489033E+02  0.32877489419E+02  0.50400000000E-02 0.  1.
         24    2    1    2    0    0  0.00000000000E+00  0.00000000000E+00  0.15505387444E+02  0.81260365963E+02  0.79767349440E+02 0.  0.
         66    2    3    3    0    0  0.17098649346E+02 -0.17295869189E+02  0.39926951488E+02  0.46793935123E+02  0.20000021826E+01 0.  0.
        -13    1    3    3    0    0 -0.17098649346E+02  0.17295869189E+02 -0.24421564044E+02  0.34466430840E+02  0.10566000000E+00 0.  1.
         13    1    4    4    0    0  0.40201040890E+01 -0.48759064552E+01  0.10285249895E+02  0.12072001909E+02  0.10566000000E+00 0. -1.
        -13    1    4    4    0    0  0.22190219829E+01 -0.25592860403E+01  0.48719193955E+01  0.59347086052E+01  0.10566000000E+00 0.  1.
        -14    1    4    4    0    0  0.10859523274E+02 -0.98606766935E+01  0.24769782197E+02  0.28787224609E+02  0.00000000000E+00 0.  1.
<mgrwt>
<rscale>  0 0.79767349E+02</rscale>
<asrwt>0</asrwt>
<pdfrwt beam="1">  1        2 0.74435195E-02 0.79767349E+02</pdfrwt>
<pdfrwt beam="2">  1       -1 0.50580753E-02 0.79767349E+02</pdfrwt>
<totfact> 0.14955922E+05</totfact>
</mgrwt>
</event>
<event>
 8    1  0.1226832E-016  0.8094434E+02  0.7818608E-02  0.1326393E+00
         -1   -1    0    0    0  501 -0.00000000000E+00  0.00000000000E+00  0.73864325748E+02  0.73864325920E+02  0.50400000000E-02 0.  1.
          2   -1    0    0  501    0  0.00000000000E+00 -0.00000000000E+00 -0.22175748642E+02  0.22175748788E+02  0.25500000000E-02 0. -1.
         24    2    1    2    0    0  0.00000000000E+00  0.00000000000E+00  0.51688577107E+02  0.96040074708E+02  0.80944344748E+02 0.  0.
         66    2    3    3    0    0  0.12581635969E+02 -0.15031824423E+02 -0.16118077195E+02  0.25456742110E+02  0.19999993062E+01 0.  0.
        -13    1    3    3    0    0 -0.12581635969E+02  0.15031824423E+02  0.67806654301E+02  0.70583332599E+02  0.10566000000E+00 0.  1.
         13    1    4    4    0    0  0.10404028478E+02 -0.13106387985E+02 -0.14117472809E+02  0.21893730087E+02  0.10566000000E+00 0. -1.
        -13    1    4    4    0    0  0.36820170220E+00 -0.39272294568E+00 -0.19395765954E+00  0.58188264698E+00  0.10566000000E+00 0.  1.
         14    1    4    4    0    0  0.18094057886E+01 -0.15327134922E+01 -0.18066467268E+01  0.29811293753E+01  0.00000000000E+00 0. -1.
<mgrwt>
<rscale>  0 0.80944345E+02</rscale>
<asrwt>0</asrwt>
<pdfrwt beam="1">  1        2 0.34116537E-02 0.80944345E+02</pdfrwt>
<pdfrwt beam="2">  1       -1 0.11363742E-01 0.80944345E+02</pdfrwt>
<totfact> 0.12257915E+05</totfact>
</mgrwt>
</event>
<event>
 8    1  0.1226832E-016  0.8809897E+02  0.7818608E-02  0.1307522E+00
          2   -1    0    0  501    0  0.00000000000E+00  0.00000000000E+00  0.24030928628E+02  0.24030928763E+02  0.25500000000E-02 0. -1.
         -1   -1    0    0    0  501 -0.00000000000E+00 -0.00000000000E+00 -0.80744154340E+02  0.80744154497E+02  0.50400000000E-02 0.  1.
         24    2    1    2    0    0  0.00000000000E+00  0.00000000000E+00 -0.56713225712E+02  0.10477508326E+03  0.88098967653E+02 0.  0.
         66    2    3    3    0    0  0.71943069808E+01 -0.32310132945E+02  0.61519790378E+01  0.33727578898E+02  0.19999970948E+01 0.  0.
        -13    1    3    3    0    0 -0.71943069808E+01  0.32310132945E+02 -0.62865204750E+02  0.71047504362E+02  0.10566000000E+00 0.  1.
         13    1    4    4    0    0  0.86205199307E-01 -0.74972717614E+00  0.37924712669E+00  0.85118423019E+00  0.10566000000E+00 0. -1.
        -13    1    4    4    0    0  0.17283486754E+01 -0.83765277063E+01  0.19238519630E+01  0.87673129276E+01  0.10566000000E+00 0.  1.
         14    1    4    4    0    0  0.53797531061E+01 -0.23183878062E+02  0.38488799481E+01  0.24109081740E+02  0.00000000000E+00 0. -1.
<mgrwt>
<rscale>  0 0.88098968E+02</rscale>
<asrwt>0</asrwt>
<pdfrwt beam="1">  1        2 0.36970660E-02 0.88098968E+02</pdfrwt>
<pdfrwt beam="2">  1       -1 0.12422177E-01 0.88098968E+02</pdfrwt>
<totfact> 0.97704281E+04</totfact>
</mgrwt>
</event>
<event>
 8    1  0.1226832E-016  0.7957528E+02  0.7818608E-02  0.1330261E+00
          2   -1    0    0  501    0  0.00000000000E+00  0.00000000000E+00  0.23691759837E+03  0.23691759838E+03  0.25500000000E-02 0. -1.
         -1   -1    0    0    0  501 -0.00000000000E+00 -0.00000000000E+00 -0.66818843168E+01  0.66818862176E+01  0.50400000000E-02 0.  1.
         24    2    1    2    0    0  0.00000000000E+00 -0.35527136788E-14  0.23023571405E+03  0.24359948460E+03  0.79575278022E+02 0.  0.
         66    2    3    3    0    0  0.16934556111E+01 -0.27403127837E+02  0.20323789290E+03  0.20509373545E+03  0.19999998026E+01 0.  0.
        -13    1    3    3    0    0 -0.16934556111E+01  0.27403127837E+02  0.26997821144E+02  0.38505749151E+02  0.10566000000E+00 0.  1.
         13    1    4    4    0    0  0.15272022176E+01 -0.22627705222E+02  0.16222142733E+03  0.16379910879E+03  0.10566000000E+00 0. -1.
        -13    1    4    4    0    0  0.15139387331E+00 -0.17912232320E+01  0.15447999240E+02  0.15552596096E+02  0.10566000000E+00 0.  1.
         14    1    4    4    0    0  0.14859520153E-01 -0.29841993839E+01  0.25568466335E+02  0.25742030563E+02  0.00000000000E+00 0. -1.
<mgrwt>
<rscale>  0 0.79575278E+02</rscale>
<asrwt>0</asrwt>
<pdfrwt beam="1">  1        2 0.36448855E-01 0.79575278E+02</pdfrwt>
<pdfrwt beam="2">  1       -1 0.10279825E-02 0.79575278E+02</pdfrwt>
<totfact> 0.23744567E+05</totfact>
</mgrwt>
</event>
<event>
 8    1  0.1226832E-016  0.8095624E+02  0.7818608E-02  0.1326359E+00
         -1   -1    0    0    0  501 -0.00000000000E+00  0.00000000000E+00  0.11104934800E+03  0.11104934812E+03  0.50400000000E-02 0.  1.
          2   -1    0    0  501    0  0.00000000000E+00 -0.00000000000E+00 -0.14754504640E+02  0.14754504860E+02  0.25500000000E-02 0. -1.
         24    2    1    2    0    0  0.00000000000E+00  0.00000000000E+00  0.96294843363E+02  0.12580385298E+03  0.80956238585E+02 0.  0.
         66    2    3    3    0    0  0.55574381222E+01 -0.20947495904E+02 -0.49043922221E+01  0.22309992531E+02  0.20000001380E+01 0.  0.
        -13    1    3    3    0    0 -0.55574381222E+01  0.20947495904E+02  0.10119923559E+03  0.10349386045E+03  0.10566000000E+00 0.  1.
         13    1    4    4    0    0  0.11528626202E+01 -0.44461265554E+01 -0.15479893258E+01  0.48481510451E+01  0.10566000000E+00 0. -1.
        -13    1    4    4    0    0  0.31134293686E+01 -0.92011320298E+01 -0.16307868633E+01  0.98501219735E+01  0.10566000000E+00 0.  1.
        -14    1    4    4    0    0  0.12911461334E+01 -0.73002373185E+01 -0.17256160329E+01  0.76117195125E+01  0.00000000000E+00 0.  1.
<mgrwt>
<rscale>  0 0.80956239E+02</rscale>
<asrwt>0</asrwt>
<pdfrwt beam="1">  1        2 0.22699238E-02 0.80956239E+02</pdfrwt>
<pdfrwt beam="2">  1       -1 0.17084516E-01 0.80956239E+02</pdfrwt>
<totfact> 0.11245714E+05</totfact>
</mgrwt>
</event>
<event>
 8    1  0.1226832E-016  0.8471630E+02  0.7818608E-02  0.1316176E+00
         -1   -1    0    0    0  501 -0.00000000000E+00  0.00000000000E+00  0.46709967660E+02  0.46709967932E+02  0.50400000000E-02 0.  1.
          2   -1    0    0  501    0  0.00000000000E+00 -0.00000000000E+00 -0.38411780710E+02  0.38411780794E+02  0.25500000000E-02 0. -1.
         24    2    1    2    0    0  0.71054273576E-14 -0.35527136788E-14  0.82981869506E+01  0.85121748726E+02  0.84716304213E+02 0.  0.
         66    2    3    3    0    0  0.34309630271E+02 -0.23870897604E+02  0.10909474755E+02  0.43243347732E+02  0.20000004713E+01 0.  0.
        -13    1    3    3    0    0 -0.34309630271E+02  0.23870897604E+02 -0.26112878040E+01  0.41878400994E+02  0.10566000000E+00 0.  1.
         13    1    4    4    0    0  0.11517150725E+02 -0.81946073193E+01  0.29361202220E+01  0.14437046648E+02  0.10566000000E+00 0. -1.
        -13    1    4    4    0    0  0.77883810343E+01 -0.54157932869E+01  0.22563130657E+01  0.97515028968E+01  0.10566000000E+00 0.  1.
        -14    1    4    4    0    0  0.15004098512E+02 -0.10260496998E+02  0.57170414669E+01  0.19054798187E+02  0.00000000000E+00 0.  1.
<mgrwt>
<rscale>  0 0.84716304E+02</rscale>
<asrwt>0</asrwt>
<pdfrwt beam="1">  1        2 0.59095048E-02 0.84716304E+02</pdfrwt>
<pdfrwt beam="2">  1       -1 0.71861489E-02 0.84716304E+02</pdfrwt>
<totfact> 0.12054791E+05</totfact>
</mgrwt>
</event>
<event>
 8    1  0.1226832E-016  0.7436887E+02  0.7818608E-02  0.1345837E+00
         -1   -1    0    0    0  501 -0.00000000000E+00  0.00000000000E+00  0.65674674365E+01  0.65674693704E+01  0.50400000000E-02 0.  1.
          2   -1    0    0  501    0  0.00000000000E+00 -0.00000000000E+00 -0.21053502744E+03  0.21053502745E+03  0.25500000000E-02 0. -1.
         24    2    1    2    0    0  0.00000000000E+00  0.00000000000E+00 -0.20396756000E+03  0.21710249682E+03  0.74368868448E+02 0.  0.
         66    2    3    3    0    0 -0.33625406259E+02  0.24107042687E+01 -0.14767620562E+03  0.15148841919E+03  0.20000005670E+01 0.  0.
        -13    1    3    3    0    0  0.33625406259E+02 -0.24107042687E+01 -0.56291354381E+02  0.65614077630E+02  0.10566000000E+00 0.  1.
         13    1    4    4    0    0 -0.15448280090E+02  0.91830050241E+00 -0.64591217709E+02  0.66419343589E+02  0.10566000000E+00 0. -1.
        -13    1    4    4    0    0 -0.72748206791E+01  0.10552776861E+01 -0.34181818082E+02  0.34963473488E+02  0.10566000000E+00 0.  1.
         14    1    4    4    0    0 -0.10902305490E+02  0.43712608010E+00 -0.48903169830E+02  0.50105602118E+02  0.00000000000E+00 0. -1.
<mgrwt>
<rscale>  0 0.74368868E+02</rscale>
<asrwt>0</asrwt>
<pdfrwt beam="1">  1        2 0.32389999E-01 0.74368868E+02</pdfrwt>
<pdfrwt beam="2">  1       -1 0.10103799E-02 0.74368868E+02</pdfrwt>
<totfact> 0.27200996E+05</totfact>
</mgrwt>
</event>
<event>
 8    1  0.1226832E-016  0.8048270E+02  0.7818608E-02  0.1327687E+00
         -1   -1    0    0    0  501 -0.00000000000E+00  0.00000000000E+00  0.76580386724E+02  0.76580386890E+02  0.50400000000E-02 0.  1.
          2   -1    0    0  501    0  0.00000000000E+00 -0.00000000000E+00 -0.21145964281E+02  0.21145964435E+02  0.25500000000E-02 0. -1.
         24    2    1    2    0    0  0.88817841970E-15 -0.71054273576E-14  0.55434422443E+02  0.97726351324E+02  0.80482697219E+02 0.  0.
         66    2    3    3    0    0 -0.73350944954E+01  0.39532351848E+02  0.28786354385E+02  0.49490046023E+02  0.20000006623E+01 0.  0.
        -13    1    3    3    0    0  0.73350944954E+01 -0.39532351848E+02  0.26648068058E+02  0.48236305302E+02  0.10566000000E+00 0.  1.
         13    1    4    4    0    0 -0.40287510919E+01  0.19626877698E+02  0.13415503208E+02  0.24112902229E+02  0.10566000000E+00 0. -1.
        -13    1    4    4    0    0 -0.77288314569E+00  0.30870126336E+01  0.24679654957E+01  0.40285249261E+01  0.10566000000E+00 0. -1.
         14    1    4    4    0    0 -0.25334602578E+01  0.16818461517E+02  0.12902885681E+02  0.21348618868E+02  0.00000000000E+00 0. -1.
<mgrwt>
<rscale>  0 0.80482697E+02</rscale>
<asrwt>0</asrwt>
<pdfrwt beam="1">  1        2 0.32532253E-02 0.80482697E+02</pdfrwt>
<pdfrwt beam="2">  1       -1 0.11781598E-01 0.80482697E+02</pdfrwt>
<totfact> 0.12341408E+05</totfact>
</mgrwt>
</event>
<event>
 8    1  0.1226832E-016  0.8319376E+02  0.7818608E-02  0.1320225E+00
         -1   -1    0    0    0  501 -0.00000000000E+00  0.00000000000E+00  0.20107852341E+01  0.20107915505E+01  0.50400000000E-02 0.  1.
          2   -1    0    0  501    0  0.00000000000E+00 -0.00000000000E+00 -0.86050855570E+03  0.86050855570E+03  0.25500000000E-02 0. -1.
         24    2    1    2    0    0  0.00000000000E+00  0.00000000000E+00 -0.85849777047E+03  0.86251934725E+03  0.83193764748E+02 0.  0.
         66    2    3    3    0    0  0.16189989178E+02 -0.23913245869E+02 -0.73954399981E+03  0.74011032065E+03  0.19999990223E+01 0.  0.
        -13    1    3    3    0    0 -0.16189989178E+02  0.23913245869E+02 -0.11895377066E+03  0.12240902661E+03  0.10566000000E+00 0.  1.
         13    1    4    4    0    0  0.86937841681E+01 -0.13119093082E+02 -0.40622495767E+03  0.40652972817E+03  0.10566000000E+00 0. -1.
        -13    1    4    4    0    0  0.66201800633E+01 -0.87317699032E+01 -0.27217968962E+03  0.27240019309E+03  0.10566000000E+00 0. -1.
         14    1    4    4    0    0  0.87602494701E+00 -0.20623828838E+01 -0.61139352525E+02  0.61180399394E+02  0.00000000000E+00 0. -1.
<mgrwt>
<rscale>  0 0.83193765E+02</rscale>
<asrwt>0</asrwt>
<pdfrwt beam="1">  1        2 0.13238564E+00 0.83193765E+02</pdfrwt>
<pdfrwt beam="2">  1       -1 0.30935275E-03 0.83193765E+02</pdfrwt>
<totfact> 0.31388678E+05</totfact>
</mgrwt>
</event>
<event>
 8    1  0.1226832E-016  0.7975919E+02  0.7818608E-02  0.1329736E+00
          2   -1    0    0  501    0  0.00000000000E+00  0.00000000000E+00  0.32242452800E+03  0.32242452801E+03  0.25500000000E-02 0. -1.
         -1   -1    0    0    0  501 -0.00000000000E+00 -0.00000000000E+00 -0.49325698031E+01  0.49325723780E+01  0.50400000000E-02 0.  1.
         24    2    1    2    0    0 -0.35527136788E-14  0.00000000000E+00  0.31749195820E+03  0.32735710039E+03  0.79759185394E+02 0.  0.
         66    2    3    3    0    0  0.22307131681E+02  0.31987054810E+02  0.19259019380E+03  0.19650893757E+03  0.19999994572E+01 0.  0.
        -13    1    3    3    0    0 -0.22307131681E+02 -0.31987054810E+02  0.12490176439E+03  0.13084816282E+03  0.10566000000E+00 0.  1.
         13    1    4    4    0    0  0.79610540189E+01  0.11753045562E+02  0.71021231842E+02  0.72426093346E+02  0.10566000000E+00 0. -1.
        -13    1    4    4    0    0  0.30381449994E+01  0.33462166994E+01  0.21141190225E+02  0.21619171571E+02  0.10566000000E+00 0.  1.
        -14    1    4    4    0    0  0.11307932663E+02  0.16887792549E+02  0.10042777173E+03  0.10246367265E+03  0.00000000000E+00 0.  1.
<mgrwt>
<rscale>  0 0.79759185E+02</rscale>
<asrwt>0</asrwt>
<pdfrwt beam="1">  1        2 0.49603799E-01 0.79759185E+02</pdfrwt>
<pdfrwt beam="2">  1       -1 0.75885670E-03 0.79759185E+02</pdfrwt>
<totfact> 0.26374788E+05</totfact>
</mgrwt>
</event>
<event>
 8    1  0.1226832E-016  0.7998940E+02  0.7818608E-02  0.1329082E+00
         -1   -1    0    0    0  501 -0.00000000000E+00  0.00000000000E+00  0.72790679178E+02  0.72790679353E+02  0.50400000000E-02 0.  1.
          2   -1    0    0  501    0  0.00000000000E+00 -0.00000000000E+00 -0.21975013045E+02  0.21975013193E+02  0.25500000000E-02 0. -1.
         24    2    1    2    0    0  0.35527136788E-14  0.00000000000E+00  0.50815666133E+02  0.94765692546E+02  0.79989402793E+02 0.  0.
         66    2    3    3    0    0 -0.29958744682E+02  0.19806651973E+02  0.46405118417E+01  0.36267949999E+02  0.20000004171E+01 0.  0.
        -13    1    3    3    0    0  0.29958744682E+02 -0.19806651973E+02  0.46175154291E+02  0.58497742547E+02  0.10566000000E+00 0.  1.
         13    1    4    4    0    0 -0.45222333835E+00  0.16171674732E+00 -0.23673347515E-01  0.49232379294E+00  0.10566000000E+00 0.  1.
        -13    1    4    4    0    0 -0.19152548004E+01  0.10522858453E+01  0.71049202677E-01  0.21889994234E+01  0.10566000000E+00 0.  1.
         14    1    4    4    0    0 -0.27591266543E+02  0.18592649380E+02  0.45931359865E+01  0.33586626782E+02  0.00000000000E+00 0. -1.
<mgrwt>
<rscale>  0 0.79989403E+02</rscale>
<asrwt>0</asrwt>
<pdfrwt beam="1">  1        2 0.33807713E-02 0.79989403E+02</pdfrwt>
<pdfrwt beam="2">  1       -1 0.11198566E-01 0.79989403E+02</pdfrwt>
<totfact> 0.12657517E+05</totfact>
</mgrwt>
</event>
<event>
 8    1  0.1226832E-016  0.7951676E+02  0.7818608E-02  0.1330428E+00
          2   -1    0    0  501    0  0.00000000000E+00  0.00000000000E+00  0.28520820493E+02  0.28520820607E+02  0.25500000000E-02 0. -1.
         -1   -1    0    0    0  501 -0.00000000000E+00 -0.00000000000E+00 -0.55423676437E+02  0.55423676666E+02  0.50400000000E-02 0.  1.
         24    2    1    2    0    0  0.35527136788E-14  0.00000000000E+00 -0.26902855944E+02  0.83944497273E+02  0.79516759016E+02 0.  0.
         66    2    3    3    0    0  0.19524557783E+02  0.22196065654E+02  0.14567429901E+02  0.33016416029E+02  0.20000065872E+01 0.  0.
        -13    1    3    3    0    0 -0.19524557783E+02 -0.22196065654E+02 -0.41470285844E+02  0.50928081244E+02  0.10566000000E+00 0.  1.
         13    1    4    4    0    0  0.35167635692E+01  0.48300877940E+01  0.29237773755E+01  0.66525944019E+01  0.10566000000E+00 0. -1.
        -13    1    4    4    0    0  0.47638928138E+01  0.52107969111E+01  0.41349478967E+01  0.81826668840E+01  0.10566000000E+00 0.  1.
         14    1    4    4    0    0  0.11243901400E+02  0.12155180948E+02  0.75087046283E+01  0.18181154743E+02  0.00000000000E+00 0. -1.
<mgrwt>
<rscale>  0 0.79516759E+02</rscale>
<asrwt>0</asrwt>
<pdfrwt beam="1">  1        2 0.43878186E-02 0.79516759E+02</pdfrwt>
<pdfrwt beam="2">  1       -1 0.85267195E-02 0.79516759E+02</pdfrwt>
<totfact> 0.13550436E+05</totfact>
</mgrwt>
</event>
<event>
 8    1  0.1226832E-016  0.8589605E+02  0.7818608E-02  0.1313106E+00
         -1   -1    0    0    0  501 -0.00000000000E+00  0.00000000000E+00  0.19657977687E+02  0.19657978333E+02  0.50400000000E-02 0.  1.
          2   -1    0    0  501    0  0.00000000000E+00 -0.00000000000E+00 -0.93831259564E+02  0.93831259599E+02  0.25500000000E-02 0. -1.
         24    2    1    2    0    0  0.00000000000E+00  0.17763568394E-14 -0.74173281878E+02  0.11348923793E+03  0.85896049862E+02 0.  0.
         66    2    3    3    0    0  0.67569836629E+01  0.91828452867E+01 -0.91783436015E+02  0.92510435093E+02  0.19999996328E+01 0.  0.
        -13    1    3    3    0    0 -0.67569836629E+01 -0.91828452867E+01  0.17610154138E+02  0.20978802839E+02  0.10566000000E+00 0.  1.
         13    1    4    4    0    0  0.55694708626E+01  0.67418581166E+01 -0.69714215483E+02  0.70260619560E+02  0.10566000000E+00 0. -1.
        -13    1    4    4    0    0  0.30305310582E+00  0.10159078800E+01 -0.11385903039E+02  0.11435639994E+02  0.10566000000E+00 0.  1.
        -14    1    4    4    0    0  0.88445969448E+00  0.14250792901E+01 -0.10683317493E+02  0.10814175539E+02  0.00000000000E+00 0.  1.
<mgrwt>
<rscale>  0 0.85896050E+02</rscale>
<asrwt>0</asrwt>
<pdfrwt beam="1">  1        2 0.14435578E-01 0.85896050E+02</pdfrwt>
<pdfrwt beam="2">  1       -1 0.30243044E-02 0.85896050E+02</pdfrwt>
<totfact> 0.14378960E+05</totfact>
</mgrwt>
</event>
<event>
 8    1  0.1226832E-016  0.7935960E+02  0.7818608E-02  0.1330879E+00
          2   -1    0    0  501    0  0.00000000000E+00  0.00000000000E+00  0.16766690598E+03  0.16766690600E+03  0.25500000000E-02 0. -1.
         -1   -1    0    0    0  501 -0.00000000000E+00 -0.00000000000E+00 -0.93905611258E+01  0.93905624784E+01  0.50400000000E-02 0.  1.
         24    2    1    2    0    0 -0.35527136788E-14  0.00000000000E+00  0.15827634486E+03  0.17705746848E+03  0.79359598055E+02 0.  0.
         66    2    3    3    0    0  0.24144783297E+02  0.19221452014E+02  0.13474378708E+03  0.13824732525E+03  0.20000011759E+01 0.  0.
        -13    1    3    3    0    0 -0.24144783297E+02 -0.19221452014E+02  0.23532557780E+02  0.38810143231E+02  0.10566000000E+00 0.  1.
         13    1    4    4    0    0  0.16864473135E+02  0.12450318166E+02  0.92152921771E+02  0.94507105720E+02  0.10566000000E+00 0. -1.
        -13    1    4    4    0    0  0.41820431704E+01  0.34869537236E+01  0.23399416718E+02  0.24024824623E+02  0.10566000000E+00 0.  1.
         14    1    4    4    0    0  0.30982669909E+01  0.32841801236E+01  0.19191448587E+02  0.19715394906E+02  0.00000000000E+00 0. -1.
<mgrwt>
<rscale>  0 0.79359598E+02</rscale>
<asrwt>0</asrwt>
<pdfrwt beam="1">  1        2 0.25794909E-01 0.79359598E+02</pdfrwt>
<pdfrwt beam="2">  1       -1 0.14447018E-02 0.79359598E+02</pdfrwt>
<totfact> 0.21220118E+05</totfact>
</mgrwt>
</event>
<event>
 8    1  0.1226832E-016  0.8109392E+02  0.7818608E-02  0.1325975E+00
         -1   -1    0    0    0  501 -0.00000000000E+00  0.00000000000E+00  0.32165204296E+01  0.32165243782E+01  0.50400000000E-02 0.  1.
          2   -1    0    0  501    0  0.00000000000E+00 -0.00000000000E+00 -0.51112834244E+03  0.51112834244E+03  0.25500000000E-02 0. -1.
         24    2    1    2    0    0  0.00000000000E+00  0.35527136788E-14 -0.50791182201E+03  0.51434486682E+03  0.81093915251E+02 0.  0.
         66    2    3    3    0    0 -0.25898556965E+02 -0.29036811735E+02 -0.32591826833E+03  0.32823861643E+03  0.19999999329E+01 0.  0.
        -13    1    3    3    0    0  0.25898556965E+02  0.29036811735E+02 -0.18199355368E+03  0.18610625039E+03  0.10566000000E+00 0.  1.
         13    1    4    4    0    0 -0.93692840295E+01 -0.10549861964E+02 -0.11982912210E+03  0.12065700451E+03  0.10566000000E+00 0. -1.
        -13    1    4    4    0    0 -0.43420401257E+01 -0.46395657749E+01 -0.58468470560E+02  0.58812856560E+02  0.10566000000E+00 0.  1.
        -14    1    4    4    0    0 -0.12187232809E+02 -0.13847383996E+02 -0.14762067567E+03  0.14876875536E+03  0.00000000000E+00 0.  1.
<mgrwt>
<rscale>  0 0.81093915E+02</rscale>
<asrwt>0</asrwt>
<pdfrwt beam="1">  1        2 0.78635065E-01 0.81093915E+02</pdfrwt>
<pdfrwt beam="2">  1       -1 0.49485001E-03 0.81093915E+02</pdfrwt>
<totfact> 0.29597407E+05</totfact>
</mgrwt>
</event>
<event>
 8    1  0.1226832E-016  0.7766797E+02  0.7818608E-02  0.1335803E+00
          2   -1    0    0  501    0  0.00000000000E+00  0.00000000000E+00  0.21382957836E+02  0.21382957988E+02  0.25500000000E-02 0. -1.
         -1   -1    0    0    0  501 -0.00000000000E+00 -0.00000000000E+00 -0.70527112165E+02  0.70527112345E+02  0.50400000000E-02 0.  1.
         24    2    1    2    0    0  0.17763568394E-14 -0.35527136788E-14 -0.49144154330E+02  0.91910070333E+02  0.77667967167E+02 0.  0.
         66    2    3    3    0    0  0.12992051208E+02  0.25791065167E+02  0.60904772581E+01  0.29581520473E+02  0.20000008099E+01 0.  0.
        -13    1    3    3    0    0 -0.12992051208E+02 -0.25791065167E+02 -0.55234631588E+02  0.62328549860E+02  0.10566000000E+00 0.  1.
         13    1    4    4    0    0  0.50976652942E+01  0.85152914882E+01  0.19416346531E+01  0.10113233397E+02  0.10566000000E+00 0.  1.
        -13    1    4    4    0    0  0.40813831316E+01  0.79324322074E+01  0.16618198575E+01  0.90749092704E+01  0.10566000000E+00 0. -1.
        -14    1    4    4    0    0  0.38130027820E+01  0.93433414710E+01  0.24870227475E+01  0.10393377805E+02  0.00000000000E+00 0.  1.
<mgrwt>
<rscale>  0 0.77667967E+02</rscale>
<asrwt>0</asrwt>
<pdfrwt beam="1">  1        2 0.32896859E-02 0.77667967E+02</pdfrwt>
<pdfrwt beam="2">  1       -1 0.10850325E-01 0.77667967E+02</pdfrwt>
<totfact> 0.13691304E+05</totfact>
</mgrwt>
</event>
<event>
 8    1  0.1226832E-016  0.7873661E+02  0.7818608E-02  0.1332675E+00
          2   -1    0    0  501    0  0.00000000000E+00  0.00000000000E+00  0.10153519240E+02  0.10153519560E+02  0.25500000000E-02 0. -1.
         -1   -1    0    0    0  501 -0.00000000000E+00 -0.00000000000E+00 -0.15264298398E+03  0.15264298406E+03  0.50400000000E-02 0.  1.
         24    2    1    2    0    0  0.00000000000E+00  0.00000000000E+00 -0.14248946474E+03  0.16279650362E+03  0.78736611751E+02 0.  0.
         66    2    3    3    0    0 -0.18884311017E+02  0.34406479852E+02 -0.76928554199E+02  0.86385331578E+02  0.20000005662E+01 0.  0.
        -13    1    3    3    0    0  0.18884311017E+02 -0.34406479852E+02 -0.65560910542E+02  0.76411172047E+02  0.10566000000E+00 0.  1.
         13    1    4    4    0    0 -0.14881478353E+02  0.26583121015E+02 -0.58483643045E+02  0.65942917654E+02  0.10566000000E+00 0. -1.
        -13    1    4    4    0    0 -0.19460249946E+01  0.39075875454E+01 -0.84133499936E+01  0.94790229378E+01  0.10566000000E+00 0.  1.
        -14    1    4    4    0    0 -0.20568076691E+01  0.39157712910E+01 -0.10031561160E+02  0.10963390986E+02  0.00000000000E+00 0.  1.
<mgrwt>
<rscale>  0 0.78736612E+02</rscale>
<asrwt>0</asrwt>
<pdfrwt beam="1">  1        2 0.15620800E-02 0.78736612E+02</pdfrwt>
<pdfrwt beam="2">  1       -1 0.23483535E-01 0.78736612E+02</pdfrwt>
<totfact> 0.11180132E+05</totfact>
</mgrwt>
</event>
<event>
 8    1  0.1257032E-016  0.7019498E+02  0.7818608E-02  0.1359431E+00
          2   -1    0    0  501    0  0.00000000000E+00  0.00000000000E+00  0.51770532959E+03  0.51770532959E+03  0.25500000000E-02 0. -1.
         -1   -1    0    0    0  501 -0.00000000000E+00 -0.00000000000E+00 -0.23794084083E+01  0.23794137461E+01  0.50400000000E-02 0.  1.
         24    2    1    2    0    0  0.00000000000E+00  0.00000000000E+00  0.51532592118E+03  0.52008474334E+03  0.70194979989E+02 0.  0.
         66    2    3    3    0    0 -0.14690091101E+02  0.12649906413E+02  0.47439231957E+03  0.47479247232E+03  0.20000005754E+01 0.  0.
        -13    1    3    3    0    0  0.14690091101E+02 -0.12649906413E+02  0.40933601613E+02  0.45292271017E+02  0.10566000000E+00 0.  1.
         13    1    4    4    0    0 -0.73358765803E+01  0.61959738203E+01  0.24043624747E+03  0.24062793985E+03  0.10566000000E+00 0. -1.
        -13    1    4    4    0    0 -0.93489745361E+00  0.30451833088E+00  0.23099180297E+02  0.23120338646E+02  0.10566000000E+00 0.  1.
        -14    1    4    4    0    0 -0.64193170673E+01  0.61494142620E+01  0.21085689180E+03  0.21104419383E+03  0.00000000000E+00 0.  1.
<mgrwt>
<rscale>  0 0.70194980E+02</rscale>
<asrwt>0</asrwt>
<pdfrwt beam="1">  1        2 0.79647070E-01 0.70194980E+02</pdfrwt>
<pdfrwt beam="2">  1       -1 0.36606280E-03 0.70194980E+02</pdfrwt>
<totfact> 0.43180786E+05</totfact>
</mgrwt>
</event>
<event>
 8    1  0.1226832E-016  0.7386296E+02  0.7818608E-02  0.1347429E+00
         -1   -1    0    0    0  501 -0.00000000000E+00  0.00000000000E+00  0.23563811177E+01  0.23563865076E+01  0.50400000000E-02 0.  1.
          2   -1    0    0  501    0  0.00000000000E+00 -0.00000000000E+00 -0.57882511010E+03  0.57882511010E+03  0.25500000000E-02 0. -1.
         24    2    1    2    0    0  0.00000000000E+00  0.00000000000E+00 -0.57646872898E+03  0.58118149661E+03  0.73862957638E+02 0.  0.
         66    2    3    3    0    0 -0.29722696996E+02 -0.80921930357E+01 -0.44835073733E+03  0.44941217828E+03  0.20000043886E+01 0.  0.
        -13    1    3    3    0    0  0.29722696996E+02  0.80921930357E+01 -0.12811799165E+03  0.13176931833E+03  0.10566000000E+00 0.  1.
         13    1    4    4    0    0 -0.23418764979E+02 -0.65068061812E+01 -0.35750074459E+03  0.35832606746E+03  0.10566000000E+00 0. -1.
        -13    1    4    4    0    0 -0.15995249705E+01 -0.23701195925E+00 -0.18524437555E+02  0.18595176944E+02  0.10566000000E+00 0.  1.
        -14    1    4    4    0    0 -0.47044070460E+01 -0.13483748952E+01 -0.72325555185E+02  0.72490933869E+02  0.00000000000E+00 0.  1.
<mgrwt>
<rscale>  0 0.73862958E+02</rscale>
<asrwt>0</asrwt>
<pdfrwt beam="1">  1        2 0.89049903E-01 0.73862958E+02</pdfrwt>
<pdfrwt beam="2">  1       -1 0.36252105E-03 0.73862958E+02</pdfrwt>
<totfact> 0.39155779E+05</totfact>
</mgrwt>
</event>
<event>
 8    1  0.1226832E-016  0.8112163E+02  0.7818608E-02  0.1325898E+00
          2   -1    0    0  501    0  0.00000000000E+00  0.00000000000E+00  0.40856685526E+03  0.40856685526E+03  0.25500000000E-02 0. -1.
         -1   -1    0    0    0  501 -0.00000000000E+00 -0.00000000000E+00 -0.40267071245E+01  0.40267102786E+01  0.50400000000E-02 0.  1.
         24    2    1    2    0    0  0.00000000000E+00  0.00000000000E+00  0.40454014813E+03  0.41259356554E+03  0.81121630142E+02 0.  0.
         66    2    3    3    0    0  0.36395561285E+02 -0.14027745083E+02  0.25851537128E+03  0.26144906140E+03  0.20000016305E+01 0.  0.
        -13    1    3    3    0    0 -0.36395561285E+02  0.14027745083E+02  0.14602477685E+03  0.15114450414E+03  0.10566000000E+00 0.  1.
         13    1    4    4    0    0  0.25707004433E+02 -0.94493174830E+01  0.18042157289E+03  0.18248861555E+03  0.10566000000E+00 0. -1.
        -13    1    4    4    0    0  0.61967946292E+01 -0.22594591745E+01  0.42223782314E+02  0.42735984560E+02  0.10566000000E+00 0.  1.
         14    1    4    4    0    0  0.44917622230E+01 -0.23189684254E+01  0.35870016078E+02  0.36224461292E+02  0.00000000000E+00 0. -1.
<mgrwt>
<rscale>  0 0.81121630E+02</rscale>
<asrwt>0</asrwt>
<pdfrwt beam="1">  1        2 0.62856455E-01 0.81121630E+02</pdfrwt>
<pdfrwt beam="2">  1       -1 0.61949349E-03 0.81121630E+02</pdfrwt>
<totfact> 0.27445997E+05</totfact>
</mgrwt>
</event>
<event>
 8    1  0.1226832E-016  0.8004238E+02  0.7818608E-02  0.1328931E+00
         -1   -1    0    0    0  501 -0.00000000000E+00  0.00000000000E+00  0.24988637125E+01  0.24988687952E+01  0.50400000000E-02 0.  1.
          2   -1    0    0  501    0  0.00000000000E+00 -0.00000000000E+00 -0.64096900185E+03  0.64096900186E+03  0.25500000000E-02 0. -1.
         24    2    1    2    0    0  0.00000000000E+00  0.71054273576E-14 -0.63847013814E+03  0.64346787065E+03  0.80042384184E+02 0.  0.
         66    2    3    3    0    0  0.40844963435E+01 -0.32755936879E+02 -0.50099204818E+03  0.50208233075E+03  0.19999995658E+01 0.  0.
        -13    1    3    3    0    0 -0.40844963435E+01  0.32755936879E+02 -0.13747808996E+03  0.14138553990E+03  0.10566000000E+00 0.  1.
         13    1    4    4    0    0  0.68450582359E+00 -0.54836025940E+01 -0.74112121816E+02  0.74317940026E+02  0.10566000000E+00 0. -1.
        -13    1    4    4    0    0  0.23184394475E+01 -0.15760076598E+02 -0.24883145369E+03  0.24934084841E+03  0.10566000000E+00 0.  1.
         14    1    4    4    0    0  0.10815510724E+01 -0.11512257687E+02 -0.17804847267E+03  0.17842354231E+03  0.00000000000E+00 0. -1.
<mgrwt>
<rscale>  0 0.80042384E+02</rscale>
<asrwt>0</asrwt>
<pdfrwt beam="1">  1        2 0.98610485E-01 0.80042384E+02</pdfrwt>
<pdfrwt beam="2">  1       -1 0.38444147E-03 0.80042384E+02</pdfrwt>
<totfact> 0.32694505E+05</totfact>
</mgrwt>
</event>
<event>
 8    1  0.1226832E-016  0.7939617E+02  0.7818608E-02  0.1330774E+00
          2   -1    0    0  501    0  0.00000000000E+00  0.00000000000E+00  0.21794831692E+02  0.21794831842E+02  0.25500000000E-02 0. -1.
         -1   -1    0    0    0  501 -0.00000000000E+00 -0.00000000000E+00 -0.72307867821E+02  0.72307867997E+02  0.50400000000E-02 0.  1.
         24    2    1    2    0    0  0.00000000000E+00  0.00000000000E+00 -0.50513036129E+02  0.94102699839E+02  0.79396166771E+02 0.  0.
         66    2    3    3    0    0  0.35785264230E+02  0.24835550077E+01 -0.51871496565E+01  0.36299582881E+02  0.20000035788E+01 0.  0.
        -13    1    3    3    0    0 -0.35785264230E+02 -0.24835550077E+01 -0.45325886473E+02  0.57803116958E+02  0.10566000000E+00 0.  1.
         13    1    4    4    0    0  0.43963857340E+01  0.95616692111E-01 -0.11133939141E+01  0.45374177808E+01  0.10566000000E+00 0.  1.
        -13    1    4    4    0    0  0.12807713050E+02  0.96173265831E+00 -0.11090598030E+01  0.12891998331E+02  0.10566000000E+00 0. -1.
         14    1    4    4    0    0  0.18581165446E+02  0.14262056573E+01 -0.29646959395E+01  0.18870166770E+02  0.00000000000E+00 0. -1.
<mgrwt>
<rscale>  0 0.79396167E+02</rscale>
<asrwt>0</asrwt>
<pdfrwt beam="1">  1        2 0.33530511E-02 0.79396167E+02</pdfrwt>
<pdfrwt beam="2">  1       -1 0.11124287E-01 0.79396167E+02</pdfrwt>
<totfact> 0.12908050E+05</totfact>
</mgrwt>
</event>
<event>
 8    1  0.1226832E-016  0.7925543E+02  0.7818608E-02  0.1331178E+00
          2   -1    0    0  501    0  0.00000000000E+00  0.00000000000E+00  0.71793018970E+02  0.71793019016E+02  0.25500000000E-02 0. -1.
         -1   -1    0    0    0  501 -0.00000000000E+00 -0.00000000000E+00 -0.21873374843E+02  0.21873375423E+02  0.50400000000E-02 0.  1.
         24    2    1    2    0    0  0.00000000000E+00 -0.35527136788E-14  0.49919644128E+02  0.93666394439E+02  0.79255426170E+02 0.  0.
         66    2    3    3    0    0 -0.31357299707E+02  0.21083327580E+02  0.38987392566E+02  0.54330504529E+02  0.19999991019E+01 0.  0.
        -13    1    3    3    0    0  0.31357299707E+02 -0.21083327580E+02  0.10932251561E+02  0.39335889910E+02  0.10566000000E+00 0.  1.
         13    1    4    4    0    0 -0.18527357985E+02  0.12214730568E+02  0.23304713229E+02  0.32180482586E+02  0.10566000000E+00 0. -1.
        -13    1    4    4    0    0 -0.92319771789E+01  0.61899143765E+01  0.10430481607E+02  0.15243049341E+02  0.10566000000E+00 0.  1.
        -14    1    4    4    0    0 -0.35979645432E+01  0.26786826357E+01  0.52521977302E+01  0.69069726012E+01  0.00000000000E+00 0.  1.
<mgrwt>
<rscale>  0 0.79255426E+02</rscale>
<asrwt>0</asrwt>
<pdfrwt beam="1">  1        2 0.11045080E-01 0.79255426E+02</pdfrwt>
<pdfrwt beam="2">  1       -1 0.33651346E-02 0.79255426E+02</pdfrwt>
<totfact> 0.16662914E+05</totfact>
</mgrwt>
</event>
<event>
 8    1  0.1226832E-016  0.7969203E+02  0.7818608E-02  0.1329928E+00
          2   -1    0    0  501    0  0.00000000000E+00  0.00000000000E+00  0.17752299049E+03  0.17752299050E+03  0.25500000000E-02 0. -1.
         -1   -1    0    0    0  501 -0.00000000000E+00 -0.00000000000E+00 -0.89436567000E+01  0.89436581201E+01  0.50400000000E-02 0.  1.
         24    2    1    2    0    0  0.17763568394E-14  0.00000000000E+00  0.16857933379E+03  0.18646664862E+03  0.79692027641E+02 0.  0.
         66    2    3    3    0    0  0.15653818431E+02 -0.28508991419E+02  0.13810271913E+03  0.14189491063E+03  0.20000018633E+01 0.  0.
        -13    1    3    3    0    0 -0.15653818431E+02  0.28508991419E+02  0.30476614655E+02  0.44571737997E+02  0.10566000000E+00 0.  1.
         13    1    4    4    0    0  0.26822935776E+01 -0.45864824132E+01  0.20453629723E+02  0.21132738882E+02  0.10566000000E+00 0. -1.
        -13    1    4    4    0    0  0.88068238469E+01 -0.16565096801E+02  0.83585481370E+02  0.85665082958E+02  0.10566000000E+00 0.  1.
        -14    1    4    4    0    0  0.41647010066E+01 -0.73574122044E+01  0.34063608037E+02  0.35097088787E+02  0.00000000000E+00 0.  1.
<mgrwt>
<rscale>  0 0.79692028E+02</rscale>
<asrwt>0</asrwt>
<pdfrwt beam="1">  1        2 0.27311229E-01 0.79692028E+02</pdfrwt>
<pdfrwt beam="2">  1       -1 0.13759473E-02 0.79692028E+02</pdfrwt>
<totfact> 0.21391776E+05</totfact>
</mgrwt>
</event>
<event>
 8    1  0.1226832E-016  0.7817323E+02  0.7818608E-02  0.1334317E+00
         -1   -1    0    0    0  501 -0.00000000000E+00  0.00000000000E+00  0.42399356349E+01  0.42399386305E+01  0.50400000000E-02 0.  1.
          2   -1    0    0  501    0  0.00000000000E+00 -0.00000000000E+00 -0.36032692753E+03  0.36032692754E+03  0.25500000000E-02 0. -1.
         24    2    1    2    0    0 -0.27755575616E-16  0.00000000000E+00 -0.35608699189E+03  0.36456686617E+03  0.78173231427E+02 0.  0.
         66    2    3    3    0    0 -0.13422788094E+00 -0.32775908256E+02 -0.27725170850E+03  0.27918951992E+03  0.19999981732E+01 0.  0.
        -13    1    3    3    0    0  0.13422788094E+00  0.32775908256E+02 -0.78835283397E+02  0.85377346243E+02  0.10566000000E+00 0.  1.
         13    1    4    4    0    0  0.23492015444E-01 -0.24863719840E+02 -0.20945164921E+03  0.21092228341E+03  0.10566000000E+00 0. -1.
        -13    1    4    4    0    0 -0.36996873787E+00 -0.62988242944E+01 -0.56314321979E+02  0.56666798819E+02  0.10566000000E+00 0.  1.
         14    1    4    4    0    0  0.21224884149E+00 -0.16133641220E+01 -0.11485737305E+02  0.11600437699E+02  0.00000000000E+00 0. -1.
<mgrwt>
<rscale>  0 0.78173231E+02</rscale>
<asrwt>0</asrwt>
<pdfrwt beam="1">  1        2 0.55434888E-01 0.78173231E+02</pdfrwt>
<pdfrwt beam="2">  1       -1 0.65229831E-03 0.78173231E+02</pdfrwt>
<totfact> 0.28924101E+05</totfact>
</mgrwt>
</event>
<event>
 8    1  0.1226832E-016  0.7959046E+02  0.7818608E-02  0.1330218E+00
          2   -1    0    0  501    0  0.00000000000E+00  0.00000000000E+00  0.89618075860E+02  0.89618075896E+02  0.25500000000E-02 0. -1.
         -1   -1    0    0    0  501 -0.00000000000E+00 -0.00000000000E+00 -0.17671215928E+02  0.17671216647E+02  0.50400000000E-02 0.  1.
         24    2    1    2    0    0 -0.35527136788E-14 -0.71054273576E-14  0.71946859932E+02  0.10728929254E+03  0.79590461993E+02 0.  0.
         66    2    3    3    0    0 -0.18745363729E+02 -0.34414848760E+02  0.45127340289E+02  0.59801733388E+02  0.19999995618E+01 0.  0.
        -13    1    3    3    0    0  0.18745363729E+02  0.34414848760E+02  0.26819519643E+02  0.47487559154E+02  0.10566000000E+00 0.  1.
         13    1    4    4    0    0 -0.40545970243E+01 -0.81649472358E+01  0.10795529937E+02  0.14130136272E+02  0.10566000000E+00 0.  1.
        -13    1    4    4    0    0 -0.26625739160E+01 -0.44905442847E+01  0.68308969059E+01  0.85980581765E+01  0.10566000000E+00 0. -1.
         14    1    4    4    0    0 -0.12028192789E+02 -0.21759357239E+02  0.27500913446E+02  0.37073538940E+02  0.00000000000E+00 0. -1.
<mgrwt>
<rscale>  0 0.79590462E+02</rscale>
<asrwt>0</asrwt>
<pdfrwt beam="1">  1        2 0.13787397E-01 0.79590462E+02</pdfrwt>
<pdfrwt beam="2">  1       -1 0.27186486E-02 0.79590462E+02</pdfrwt>
<totfact> 0.17439798E+05</totfact>
</mgrwt>
</event>
<event>
 8    1  0.1226832E-016  0.8097206E+02  0.7818608E-02  0.1326315E+00
         -1   -1    0    0    0  501 -0.00000000000E+00  0.00000000000E+00  0.10869758916E+02  0.10869760084E+02  0.50400000000E-02 0.  1.
          2   -1    0    0  501    0  0.00000000000E+00 -0.00000000000E+00 -0.15079622769E+03  0.15079622771E+03  0.25500000000E-02 0. -1.
         24    2    1    2    0    0  0.00000000000E+00  0.00000000000E+00 -0.13992646877E+03  0.16166598779E+03  0.80972062752E+02 0.  0.
         66    2    3    3    0    0 -0.48446716104E+01  0.22575897018E+02 -0.13634380962E+03  0.13829958927E+03  0.20000005658E+01 0.  0.
        -13    1    3    3    0    0  0.48446716104E+01 -0.22575897018E+02 -0.35826591523E+01  0.23366398521E+02  0.10566000000E+00 0.  1.
         13    1    4    4    0    0 -0.22349507487E+01  0.11323683540E+02 -0.63074376707E+02  0.64121829160E+02  0.10566000000E+00 0. -1.
        -13    1    4    4    0    0 -0.25723413920E+01  0.10216422882E+02 -0.66498528452E+02  0.67327985913E+02  0.10566000000E+00 0.  1.
        -14    1    4    4    0    0 -0.37379469741E-01  0.10357905955E+01 -0.67709044579E+01  0.68497741977E+01  0.00000000000E+00 0.  1.
<mgrwt>
<rscale>  0 0.80972063E+02</rscale>
<asrwt>0</asrwt>
<pdfrwt beam="1">  1        2 0.23199418E-01 0.80972063E+02</pdfrwt>
<pdfrwt beam="2">  1       -1 0.16722708E-02 0.80972063E+02</pdfrwt>
<totfact> 0.19431081E+05</totfact>
</mgrwt>
</event>
<event>
 8    1  0.1226832E-016  0.7893504E+02  0.7818608E-02  0.1332101E+00
          2   -1    0    0  501    0  0.00000000000E+00  0.00000000000E+00  0.49974580147E+03  0.49974580147E+03  0.25500000000E-02 0. -1.
         -1   -1    0    0    0  501 -0.00000000000E+00 -0.00000000000E+00 -0.31169532404E+01  0.31169573151E+01  0.50400000000E-02 0.  1.
         24    2    1    2    0    0  0.88817841970E-15 -0.35527136788E-14  0.49662884823E+03  0.50286275879E+03  0.78935044724E+02 0.  0.
         66    2    3    3    0    0 -0.50452390279E+01  0.19472008489E+02  0.46461077188E+03  0.46505030147E+03  0.19999997473E+01 0.  0.
        -13    1    3    3    0    0  0.50452390279E+01 -0.19472008489E+02  0.32018076343E+02  0.37812457315E+02  0.10566000000E+00 0.  1.
         13    1    4    4    0    0 -0.13378893235E+01  0.59209005879E+01  0.15859489035E+03  0.15871105009E+03  0.10566000000E+00 0. -1.
        -13    1    4    4    0    0 -0.15309299053E+01  0.60449761819E+01  0.12778702952E+03  0.12793913225E+03  0.10566000000E+00 0.  1.
        -14    1    4    4    0    0 -0.21764197991E+01  0.75061317194E+01  0.17822885201E+03  0.17840011913E+03  0.00000000000E+00 0.  1.
<mgrwt>
<rscale>  0 0.78935045E+02</rscale>
<asrwt>0</asrwt>
<pdfrwt beam="1">  1        2 0.76883959E-01 0.78935045E+02</pdfrwt>
<pdfrwt beam="2">  1       -1 0.47953165E-03 0.78935045E+02</pdfrwt>
<totfact> 0.31527868E+05</totfact>
</mgrwt>
</event>
<event>
 8    1  0.1226832E-016  0.7889520E+02  0.7818608E-02  0.1332216E+00
          2   -1    0    0  501    0  0.00000000000E+00  0.00000000000E+00  0.71582522266E+03  0.71582522266E+03  0.25500000000E-02 0. -1.
         -1   -1    0    0    0  501 -0.00000000000E+00 -0.00000000000E+00 -0.21738698392E+01  0.21738756817E+01  0.50400000000E-02 0.  1.
         24    2    1    2    0    0  0.00000000000E+00  0.00000000000E+00  0.71365135282E+03  0.71799909835E+03  0.78895195310E+02 0.  0.
         66    2    3    3    0    0  0.18848569264E+02  0.22083551091E+02  0.59974655959E+03  0.60045223588E+03  0.20000084888E+01 0.  0.
        -13    1    3    3    0    0 -0.18848569264E+02 -0.22083551091E+02  0.11390479323E+03  0.11754686247E+03  0.10566000000E+00 0.  1.
         13    1    4    4    0    0  0.65003647668E+01  0.76696407124E+01  0.22055697017E+03  0.22078601946E+03  0.10566000000E+00 0. -1.
        -13    1    4    4    0    0  0.16416529257E+01  0.24406509285E+01  0.63951345473E+02  0.64019040551E+02  0.10566000000E+00 0. -1.
         14    1    4    4    0    0  0.10706551571E+02  0.11973259450E+02  0.31523824395E+03  0.31564717587E+03  0.00000000000E+00 0. -1.
<mgrwt>
<rscale>  0 0.78895195E+02</rscale>
<asrwt>0</asrwt>
<pdfrwt beam="1">  1        2 0.11012730E+00 0.78895195E+02</pdfrwt>
<pdfrwt beam="2">  1       -1 0.33444094E-03 0.78895195E+02</pdfrwt>
<totfact> 0.34856693E+05</totfact>
</mgrwt>
</event>
<event>
 8    1  0.1226832E-016  0.7990752E+02  0.7818608E-02  0.1329314E+00
          2   -1    0    0  501    0  0.00000000000E+00  0.00000000000E+00  0.65998163238E+03  0.65998163238E+03  0.25500000000E-02 0. -1.
         -1   -1    0    0    0  501 -0.00000000000E+00 -0.00000000000E+00 -0.24187055846E+01  0.24187108357E+01  0.50400000000E-02 0.  1.
         24    2    1    2    0    0  0.35527136788E-14  0.00000000000E+00  0.65756292679E+03  0.66240034322E+03  0.79907521567E+02 0.  0.
         66    2    3    3    0    0  0.27284476751E+02  0.91301165539E+01  0.55848962286E+03  0.55923381562E+03  0.19999984857E+01 0.  0.
        -13    1    3    3    0    0 -0.27284476751E+02 -0.91301165539E+01  0.99073303937E+02  0.10316652760E+03  0.10566000000E+00 0.  1.
         13    1    4    4    0    0  0.31107166025E+01  0.14239097188E+01  0.65715131087E+02  0.65804207270E+02  0.10566000000E+00 0.  1.
        -13    1    4    4    0    0  0.86155113136E+01  0.22508811161E+01  0.16236163889E+03  0.16260567779E+03  0.10566000000E+00 0. -1.
         14    1    4    4    0    0  0.15558248835E+02  0.54553257190E+01  0.33041285288E+03  0.33082393056E+03  0.00000000000E+00 0. -1.
<mgrwt>
<rscale>  0 0.79907522E+02</rscale>
<asrwt>0</asrwt>
<pdfrwt beam="1">  1        2 0.10153576E+00 0.79907522E+02</pdfrwt>
<pdfrwt beam="2">  1       -1 0.37210851E-03 0.79907522E+02</pdfrwt>
<totfact> 0.33083084E+05</totfact>
</mgrwt>
</event>
<event>
 8    1  0.1226832E-016  0.7814100E+02  0.7818608E-02  0.1334411E+00
          2   -1    0    0  501    0  0.00000000000E+00  0.00000000000E+00  0.18327316515E+03  0.18327316517E+03  0.25500000000E-02 0. -1.
         -1   -1    0    0    0  501 -0.00000000000E+00 -0.00000000000E+00 -0.83291170280E+01  0.83291185528E+01  0.50400000000E-02 0.  1.
         24    2    1    2    0    0  0.88817841970E-15  0.00000000000E+00  0.17494404812E+03  0.19160228372E+03  0.78140995346E+02 0.  0.
         66    2    3    3    0    0  0.67483674808E+01 -0.28162911384E+02  0.23316120804E+02  0.37233473568E+02  0.20000058124E+01 0.  0.
        -13    1    3    3    0    0 -0.67483674808E+01  0.28162911384E+02  0.15162792732E+03  0.15436881015E+03  0.10566000000E+00 0.  1.
         13    1    4    4    0    0  0.23280260728E+01 -0.79341097279E+01  0.71199289198E+01  0.10912119612E+02  0.10566000000E+00 0. -1.
        -13    1    4    4    0    0  0.27043629074E+01 -0.11423232513E+02  0.83901573171E+01  0.14429474128E+02  0.10566000000E+00 0.  1.
         14    1    4    4    0    0  0.17159785006E+01 -0.88055691435E+01  0.78060345675E+01  0.11891879827E+02  0.00000000000E+00 0. -1.
<mgrwt>
<rscale>  0 0.78140995E+02</rscale>
<asrwt>0</asrwt>
<pdfrwt beam="1">  1        2 0.28195871E-01 0.78140995E+02</pdfrwt>
<pdfrwt beam="2">  1       -1 0.12814028E-02 0.78140995E+02</pdfrwt>
<totfact> 0.22775797E+05</totfact>
</mgrwt>
</event>
<event>
 8    1  0.1226832E-016  0.8153196E+02  0.7818608E-02  0.1324759E+00
          2   -1    0    0  501    0  0.00000000000E+00  0.00000000000E+00  0.19944434464E+02  0.19944434627E+02  0.25500000000E-02 0. -1.
         -1   -1    0    0    0  501 -0.00000000000E+00 -0.00000000000E+00 -0.83324754271E+02  0.83324754423E+02  0.50400000000E-02 0.  1.
         24    2    1    2    0    0 -0.88817841970E-15  0.00000000000E+00 -0.63380319807E+02  0.10326918905E+03  0.81531959797E+02 0.  0.
         66    2    3    3    0    0  0.77804855266E+01 -0.17578022385E+02  0.13789055399E+02  0.23741543168E+02  0.19999993010E+01 0.  0.
        -13    1    3    3    0    0 -0.77804855266E+01  0.17578022385E+02 -0.77169375205E+02  0.79527645882E+02  0.10566000000E+00 0.  1.
         13    1    4    4    0    0  0.34482119167E+01 -0.75164228200E+01  0.64892120587E+01  0.10512269717E+02  0.10566000000E+00 0. -1.
        -13    1    4    4    0    0  0.18665936418E+01 -0.33560396832E+01  0.19813635735E+01  0.43225154511E+01  0.10566000000E+00 0.  1.
        -14    1    4    4    0    0  0.24656799680E+01 -0.67055598818E+01  0.53184797665E+01  0.89067579993E+01  0.00000000000E+00 0.  1.
<mgrwt>
<rscale>  0 0.81531960E+02</rscale>
<asrwt>0</asrwt>
<pdfrwt beam="1">  1        2 0.30683746E-02 0.81531960E+02</pdfrwt>
<pdfrwt beam="2">  1       -1 0.12819193E-01 0.81531960E+02</pdfrwt>
<totfact> 0.11749405E+05</totfact>
</mgrwt>
</event>
<event>
 8    1  0.1226832E-016  0.8545293E+02  0.7818608E-02  0.1314252E+00
          2   -1    0    0  501    0  0.00000000000E+00  0.00000000000E+00  0.91572374763E+01  0.91572378314E+01  0.25500000000E-02 0. -1.
         -1   -1    0    0    0  501 -0.00000000000E+00 -0.00000000000E+00 -0.19935606172E+03  0.19935606178E+03  0.50400000000E-02 0.  1.
         24    2    1    2    0    0  0.00000000000E+00  0.00000000000E+00 -0.19019882424E+03  0.20851329962E+03  0.85452930744E+02 0.  0.
         66    2    3    3    0    0  0.36649072304E+02 -0.12179177159E+02 -0.50686759326E+02  0.63754485450E+02  0.19999967337E+01 0.  0.
        -13    1    3    3    0    0 -0.36649072304E+02  0.12179177159E+02 -0.13951206492E+03  0.14475881417E+03  0.10566000000E+00 0.  1.
         13    1    4    4    0    0  0.18577146265E+02 -0.55098332925E+01 -0.26091539338E+02  0.32499972544E+02  0.10566000000E+00 0. -1.
        -13    1    4    4    0    0  0.29776121261E+01 -0.10757987378E+01 -0.45902058062E+01  0.55771561101E+01  0.10566000000E+00 0.  1.
         14    1    4    4    0    0  0.15094313913E+02 -0.55935451289E+01 -0.20005014182E+02  0.25677356796E+02  0.00000000000E+00 0. -1.
<mgrwt>
<rscale>  0 0.85452931E+02</rscale>
<asrwt>0</asrwt>
<pdfrwt beam="1">  1        2 0.14088059E-02 0.85452931E+02</pdfrwt>
<pdfrwt beam="2">  1       -1 0.30670160E-01 0.85452931E+02</pdfrwt>
<totfact> 0.84281210E+04</totfact>
</mgrwt>
</event>
<event>
 8    1  0.1226832E-016  0.7581047E+02  0.7818608E-02  0.1341379E+00
          2   -1    0    0  501    0  0.00000000000E+00  0.00000000000E+00  0.81057658272E+01  0.81057662283E+01  0.25500000000E-02 0. -1.
         -1   -1    0    0    0  501 -0.00000000000E+00 -0.00000000000E+00 -0.17725735759E+03  0.17725735766E+03  0.50400000000E-02 0.  1.
         24    2    1    2    0    0 -0.35527136788E-14  0.35527136788E-14 -0.16915159176E+03  0.18536312389E+03  0.75810465652E+02 0.  0.
         66    2    3    3    0    0  0.26145680524E+02 -0.21646699294E+02 -0.43528997174E+02  0.55235403416E+02  0.19999988081E+01 0.  0.
        -13    1    3    3    0    0 -0.26145680524E+02  0.21646699294E+02 -0.12562259459E+03  0.13012772047E+03  0.10566000000E+00 0.  1.
         13    1    4    4    0    0  0.79905274079E+01 -0.63447915675E+01 -0.13715436990E+02  0.17094715094E+02  0.10566000000E+00 0. -1.
        -13    1    4    4    0    0  0.90542132675E+01 -0.84787309551E+01 -0.16059634540E+02  0.20292626299E+02  0.10566000000E+00 0.  1.
        -14    1    4    4    0    0  0.91009398485E+01 -0.68231767712E+01 -0.13753925644E+02  0.17848062024E+02  0.00000000000E+00 0.  1.
<mgrwt>
<rscale>  0 0.75810466E+02</rscale>
<asrwt>0</asrwt>
<pdfrwt beam="1">  1        2 0.12470411E-02 0.75810466E+02</pdfrwt>
<pdfrwt beam="2">  1       -1 0.27270360E-01 0.75810466E+02</pdfrwt>
<totfact> 0.11824862E+05</totfact>
</mgrwt>
</event>
<event>
 8    1  0.1226832E-016  0.8035742E+02  0.7818608E-02  0.1328040E+00
          2   -1    0    0  501    0  0.00000000000E+00  0.00000000000E+00  0.52134189855E+03  0.52134189856E+03  0.25500000000E-02 0. -1.
         -1   -1    0    0    0  501 -0.00000000000E+00 -0.00000000000E+00 -0.30964854412E+01  0.30964895428E+01  0.50400000000E-02 0.  1.
         24    2    1    2    0    0  0.00000000000E+00  0.00000000000E+00  0.51824541311E+03  0.52443838810E+03  0.80357418473E+02 0.  0.
         66    2    3    3    0    0  0.15709319117E+02  0.68007529678E+01  0.49633211700E+03  0.49663125487E+03  0.20000001309E+01 0.  0.
        -13    1    3    3    0    0 -0.15709319117E+02 -0.68007529678E+01  0.21913296112E+02  0.27807133232E+02  0.10566000000E+00 0.  1.
         13    1    4    4    0    0  0.10594108504E+02  0.44963953256E+01  0.31220036845E+03  0.31241244203E+03  0.10566000000E+00 0. -1.
        -13    1    4    4    0    0  0.37265826388E+01  0.19779633021E+01  0.13128376356E+03  0.13135157972E+03  0.10566000000E+00 0.  1.
         14    1    4    4    0    0  0.13886279739E+01  0.32639434005E+00  0.52847984985E+02  0.52867233121E+02  0.00000000000E+00 0. -1.
<mgrwt>
<rscale>  0 0.80357418E+02</rscale>
<asrwt>0</asrwt>
<pdfrwt beam="1">  1        2 0.80206413E-01 0.80357418E+02</pdfrwt>
<pdfrwt beam="2">  1       -1 0.47638289E-03 0.80357418E+02</pdfrwt>
<totfact> 0.30498219E+05</totfact>
</mgrwt>
</event>
<event>
 8    1  0.1226832E-016  0.8202683E+02  0.7818608E-02  0.1323396E+00
          2   -1    0    0  501    0  0.00000000000E+00  0.00000000000E+00  0.90227425502E+03  0.90227425503E+03  0.25500000000E-02 0. -1.
         -1   -1    0    0    0  501 -0.00000000000E+00 -0.00000000000E+00 -0.18642858628E+01  0.18642926755E+01  0.50400000000E-02 0.  1.
         24    2    1    2    0    0  0.88817841970E-15 -0.35527136788E-14  0.90040996916E+03  0.90413854770E+03  0.82026830232E+02 0.  0.
         66    2    3    3    0    0  0.59250796653E+01 -0.27736880785E+02  0.77664288571E+03  0.77716318302E+03  0.20000008201E+01 0.  0.
        -13    1    3    3    0    0 -0.59250796653E+01  0.27736880785E+02  0.12376708345E+03  0.12697536468E+03  0.10566000000E+00 0.  1.
         13    1    4    4    0    0  0.29626688047E+01 -0.11967164104E+02  0.32785844330E+03  0.32809017119E+03  0.10566000000E+00 0. -1.
        -13    1    4    4    0    0  0.24869612162E+01 -0.99698827155E+01  0.28389607863E+03  0.28408199197E+03  0.10566000000E+00 0.  1.
         14    1    4    4    0    0  0.47544964449E+00 -0.57998339657E+01  0.16488836378E+03  0.16499101987E+03  0.00000000000E+00 0. -1.
<mgrwt>
<rscale>  0 0.82026830E+02</rscale>
<asrwt>0</asrwt>
<pdfrwt beam="1">  1        2 0.13881159E+00 0.82026830E+02</pdfrwt>
<pdfrwt beam="2">  1       -1 0.28681339E-03 0.82026830E+02</pdfrwt>
<totfact> 0.32754720E+05</totfact>
</mgrwt>
</event>
<event>
 8    1  0.1226832E-016  0.8001774E+02  0.7818608E-02  0.1329001E+00
         -1   -1    0    0    0  501 -0.00000000000E+00  0.00000000000E+00  0.30374546221E+01  0.30374588035E+01  0.50400000000E-02 0.  1.
          2   -1    0    0  501    0  0.00000000000E+00 -0.00000000000E+00 -0.52699016814E+03  0.52699016815E+03  0.25500000000E-02 0. -1.
         24    2    1    2    0    0 -0.35527136788E-14 -0.35527136788E-14 -0.52395271352E+03  0.53002762695E+03  0.80017743827E+02 0.  0.
         66    2    3    3    0    0  0.22582895431E+02  0.21717131328E+02 -0.42668442151E+03  0.42783783904E+03  0.19999986822E+01 0.  0.
        -13    1    3    3    0    0 -0.22582895431E+02 -0.21717131328E+02 -0.97268292008E+02  0.10218978791E+03  0.10566000000E+00 0.  1.
         13    1    4    4    0    0  0.21988644974E+01  0.21194950085E+01 -0.46241169248E+02  0.46342034501E+02  0.10566000000E+00 0. -1.
        -13    1    4    4    0    0  0.50452870598E+01  0.57986414925E+01 -0.10324346240E+03  0.10352923672E+03  0.10566000000E+00 0.  1.
        -14    1    4    4    0    0  0.15338743874E+02  0.13798994827E+02 -0.27719978987E+03  0.27796656782E+03  0.00000000000E+00 0.  1.
<mgrwt>
<rscale>  0 0.80017744E+02</rscale>
<asrwt>0</asrwt>
<pdfrwt beam="1">  1        2 0.81075338E-01 0.80017744E+02</pdfrwt>
<pdfrwt beam="2">  1       -1 0.46730145E-03 0.80017744E+02</pdfrwt>
<totfact> 0.30939774E+05</totfact>
</mgrwt>
</event>
<event>
 8    1  0.1226832E-016  0.7818933E+02  0.7818608E-02  0.1334270E+00
          2   -1    0    0  501    0  0.00000000000E+00  0.00000000000E+00  0.78846228567E+03  0.78846228568E+03  0.25500000000E-02 0. -1.
         -1   -1    0    0    0  501 -0.00000000000E+00 -0.00000000000E+00 -0.19384443746E+01  0.19384509266E+01  0.50400000000E-02 0.  1.
         24    2    1    2    0    0  0.17763568394E-14  0.00000000000E+00  0.78652384130E+03  0.79040073660E+03  0.78189331068E+02 0.  0.
         66    2    3    3    0    0 -0.11955174355E+02  0.15175783832E+02  0.73679504442E+03  0.73705099423E+03  0.19999996024E+01 0.  0.
        -13    1    3    3    0    0  0.11955174355E+02 -0.15175783832E+02  0.49728796875E+02  0.53349742375E+02  0.10566000000E+00 0.  1.
         13    1    4    4    0    0 -0.11487996748E+01  0.14718110027E+01  0.64144141882E+02  0.64171396043E+02  0.10566000000E+00 0. -1.
        -13    1    4    4    0    0 -0.74462636357E+01  0.89669204249E+01  0.41806584627E+03  0.41822830545E+03  0.10566000000E+00 0.  1.
         14    1    4    4    0    0 -0.33601110444E+01  0.47370524044E+01  0.25458505627E+03  0.25465129273E+03  0.00000000000E+00 0. -1.
<mgrwt>
<rscale>  0 0.78189331E+02</rscale>
<asrwt>0</asrwt>
<pdfrwt beam="1">  1        2 0.12130197E+00 0.78189331E+02</pdfrwt>
<pdfrwt beam="2">  1       -1 0.29822253E-03 0.78189331E+02</pdfrwt>
<totfact> 0.36375915E+05</totfact>
</mgrwt>
</event>
<event>
 8    1  0.1226832E-016  0.8240740E+02  0.7818608E-02  0.1322355E+00
          2   -1    0    0  501    0  0.00000000000E+00  0.00000000000E+00  0.13610614882E+02  0.13610615121E+02  0.25500000000E-02 0. -1.
         -1   -1    0    0    0  501 -0.00000000000E+00 -0.00000000000E+00 -0.12473681516E+03  0.12473681526E+03  0.50400000000E-02 0.  1.
         24    2    1    2    0    0 -0.22204460493E-15 -0.71054273576E-14 -0.11112620027E+03  0.13834743038E+03  0.82407397150E+02 0.  0.
         66    2    3    3    0    0 -0.18366584828E+01 -0.39328916546E+02 -0.35338054930E+02  0.52942564418E+02  0.20000024544E+01 0.  0.
        -13    1    3    3    0    0  0.18366584828E+01  0.39328916546E+02 -0.75788145345E+02  0.85404865962E+02  0.10566000000E+00 0.  1.
         13    1    4    4    0    0 -0.15375055994E+01 -0.17649918611E+02 -0.16015949814E+02  0.23883160656E+02  0.10566000000E+00 0. -1.
        -13    1    4    4    0    0  0.37803502012E-01 -0.17622192739E+02 -0.15318283399E+02  0.23349605486E+02  0.10566000000E+00 0.  1.
        -14    1    4    4    0    0 -0.33695638543E+00 -0.40568051963E+01 -0.40038217167E+01  0.57097982754E+01  0.00000000000E+00 0.  1.
<mgrwt>
<rscale>  0 0.82407397E+02</rscale>
<asrwt>0</asrwt>
<pdfrwt beam="1">  1        2 0.20939409E-02 0.82407397E+02</pdfrwt>
<pdfrwt beam="2">  1       -1 0.19190279E-01 0.82407397E+02</pdfrwt>
<totfact> 0.10472750E+05</totfact>
</mgrwt>
</event>
<event>
 8    1  0.1226832E-016  0.7918364E+02  0.7818608E-02  0.1331384E+00
         -1   -1    0    0    0  501 -0.00000000000E+00  0.00000000000E+00  0.11419472712E+02  0.11419473825E+02  0.50400000000E-02 0.  1.
          2   -1    0    0  501    0  0.00000000000E+00 -0.00000000000E+00 -0.13726660566E+03  0.13726660568E+03  0.25500000000E-02 0. -1.
         24    2    1    2    0    0  0.17763568394E-14  0.00000000000E+00 -0.12584713294E+03  0.14868607950E+03  0.79183643313E+02 0.  0.
         66    2    3    3    0    0  0.13584663005E+02 -0.18210405153E+02 -0.12379027159E+03  0.12587371953E+03  0.20000010527E+01 0.  0.
        -13    1    3    3    0    0 -0.13584663005E+02  0.18210405153E+02 -0.20568613541E+01  0.22812359971E+02  0.10566000000E+00 0.  1.
         13    1    4    4    0    0  0.80657022231E+01 -0.11960883237E+02 -0.80344878982E+02  0.81629829247E+02  0.10566000000E+00 0. -1.
        -13    1    4    4    0    0  0.53071988118E+01 -0.59255039077E+01 -0.40578331348E+02  0.41350817342E+02  0.10566000000E+00 0.  1.
        -14    1    4    4    0    0  0.21176196977E+00 -0.32401800809E+00 -0.28670612602E+01  0.28930729460E+01  0.00000000000E+00 0.  1.
<mgrwt>
<rscale>  0 0.79183643E+02</rscale>
<asrwt>0</asrwt>
<pdfrwt beam="1">  1        2 0.21117938E-01 0.79183643E+02</pdfrwt>
<pdfrwt beam="2">  1       -1 0.17568421E-02 0.79183643E+02</pdfrwt>
<totfact> 0.20010958E+05</totfact>
</mgrwt>
</event>
<event>
 8    1  0.1226832E-016  0.7874331E+02  0.7818608E-02  0.1332656E+00
          2   -1    0    0  501    0  0.00000000000E+00  0.00000000000E+00  0.51646608313E+02  0.51646608376E+02  0.25500000000E-02 0. -1.
         -1   -1    0    0    0  501 -0.00000000000E+00 -0.00000000000E+00 -0.30014115951E+02  0.30014116375E+02  0.50400000000E-02 0.  1.
         24    2    1    2    0    0  0.00000000000E+00  0.35527136788E-14  0.21632492362E+02  0.81660724751E+02  0.78743312358E+02 0.  0.
         66    2    3    3    0    0  0.31251514437E+02  0.23818889381E+02  0.87167609868E+01  0.40298617371E+02  0.19999984925E+01 0.  0.
        -13    1    3    3    0    0 -0.31251514437E+02 -0.23818889381E+02  0.12915731375E+02  0.41362107380E+02  0.10566000000E+00 0.  1.
         13    1    4    4    0    0  0.22083844341E+02  0.17323946199E+02  0.56213004278E+01  0.28625608733E+02  0.10566000000E+00 0. -1.
        -13    1    4    4    0    0  0.67120374402E+01  0.47059813210E+01  0.19562594277E+01  0.84282751365E+01  0.10566000000E+00 0.  1.
        -14    1    4    4    0    0  0.24556326552E+01  0.17889618602E+01  0.11392011314E+01  0.32447335010E+01  0.00000000000E+00 0.  1.
<mgrwt>
<rscale>  0 0.78743312E+02</rscale>
<asrwt>0</asrwt>
<pdfrwt beam="1">  1        2 0.79456320E-02 0.78743312E+02</pdfrwt>
<pdfrwt beam="2">  1       -1 0.46175564E-02 0.78743312E+02</pdfrwt>
<totfact> 0.15714761E+05</totfact>
</mgrwt>
</event>
<event>
 8    1  0.1226832E-016  0.8008525E+02  0.7818608E-02  0.1328810E+00
         -1   -1    0    0    0  501 -0.00000000000E+00  0.00000000000E+00  0.94051155340E+02  0.94051155475E+02  0.50400000000E-02 0.  1.
          2   -1    0    0  501    0  0.00000000000E+00 -0.00000000000E+00 -0.17048295280E+02  0.17048295470E+02  0.25500000000E-02 0. -1.
         24    2    1    2    0    0  0.00000000000E+00  0.00000000000E+00  0.77002860061E+02  0.11109945095E+03  0.80085251719E+02 0.  0.
         66    2    3    3    0    0 -0.21295017770E+02  0.33216405855E+02  0.29260822496E+02  0.49163026165E+02  0.20000021860E+01 0.  0.
        -13    1    3    3    0    0  0.21295017770E+02 -0.33216405855E+02  0.47742037565E+02  0.61936424781E+02  0.10566000000E+00 0.  1.
         13    1    4    4    0    0 -0.14362864805E+02  0.21391655278E+02  0.18938183499E+02  0.31977503955E+02  0.10566000000E+00 0. -1.
        -13    1    4    4    0    0 -0.18393257893E+01  0.26526641079E+01  0.20530635679E+01  0.38270066995E+01  0.10566000000E+00 0.  1.
         14    1    4    4    0    0 -0.50928271757E+01  0.91720864697E+01  0.82695754295E+01  0.13358515510E+02  0.00000000000E+00 0. -1.
<mgrwt>
<rscale>  0 0.80085252E+02</rscale>
<asrwt>0</asrwt>
<pdfrwt beam="1">  1        2 0.26228147E-02 0.80085252E+02</pdfrwt>
<pdfrwt beam="2">  1       -1 0.14469408E-01 0.80085252E+02</pdfrwt>
<totfact> 0.11976603E+05</totfact>
</mgrwt>
</event>
<event>
 8    1  0.1226832E-016  0.8044505E+02  0.7818608E-02  0.1327793E+00
          2   -1    0    0  501    0  0.00000000000E+00  0.00000000000E+00  0.48670636584E+02  0.48670636651E+02  0.25500000000E-02 0. -1.
         -1   -1    0    0    0  501 -0.00000000000E+00 -0.00000000000E+00 -0.33240810544E+02  0.33240810926E+02  0.50400000000E-02 0.  1.
         24    2    1    2    0    0  0.00000000000E+00  0.00000000000E+00  0.15429826040E+02  0.81911447577E+02  0.80445047782E+02 0.  0.
         66    2    3    3    0    0 -0.32210139002E+02  0.20925722577E+02  0.19787611885E+02  0.43254231157E+02  0.20000022522E+01 0.  0.
        -13    1    3    3    0    0  0.32210139002E+02 -0.20925722577E+02 -0.43577858450E+01  0.38657216420E+02  0.10566000000E+00 0.  1.
         13    1    4    4    0    0 -0.30039943170E+02  0.19605439220E+02  0.18194228665E+02  0.40222040642E+02  0.10566000000E+00 0. -1.
        -13    1    4    4    0    0 -0.63300424429E+00  0.61374197276E+00  0.54946974969E+00  0.10442483535E+01  0.10566000000E+00 0.  1.
         14    1    4    4    0    0 -0.15371915878E+01  0.70654138427E+00  0.10439134706E+01  0.19879421619E+01  0.00000000000E+00 0. -1.
<mgrwt>
<rscale>  0 0.80445048E+02</rscale>
<asrwt>0</asrwt>
<pdfrwt beam="1">  1        2 0.74877902E-02 0.80445048E+02</pdfrwt>
<pdfrwt beam="2">  1       -1 0.51139709E-02 0.80445048E+02</pdfrwt>
<totfact> 0.14631579E+05</totfact>
</mgrwt>
</event>
<event>
 8    1  0.1226832E-016  0.7858033E+02  0.7818608E-02  0.1333129E+00
          2   -1    0    0  501    0  0.00000000000E+00  0.00000000000E+00  0.39802835934E+03  0.39802835935E+03  0.25500000000E-02 0. -1.
         -1   -1    0    0    0  501 -0.00000000000E+00 -0.00000000000E+00 -0.38784077646E+01  0.38784110394E+01  0.50400000000E-02 0.  1.
         24    2    1    2    0    0 -0.71054273576E-14  0.44408920985E-15  0.39414995157E+03  0.40190677039E+03  0.78580326777E+02 0.  0.
         66    2    3    3    0    0 -0.37490587884E+02  0.27968207696E+01  0.25514542053E+03  0.25790803011E+03  0.19999978916E+01 0.  0.
        -13    1    3    3    0    0  0.37490587884E+02 -0.27968207696E+01  0.13900453105E+03  0.14399874028E+03  0.10566000000E+00 0.  1.
         13    1    4    4    0    0 -0.13670625289E+02  0.98947931569E+00  0.94188515609E+02  0.95180631967E+02  0.10566000000E+00 0. -1.
        -13    1    4    4    0    0 -0.13935864892E+02  0.11632072733E+01  0.89021563060E+02  0.90113324404E+02  0.10566000000E+00 0.  1.
        -14    1    4    4    0    0 -0.98840977029E+01  0.64413418064E+00  0.71935341858E+02  0.72614073735E+02  0.00000000000E+00 0.  1.
<mgrwt>
<rscale>  0 0.78580327E+02</rscale>
<asrwt>0</asrwt>
<pdfrwt beam="1">  1        2 0.61235122E-01 0.78580327E+02</pdfrwt>
<pdfrwt beam="2">  1       -1 0.59667847E-03 0.78580327E+02</pdfrwt>
<totfact> 0.29554223E+05</totfact>
</mgrwt>
</event>
<event>
 8    1  0.1226832E-016  0.8031769E+02  0.7818608E-02  0.1328152E+00
         -1   -1    0    0    0  501 -0.00000000000E+00  0.00000000000E+00  0.16949554629E+02  0.16949555378E+02  0.50400000000E-02 0.  1.
          2   -1    0    0  501    0  0.00000000000E+00 -0.00000000000E+00 -0.95148983354E+02  0.95148983389E+02  0.25500000000E-02 0. -1.
         24    2    1    2    0    0  0.00000000000E+00  0.00000000000E+00 -0.78199428726E+02  0.11209853877E+03  0.80317692575E+02 0.  0.
         66    2    3    3    0    0  0.89558078114E+01 -0.37608261840E+02 -0.54164999696E+02  0.66576535351E+02  0.20000037666E+01 0.  0.
        -13    1    3    3    0    0 -0.89558078114E+01  0.37608261840E+02 -0.24034429029E+02  0.45522003416E+02  0.10566000000E+00 0.  1.
         13    1    4    4    0    0  0.50883410531E+01 -0.19771473256E+02 -0.27505276118E+02  0.34254251528E+02  0.10566000000E+00 0. -1.
        -13    1    4    4    0    0  0.16437833839E+01 -0.65852866188E+01 -0.10613518113E+02  0.12598648913E+02  0.10566000000E+00 0.  1.
         14    1    4    4    0    0  0.22236833744E+01 -0.11251501965E+02 -0.16046205465E+02  0.19723634909E+02  0.00000000000E+00 0. -1.
<mgrwt>
<rscale>  0 0.80317693E+02</rscale>
<asrwt>0</asrwt>
<pdfrwt beam="1">  1        2 0.14638305E-01 0.80317693E+02</pdfrwt>
<pdfrwt beam="2">  1       -1 0.26076239E-02 0.80317693E+02</pdfrwt>
<totfact> 0.17298187E+05</totfact>
</mgrwt>
</event>
<event>
 8    1  0.1226832E-016  0.7960149E+02  0.7818608E-02  0.1330186E+00
         -1   -1    0    0    0  501 -0.00000000000E+00  0.00000000000E+00  0.24602753897E+01  0.24602805520E+01  0.50400000000E-02 0.  1.
          2   -1    0    0  501    0  0.00000000000E+00 -0.00000000000E+00 -0.64386998199E+03  0.64386998199E+03  0.25500000000E-02 0. -1.
         24    2    1    2    0    0  0.00000000000E+00  0.00000000000E+00 -0.64140970660E+03  0.64633026254E+03  0.79601485935E+02 0.  0.
         66    2    3    3    0    0  0.11343545308E+02  0.27953764821E+02 -0.53139100440E+03  0.53225040024E+03  0.20000005887E+01 0.  0.
        -13    1    3    3    0    0 -0.11343545308E+02 -0.27953764821E+02 -0.11001870219E+03  0.11407986231E+03  0.10566000000E+00 0.  1.
         13    1    4    4    0    0  0.65769896524E+01  0.14544856512E+02 -0.26983893415E+03  0.27031069382E+03  0.10566000000E+00 0. -1.
        -13    1    4    4    0    0  0.25794540738E+01  0.64058161939E+01 -0.12903155790E+03  0.12921626121E+03  0.10566000000E+00 0.  1.
         14    1    4    4    0    0  0.21871015821E+01  0.70030921152E+01 -0.13252051235E+03  0.13272344520E+03  0.00000000000E+00 0. -1.
<mgrwt>
<rscale>  0 0.79601486E+02</rscale>
<asrwt>0</asrwt>
<pdfrwt beam="1">  1        2 0.99056786E-01 0.79601486E+02</pdfrwt>
<pdfrwt beam="2">  1       -1 0.37850482E-03 0.79601486E+02</pdfrwt>
<totfact> 0.33206156E+05</totfact>
</mgrwt>
</event>
<event>
 8    1  0.1226832E-016  0.7989016E+02  0.7818608E-02  0.1329363E+00
         -1   -1    0    0    0  501 -0.00000000000E+00  0.00000000000E+00  0.72450034969E+02  0.72450035144E+02  0.50400000000E-02 0.  1.
          2   -1    0    0  501    0  0.00000000000E+00 -0.00000000000E+00 -0.22023581014E+02  0.22023581161E+02  0.25500000000E-02 0. -1.
         24    2    1    2    0    0 -0.44408920985E-15 -0.35527136788E-14  0.50426453955E+02  0.94473616305E+02  0.79890155334E+02 0.  0.
         66    2    3    3    0    0 -0.21854142168E+01  0.23591265596E+02 -0.12765111681E+02  0.26986513987E+02  0.20000033107E+01 0.  0.
        -13    1    3    3    0    0  0.21854142168E+01 -0.23591265596E+02  0.63191565636E+02  0.67487102318E+02  0.10566000000E+00 0.  1.
         13    1    4    4    0    0 -0.83342229354E+00  0.90117422441E+01 -0.57681102106E+01  0.10732583586E+02  0.10566000000E+00 0. -1.
        -13    1    4    4    0    0 -0.48555016162E-01  0.48677169695E+01 -0.24728116735E+01  0.54610427294E+01  0.10566000000E+00 0.  1.
        -14    1    4    4    0    0 -0.13034369071E+01  0.97118063823E+01 -0.45241897967E+01  0.10792887672E+02  0.00000000000E+00 0.  1.
<mgrwt>
<rscale>  0 0.79890155E+02</rscale>
<asrwt>0</asrwt>
<pdfrwt beam="1">  1        2 0.33882433E-02 0.79890155E+02</pdfrwt>
<pdfrwt beam="2">  1       -1 0.11146159E-01 0.79890155E+02</pdfrwt>
<totfact> 0.12708031E+05</totfact>
</mgrwt>
</event>
<event>
 8    1  0.1226832E-016  0.7368163E+02  0.7818608E-02  0.1348003E+00
          2   -1    0    0  501    0  0.00000000000E+00  0.00000000000E+00  0.68194213225E+02  0.68194213273E+02  0.25500000000E-02 0. -1.
         -1   -1    0    0    0  501 -0.00000000000E+00 -0.00000000000E+00 -0.19902648806E+02  0.19902649444E+02  0.50400000000E-02 0.  1.
         24    2    1    2    0    0 -0.35527136788E-14  0.00000000000E+00  0.48291564420E+02  0.88096862716E+02  0.73681626111E+02 0.  0.
         66    2    3    3    0    0  0.28796941403E+02  0.21612612335E+02  0.33337442127E+02  0.49109611163E+02  0.20000037330E+01 0.  0.
        -13    1    3    3    0    0 -0.28796941403E+02 -0.21612612335E+02  0.14954122292E+02  0.38987251553E+02  0.10566000000E+00 0.  1.
         13    1    4    4    0    0  0.23141746638E+02  0.18232318896E+02  0.26961591201E+02  0.39936154721E+02  0.10566000000E+00 0. -1.
        -13    1    4    4    0    0  0.36059162730E+01  0.22650528213E+01  0.42469427102E+01  0.60150463731E+01  0.10566000000E+00 0.  1.
         14    1    4    4    0    0  0.20492784922E+01  0.11152406173E+01  0.21289082163E+01  0.31584100694E+01  0.00000000000E+00 0. -1.
<mgrwt>
<rscale>  0 0.73681626E+02</rscale>
<asrwt>0</asrwt>
<pdfrwt beam="1">  1        2 0.10491417E-01 0.73681626E+02</pdfrwt>
<pdfrwt beam="2">  1       -1 0.30619460E-02 0.73681626E+02</pdfrwt>
<totfact> 0.20023760E+05</totfact>
</mgrwt>
</event>
<event>
 8    1  0.1226832E-016  0.8159450E+02  0.7818608E-02  0.1324586E+00
         -1   -1    0    0    0  501 -0.00000000000E+00  0.00000000000E+00  0.52395976695E+02  0.52395976938E+02  0.50400000000E-02 0.  1.
          2   -1    0    0  501    0  0.00000000000E+00 -0.00000000000E+00 -0.31766095213E+02  0.31766095315E+02  0.25500000000E-02 0. -1.
         24    2    1    2    0    0  0.00000000000E+00  0.00000000000E+00  0.20629881482E+02  0.84162072253E+02  0.81594499790E+02 0.  0.
         66    2    3    3    0    0 -0.37280661809E+02 -0.96528036438E+00 -0.66787370040E+01  0.37939228130E+02  0.19999980095E+01 0.  0.
        -13    1    3    3    0    0  0.37280661809E+02  0.96528036438E+00  0.27308618486E+02  0.46222844123E+02  0.10566000000E+00 0.  1.
         13    1    4    4    0    0 -0.27002536867E+02 -0.19719296409E+00 -0.44510944875E+01  0.27367851368E+02  0.10566000000E+00 0. -1.
        -13    1    4    4    0    0 -0.13003229511E+01 -0.65265715751E-01 -0.53310393819E-01  0.13073275888E+01  0.10566000000E+00 0. -1.
         14    1    4    4    0    0 -0.89778019910E+01 -0.70282168454E+00 -0.21743321226E+01  0.92640491735E+01  0.00000000000E+00 0. -1.
<mgrwt>
<rscale>  0 0.81594500E+02</rscale>
<asrwt>0</asrwt>
<pdfrwt beam="1">  1        2 0.48870916E-02 0.81594500E+02</pdfrwt>
<pdfrwt beam="2">  1       -1 0.80609195E-02 0.81594500E+02</pdfrwt>
<totfact> 0.12876947E+05</totfact>
</mgrwt>
</event>
<event>
 8    1  0.1226832E-016  0.7997005E+02  0.7818608E-02  0.1329136E+00
          2   -1    0    0  501    0  0.00000000000E+00  0.00000000000E+00  0.17196911989E+03  0.17196911991E+03  0.25500000000E-02 0. -1.
         -1   -1    0    0    0  501 -0.00000000000E+00 -0.00000000000E+00 -0.92970302230E+01  0.92970315891E+01  0.50400000000E-02 0.  1.
         24    2    1    2    0    0 -0.35527136788E-14  0.00000000000E+00  0.16267208967E+03  0.18126615150E+03  0.79970050158E+02 0.  0.
         66    2    3    3    0    0  0.17678330475E+02 -0.10412947482E+02  0.15911241088E+03  0.16044223926E+03  0.20000001770E+01 0.  0.
        -13    1    3    3    0    0 -0.17678330475E+02  0.10412947482E+02  0.35596787892E+01  0.20823912235E+02  0.10566000000E+00 0.  1.
         13    1    4    4    0    0  0.16852045078E+02 -0.97868607547E+01  0.15156753595E+03  0.15281525836E+03  0.10566000000E+00 0. -1.
        -13    1    4    4    0    0  0.49073948604E+00 -0.47739743444E+00  0.36735153102E+01  0.37382632764E+01  0.10566000000E+00 0.  1.
         14    1    4    4    0    0  0.33554591136E+00 -0.14868929259E+00  0.38713596148E+01  0.38887176333E+01  0.00000000000E+00 0. -1.
<mgrwt>
<rscale>  0 0.79970050E+02</rscale>
<asrwt>0</asrwt>
<pdfrwt beam="1">  1        2 0.26456787E-01 0.79970050E+02</pdfrwt>
<pdfrwt beam="2">  1       -1 0.14303125E-02 0.79970050E+02</pdfrwt>
<totfact> 0.20970532E+05</totfact>
</mgrwt>
</event>
<event>
 8    1  0.1226832E-016  0.8060704E+02  0.7818608E-02  0.1327338E+00
         -1   -1    0    0    0  501 -0.00000000000E+00  0.00000000000E+00  0.10721971023E+02  0.10721972207E+02  0.50400000000E-02 0.  1.
          2   -1    0    0  501    0  0.00000000000E+00 -0.00000000000E+00 -0.15149954791E+03  0.15149954793E+03  0.25500000000E-02 0. -1.
         24    2    1    2    0    0  0.00000000000E+00  0.00000000000E+00 -0.14077757689E+03  0.16222152014E+03  0.80607043377E+02 0.  0.
         66    2    3    3    0    0 -0.37097391690E+02  0.14987873477E+02 -0.79767056164E+02  0.89261615914E+02  0.20000012426E+01 0.  0.
        -13    1    3    3    0    0  0.37097391690E+02 -0.14987873477E+02 -0.61010520727E+02  0.72959904228E+02  0.10566000000E+00 0.  1.
         13    1    4    4    0    0 -0.22627425360E+02  0.94804913310E+01 -0.47721632575E+02  0.53658601118E+02  0.10566000000E+00 0. -1.
        -13    1    4    4    0    0 -0.55079405584E+00  0.39091022374E+00 -0.14214781622E+01  0.15773233962E+01  0.10566000000E+00 0. -1.
         14    1    4    4    0    0 -0.13919172274E+02  0.51164719218E+01 -0.30623945427E+02  0.34025691400E+02  0.00000000000E+00 0. -1.
<mgrwt>
<rscale>  0 0.80607043E+02</rscale>
<asrwt>0</asrwt>
<pdfrwt beam="1">  1        2 0.23307621E-01 0.80607043E+02</pdfrwt>
<pdfrwt beam="2">  1       -1 0.16495342E-02 0.80607043E+02</pdfrwt>
<totfact> 0.19695275E+05</totfact>
</mgrwt>
</event>
<event>
 8    1  0.1226832E-016  0.8236911E+02  0.7818608E-02  0.1322460E+00
         -1   -1    0    0    0  501 -0.00000000000E+00  0.00000000000E+00  0.98915205877E+02  0.98915206006E+02  0.50400000000E-02 0.  1.
          2   -1    0    0  501    0  0.00000000000E+00 -0.00000000000E+00 -0.17147693462E+02  0.17147693652E+02  0.25500000000E-02 0. -1.
         24    2    1    2    0    0  0.71054273576E-14 -0.35527136788E-14  0.81767512415E+02  0.11606289966E+03  0.82369111870E+02 0.  0.
         66    2    3    3    0    0 -0.31365295038E+02  0.21892124064E+02  0.19486588669E+02  0.42974108071E+02  0.19999994229E+01 0.  0.
        -13    1    3    3    0    0  0.31365295038E+02 -0.21892124064E+02  0.62280923746E+02  0.73088791586E+02  0.10566000000E+00 0.  1.
         13    1    4    4    0    0 -0.14433489691E+02  0.10288179427E+02  0.86066660836E+01  0.19704266687E+02  0.10566000000E+00 0. -1.
        -13    1    4    4    0    0 -0.33008463637E+01  0.18762915273E+01  0.24685337010E+01  0.45299977131E+01  0.10566000000E+00 0.  1.
        -14    1    4    4    0    0 -0.13630958983E+02  0.97276531102E+01  0.84113888842E+01  0.18739843671E+02  0.00000000000E+00 0.  1.
<mgrwt>
<rscale>  0 0.82369112E+02</rscale>
<asrwt>0</asrwt>
<pdfrwt beam="1">  1        2 0.26381067E-02 0.82369112E+02</pdfrwt>
<pdfrwt beam="2">  1       -1 0.15217724E-01 0.82369112E+02</pdfrwt>
<totfact> 0.11047599E+05</totfact>
</mgrwt>
</event>
<event>
 8    1  0.1226832E-016  0.7973959E+02  0.7818608E-02  0.1329792E+00
          2   -1    0    0  501    0  0.00000000000E+00  0.00000000000E+00  0.10946470869E+03  0.10946470872E+03  0.25500000000E-02 0. -1.
         -1   -1    0    0    0  501 -0.00000000000E+00 -0.00000000000E+00 -0.14521580805E+02  0.14521581680E+02  0.50400000000E-02 0.  1.
         24    2    1    2    0    0  0.00000000000E+00  0.00000000000E+00  0.94943127886E+02  0.12398629040E+03  0.79739592892E+02 0.  0.
         66    2    3    3    0    0 -0.17277443496E+02  0.22418806801E+02  0.91107144116E+02  0.95423396856E+02  0.20000016177E+01 0.  0.
        -13    1    3    3    0    0  0.17277443496E+02 -0.22418806801E+02  0.38359837704E+01  0.28562893545E+02  0.10566000000E+00 0.  1.
         13    1    4    4    0    0 -0.30177468298E+01  0.46937392744E+01  0.18544807533E+02  0.19366440942E+02  0.10566000000E+00 0.  1.
        -13    1    4    4    0    0 -0.47813411804E+01  0.66199654739E+01  0.24418972634E+02  0.25748447621E+02  0.10566000000E+00 0.  1.
         14    1    4    4    0    0 -0.94783554855E+01  0.11105102053E+02  0.48143363949E+02  0.50308508293E+02  0.00000000000E+00 0. -1.
<mgrwt>
<rscale>  0 0.79739593E+02</rscale>
<asrwt>0</asrwt>
<pdfrwt beam="1">  1        2 0.16840725E-01 0.79739593E+02</pdfrwt>
<pdfrwt beam="2">  1       -1 0.22340893E-02 0.79739593E+02</pdfrwt>
<totfact> 0.18347218E+05</totfact>
</mgrwt>
</event>
<event>
 8    1  0.1226832E-016  0.8835626E+02  0.7818608E-02  0.1306882E+00
         -1   -1    0    0    0  501 -0.00000000000E+00  0.00000000000E+00  0.82370200357E+01  0.82370215776E+01  0.50400000000E-02 0.  1.
          2   -1    0    0  501    0  0.00000000000E+00 -0.00000000000E+00 -0.23694332699E+03  0.23694332701E+03  0.25500000000E-02 0. -1.
         24    2    1    2    0    0  0.17763568394E-14  0.00000000000E+00 -0.22870630696E+03  0.24518034858E+03  0.88356258917E+02 0.  0.
         66    2    3    3    0    0 -0.91088192514E+01  0.20838083204E+02 -0.21943750891E+03  0.22062188607E+03  0.19999991899E+01 0.  0.
        -13    1    3    3    0    0  0.91088192514E+01 -0.20838083204E+02 -0.92687980468E+01  0.24558462514E+02  0.10566000000E+00 0.  1.
         13    1    4    4    0    0 -0.40382483518E+01  0.10819507491E+02 -0.11648760180E+03  0.11705871061E+03  0.10566000000E+00 0. -1.
        -13    1    4    4    0    0 -0.29390482303E+01  0.49915623988E+01 -0.53127803523E+02  0.53442757890E+02  0.10566000000E+00 0.  1.
        -14    1    4    4    0    0 -0.21315226692E+01  0.50270133144E+01 -0.49822103588E+02  0.50120417573E+02  0.00000000000E+00 0.  1.
<mgrwt>
<rscale>  0 0.88356259E+02</rscale>
<asrwt>0</asrwt>
<pdfrwt beam="1">  1        2 0.36452814E-01 0.88356259E+02</pdfrwt>
<pdfrwt beam="2">  1       -1 0.12672342E-02 0.88356259E+02</pdfrwt>
<totfact> 0.18005148E+05</totfact>
</mgrwt>
</event>
<event>
 8    1  0.1226832E-016  0.7840713E+02  0.7818608E-02  0.1333634E+00
          2   -1    0    0  501    0  0.00000000000E+00  0.00000000000E+00  0.14357951097E+03  0.14357951099E+03  0.25500000000E-02 0. -1.
         -1   -1    0    0    0  501 -0.00000000000E+00 -0.00000000000E+00 -0.10704308568E+02  0.10704309755E+02  0.50400000000E-02 0.  1.
         24    2    1    2    0    0  0.00000000000E+00 -0.88817841970E-15  0.13287520240E+03  0.15428382075E+03  0.78407129339E+02 0.  0.
         66    2    3    3    0    0 -0.12319011524E+02 -0.46028238583E+01  0.13909944422E+03  0.13973403097E+03  0.19999994578E+01 0.  0.
        -13    1    3    3    0    0  0.12319011524E+02  0.46028238583E+01 -0.62242418129E+01  0.14549789778E+02  0.10566000000E+00 0.  1.
         13    1    4    4    0    0 -0.58173532219E+01 -0.16671664677E+01  0.66219649997E+02  0.66495670929E+02  0.10566000000E+00 0. -1.
        -13    1    4    4    0    0 -0.14688714917E+01 -0.10385975477E+01  0.22593629235E+02  0.22665381408E+02  0.10566000000E+00 0. -1.
        -14    1    4    4    0    0 -0.50327868101E+01 -0.18970598429E+01  0.50286164985E+02  0.50572978635E+02  0.00000000000E+00 0.  1.
<mgrwt>
<rscale>  0 0.78407129E+02</rscale>
<asrwt>0</asrwt>
<pdfrwt beam="1">  1        2 0.22089152E-01 0.78407129E+02</pdfrwt>
<pdfrwt beam="2">  1       -1 0.16468170E-02 0.78407129E+02</pdfrwt>
<totfact> 0.20833947E+05</totfact>
</mgrwt>
</event>
<event>
 8    1  0.1226832E-016  0.7954696E+02  0.7818608E-02  0.1330342E+00
          2   -1    0    0  501    0  0.00000000000E+00  0.00000000000E+00  0.86139409748E+01  0.86139413523E+01  0.25500000000E-02 0. -1.
         -1   -1    0    0    0  501 -0.00000000000E+00 -0.00000000000E+00 -0.18364761809E+03  0.18364761816E+03  0.50400000000E-02 0.  1.
         24    2    1    2    0    0  0.00000000000E+00  0.00000000000E+00 -0.17503367711E+03  0.19226155951E+03  0.79546961860E+02 0.  0.
         66    2    3    3    0    0 -0.21646689803E+02  0.32230471843E+02 -0.10815765947E+03  0.11493242273E+03  0.19999996902E+01 0.  0.
        -13    1    3    3    0    0  0.21646689803E+02 -0.32230471843E+02 -0.66876017647E+02  0.77329136779E+02  0.10566000000E+00 0.  1.
         13    1    4    4    0    0 -0.10796091254E+02  0.14854446653E+02 -0.50602252865E+02  0.53831304376E+02  0.10566000000E+00 0. -1.
        -13    1    4    4    0    0 -0.31554559585E+00  0.66608189772E+00 -0.17132573125E+01  0.18680601628E+01  0.10566000000E+00 0. -1.
         14    1    4    4    0    0 -0.10535052953E+02  0.16709943292E+02 -0.55842149288E+02  0.59233058191E+02  0.00000000000E+00 0. -1.
<mgrwt>
<rscale>  0 0.79546962E+02</rscale>
<asrwt>0</asrwt>
<pdfrwt beam="1">  1        2 0.13252219E-02 0.79546962E+02</pdfrwt>
<pdfrwt beam="2">  1       -1 0.28253477E-01 0.79546962E+02</pdfrwt>
<totfact> 0.10362227E+05</totfact>
</mgrwt>
</event>
<event>
 8    1  0.1226832E-016  0.7955964E+02  0.7818608E-02  0.1330306E+00
         -1   -1    0    0    0  501 -0.00000000000E+00  0.00000000000E+00  0.43665056752E+01  0.43665085839E+01  0.50400000000E-02 0.  1.
          2   -1    0    0  501    0  0.00000000000E+00 -0.00000000000E+00 -0.36240270229E+03  0.36240270230E+03  0.25500000000E-02 0. -1.
         24    2    1    2    0    0  0.00000000000E+00  0.00000000000E+00 -0.35803619662E+03  0.36676921089E+03  0.79559637790E+02 0.  0.
         66    2    3    3    0    0  0.37704562861E+02  0.95532289447E+01 -0.21701449019E+03  0.22048171624E+03  0.19999992561E+01 0.  0.
        -13    1    3    3    0    0 -0.37704562861E+02 -0.95532289447E+01 -0.14102170642E+03  0.14628749465E+03  0.10566000000E+00 0.  1.
         13    1    4    4    0    0  0.11935465436E+02  0.33688858326E+01 -0.73121945892E+02  0.74166264986E+02  0.10566000000E+00 0. -1.
        -13    1    4    4    0    0  0.21352248032E+02  0.54463116552E+01 -0.11880071545E+03  0.12082715739E+03  0.10566000000E+00 0.  1.
        -14    1    4    4    0    0  0.44168493930E+01  0.73803145689E+00 -0.25091828853E+02  0.25488293866E+02  0.00000000000E+00 0.  1.
<mgrwt>
<rscale>  0 0.79559638E+02</rscale>
<asrwt>0</asrwt>
<pdfrwt beam="1">  1        2 0.55754239E-01 0.79559638E+02</pdfrwt>
<pdfrwt beam="2">  1       -1 0.67177061E-03 0.79559638E+02</pdfrwt>
<totfact> 0.27682487E+05</totfact>
</mgrwt>
</event>
<event>
 8    1  0.1226832E-016  0.7982701E+02  0.7818608E-02  0.1329543E+00
         -1   -1    0    0    0  501 -0.00000000000E+00  0.00000000000E+00  0.11509164748E+03  0.11509164759E+03  0.50400000000E-02 0.  1.
          2   -1    0    0  501    0  0.00000000000E+00 -0.00000000000E+00 -0.13841907007E+02  0.13841907242E+02  0.25500000000E-02 0. -1.
         24    2    1    2    0    0  0.35527136788E-14 -0.71054273576E-14  0.10124974047E+03  0.12893355483E+03  0.79827010564E+02 0.  0.
         66    2    3    3    0    0  0.24346395947E+02 -0.26218340871E+02  0.22175864200E+02  0.42141634318E+02  0.19999990905E+01 0.  0.
        -13    1    3    3    0    0 -0.24346395947E+02  0.26218340871E+02  0.79073876268E+02  0.86791920510E+02  0.10566000000E+00 0.  1.
         13    1    4    4    0    0  0.18263253999E+02 -0.20248992051E+02  0.17486761037E+02  0.32393920746E+02  0.10566000000E+00 0. -1.
        -13    1    4    4    0    0  0.29787783748E+01 -0.26968087101E+01  0.25026808500E+01  0.47350262193E+01  0.10566000000E+00 0.  1.
        -14    1    4    4    0    0  0.31043635739E+01 -0.32725401098E+01  0.21864223137E+01  0.50126873533E+01  0.00000000000E+00 0.  1.
<mgrwt>
<rscale>  0 0.79827011E+02</rscale>
<asrwt>0</asrwt>
<pdfrwt beam="1">  1        2 0.21295242E-02 0.79827011E+02</pdfrwt>
<pdfrwt beam="2">  1       -1 0.17706407E-01 0.79827011E+02</pdfrwt>
<totfact> 0.11555453E+05</totfact>
</mgrwt>
</event>
<event>
 8    1  0.1226832E-016  0.7856100E+02  0.7818608E-02  0.1333185E+00
         -1   -1    0    0    0  501 -0.00000000000E+00  0.00000000000E+00  0.27943326924E+01  0.27943372376E+01  0.50400000000E-02 0.  1.
          2   -1    0    0  501    0  0.00000000000E+00 -0.00000000000E+00 -0.55217353076E+03  0.55217353076E+03  0.25500000000E-02 0. -1.
         24    2    1    2    0    0 -0.11102230246E-15 -0.35527136788E-14 -0.54937919806E+03  0.55496786800E+03  0.78561003348E+02 0.  0.
         66    2    3    3    0    0 -0.23468058076E+00 -0.26322484258E+02 -0.48058169805E+03  0.48130624010E+03  0.20000017817E+01 0.  0.
        -13    1    3    3    0    0  0.23468058076E+00  0.26322484258E+02 -0.68797500015E+02  0.73661627900E+02  0.10566000000E+00 0.  1.
         13    1    4    4    0    0 -0.88434776927E+00 -0.11960405739E+02 -0.22009816679E+03  0.22042469817E+03  0.10566000000E+00 0. -1.
        -13    1    4    4    0    0  0.44817766359E+00 -0.13100579821E+02 -0.24089176736E+03  0.24124817263E+03  0.10566000000E+00 0.  1.
        -14    1    4    4    0    0  0.20148952492E+00 -0.12614986977E+01 -0.19591763900E+02  0.19633369290E+02  0.00000000000E+00 0.  1.
<mgrwt>
<rscale>  0 0.78561003E+02</rscale>
<asrwt>0</asrwt>
<pdfrwt beam="1">  1        2 0.84949687E-01 0.78561003E+02</pdfrwt>
<pdfrwt beam="2">  1       -1 0.42989813E-03 0.78561003E+02</pdfrwt>
<totfact> 0.32918477E+05</totfact>
</mgrwt>
</event>
<event>
 8    1  0.1226832E-016  0.8009221E+02  0.7818608E-02  0.1328790E+00
         -1   -1    0    0    0  501 -0.00000000000E+00  0.00000000000E+00  0.12817161534E+02  0.12817162525E+02  0.50400000000E-02 0.  1.
          2   -1    0    0  501    0  0.00000000000E+00 -0.00000000000E+00 -0.12512056331E+03  0.12512056334E+03  0.25500000000E-02 0. -1.
         24    2    1    2    0    0  0.00000000000E+00  0.00000000000E+00 -0.11230340178E+03  0.13793772586E+03  0.80092210391E+02 0.  0.
         66    2    3    3    0    0 -0.36913463330E+02 -0.22591628732E+01 -0.29842706969E+02  0.47563587171E+02  0.20000183448E+01 0.  0.
        -13    1    3    3    0    0  0.36913463330E+02  0.22591628732E+01 -0.82460694808E+02  0.90374138691E+02  0.10566000000E+00 0.  1.
         13    1    4    4    0    0 -0.24548934620E+02 -0.21938901781E+01 -0.20143318974E+02  0.31831239505E+02  0.10566000000E+00 0. -1.
        -13    1    4    4    0    0 -0.33832332063E+01 -0.17032507717E+00 -0.30143856430E+01  0.45357427617E+01  0.10566000000E+00 0.  1.
         14    1    4    4    0    0 -0.89812955038E+01  0.10505238213E+00 -0.66850023526E+01  0.11196604904E+02  0.00000000000E+00 0. -1.
<mgrwt>
<rscale>  0 0.80092210E+02</rscale>
<asrwt>0</asrwt>
<pdfrwt beam="1">  1        2 0.19249317E-01 0.80092210E+02</pdfrwt>
<pdfrwt beam="2">  1       -1 0.19718712E-02 0.80092210E+02</pdfrwt>
<totfact> 0.18865649E+05</totfact>
</mgrwt>
</event>
<event>
 8    1  0.1226832E-016  0.7987020E+02  0.7818608E-02  0.1329420E+00
          2   -1    0    0  501    0  0.00000000000E+00  0.00000000000E+00  0.68715325152E+02  0.68715325199E+02  0.25500000000E-02 0. -1.
         -1   -1    0    0    0  501 -0.00000000000E+00 -0.00000000000E+00 -0.23208976682E+02  0.23208977230E+02  0.50400000000E-02 0.  1.
         24    2    1    2    0    0  0.44408920985E-15  0.71054273576E-14  0.45506348470E+02  0.91924302429E+02  0.79870204871E+02 0.  0.
         66    2    3    3    0    0  0.31512712200E+01 -0.23225221152E+02  0.59945288519E+02  0.64395489130E+02  0.19999991889E+01 0.  0.
        -13    1    3    3    0    0 -0.31512712200E+01  0.23225221152E+02 -0.14438940050E+02  0.27528813299E+02  0.10566000000E+00 0.  1.
         13    1    4    4    0    0  0.35572725163E+00 -0.43232588768E+01  0.12146420470E+02  0.12898209313E+02  0.10566000000E+00 0. -1.
        -13    1    4    4    0    0  0.21852627963E+00 -0.58320704252E+01  0.14036701640E+02  0.15202005004E+02  0.10566000000E+00 0.  1.
         14    1    4    4    0    0  0.25770176887E+01 -0.13069891850E+02  0.33762166409E+02  0.36295274814E+02  0.00000000000E+00 0. -1.
<mgrwt>
<rscale>  0 0.79870205E+02</rscale>
<asrwt>0</asrwt>
<pdfrwt beam="1">  1        2 0.10571588E-01 0.79870205E+02</pdfrwt>
<pdfrwt beam="2">  1       -1 0.35706119E-02 0.79870205E+02</pdfrwt>
<totfact> 0.16144721E+05</totfact>
</mgrwt>
</event>
<event>
 8    1  0.1226832E-016  0.7610233E+02  0.7818608E-02  0.1340491E+00
         -1   -1    0    0    0  501 -0.00000000000E+00  0.00000000000E+00  0.14130806043E+02  0.14130806942E+02  0.50400000000E-02 0.  1.
          2   -1    0    0  501    0  0.00000000000E+00 -0.00000000000E+00 -0.10246344188E+03  0.10246344191E+03  0.25500000000E-02 0. -1.
         24    2    1    2    0    0  0.00000000000E+00 -0.35527136788E-14 -0.88332635834E+02  0.11659424885E+03  0.76102327899E+02 0.  0.
         66    2    3    3    0    0 -0.23972577635E+02 -0.24081916759E+02 -0.70343734957E+02  0.78146428210E+02  0.20000002534E+01 0.  0.
        -13    1    3    3    0    0  0.23972577635E+02  0.24081916759E+02 -0.17988900877E+02  0.38447820641E+02  0.10566000000E+00 0.  1.
         13    1    4    4    0    0 -0.44782825644E+01 -0.51219872922E+01 -0.14338585002E+02  0.15871230339E+02  0.10566000000E+00 0.  1.
        -13    1    4    4    0    0 -0.94389127802E+01 -0.10149034475E+02 -0.28971422809E+02  0.32116202747E+02  0.10566000000E+00 0. -1.
        -14    1    4    4    0    0 -0.10055382290E+02 -0.88108949919E+01 -0.27033727145E+02  0.30158995125E+02  0.00000000000E+00 0.  1.
<mgrwt>
<rscale>  0 0.76102328E+02</rscale>
<asrwt>0</asrwt>
<pdfrwt beam="1">  1        2 0.15763606E-01 0.76102328E+02</pdfrwt>
<pdfrwt beam="2">  1       -1 0.21739703E-02 0.76102328E+02</pdfrwt>
<totfact> 0.20393089E+05</totfact>
</mgrwt>
</event>
<event>
 8    1  0.1226832E-016  0.7896388E+02  0.7818608E-02  0.1332018E+00
          2   -1    0    0  501    0  0.00000000000E+00  0.00000000000E+00  0.82836850780E+02  0.82836850819E+02  0.25500000000E-02 0. -1.
         -1   -1    0    0    0  501 -0.00000000000E+00 -0.00000000000E+00 -0.18817994440E+02  0.18817995115E+02  0.50400000000E-02 0.  1.
         24    2    1    2    0    0  0.00000000000E+00  0.71054273576E-14  0.64018856340E+02  0.10165484593E+03  0.78963876139E+02 0.  0.
         66    2    3    3    0    0 -0.13165178768E+02 -0.32766979051E+02  0.54689675831E+02  0.65130311425E+02  0.19999939238E+01 0.  0.
        -13    1    3    3    0    0  0.13165178768E+02  0.32766979051E+02  0.93291805085E+01  0.36524534509E+02  0.10566000000E+00 0.  1.
         13    1    4    4    0    0 -0.31025045625E+01 -0.79092202996E+01  0.11941301068E+02  0.14655617883E+02  0.10566000000E+00 0. -1.
        -13    1    4    4    0    0 -0.50225762139E+01 -0.13348146255E+02  0.23442655990E+02  0.27440272670E+02  0.10566000000E+00 0.  1.
         14    1    4    4    0    0 -0.50400979917E+01 -0.11509612496E+02  0.19305718773E+02  0.23034420872E+02  0.00000000000E+00 0. -1.
<mgrwt>
<rscale>  0 0.78963876E+02</rscale>
<asrwt>0</asrwt>
<pdfrwt beam="1">  1        2 0.12744131E-01 0.78963876E+02</pdfrwt>
<pdfrwt beam="2">  1       -1 0.28950761E-02 0.78963876E+02</pdfrwt>
<totfact> 0.17448219E+05</totfact>
</mgrwt>
</event>
<event>
 8    1  0.1226832E-016  0.8051826E+02  0.7818608E-02  0.1327587E+00
         -1   -1    0    0    0  501 -0.00000000000E+00  0.00000000000E+00  0.58323379871E+02  0.58323380089E+02  0.50400000000E-02 0.  1.
          2   -1    0    0  501    0  0.00000000000E+00 -0.00000000000E+00 -0.27789839234E+02  0.27789839351E+02  0.25500000000E-02 0. -1.
         24    2    1    2    0    0  0.17763568394E-14  0.11102230246E-15  0.30533540637E+02  0.86113219440E+02  0.80518255436E+02 0.  0.
         66    2    3    3    0    0 -0.10671697802E+02 -0.60133228507E+00 -0.26207600806E+02  0.28374021049E+02  0.19999989991E+01 0.  0.
        -13    1    3    3    0    0  0.10671697802E+02  0.60133228507E+00  0.56741141443E+02  0.57739198391E+02  0.10566000000E+00 0.  1.
         13    1    4    4    0    0 -0.20150161249E+01 -0.61508111760E+00 -0.47061332495E+01  0.51572734039E+01  0.10566000000E+00 0. -1.
        -13    1    4    4    0    0 -0.18708755944E+01  0.63177176086E-01 -0.62171347236E+01  0.64936965630E+01  0.10566000000E+00 0.  1.
         14    1    4    4    0    0 -0.67858060824E+01 -0.49428343558E-01 -0.15284332833E+02  0.16723051083E+02  0.00000000000E+00 0. -1.
<mgrwt>
<rscale>  0 0.80518255E+02</rscale>
<asrwt>0</asrwt>
<pdfrwt beam="1">  1        2 0.42753599E-02 0.80518255E+02</pdfrwt>
<pdfrwt beam="2">  1       -1 0.89728277E-02 0.80518255E+02</pdfrwt>
<totfact> 0.13015032E+05</totfact>
</mgrwt>
</event>
<event>
 8    1  0.1226832E-016  0.8716492E+02  0.7818608E-02  0.1309866E+00
         -1   -1    0    0    0  501 -0.00000000000E+00  0.00000000000E+00  0.33306592841E+01  0.33306630974E+01  0.50400000000E-02 0.  1.
          2   -1    0    0  501    0  0.00000000000E+00 -0.00000000000E+00 -0.57028645740E+03  0.57028645741E+03  0.25500000000E-02 0. -1.
         24    2    1    2    0    0  0.00000000000E+00  0.17763568394E-14 -0.56695579812E+03  0.57361712051E+03  0.87164923662E+02 0.  0.
         66    2    3    3    0    0  0.24152382799E+02 -0.10311596448E+02 -0.51232903389E+03  0.51300556096E+03  0.19999987494E+01 0.  0.
        -13    1    3    3    0    0 -0.24152382799E+02  0.10311596448E+02 -0.54626764227E+02  0.60611559542E+02  0.10566000000E+00 0.  1.
         13    1    4    4    0    0  0.30405348911E+01 -0.13056773895E+01 -0.72893792131E+02  0.72968936824E+02  0.10566000000E+00 0. -1.
        -13    1    4    4    0    0  0.12938786201E+02 -0.62337291209E+01 -0.27009627043E+03  0.27047786976E+03  0.10566000000E+00 0.  1.
        -14    1    4    4    0    0  0.81730617077E+01 -0.27721899375E+01 -0.16933897133E+03  0.16955875437E+03  0.00000000000E+00 0.  1.
<mgrwt>
<rscale>  0 0.87164924E+02</rscale>
<asrwt>0</asrwt>
<pdfrwt beam="1">  1        2 0.87736301E-01 0.87164924E+02</pdfrwt>
<pdfrwt beam="2">  1       -1 0.51240987E-03 0.87164924E+02</pdfrwt>
<totfact> 0.25333336E+05</totfact>
</mgrwt>
</event>
<event>
 8    1  0.1226832E-016  0.7955198E+02  0.7818608E-02  0.1330328E+00
         -1   -1    0    0    0  501 -0.00000000000E+00  0.00000000000E+00  0.14825364050E+01  0.14825449720E+01  0.50400000000E-02 0.  1.
          2   -1    0    0  501    0  0.00000000000E+00 -0.00000000000E+00 -0.10671742160E+04  0.10671742160E+04  0.25500000000E-02 0. -1.
         24    2    1    2    0    0 -0.35527136788E-14  0.00000000000E+00 -0.10656916796E+04  0.10686567609E+04  0.79551975585E+02 0.  0.
         66    2    3    3    0    0 -0.18978749698E+02 -0.10684322637E+02 -0.97988683912E+03  0.98013089186E+03  0.19999992693E+01 0.  0.
        -13    1    3    3    0    0  0.18978749698E+02  0.10684322637E+02 -0.85804840436E+02  0.88525869082E+02  0.10566000000E+00 0.  1.
         13    1    4    4    0    0 -0.12481434053E+02 -0.71465831337E+01 -0.65624255506E+03  0.65640015393E+03  0.10566000000E+00 0. -1.
        -13    1    4    4    0    0 -0.11558964006E+01 -0.36124520040E+00 -0.68463950170E+02  0.68474741559E+02  0.10566000000E+00 0.  1.
         14    1    4    4    0    0 -0.53414192452E+01 -0.31764943026E+01 -0.25518033390E+03  0.25525599637E+03  0.00000000000E+00 0. -1.
<mgrwt>
<rscale>  0 0.79551976E+02</rscale>
<asrwt>0</asrwt>
<pdfrwt beam="1">  1        2 0.16418003E+00 0.79551976E+02</pdfrwt>
<pdfrwt beam="2">  1       -1 0.22808404E-03 0.79551976E+02</pdfrwt>
<totfact> 0.35790243E+05</totfact>
</mgrwt>
</event>
<event>
 8    1  0.1226832E-016  0.7815787E+02  0.7818608E-02  0.1334362E+00
         -1   -1    0    0    0  501 -0.00000000000E+00  0.00000000000E+00  0.72167146561E+01  0.72167164160E+01  0.50400000000E-02 0.  1.
          2   -1    0    0  501    0  0.00000000000E+00 -0.00000000000E+00 -0.21161472557E+03  0.21161472559E+03  0.25500000000E-02 0. -1.
         24    2    1    2    0    0 -0.35527136788E-14  0.00000000000E+00 -0.20439801091E+03  0.21883144200E+03  0.78157873198E+02 0.  0.
         66    2    3    3    0    0  0.18971677716E+02  0.96145223648E+01 -0.19397122411E+03  0.19514404783E+03  0.20000059512E+01 0.  0.
        -13    1    3    3    0    0 -0.18971677716E+02 -0.96145223648E+01 -0.10426786803E+02  0.23687394173E+02  0.10566000000E+00 0.  1.
         13    1    4    4    0    0  0.83342001864E+01  0.49639079856E+01 -0.92359374947E+02  0.92867457055E+02  0.10566000000E+00 0. -1.
        -13    1    4    4    0    0  0.49148852522E+01  0.22875783749E+01 -0.43896827034E+02  0.44230438609E+02  0.10566000000E+00 0.  1.
        -14    1    4    4    0    0  0.57225922774E+01  0.23630360043E+01 -0.57715022130E+02  0.58046152164E+02  0.00000000000E+00 0.  1.
<mgrwt>
<rscale>  0 0.78157873E+02</rscale>
<asrwt>0</asrwt>
<pdfrwt beam="1">  1        2 0.32556107E-01 0.78157873E+02</pdfrwt>
<pdfrwt beam="2">  1       -1 0.11102641E-02 0.78157873E+02</pdfrwt>
<totfact> 0.23920635E+05</totfact>
</mgrwt>
</event>
<event>
 8    1  0.1226832E-016  0.8072915E+02  0.7818608E-02  0.1326995E+00
          2   -1    0    0  501    0  0.00000000000E+00  0.00000000000E+00  0.56589484897E+03  0.56589484897E+03  0.25500000000E-02 0. -1.
         -1   -1    0    0    0  501 -0.00000000000E+00 -0.00000000000E+00 -0.28791527757E+01  0.28791571870E+01  0.50400000000E-02 0.  1.
         24    2    1    2    0    0  0.00000000000E+00  0.00000000000E+00  0.56301569619E+03  0.56877400616E+03  0.80729151645E+02 0.  0.
         66    2    3    3    0    0  0.21516360251E+02 -0.14132146753E+01  0.52188208835E+03  0.52233118333E+03  0.20000016200E+01 0.  0.
        -13    1    3    3    0    0 -0.21516360251E+02  0.14132146753E+01  0.41133607846E+02  0.46442822832E+02  0.10566000000E+00 0.  1.
         13    1    4    4    0    0  0.51173557939E+01 -0.10662889190E+00  0.11286993699E+03  0.11298598382E+03  0.10566000000E+00 0.  1.
        -13    1    4    4    0    0  0.29721381811E+01 -0.34974093232E+00  0.88036522432E+02  0.88087435937E+02  0.10566000000E+00 0. -1.
         14    1    4    4    0    0  0.13426866276E+02 -0.95684485106E+00  0.32097562893E+03  0.32125776357E+03  0.00000000000E+00 0. -1.
<mgrwt>
<rscale>  0 0.80729152E+02</rscale>
<asrwt>0</asrwt>
<pdfrwt beam="1">  1        2 0.87060786E-01 0.80729152E+02</pdfrwt>
<pdfrwt beam="2">  1       -1 0.44294672E-03 0.80729152E+02</pdfrwt>
<totfact> 0.30890873E+05</totfact>
</mgrwt>
</event>
<event>
 8    1  0.1226832E-016  0.7992301E+02  0.7818608E-02  0.1329270E+00
          2   -1    0    0  501    0  0.00000000000E+00  0.00000000000E+00  0.25493676242E+04  0.25493676242E+04  0.25500000000E-02 0. -1.
         -1   -1    0    0    0  501 -0.00000000000E+00 -0.00000000000E+00 -0.62638914966E+00  0.62640942554E+00  0.50400000000E-02 0.  1.
         24    2    1    2    0    0  0.00000000000E+00  0.00000000000E+00  0.25487412350E+04  0.25499940336E+04  0.79923014748E+02 0.  0.
         66    2    3    3    0    0 -0.92533932551E+01 -0.83035522967E+01  0.24860440109E+04  0.24860759036E+04  0.20000001509E+01 0.  0.
        -13    1    3    3    0    0  0.92533932551E+01  0.83035522967E+01  0.62697224144E+02  0.63918130033E+02  0.10566000000E+00 0.  1.
         13    1    4    4    0    0 -0.14923610591E+01 -0.12477450377E+01  0.51368961689E+03  0.51369331091E+03  0.10566000000E+00 0. -1.
        -13    1    4    4    0    0 -0.48356571166E+01 -0.37771660160E+01  0.12023546263E+04  0.12023702878E+04  0.10566000000E+00 0.  1.
        -14    1    4    4    0    0 -0.29253750794E+01 -0.32786412430E+01  0.76999976771E+03  0.77001230482E+03  0.00000000000E+00 0.  1.
<mgrwt>
<rscale>  0 0.79923015E+02</rscale>
<asrwt>0</asrwt>
<pdfrwt beam="1">  1        2 0.39220892E+00 0.79923015E+02</pdfrwt>
<pdfrwt beam="2">  1       -1 0.96369487E-04 0.79923015E+02</pdfrwt>
<totfact> 0.20363136E+05</totfact>
</mgrwt>
</event>
<event>
 8    1  0.1226832E-016  0.8228630E+02  0.7818608E-02  0.1322686E+00
         -1   -1    0    0    0  501 -0.00000000000E+00  0.00000000000E+00  0.21981174615E+02  0.21981175193E+02  0.50400000000E-02 0.  1.
          2   -1    0    0  501    0  0.00000000000E+00 -0.00000000000E+00 -0.77009472990E+02  0.77009473032E+02  0.25500000000E-02 0. -1.
         24    2    1    2    0    0  0.00000000000E+00 -0.22204460493E-15 -0.55028298375E+02  0.98990648225E+02  0.82286297850E+02 0.  0.
         66    2    3    3    0    0 -0.10900271724E+02  0.17284630256E+01 -0.75181270631E+02  0.76013334133E+02  0.20000010509E+01 0.  0.
        -13    1    3    3    0    0  0.10900271724E+02 -0.17284630256E+01  0.20152972256E+02  0.22977314092E+02  0.10566000000E+00 0.  1.
         13    1    4    4    0    0 -0.22727051549E+01  0.34234331318E+00 -0.20674624470E+02  0.20802251048E+02  0.10566000000E+00 0. -1.
        -13    1    4    4    0    0 -0.20736302800E+01  0.29612380726E+00 -0.10719388876E+02  0.10922641336E+02  0.10566000000E+00 0. -1.
         14    1    4    4    0    0 -0.65539362890E+01  0.10899959052E+01 -0.43787257286E+02  0.44288441749E+02  0.00000000000E+00 0. -1.
<mgrwt>
<rscale>  0 0.82286298E+02</rscale>
<asrwt>0</asrwt>
<pdfrwt beam="1">  1        2 0.11847611E-01 0.82286298E+02</pdfrwt>
<pdfrwt beam="2">  1       -1 0.33817193E-02 0.82286298E+02</pdfrwt>
<totfact> 0.15321330E+05</totfact>
</mgrwt>
</event>
<event>
 8    1  0.1226832E-016  0.7942104E+02  0.7818608E-02  0.1330703E+00
         -1   -1    0    0    0  501 -0.00000000000E+00  0.00000000000E+00  0.58292418395E+01  0.58292440183E+01  0.50400000000E-02 0.  1.
          2   -1    0    0  501    0  0.00000000000E+00 -0.00000000000E+00 -0.27051972663E+03  0.27051972664E+03  0.25500000000E-02 0. -1.
         24    2    1    2    0    0  0.00000000000E+00 -0.17763568394E-14 -0.26469048479E+03  0.27634897066E+03  0.79421035289E+02 0.  0.
         66    2    3    3    0    0 -0.32847593098E+02  0.12561340636E+02 -0.68442346138E+02  0.76974712694E+02  0.19999996317E+01 0.  0.
        -13    1    3    3    0    0  0.32847593098E+02 -0.12561340636E+02 -0.19624813865E+03  0.19937425796E+03  0.10566000000E+00 0.  1.
         13    1    4    4    0    0 -0.65193504147E+01  0.20114140221E+01 -0.12483750287E+02  0.14226837367E+02  0.10566000000E+00 0. -1.
        -13    1    4    4    0    0 -0.15328328811E+02  0.55136270710E+01 -0.32336329514E+02  0.36207832276E+02  0.10566000000E+00 0.  1.
        -14    1    4    4    0    0 -0.10999913872E+02  0.50362995432E+01 -0.23622266336E+02  0.26540043051E+02  0.00000000000E+00 0.  1.
<mgrwt>
<rscale>  0 0.79421035E+02</rscale>
<asrwt>0</asrwt>
<pdfrwt beam="1">  1        2 0.41618410E-01 0.79421035E+02</pdfrwt>
<pdfrwt beam="2">  1       -1 0.89680682E-03 0.79421035E+02</pdfrwt>
<totfact> 0.25029590E+05</totfact>
</mgrwt>
</event>
<event>
 8    1  0.1226832E-016  0.7918417E+02  0.7818608E-02  0.1331383E+00
          2   -1    0    0  501    0  0.00000000000E+00  0.00000000000E+00  0.66656160483E+01  0.66656165360E+01  0.25500000000E-02 0. -1.
         -1   -1    0    0    0  501 -0.00000000000E+00 -0.00000000000E+00 -0.23516701546E+03  0.23516701552E+03  0.50400000000E-02 0.  1.
         24    2    1    2    0    0 -0.35527136788E-14  0.71054273576E-14 -0.22850139941E+03  0.24183263205E+03  0.79184167554E+02 0.  0.
         66    2    3    3    0    0 -0.22830094718E+02  0.22917369647E+02 -0.44739946326E+02  0.55245650027E+02  0.19999983111E+01 0.  0.
        -13    1    3    3    0    0  0.22830094718E+02 -0.22917369647E+02 -0.18376145309E+03  0.18658698202E+03  0.10566000000E+00 0.  1.
         13    1    4    4    0    0 -0.34847511877E+01  0.42404948964E+01 -0.68756507106E+01  0.87983535128E+01  0.10566000000E+00 0. -1.
        -13    1    4    4    0    0 -0.44015125273E+01  0.45752125304E+01 -0.92909263296E+01  0.11253370976E+02  0.10566000000E+00 0.  1.
         14    1    4    4    0    0 -0.14943831003E+02  0.14101662220E+02 -0.28573369286E+02  0.35193925538E+02  0.00000000000E+00 0. -1.
<mgrwt>
<rscale>  0 0.79184168E+02</rscale>
<asrwt>0</asrwt>
<pdfrwt beam="1">  1        2 0.10254796E-02 0.79184168E+02</pdfrwt>
<pdfrwt beam="2">  1       -1 0.36179535E-01 0.79184168E+02</pdfrwt>
<totfact> 0.97089295E+04</totfact>
</mgrwt>
</event>
<event>
 8    1  0.1226832E-016  0.8141193E+02  0.7818608E-02  0.1325092E+00
         -1   -1    0    0    0  501 -0.00000000000E+00  0.00000000000E+00  0.20491270191E+01  0.20491332173E+01  0.50400000000E-02 0.  1.
          2   -1    0    0  501    0  0.00000000000E+00 -0.00000000000E+00 -0.80862384234E+03  0.80862384235E+03  0.25500000000E-02 0. -1.
         24    2    1    2    0    0  0.00000000000E+00 -0.35527136788E-14 -0.80657471532E+03  0.81067297556E+03  0.81411927323E+02 0.  0.
         66    2    3    3    0    0  0.15590388950E+02 -0.31208732678E+02 -0.61191084814E+03  0.61290776737E+03  0.20000005684E+01 0.  0.
        -13    1    3    3    0    0 -0.15590388950E+02  0.31208732678E+02 -0.19466386718E+03  0.19776520820E+03  0.10566000000E+00 0.  1.
         13    1    4    4    0    0  0.96995350646E+01 -0.20527372320E+02 -0.39228262127E+03  0.39293907939E+03  0.10566000000E+00 0. -1.
        -13    1    4    4    0    0  0.37335370438E+01 -0.63549373059E+01 -0.13981648184E+03  0.14001065776E+03  0.10566000000E+00 0.  1.
        -14    1    4    4    0    0  0.21573168420E+01 -0.43264230513E+01 -0.79811745027E+02  0.79958030220E+02  0.00000000000E+00 0.  1.
<mgrwt>
<rscale>  0 0.81411927E+02</rscale>
<asrwt>0</asrwt>
<pdfrwt beam="1">  1        2 0.12440341E+00 0.81411927E+02</pdfrwt>
<pdfrwt beam="2">  1       -1 0.31525143E-03 0.81411927E+02</pdfrwt>
<totfact> 0.32897404E+05</totfact>
</mgrwt>
</event>
<event>
 8    1  0.1228954E-016  0.8032054E+02  0.7818608E-02  0.1328144E+00
         -1   -1    0    0    0  501 -0.00000000000E+00  0.00000000000E+00  0.34154853122E+01  0.34154890308E+01  0.50400000000E-02 0.  1.
          2   -1    0    0  501    0  0.00000000000E+00 -0.00000000000E+00 -0.47221588218E+03  0.47221588219E+03  0.25500000000E-02 0. -1.
         24    2    1    2    0    0  0.00000000000E+00  0.00000000000E+00 -0.46880039687E+03  0.47563137122E+03  0.80320540231E+02 0.  0.
         66    2    3    3    0    0 -0.18438070900E+02 -0.75769157422E+01 -0.44082574787E+03  0.44128076335E+03  0.20000004751E+01 0.  0.
        -13    1    3    3    0    0  0.18438070900E+02  0.75769157422E+01 -0.27974648997E+02  0.34350607872E+02  0.10566000000E+00 0.  1.
         13    1    4    4    0    0 -0.14624527371E+02 -0.61532086422E+01 -0.34859671285E+03  0.34895761656E+03  0.10566000000E+00 0. -1.
        -13    1    4    4    0    0 -0.36455511167E+00 -0.38340193981E+00 -0.15894206050E+02  0.15903359628E+02  0.10566000000E+00 0. -1.
        -14    1    4    4    0    0 -0.34489884168E+01 -0.10403051601E+01 -0.76334828970E+02  0.76419787161E+02  0.00000000000E+00 0.  1.
<mgrwt>
<rscale>  0 0.80320540E+02</rscale>
<asrwt>0</asrwt>
<pdfrwt beam="1">  1        2 0.72648546E-01 0.80320540E+02</pdfrwt>
<pdfrwt beam="2">  1       -1 0.52545994E-03 0.80320540E+02</pdfrwt>
<totfact> 0.29582928E+05</totfact>
</mgrwt>
</event>
<event>
 8    1  0.1226832E-016  0.7729516E+02  0.7818608E-02  0.1336907E+00
          2   -1    0    0  501    0  0.00000000000E+00  0.00000000000E+00  0.10774213046E+04  0.10774213046E+04  0.25500000000E-02 0. -1.
         -1   -1    0    0    0  501 -0.00000000000E+00 -0.00000000000E+00 -0.13863010716E+01  0.13863102332E+01  0.50400000000E-02 0.  1.
         24    2    1    2    0    0  0.00000000000E+00  0.00000000000E+00  0.10760350035E+04  0.10788076148E+04  0.77295155152E+02 0.  0.
         66    2    3    3    0    0  0.25526876143E+02 -0.10046874694E+02  0.91780899891E+03  0.91822106248E+03  0.20000001080E+01 0.  0.
        -13    1    3    3    0    0 -0.25526876143E+02  0.10046874694E+02  0.15822600459E+03  0.16058655233E+03  0.10566000000E+00 0.  1.
         13    1    4    4    0    0  0.76119500532E+01 -0.33871172302E+01  0.26038823921E+03  0.26052151663E+03  0.10566000000E+00 0. -1.
        -13    1    4    4    0    0  0.89274650809E+01 -0.30924203064E+01  0.30660311763E+03  0.30674866846E+03  0.10566000000E+00 0.  1.
        -14    1    4    4    0    0  0.89874610091E+01 -0.35673371577E+01  0.35081764207E+03  0.35095087738E+03  0.00000000000E+00 0.  1.
<mgrwt>
<rscale>  0 0.77295155E+02</rscale>
<asrwt>0</asrwt>
<pdfrwt beam="1">  1        2 0.16575727E+00 0.77295155E+02</pdfrwt>
<pdfrwt beam="2">  1       -1 0.21327760E-03 0.77295155E+02</pdfrwt>
<totfact> 0.38556759E+05</totfact>
</mgrwt>
</event>
<event>
 8    1  0.1226832E-016  0.7896194E+02  0.7818608E-02  0.1332023E+00
          2   -1    0    0  501    0  0.00000000000E+00  0.00000000000E+00  0.14252617731E+02  0.14252617959E+02  0.25500000000E-02 0. -1.
         -1   -1    0    0    0  501 -0.00000000000E+00 -0.00000000000E+00 -0.10936566633E+03  0.10936566645E+03  0.50400000000E-02 0.  1.
         24    2    1    2    0    0  0.00000000000E+00  0.00000000000E+00 -0.95113048602E+02  0.12361828441E+03  0.78961941629E+02 0.  0.
         66    2    3    3    0    0  0.33622711630E+02  0.18860559774E+02 -0.60735143528E+02  0.71965027264E+02  0.20000093726E+01 0.  0.
        -13    1    3    3    0    0 -0.33622711630E+02 -0.18860559774E+02 -0.34377905074E+02  0.51653257145E+02  0.10566000000E+00 0.  1.
         13    1    4    4    0    0  0.16588858971E+02  0.99231386725E+01 -0.30502361387E+02  0.36111828219E+02  0.10566000000E+00 0. -1.
        -13    1    4    4    0    0  0.88066156843E+01  0.50299987611E+01 -0.15068975096E+02  0.18164320571E+02  0.10566000000E+00 0.  1.
        -14    1    4    4    0    0  0.82272369742E+01  0.39074223401E+01 -0.15163807046E+02  0.17688878475E+02  0.00000000000E+00 0.  1.
<mgrwt>
<rscale>  0 0.78961942E+02</rscale>
<asrwt>0</asrwt>
<pdfrwt beam="1">  1        2 0.21927105E-02 0.78961942E+02</pdfrwt>
<pdfrwt beam="2">  1       -1 0.16825487E-01 0.78961942E+02</pdfrwt>
<totfact> 0.12010506E+05</totfact>
</mgrwt>
</event>
<event>
 8    1  0.1226832E-016  0.8050124E+02  0.7818608E-02  0.1327635E+00
         -1   -1    0    0    0  501 -0.00000000000E+00  0.00000000000E+00  0.18622227240E+01  0.18622295442E+01  0.50400000000E-02 0.  1.
          2   -1    0    0  501    0  0.00000000000E+00 -0.00000000000E+00 -0.86998701834E+03  0.86998701834E+03  0.25500000000E-02 0. -1.
         24    2    1    2    0    0  0.00000000000E+00  0.17763568394E-14 -0.86812479561E+03  0.87184924788E+03  0.80501243962E+02 0.  0.
         66    2    3    3    0    0  0.29230970726E+01  0.14380758725E+02 -0.83995951752E+03  0.84009007957E+03  0.20000000239E+01 0.  0.
        -13    1    3    3    0    0 -0.29230970726E+01 -0.14380758725E+02 -0.28165278093E+02  0.31759168315E+02  0.10566000000E+00 0.  1.
         13    1    4    4    0    0  0.12583237839E+01  0.82840313807E+01 -0.43619196762E+03  0.43627245196E+03  0.10566000000E+00 0. -1.
        -13    1    4    4    0    0  0.11772981241E+01  0.49648892552E+01 -0.33805667429E+03  0.33809519717E+03  0.10566000000E+00 0.  1.
        -14    1    4    4    0    0  0.48747516454E+00  0.11318380895E+01 -0.65710875611E+02  0.65722430441E+02  0.00000000000E+00 0.  1.
<mgrwt>
<rscale>  0 0.80501244E+02</rscale>
<asrwt>0</asrwt>
<pdfrwt beam="1">  1        2 0.13384383E+00 0.80501244E+02</pdfrwt>
<pdfrwt beam="2">  1       -1 0.28649702E-03 0.80501244E+02</pdfrwt>
<totfact> 0.34244720E+05</totfact>
</mgrwt>
</event>
<event>
 8    1  0.1226832E-016  0.7586167E+02  0.7818608E-02  0.1341223E+00
         -1   -1    0    0    0  501 -0.00000000000E+00  0.00000000000E+00  0.50533545642E+02  0.50533545893E+02  0.50400000000E-02 0.  1.
          2   -1    0    0  501    0  0.00000000000E+00 -0.00000000000E+00 -0.28471149288E+02  0.28471149402E+02  0.25500000000E-02 0. -1.
         24    2    1    2    0    0  0.00000000000E+00  0.00000000000E+00  0.22062396354E+02  0.79004695295E+02  0.75861667170E+02 0.  0.
         66    2    3    3    0    0 -0.10456974508E+02  0.30363209753E+02 -0.99317199412E+01  0.33673608126E+02  0.20000002111E+01 0.  0.
        -13    1    3    3    0    0  0.10456974508E+02 -0.30363209753E+02  0.31994116295E+02  0.45331087169E+02  0.10566000000E+00 0.  1.
         13    1    4    4    0    0 -0.32566927135E+01  0.10049750352E+02 -0.23592227042E+01  0.10825000017E+02  0.10566000000E+00 0.  1.
        -13    1    4    4    0    0 -0.23303615655E+01  0.62674745998E+01 -0.21598629501E+01  0.70276592748E+01  0.10566000000E+00 0. -1.
         14    1    4    4    0    0 -0.48699202293E+01  0.14045984801E+02 -0.54126342869E+01  0.15820948834E+02  0.00000000000E+00 0. -1.
<mgrwt>
<rscale>  0 0.75861667E+02</rscale>
<asrwt>0</asrwt>
<pdfrwt beam="1">  1        2 0.43801769E-02 0.75861667E+02</pdfrwt>
<pdfrwt beam="2">  1       -1 0.77743916E-02 0.75861667E+02</pdfrwt>
<totfact> 0.15450828E+05</totfact>
</mgrwt>
</event>
<event>
 8    1  0.1226832E-016  0.7929227E+02  0.7818608E-02  0.1331072E+00
         -1   -1    0    0    0  501 -0.00000000000E+00  0.00000000000E+00  0.36760257605E+02  0.36760257951E+02  0.50400000000E-02 0.  1.
          2   -1    0    0  501    0  0.00000000000E+00 -0.00000000000E+00 -0.42758566839E+02  0.42758566915E+02  0.25500000000E-02 0. -1.
         24    2    1    2    0    0  0.00000000000E+00  0.35527136788E-14 -0.59983092338E+01  0.79518824866E+02  0.79292268188E+02 0.  0.
         66    2    3    3    0    0 -0.19498487283E+02 -0.18553839588E+02 -0.32159466133E+02  0.41984130727E+02  0.20000002912E+01 0.  0.
        -13    1    3    3    0    0  0.19498487283E+02  0.18553839588E+02  0.26161156899E+02  0.37534694139E+02  0.10566000000E+00 0.  1.
         13    1    4    4    0    0 -0.79928070186E+01 -0.69428914356E+01 -0.13444875380E+02  0.17113285586E+02  0.10566000000E+00 0. -1.
        -13    1    4    4    0    0 -0.32709584488E+01 -0.26872708927E+01 -0.46195709765E+01  0.62667530721E+01  0.10566000000E+00 0.  1.
        -14    1    4    4    0    0 -0.82347218158E+01 -0.89236772598E+01 -0.14095019777E+02  0.18604092069E+02  0.00000000000E+00 0.  1.
<mgrwt>
<rscale>  0 0.79292268E+02</rscale>
<asrwt>0</asrwt>
<pdfrwt beam="1">  1        2 0.65782411E-02 0.79292268E+02</pdfrwt>
<pdfrwt beam="2">  1       -1 0.56554243E-02 0.79292268E+02</pdfrwt>
<totfact> 0.14811533E+05</totfact>
</mgrwt>
</event>
<event>
 8    1  0.1226832E-016  0.7768101E+02  0.7818608E-02  0.1335764E+00
         -1   -1    0    0    0  501 -0.00000000000E+00  0.00000000000E+00  0.17563518872E+01  0.17563591185E+01  0.50400000000E-02 0.  1.
          2   -1    0    0  501    0  0.00000000000E+00 -0.00000000000E+00 -0.85892906502E+03  0.85892906502E+03  0.25500000000E-02 0. -1.
         24    2    1    2    0    0  0.00000000000E+00 -0.35527136788E-14 -0.85717271313E+03  0.86068542414E+03  0.77681009208E+02 0.  0.
         66    2    3    3    0    0  0.20543088153E+02  0.22468711293E+02 -0.69564036781E+03  0.69630911440E+03  0.19999996173E+01 0.  0.
        -13    1    3    3    0    0 -0.20543088153E+02 -0.22468711293E+02 -0.16153234532E+03  0.16437630975E+03  0.10566000000E+00 0.  1.
         13    1    4    4    0    0  0.24655925198E+01  0.25416916467E+01 -0.84917767014E+02  0.84991632892E+02  0.10566000000E+00 0. -1.
        -13    1    4    4    0    0  0.16751673947E+00  0.24159804527E+00 -0.43973024521E+01  0.44083856869E+01  0.10566000000E+00 0.  1.
         14    1    4    4    0    0  0.17909978894E+02  0.19685421601E+02 -0.60632529835E+03  0.60690909582E+03  0.00000000000E+00 0. -1.
<mgrwt>
<rscale>  0 0.77681009E+02</rscale>
<asrwt>0</asrwt>
<pdfrwt beam="1">  1        2 0.13214260E+00 0.77681009E+02</pdfrwt>
<pdfrwt beam="2">  1       -1 0.27020923E-03 0.77681009E+02</pdfrwt>
<totfact> 0.37499806E+05</totfact>
</mgrwt>
</event>
<event>
 8    1  0.1226832E-016  0.7203976E+02  0.7818608E-02  0.1353291E+00
          2   -1    0    0  501    0  0.00000000000E+00  0.00000000000E+00  0.91505722228E+03  0.91505722229E+03  0.25500000000E-02 0. -1.
         -1   -1    0    0    0  501 -0.00000000000E+00 -0.00000000000E+00 -0.14178651567E+01  0.14178741144E+01  0.50400000000E-02 0.  1.
         24    2    1    2    0    0  0.17763568394E-14  0.17763568394E-14  0.91363935713E+03  0.91647509640E+03  0.72039762860E+02 0.  0.
         66    2    3    3    0    0 -0.61580381306E+01 -0.88039595053E+01  0.89417804359E+03  0.89424482368E+03  0.19999766893E+01 0.  0.
        -13    1    3    3    0    0  0.61580381306E+01  0.88039595053E+01  0.19461313539E+02  0.22230272722E+02  0.10566000000E+00 0.  1.
         13    1    4    4    0    0 -0.11640092400E+01 -0.11062188140E+01  0.11115222800E+03  0.11116387718E+03  0.10566000000E+00 0. -1.
        -13    1    4    4    0    0 -0.27487956616E+01 -0.55017115865E+01  0.51561915248E+03  0.51565584092E+03  0.10566000000E+00 0.  1.
        -14    1    4    4    0    0 -0.22452332290E+01 -0.21960291049E+01  0.26740666311E+03  0.26742510558E+03  0.00000000000E+00 0.  1.
<mgrwt>
<rscale>  0 0.72039763E+02</rscale>
<asrwt>0</asrwt>
<pdfrwt beam="1">  1        2 0.14077751E+00 0.72039763E+02</pdfrwt>
<pdfrwt beam="2">  1       -1 0.21813460E-03 0.72039763E+02</pdfrwt>
<totfact> 0.45889845E+05</totfact>
</mgrwt>
</event>
<event>
 8    1  0.1226832E-016  0.8016505E+02  0.7818608E-02  0.1328584E+00
         -1   -1    0    0    0  501 -0.00000000000E+00  0.00000000000E+00  0.37881664258E+01  0.37881697785E+01  0.50400000000E-02 0.  1.
          2   -1    0    0  501    0  0.00000000000E+00 -0.00000000000E+00 -0.42411233409E+03  0.42411233410E+03  0.25500000000E-02 0. -1.
         24    2    1    2    0    0  0.35527136788E-14  0.00000000000E+00 -0.42032416766E+03  0.42790050388E+03  0.80165050333E+02 0.  0.
         66    2    3    3    0    0 -0.31196803785E+02  0.44353226081E+01 -0.34230770323E+03  0.34376078353E+03  0.19999874203E+01 0.  0.
        -13    1    3    3    0    0  0.31196803785E+02 -0.44353226081E+01 -0.78016464435E+02  0.84139720346E+02  0.10566000000E+00 0.  1.
         13    1    4    4    0    0 -0.12629904534E+02  0.16838261506E+01 -0.13270238773E+03  0.13331273244E+03  0.10566000000E+00 0. -1.
        -13    1    4    4    0    0 -0.12332864749E+02  0.20841460274E+01 -0.14569894945E+03  0.14623487358E+03  0.10566000000E+00 0.  1.
        -14    1    4    4    0    0 -0.62340345026E+01  0.66735043017E+00 -0.63906366057E+02  0.64213177506E+02  0.00000000000E+00 0.  1.
<mgrwt>
<rscale>  0 0.80165050E+02</rscale>
<asrwt>0</asrwt>
<pdfrwt beam="1">  1        2 0.65248014E-01 0.80165050E+02</pdfrwt>
<pdfrwt beam="2">  1       -1 0.58279543E-03 0.80165050E+02</pdfrwt>
<totfact> 0.28677798E+05</totfact>
</mgrwt>
</event>
<event>
 8    1  0.1226832E-016  0.8051250E+02  0.7818608E-02  0.1327603E+00
         -1   -1    0    0    0  501 -0.00000000000E+00  0.00000000000E+00  0.82207946492E+01  0.82207961941E+01  0.50400000000E-02 0.  1.
          2   -1    0    0  501    0  0.00000000000E+00 -0.00000000000E+00 -0.19713005471E+03  0.19713005472E+03  0.25500000000E-02 0. -1.
         24    2    1    2    0    0  0.88817841970E-15  0.00000000000E+00 -0.18890926006E+03  0.20535085092E+03  0.80512504849E+02 0.  0.
         66    2    3    3    0    0  0.27517364772E+01 -0.17724849796E+02 -0.18636140147E+03  0.18723331518E+03  0.20000001645E+01 0.  0.
        -13    1    3    3    0    0 -0.27517364772E+01  0.17724849796E+02 -0.25478585905E+01  0.18117535742E+02  0.10566000000E+00 0.  1.
         13    1    4    4    0    0 -0.63421196285E-01 -0.37585535548E+01 -0.42931336347E+02  0.43095725445E+02  0.10566000000E+00 0. -1.
        -13    1    4    4    0    0  0.18473032682E+00 -0.14062599840E+01 -0.15936610642E+02  0.15999950476E+02  0.10566000000E+00 0. -1.
         14    1    4    4    0    0  0.26304273467E+01 -0.12560036258E+02 -0.12749345448E+03  0.12813763925E+03  0.00000000000E+00 0. -1.
<mgrwt>
<rscale>  0 0.80512505E+02</rscale>
<asrwt>0</asrwt>
<pdfrwt beam="1">  1        2 0.30327697E-01 0.80512505E+02</pdfrwt>
<pdfrwt beam="2">  1       -1 0.12647379E-02 0.80512505E+02</pdfrwt>
<totfact> 0.21581322E+05</totfact>
</mgrwt>
</event>
<event>
 8    1  0.1226832E-016  0.7999279E+02  0.7818608E-02  0.1329072E+00
          2   -1    0    0  501    0  0.00000000000E+00  0.00000000000E+00  0.23293530658E+03  0.23293530659E+03  0.25500000000E-02 0. -1.
         -1   -1    0    0    0  501 -0.00000000000E+00 -0.00000000000E+00 -0.68676206993E+01  0.68676225487E+01  0.50400000000E-02 0.  1.
         24    2    1    2    0    0  0.44408920985E-15  0.00000000000E+00  0.22606768588E+03  0.23980292914E+03  0.79992788586E+02 0.  0.
         66    2    3    3    0    0  0.36951035422E+01 -0.17111191301E+02  0.22082781205E+03  0.22152961253E+03  0.19999996771E+01 0.  0.
        -13    1    3    3    0    0 -0.36951035422E+01  0.17111191301E+02  0.52398738307E+01  0.18273316604E+02  0.10566000000E+00 0.  1.
         13    1    4    4    0    0  0.13775449784E+01 -0.65466440994E+01  0.84551479888E+02  0.84815800971E+02  0.10566000000E+00 0. -1.
        -13    1    4    4    0    0  0.11584461427E+01 -0.41519354610E+01  0.45483069196E+02  0.45686992821E+02  0.10566000000E+00 0.  1.
         14    1    4    4    0    0  0.11591124211E+01 -0.64126117404E+01  0.90793262962E+02  0.91026818742E+02  0.00000000000E+00 0. -1.
<mgrwt>
<rscale>  0 0.79992789E+02</rscale>
<asrwt>0</asrwt>
<pdfrwt beam="1">  1        2 0.35836191E-01 0.79992789E+02</pdfrwt>
<pdfrwt beam="2">  1       -1 0.10565575E-02 0.79992789E+02</pdfrwt>
<totfact> 0.23279073E+05</totfact>
</mgrwt>
</event>
<event>
 8    1  0.1226832E-016  0.8135667E+02  0.7818608E-02  0.1325245E+00
         -1   -1    0    0    0  501 -0.00000000000E+00  0.00000000000E+00  0.61287578702E+01  0.61287599426E+01  0.50400000000E-02 0.  1.
          2   -1    0    0  501    0  0.00000000000E+00 -0.00000000000E+00 -0.26999383389E+03  0.26999383390E+03  0.25500000000E-02 0. -1.
         24    2    1    2    0    0  0.00000000000E+00  0.35527136788E-14 -0.26386507602E+03  0.27612259385E+03  0.81356674518E+02 0.  0.
         66    2    3    3    0    0  0.16126967808E+02 -0.18949589269E+02 -0.24112486779E+03  0.24241362978E+03  0.20000027277E+01 0.  0.
        -13    1    3    3    0    0 -0.16126967808E+02  0.18949589269E+02 -0.22740208232E+02  0.33708964070E+02  0.10566000000E+00 0.  1.
         13    1    4    4    0    0  0.13434471076E+01 -0.18761448569E+01 -0.20130414562E+02  0.20262515246E+02  0.10566000000E+00 0. -1.
        -13    1    4    4    0    0  0.54795752272E+01 -0.59325439150E+01 -0.72179536667E+02  0.72630004127E+02  0.10566000000E+00 0.  1.
         14    1    4    4    0    0  0.93039454737E+01 -0.11140900497E+02 -0.14881491656E+03  0.14952111040E+03  0.00000000000E+00 0. -1.
<mgrwt>
<rscale>  0 0.81356675E+02</rscale>
<asrwt>0</asrwt>
<pdfrwt beam="1">  1        2 0.41537504E-01 0.81356675E+02</pdfrwt>
<pdfrwt beam="2">  1       -1 0.94288620E-03 0.81356675E+02</pdfrwt>
<totfact> 0.23478811E+05</totfact>
</mgrwt>
</event>
<event>
 8    1  0.1226832E-016  0.8015646E+02  0.7818608E-02  0.1328608E+00
          2   -1    0    0  501    0  0.00000000000E+00  0.00000000000E+00  0.68861014903E+03  0.68861014903E+03  0.25500000000E-02 0. -1.
         -1   -1    0    0    0  501 -0.00000000000E+00 -0.00000000000E+00 -0.23326155930E+01  0.23326210379E+01  0.50400000000E-02 0.  1.
         24    2    1    2    0    0  0.00000000000E+00  0.00000000000E+00  0.68627753343E+03  0.69094277007E+03  0.80156463340E+02 0.  0.
         66    2    3    3    0    0  0.30898734316E+02 -0.17438705630E+02  0.50355711325E+03  0.50480947549E+03  0.19999998045E+01 0.  0.
        -13    1    3    3    0    0 -0.30898734316E+02  0.17438705630E+02  0.18272042018E+03  0.18613329458E+03  0.10566000000E+00 0.  1.
         13    1    4    4    0    0  0.25856506088E+02 -0.14527343621E+02  0.42625893147E+03  0.42728946915E+03  0.10566000000E+00 0. -1.
        -13    1    4    4    0    0  0.10347823166E+01 -0.68294864062E+00  0.19977556852E+02  0.20016271758E+02  0.10566000000E+00 0.  1.
         14    1    4    4    0    0  0.40074459112E+01 -0.22284133685E+01  0.57320624923E+02  0.57503734579E+02  0.00000000000E+00 0. -1.
<mgrwt>
<rscale>  0 0.80156463E+02</rscale>
<asrwt>0</asrwt>
<pdfrwt beam="1">  1        2 0.10594007E+00 0.80156463E+02</pdfrwt>
<pdfrwt beam="2">  1       -1 0.35886419E-03 0.80156463E+02</pdfrwt>
<totfact> 0.33155860E+05</totfact>
</mgrwt>
</event>
<event>
 8    1  0.1226832E-016  0.7661550E+02  0.7818608E-02  0.1338940E+00
         -1   -1    0    0    0  501 -0.00000000000E+00  0.00000000000E+00  0.21175511714E+02  0.21175512314E+02  0.50400000000E-02 0.  1.
          2   -1    0    0  501    0  0.00000000000E+00 -0.00000000000E+00 -0.69300972624E+02  0.69300972671E+02  0.25500000000E-02 0. -1.
         24    2    1    2    0    0  0.35527136788E-14  0.00000000000E+00 -0.48125460910E+02  0.90476484985E+02  0.76615496784E+02 0.  0.
         66    2    3    3    0    0 -0.24920663667E+02  0.17158203287E+02 -0.51774910707E+02  0.60000706644E+02  0.20000003739E+01 0.  0.
        -13    1    3    3    0    0  0.24920663667E+02 -0.17158203287E+02  0.36494497970E+01  0.30475778341E+02  0.10566000000E+00 0.  1.
         13    1    4    4    0    0 -0.18355569494E+01  0.12414533002E+01 -0.30288688907E+01  0.37544222463E+01  0.10566000000E+00 0.  1.
        -13    1    4    4    0    0 -0.62566965380E+01  0.44500784160E+01 -0.14300181469E+02  0.16231321683E+02  0.10566000000E+00 0. -1.
        -14    1    4    4    0    0 -0.16828410179E+02  0.11466671571E+02 -0.34445860347E+02  0.40014962715E+02  0.00000000000E+00 0.  1.
<mgrwt>
<rscale>  0 0.76615497E+02</rscale>
<asrwt>0</asrwt>
<pdfrwt beam="1">  1        2 0.10661688E-01 0.76615497E+02</pdfrwt>
<pdfrwt beam="2">  1       -1 0.32577711E-02 0.76615497E+02</pdfrwt>
<totfact> 0.18101207E+05</totfact>
</mgrwt>
</event>
<event>
 8    1  0.1589066E-016  0.7315316E+02  0.7818608E-02  0.1349687E+00
          2   -1    0    0  501    0  0.00000000000E+00  0.00000000000E+00  0.64670487083E+02  0.64670487134E+02  0.25500000000E-02 0. -1.
         -1   -1    0    0    0  501 -0.00000000000E+00 -0.00000000000E+00 -0.20687122345E+02  0.20687122959E+02  0.50400000000E-02 0.  1.
         24    2    1    2    0    0  0.00000000000E+00 -0.17763568394E-14  0.43983364738E+02  0.85357610093E+02  0.73153162796E+02 0.  0.
         66    2    3    3    0    0  0.35199948805E+01 -0.14689676650E+02  0.60842175872E+02  0.62721187210E+02  0.19999990602E+01 0.  0.
        -13    1    3    3    0    0 -0.35199948805E+01  0.14689676650E+02 -0.16858811133E+02  0.22636422882E+02  0.10566000000E+00 0.  1.
         13    1    4    4    0    0  0.18300224475E+01 -0.97407193890E+01  0.40276153750E+02  0.41477829274E+02  0.10566000000E+00 0. -1.
        -13    1    4    4    0    0  0.34726574097E+00 -0.18968603448E+01  0.90812555547E+01  0.92843437651E+01  0.10566000000E+00 0.  1.
        -14    1    4    4    0    0  0.13427066920E+01 -0.30520969158E+01  0.11484766567E+02  0.11959014171E+02  0.00000000000E+00 0.  1.
<mgrwt>
<rscale>  0 0.73153163E+02</rscale>
<asrwt>0</asrwt>
<pdfrwt beam="1">  1        2 0.99493056E-02 0.73153163E+02</pdfrwt>
<pdfrwt beam="2">  1       -1 0.31826343E-02 0.73153163E+02</pdfrwt>
<totfact> 0.20163039E+05</totfact>
</mgrwt>
</event>
<event>
 8    1  0.1226832E-016  0.8053105E+02  0.7818608E-02  0.1327551E+00
          2   -1    0    0  501    0  0.00000000000E+00  0.00000000000E+00  0.45274286090E+03  0.45274286090E+03  0.25500000000E-02 0. -1.
         -1   -1    0    0    0  501 -0.00000000000E+00 -0.00000000000E+00 -0.35810870134E+01  0.35810905600E+01  0.50400000000E-02 0.  1.
         24    2    1    2    0    0  0.00000000000E+00 -0.17763568394E-14  0.44916177388E+03  0.45632395146E+03  0.80531047190E+02 0.  0.
         66    2    3    3    0    0  0.37730921089E+02  0.10993938643E+02  0.27373231237E+03  0.27654632154E+03  0.20000060512E+01 0.  0.
        -13    1    3    3    0    0 -0.37730921089E+02 -0.10993938643E+02  0.17542946151E+03  0.17977762993E+03  0.10566000000E+00 0.  1.
         13    1    4    4    0    0  0.17623516313E+02  0.44592846759E+01  0.12659727952E+03  0.12789587911E+03  0.10566000000E+00 0. -1.
        -13    1    4    4    0    0  0.11992525582E+02  0.41273593513E+01  0.91666443499E+02  0.92539741694E+02  0.10566000000E+00 0.  1.
         14    1    4    4    0    0  0.81148791940E+01  0.24072946159E+01  0.55468589358E+02  0.56110700736E+02  0.00000000000E+00 0. -1.
<mgrwt>
<rscale>  0 0.80531047E+02</rscale>
<asrwt>0</asrwt>
<pdfrwt beam="1">  1        2 0.69652725E-01 0.80531047E+02</pdfrwt>
<pdfrwt beam="2">  1       -1 0.55093692E-03 0.80531047E+02</pdfrwt>
<totfact> 0.28973889E+05</totfact>
</mgrwt>
</event>
<event>
 8    1  0.1226832E-016  0.7847754E+02  0.7818608E-02  0.1333428E+00
         -1   -1    0    0    0  501 -0.00000000000E+00  0.00000000000E+00  0.90248286537E+01  0.90248300610E+01  0.50400000000E-02 0.  1.
          2   -1    0    0  501    0  0.00000000000E+00 -0.00000000000E+00 -0.17060499901E+03  0.17060499903E+03  0.25500000000E-02 0. -1.
         24    2    1    2    0    0  0.00000000000E+00  0.00000000000E+00 -0.16158017036E+03  0.17962982909E+03  0.78477538485E+02 0.  0.
         66    2    3    3    0    0  0.12460909165E+01  0.23997402928E+02 -0.15177156610E+03  0.15367509982E+03  0.19999850954E+01 0.  0.
        -13    1    3    3    0    0 -0.12460909165E+01 -0.23997402928E+02 -0.98086042627E+01  0.25954729270E+02  0.10566000000E+00 0.  1.
         13    1    4    4    0    0  0.15731833507E+01  0.14590905031E+02 -0.90956526478E+02  0.92132894715E+02  0.10566000000E+00 0. -1.
        -13    1    4    4    0    0 -0.21780866448E+00  0.29464888074E+01 -0.20752307990E+02  0.20961838847E+02  0.10566000000E+00 0.  1.
         14    1    4    4    0    0 -0.10928376968E+00  0.64600090896E+01 -0.40062731627E+02  0.40580366260E+02  0.00000000000E+00 0. -1.
<mgrwt>
<rscale>  0 0.78477538E+02</rscale>
<asrwt>0</asrwt>
<pdfrwt beam="1">  1        2 0.26246921E-01 0.78477538E+02</pdfrwt>
<pdfrwt beam="2">  1       -1 0.13884354E-02 0.78477538E+02</pdfrwt>
<totfact> 0.21982962E+05</totfact>
</mgrwt>
</event>
<event>
 8    1  0.1226832E-016  0.8023342E+02  0.7818608E-02  0.1328390E+00
         -1   -1    0    0    0  501 -0.00000000000E+00  0.00000000000E+00  0.43929675008E+02  0.43929675297E+02  0.50400000000E-02 0.  1.
          2   -1    0    0  501    0  0.00000000000E+00 -0.00000000000E+00 -0.36634697071E+02  0.36634697160E+02  0.25500000000E-02 0. -1.
         24    2    1    2    0    0  0.00000000000E+00  0.00000000000E+00  0.72949779369E+01  0.80564372458E+02  0.80233418264E+02 0.  0.
         66    2    3    3    0    0  0.13827041533E+02 -0.36640768807E+02 -0.49654066445E+01  0.39527057604E+02  0.20000008342E+01 0.  0.
        -13    1    3    3    0    0 -0.13827041533E+02  0.36640768807E+02  0.12260384581E+02  0.41037314854E+02  0.10566000000E+00 0.  1.
         13    1    4    4    0    0  0.53625311771E+01 -0.12481197978E+02 -0.17568641553E+01  0.13697984497E+02  0.10566000000E+00 0. -1.
        -13    1    4    4    0    0  0.62403347113E+01 -0.19095813531E+02 -0.22425319602E+01  0.20214647792E+02  0.10566000000E+00 0.  1.
        -14    1    4    4    0    0  0.22241756442E+01 -0.50637572978E+01 -0.96601052901E+00  0.56144253143E+01  0.00000000000E+00 0.  1.
<mgrwt>
<rscale>  0 0.80233418E+02</rscale>
<asrwt>0</asrwt>
<pdfrwt beam="1">  1        2 0.56361073E-02 0.80233418E+02</pdfrwt>
<pdfrwt beam="2">  1       -1 0.67584116E-02 0.80233418E+02</pdfrwt>
<totfact> 0.13889359E+05</totfact>
</mgrwt>
</event>
<event>
 8    1  0.1226832E-016  0.7700447E+02  0.7818608E-02  0.1337774E+00
         -1   -1    0    0    0  501 -0.00000000000E+00  0.00000000000E+00  0.67874751853E+02  0.67874752040E+02  0.50400000000E-02 0.  1.
          2   -1    0    0  501    0  0.00000000000E+00 -0.00000000000E+00 -0.21840551089E+02  0.21840551238E+02  0.25500000000E-02 0. -1.
         24    2    1    2    0    0  0.00000000000E+00  0.44408920985E-15  0.46034200764E+02  0.89715303279E+02  0.77004467419E+02 0.  0.
         66    2    3    3    0    0 -0.37337518488E+02  0.36628548316E+01  0.32980795948E+02  0.49992396365E+02  0.20000001602E+01 0.  0.
        -13    1    3    3    0    0  0.37337518488E+02 -0.36628548316E+01  0.13053404815E+02  0.39722906913E+02  0.10566000000E+00 0.  1.
         13    1    4    4    0    0 -0.15723077093E+01 -0.25819615986E-01  0.10960239157E+01  0.19197006654E+01  0.10566000000E+00 0. -1.
        -13    1    4    4    0    0 -0.20006381393E+02  0.15601951399E+01  0.18281325264E+02  0.27146040646E+02  0.10566000000E+00 0.  1.
        -14    1    4    4    0    0 -0.15758829386E+02  0.21284793077E+01  0.13603446769E+02  0.20926655055E+02  0.00000000000E+00 0.  1.
<mgrwt>
<rscale>  0 0.77004467E+02</rscale>
<asrwt>0</asrwt>
<pdfrwt beam="1">  1        2 0.33600848E-02 0.77004467E+02</pdfrwt>
<pdfrwt beam="2">  1       -1 0.10442270E-01 0.77004467E+02</pdfrwt>
<totfact> 0.14086507E+05</totfact>
</mgrwt>
</event>
<event>
 8    1  0.1395119E-016  0.7881158E+02  0.7818608E-02  0.1332458E+00
          2   -1    0    0  501    0  0.00000000000E+00  0.00000000000E+00  0.24715278859E+03  0.24715278860E+03  0.25500000000E-02 0. -1.
         -1   -1    0    0    0  501 -0.00000000000E+00 -0.00000000000E+00 -0.62828175664E+01  0.62828195879E+01  0.50400000000E-02 0.  1.
         24    2    1    2    0    0  0.00000000000E+00  0.00000000000E+00  0.24086997102E+03  0.25343560819E+03  0.78811576296E+02 0.  0.
         66    2    3    3    0    0  0.99554926758E+01 -0.37878395860E+02  0.13374236565E+03  0.13937325812E+03  0.20000002516E+01 0.  0.
        -13    1    3    3    0    0 -0.99554926758E+01  0.37878395860E+02  0.10712760537E+03  0.11406235007E+03  0.10566000000E+00 0.  1.
         13    1    4    4    0    0  0.54991965169E+01 -0.21427500444E+02  0.75182694944E+02  0.78369813836E+02  0.10566000000E+00 0.  1.
        -13    1    4    4    0    0  0.37477031232E+01 -0.15192248427E+02  0.53425327121E+02  0.55669798212E+02  0.10566000000E+00 0. -1.
        -14    1    4    4    0    0  0.70859303569E+00 -0.12586469892E+01  0.51343435844E+01  0.53336460678E+01  0.00000000000E+00 0.  1.
<mgrwt>
<rscale>  0 0.78811576E+02</rscale>
<asrwt>0</asrwt>
<pdfrwt beam="1">  1        2 0.38023500E-01 0.78811576E+02</pdfrwt>
<pdfrwt beam="2">  1       -1 0.96658762E-03 0.78811576E+02</pdfrwt>
<totfact> 0.24724084E+05</totfact>
</mgrwt>
</event>
<event>
 8    1  0.1226832E-016  0.7942391E+02  0.7818608E-02  0.1330694E+00
          2   -1    0    0  501    0  0.00000000000E+00  0.00000000000E+00  0.12468380252E+04  0.12468380252E+04  0.25500000000E-02 0. -1.
         -1   -1    0    0    0  501 -0.00000000000E+00 -0.00000000000E+00 -0.12648259819E+01  0.12648360234E+01  0.50400000000E-02 0.  1.
         24    2    1    2    0    0  0.00000000000E+00  0.88817841970E-15  0.12455731992E+04  0.12481028612E+04  0.79423910695E+02 0.  0.
         66    2    3    3    0    0 -0.19924125978E+02  0.58730450904E+01  0.11545915728E+04  0.11547801364E+04  0.20000117616E+01 0.  0.
        -13    1    3    3    0    0  0.19924125978E+02 -0.58730450904E+01  0.90981626439E+02  0.93322724822E+02  0.10566000000E+00 0.  1.
         13    1    4    4    0    0 -0.65771927012E+01  0.23632848477E+01  0.38008822655E+03  0.38015249007E+03  0.10566000000E+00 0. -1.
        -13    1    4    4    0    0 -0.60674844162E+01  0.10999505264E+01  0.31582887760E+03  0.31588908710E+03  0.10566000000E+00 0.  1.
        -14    1    4    4    0    0 -0.72794488604E+01  0.24098097163E+01  0.45867446861E+03  0.45873855921E+03  0.00000000000E+00 0.  1.
<mgrwt>
<rscale>  0 0.79423911E+02</rscale>
<asrwt>0</asrwt>
<pdfrwt beam="1">  1        2 0.19182189E+00 0.79423911E+02</pdfrwt>
<pdfrwt beam="2">  1       -1 0.19458872E-03 0.79423911E+02</pdfrwt>
<totfact> 0.35525153E+05</totfact>
</mgrwt>
</event>
<event>
 8    1  0.1226832E-016  0.8090780E+02  0.7818608E-02  0.1326495E+00
         -1   -1    0    0    0  501 -0.00000000000E+00  0.00000000000E+00  0.15297209373E+01  0.15297292400E+01  0.50400000000E-02 0.  1.
          2   -1    0    0  501    0  0.00000000000E+00 -0.00000000000E+00 -0.10698118772E+04  0.10698118772E+04  0.25500000000E-02 0. -1.
         24    2    1    2    0    0  0.00000000000E+00 -0.17763568394E-14 -0.10682821562E+04  0.10713416064E+04  0.80907801271E+02 0.  0.
         66    2    3    3    0    0  0.96498012602E+01  0.12311951531E+02 -0.10281122274E+04  0.10282331715E+04  0.20000024826E+01 0.  0.
        -13    1    3    3    0    0 -0.96498012602E+01 -0.12311951531E+02 -0.40169928813E+02  0.43108434903E+02  0.10566000000E+00 0.  1.
         13    1    4    4    0    0  0.51016314630E+01  0.64552859845E+01 -0.50366799637E+03  0.50373520732E+03  0.10566000000E+00 0. -1.
        -13    1    4    4    0    0  0.71122004887E+00  0.11051432485E+01 -0.67053065229E+02  0.67066026393E+02  0.10566000000E+00 0.  1.
         14    1    4    4    0    0  0.38369497483E+01  0.47515222983E+01 -0.45739116582E+03  0.45743193780E+03  0.00000000000E+00 0. -1.
<mgrwt>
<rscale>  0 0.80907801E+02</rscale>
<asrwt>0</asrwt>
<pdfrwt beam="1">  1        2 0.16458584E+00 0.80907801E+02</pdfrwt>
<pdfrwt beam="2">  1       -1 0.23534318E-03 0.80907801E+02</pdfrwt>
<totfact> 0.34252832E+05</totfact>
</mgrwt>
</event>
<event>
 8    1  0.1226832E-016  0.8388371E+02  0.7818608E-02  0.1318378E+00
          2   -1    0    0  501    0  0.00000000000E+00  0.00000000000E+00  0.32802713018E+03  0.32802713019E+03  0.25500000000E-02 0. -1.
         -1   -1    0    0    0  501 -0.00000000000E+00 -0.00000000000E+00 -0.53627238016E+01  0.53627261700E+01  0.50400000000E-02 0.  1.
         24    2    1    2    0    0 -0.35527136788E-14 -0.88817841970E-15  0.32266440637E+03  0.33338985636E+03  0.83883712245E+02 0.  0.
         66    2    3    3    0    0  0.30195225037E+02  0.47004922359E+01  0.27546054977E+03  0.27715764597E+03  0.19999997333E+01 0.  0.
        -13    1    3    3    0    0 -0.30195225037E+02 -0.47004922359E+01  0.47203856607E+02  0.56232210387E+02  0.10566000000E+00 0.  1.
         13    1    4    4    0    0  0.23399759589E+02  0.37228291933E+01  0.21179419801E+03  0.21311546561E+03  0.10566000000E+00 0. -1.
        -13    1    4    4    0    0  0.63430453248E+01  0.10731449386E+01  0.57600892827E+02  0.57959122513E+02  0.10566000000E+00 0.  1.
        -14    1    4    4    0    0  0.45242012380E+00 -0.95481896060E-01  0.60654589318E+01  0.60830578507E+01  0.00000000000E+00 0.  1.
<mgrwt>
<rscale>  0 0.83883712E+02</rscale>
<asrwt>0</asrwt>
<pdfrwt beam="1">  1        2 0.50465716E-01 0.83883712E+02</pdfrwt>
<pdfrwt beam="2">  1       -1 0.82503456E-03 0.83883712E+02</pdfrwt>
<totfact> 0.23249666E+05</totfact>
</mgrwt>
</event>
<event>
 8    1  0.1226832E-016  0.8276447E+02  0.7818608E-02  0.1321384E+00
         -1   -1    0    0    0  501 -0.00000000000E+00  0.00000000000E+00  0.18143259419E+01  0.18143329421E+01  0.50400000000E-02 0.  1.
          2   -1    0    0  501    0  0.00000000000E+00 -0.00000000000E+00 -0.94386893999E+03  0.94386893999E+03  0.25500000000E-02 0. -1.
         24    2    1    2    0    0  0.44408920985E-15  0.17763568394E-14 -0.94205461404E+03  0.94568327293E+03  0.82764466172E+02 0.  0.
         66    2    3    3    0    0 -0.24903988808E+01 -0.13205556914E+02 -0.91822454458E+03  0.91832505305E+03  0.19999960501E+01 0.  0.
        -13    1    3    3    0    0  0.24903988808E+01  0.13205556914E+02 -0.23830069467E+02  0.27358219877E+02  0.10566000000E+00 0.  1.
         13    1    4    4    0    0 -0.77068307306E+00 -0.39897830222E+01 -0.26298429520E+03  0.26301570867E+03  0.10566000000E+00 0. -1.
        -13    1    4    4    0    0 -0.15117400317E+01 -0.43367641731E+01 -0.34714193805E+03  0.34717233358E+03  0.10566000000E+00 0.  1.
        -14    1    4    4    0    0 -0.20797577597E+00 -0.48790097185E+01 -0.30809831133E+03  0.30813701081E+03  0.00000000000E+00 0.  1.
<mgrwt>
<rscale>  0 0.82764466E+02</rscale>
<asrwt>0</asrwt>
<pdfrwt beam="1">  1        2 0.14521021E+00 0.82764466E+02</pdfrwt>
<pdfrwt beam="2">  1       -1 0.27912836E-03 0.82764466E+02</pdfrwt>
<totfact> 0.32137172E+05</totfact>
</mgrwt>
</event>
<event>
 8    1  0.1226832E-016  0.7886085E+02  0.7818608E-02  0.1332316E+00
         -1   -1    0    0    0  501 -0.00000000000E+00  0.00000000000E+00  0.24639656147E+02  0.24639656663E+02  0.50400000000E-02 0.  1.
          2   -1    0    0  501    0  0.00000000000E+00 -0.00000000000E+00 -0.63099845663E+02  0.63099845714E+02  0.25500000000E-02 0. -1.
         24    2    1    2    0    0  0.35527136788E-14  0.00000000000E+00 -0.38460189515E+02  0.87739502377E+02  0.78860852771E+02 0.  0.
         66    2    3    3    0    0 -0.27137700337E+02 -0.21257153258E+02 -0.40481821366E+02  0.53208074610E+02  0.19999995923E+01 0.  0.
        -13    1    3    3    0    0  0.27137700337E+02  0.21257153258E+02  0.20216318510E+01  0.34531427767E+02  0.10566000000E+00 0.  1.
         13    1    4    4    0    0 -0.15288696389E+02 -0.12894037001E+02 -0.23880039068E+02  0.31149122898E+02  0.10566000000E+00 0. -1.
        -13    1    4    4    0    0 -0.19731260796E+01 -0.12653823769E+01 -0.30892715120E+01  0.38793274670E+01  0.10566000000E+00 0.  1.
        -14    1    4    4    0    0 -0.98758778690E+01 -0.70977338806E+01 -0.13512510787E+02  0.18179624245E+02  0.00000000000E+00 0.  1.
<mgrwt>
<rscale>  0 0.78860853E+02</rscale>
<asrwt>0</asrwt>
<pdfrwt beam="1">  1        2 0.97076685E-02 0.78860853E+02</pdfrwt>
<pdfrwt beam="2">  1       -1 0.37907164E-02 0.78860853E+02</pdfrwt>
<totfact> 0.16374974E+05</totfact>
</mgrwt>
</event>
<event>
 8    1  0.1515612E-016  0.7946045E+02  0.7818608E-02  0.1330590E+00
          2   -1    0    0  501    0  0.00000000000E+00  0.00000000000E+00  0.44598343564E+03  0.44598343565E+03  0.25500000000E-02 0. -1.
         -1   -1    0    0    0  501 -0.00000000000E+00 -0.00000000000E+00 -0.35393470453E+01  0.35393506338E+01  0.50400000000E-02 0.  1.
         24    2    1    2    0    0  0.00000000000E+00  0.35527136788E-14  0.44244408859E+03  0.44952278628E+03  0.79460454652E+02 0.  0.
         66    2    3    3    0    0 -0.17647727254E+02 -0.24858650885E+02  0.36526929676E+03  0.36654475028E+03  0.19999989196E+01 0.  0.
        -13    1    3    3    0    0  0.17647727254E+02  0.24858650885E+02  0.77174791831E+02  0.82978036005E+02  0.10566000000E+00 0.  1.
         13    1    4    4    0    0 -0.11711527161E+02 -0.16021810276E+02  0.23440377029E+03  0.23524242169E+03  0.10566000000E+00 0. -1.
        -13    1    4    4    0    0 -0.31085614748E+01 -0.55781812321E+01  0.78196586169E+02  0.78456972366E+02  0.10566000000E+00 0.  1.
        -14    1    4    4    0    0 -0.28276386182E+01 -0.32586593768E+01  0.52668940306E+02  0.52845356221E+02  0.00000000000E+00 0.  1.
<mgrwt>
<rscale>  0 0.79460455E+02</rscale>
<asrwt>0</asrwt>
<pdfrwt beam="1">  1        2 0.68612811E-01 0.79460455E+02</pdfrwt>
<pdfrwt beam="2">  1       -1 0.54451541E-03 0.79460455E+02</pdfrwt>
<totfact> 0.29852224E+05</totfact>
</mgrwt>
</event>
<event>
 8    1  0.1226832E-016  0.8113847E+02  0.7818608E-02  0.1325851E+00
         -1   -1    0    0    0  501 -0.00000000000E+00  0.00000000000E+00  0.41427977131E+02  0.41427977438E+02  0.50400000000E-02 0.  1.
          2   -1    0    0  501    0  0.00000000000E+00 -0.00000000000E+00 -0.39728292056E+02  0.39728292138E+02  0.25500000000E-02 0. -1.
         24    2    1    2    0    0  0.88817841970E-15  0.00000000000E+00  0.16996850748E+01  0.81156269576E+02  0.81138469064E+02 0.  0.
         66    2    3    3    0    0 -0.64504918380E+01 -0.39208743531E+02 -0.72089162883E+01  0.40433932260E+02  0.19999974358E+01 0.  0.
        -13    1    3    3    0    0  0.64504918380E+01  0.39208743531E+02  0.89086013631E+01  0.40722337316E+02  0.10566000000E+00 0.  1.
         13    1    4    4    0    0 -0.34797998733E+01 -0.17708803951E+02 -0.34168990629E+01  0.18368372486E+02  0.10566000000E+00 0. -1.
        -13    1    4    4    0    0 -0.26623813224E+00 -0.54177018127E+01 -0.76448247583E+00  0.54788660474E+01  0.10566000000E+00 0.  1.
         14    1    4    4    0    0 -0.27044538324E+01 -0.16082237767E+02 -0.30275347496E+01  0.16586693727E+02  0.00000000000E+00 0. -1.
<mgrwt>
<rscale>  0 0.81138469E+02</rscale>
<asrwt>0</asrwt>
<pdfrwt beam="1">  1        2 0.61120449E-02 0.81138469E+02</pdfrwt>
<pdfrwt beam="2">  1       -1 0.63735350E-02 0.81138469E+02</pdfrwt>
<totfact> 0.13689158E+05</totfact>
</mgrwt>
</event>
<event>
 8    1  0.1226832E-016  0.8235638E+02  0.7818608E-02  0.1322494E+00
          2   -1    0    0  501    0  0.00000000000E+00  0.00000000000E+00  0.88632921656E+03  0.88632921656E+03  0.25500000000E-02 0. -1.
         -1   -1    0    0    0  501 -0.00000000000E+00 -0.00000000000E+00 -0.19131043354E+01  0.19131109742E+01  0.50400000000E-02 0.  1.
         24    2    1    2    0    0  0.35527136788E-14 -0.35527136788E-14  0.88441611222E+03  0.88824232753E+03  0.82356377212E+02 0.  0.
         66    2    3    3    0    0  0.18429432315E+02 -0.27748668961E+02  0.70310912457E+03  0.70390061348E+03  0.20000006134E+01 0.  0.
        -13    1    3    3    0    0 -0.18429432315E+02  0.27748668961E+02  0.18130698765E+03  0.18434171405E+03  0.10566000000E+00 0.  1.
         13    1    4    4    0    0  0.64243246174E+01 -0.91388237085E+01  0.23042781510E+03  0.23069845943E+03  0.10566000000E+00 0. -1.
        -13    1    4    4    0    0  0.30329608274E+01 -0.51782680764E+01  0.14128273061E+03  0.14141016386E+03  0.10566000000E+00 0.  1.
        -14    1    4    4    0    0  0.89721468700E+01 -0.13431577176E+02  0.33139857886E+03  0.33179199019E+03  0.00000000000E+00 0.  1.
<mgrwt>
<rscale>  0 0.82356377E+02</rscale>
<asrwt>0</asrwt>
<pdfrwt beam="1">  1        2 0.13635826E+00 0.82356377E+02</pdfrwt>
<pdfrwt beam="2">  1       -1 0.29432444E-03 0.82356377E+02</pdfrwt>
<totfact> 0.32348778E+05</totfact>
</mgrwt>
</event>
<event>
 8    1  0.1226832E-016  0.8043516E+02  0.7818608E-02  0.1327821E+00
         -1   -1    0    0    0  501 -0.00000000000E+00  0.00000000000E+00  0.15529427845E+01  0.15529509630E+01  0.50400000000E-02 0.  1.
          2   -1    0    0  501    0  0.00000000000E+00 -0.00000000000E+00 -0.10415383316E+04  0.10415383316E+04  0.25500000000E-02 0. -1.
         24    2    1    2    0    0  0.00000000000E+00  0.35527136788E-14 -0.10399853888E+04  0.10430912826E+04  0.80435159076E+02 0.  0.
         66    2    3    3    0    0 -0.11096603754E+02 -0.20300465038E+02 -0.94652907158E+03  0.94681388184E+03  0.19999998966E+01 0.  0.
        -13    1    3    3    0    0  0.11096603754E+02  0.20300465038E+02 -0.93456317229E+02  0.96277400722E+02  0.10566000000E+00 0.  1.
         13    1    4    4    0    0 -0.58334228506E+01 -0.96575713257E+01 -0.44208601600E+03  0.44222997887E+03  0.10566000000E+00 0. -1.
        -13    1    4    4    0    0 -0.39643327375E+01 -0.75044691689E+01 -0.34166973215E+03  0.34177514541E+03  0.10566000000E+00 0.  1.
        -14    1    4    4    0    0 -0.12988481659E+01 -0.31384245435E+01 -0.16277332344E+03  0.16280875756E+03  0.00000000000E+00 0.  1.
<mgrwt>
<rscale>  0 0.80435159E+02</rscale>
<asrwt>0</asrwt>
<pdfrwt beam="1">  1        2 0.16023611E+00 0.80435159E+02</pdfrwt>
<pdfrwt beam="2">  1       -1 0.23891574E-03 0.80435159E+02</pdfrwt>
<totfact> 0.34776724E+05</totfact>
</mgrwt>
</event>
<event>
 8    1  0.1226832E-016  0.8085149E+02  0.7818608E-02  0.1326652E+00
          2   -1    0    0  501    0  0.00000000000E+00  0.00000000000E+00  0.10811441431E+03  0.10811441434E+03  0.25500000000E-02 0. -1.
         -1   -1    0    0    0  501 -0.00000000000E+00 -0.00000000000E+00 -0.15115847139E+02  0.15115847979E+02  0.50400000000E-02 0.  1.
         24    2    1    2    0    0  0.88817841970E-15  0.71054273576E-14  0.92998567167E+02  0.12323026231E+03  0.80851493833E+02 0.  0.
         66    2    3    3    0    0 -0.69055692808E+01 -0.34814582257E+02  0.75944020258E+02  0.83852467059E+02  0.19999985451E+01 0.  0.
        -13    1    3    3    0    0  0.69055692808E+01  0.34814582257E+02  0.17054546909E+02  0.39377795255E+02  0.10566000000E+00 0.  1.
         13    1    4    4    0    0 -0.43727904144E+01 -0.25188491113E+02  0.54396356594E+02  0.60104543550E+02  0.10566000000E+00 0. -1.
        -13    1    4    4    0    0 -0.10219706391E+01 -0.28478459804E+01  0.60385404586E+01  0.67549822813E+01  0.10566000000E+00 0.  1.
         14    1    4    4    0    0 -0.15108082273E+01 -0.67782451638E+01  0.15509123205E+02  0.16992941228E+02  0.00000000000E+00 0. -1.
<mgrwt>
<rscale>  0 0.80851494E+02</rscale>
<asrwt>0</asrwt>
<pdfrwt beam="1">  1        2 0.16632986E-01 0.80851494E+02</pdfrwt>
<pdfrwt beam="2">  1       -1 0.23255151E-02 0.80851494E+02</pdfrwt>
<totfact> 0.17616877E+05</totfact>
</mgrwt>
</event>
<event>
 8    1  0.1226832E-016  0.8076390E+02  0.7818608E-02  0.1326897E+00
         -1   -1    0    0    0  501 -0.00000000000E+00  0.00000000000E+00  0.14591353438E+01  0.14591440481E+01  0.50400000000E-02 0.  1.
          2   -1    0    0  501    0  0.00000000000E+00 -0.00000000000E+00 -0.11175776541E+04  0.11175776542E+04  0.25500000000E-02 0. -1.
         24    2    1    2    0    0 -0.55511151231E-16  0.00000000000E+00 -0.11161185188E+04  0.11190367982E+04  0.80763901007E+02 0.  0.
         66    2    3    3    0    0 -0.37456235421E+00  0.15235857637E+02 -0.10761693932E+04  0.10762791619E+04  0.19999978567E+01 0.  0.
        -13    1    3    3    0    0  0.37456235421E+00 -0.15235857637E+02 -0.39949125644E+02  0.42757636261E+02  0.10566000000E+00 0.  1.
         13    1    4    4    0    0 -0.43766866637E+00  0.11916079011E+02 -0.86754432289E+03  0.86762627198E+03  0.10566000000E+00 0. -1.
        -13    1    4    4    0    0  0.14906853762E+00  0.15888664601E+00 -0.12763046140E+02  0.12765342815E+02  0.10566000000E+00 0. -1.
         14    1    4    4    0    0 -0.85962225472E-01  0.31608919808E+01 -0.19586202413E+03  0.19588754714E+03  0.00000000000E+00 0. -1.
<mgrwt>
<rscale>  0 0.80763901E+02</rscale>
<asrwt>0</asrwt>
<pdfrwt beam="1">  1        2 0.17193434E+00 0.80763901E+02</pdfrwt>
<pdfrwt beam="2">  1       -1 0.22448392E-03 0.80763901E+02</pdfrwt>
<totfact> 0.34371482E+05</totfact>
</mgrwt>
</event>
<event>
 8    1  0.1226832E-016  0.8321735E+02  0.7818608E-02  0.1320161E+00
          2   -1    0    0  501    0  0.00000000000E+00  0.00000000000E+00  0.72308007865E+01  0.72308012362E+01  0.25500000000E-02 0. -1.
         -1   -1    0    0    0  501 -0.00000000000E+00 -0.00000000000E+00 -0.23943153169E+03  0.23943153174E+03  0.50400000000E-02 0.  1.
         24    2    1    2    0    0  0.00000000000E+00  0.71054273576E-14 -0.23220073090E+03  0.24666233298E+03  0.83217348423E+02 0.  0.
         66    2    3    3    0    0  0.45153742530E+01  0.39597112010E+02 -0.15135827860E+03  0.15653002389E+03  0.19999981270E+01 0.  0.
        -13    1    3    3    0    0 -0.45153742530E+01 -0.39597112010E+02 -0.80842452299E+02  0.90132309090E+02  0.10566000000E+00 0.  1.
         13    1    4    4    0    0  0.14873546207E+01  0.13802995776E+02 -0.54426326219E+02  0.56169129119E+02  0.10566000000E+00 0. -1.
        -13    1    4    4    0    0  0.21036986442E+01  0.22029278043E+02 -0.83046177362E+02  0.85944129395E+02  0.10566000000E+00 0.  1.
        -14    1    4    4    0    0  0.92432098812E+00  0.37648381902E+01 -0.13885775022E+02  0.14416765374E+02  0.00000000000E+00 0.  1.
<mgrwt>
<rscale>  0 0.83217348E+02</rscale>
<asrwt>0</asrwt>
<pdfrwt beam="1">  1        2 0.11124311E-02 0.83217348E+02</pdfrwt>
<pdfrwt beam="2">  1       -1 0.36835614E-01 0.83217348E+02</pdfrwt>
<totfact> 0.84991306E+04</totfact>
</mgrwt>
</event>
<event>
 8    1  0.1226832E-016  0.7837940E+02  0.7818608E-02  0.1333714E+00
         -1   -1    0    0    0  501 -0.00000000000E+00  0.00000000000E+00  0.31246444855E+01  0.31246485502E+01  0.50400000000E-02 0.  1.
          2   -1    0    0  501    0  0.00000000000E+00 -0.00000000000E+00 -0.49152198059E+03  0.49152198059E+03  0.25500000000E-02 0. -1.
         24    2    1    2    0    0  0.17763568394E-14  0.00000000000E+00 -0.48839733610E+03  0.49464662914E+03  0.78379396606E+02 0.  0.
         66    2    3    3    0    0  0.13865037897E+02  0.31955419449E+02 -0.35732799766E+03  0.35902741682E+03  0.20000020335E+01 0.  0.
        -13    1    3    3    0    0 -0.13865037897E+02 -0.31955419449E+02 -0.13106933844E+03  0.13561921233E+03  0.10566000000E+00 0.  1.
         13    1    4    4    0    0  0.14984947132E+01  0.32989868156E+01 -0.42932600777E+02  0.43085359160E+02  0.10566000000E+00 0. -1.
        -13    1    4    4    0    0  0.55014520990E+01  0.12161621907E+02 -0.13074967346E+03  0.13142929390E+03  0.10566000000E+00 0.  1.
         14    1    4    4    0    0  0.68650910849E+01  0.16494810726E+02 -0.18364572342E+03  0.18451276376E+03  0.00000000000E+00 0. -1.
<mgrwt>
<rscale>  0 0.78379397E+02</rscale>
<asrwt>0</asrwt>
<pdfrwt beam="1">  1        2 0.75618705E-01 0.78379397E+02</pdfrwt>
<pdfrwt beam="2">  1       -1 0.48071524E-03 0.78379397E+02</pdfrwt>
<totfact> 0.31942794E+05</totfact>
</mgrwt>
</event>
<event>
 8    1  0.1226832E-016  0.8027703E+02  0.7818608E-02  0.1328267E+00
         -1   -1    0    0    0  501 -0.00000000000E+00  0.00000000000E+00  0.10525081396E+03  0.10525081408E+03  0.50400000000E-02 0.  1.
          2   -1    0    0  501    0  0.00000000000E+00 -0.00000000000E+00 -0.15307246887E+02  0.15307247100E+02  0.25500000000E-02 0. -1.
         24    2    1    2    0    0  0.00000000000E+00  0.00000000000E+00  0.89943567073E+02  0.12055806118E+03  0.80277025716E+02 0.  0.
         66    2    3    3    0    0  0.17168776425E+02 -0.28591526769E+02  0.11524747527E+02  0.35342072600E+02  0.20000007894E+01 0.  0.
        -13    1    3    3    0    0 -0.17168776425E+02  0.28591526769E+02  0.78418819546E+02  0.85215988582E+02  0.10566000000E+00 0.  1.
         13    1    4    4    0    0  0.55155228342E+01 -0.84969039901E+01  0.43962170393E+01  0.11043380725E+02  0.10566000000E+00 0. -1.
        -13    1    4    4    0    0  0.84171436888E+01 -0.14468877207E+02  0.51299341674E+01  0.17507829794E+02  0.10566000000E+00 0.  1.
         14    1    4    4    0    0  0.32361099016E+01 -0.56257455721E+01  0.19985963207E+01  0.67908620801E+01  0.00000000000E+00 0. -1.
<mgrwt>
<rscale>  0 0.80277026E+02</rscale>
<asrwt>0</asrwt>
<pdfrwt beam="1">  1        2 0.23549612E-02 0.80277026E+02</pdfrwt>
<pdfrwt beam="2">  1       -1 0.16192432E-01 0.80277026E+02</pdfrwt>
<totfact> 0.11621881E+05</totfact>
</mgrwt>
</event>
<event>
 8    1  0.1226832E-016  0.7974679E+02  0.7818608E-02  0.1329772E+00
         -1   -1    0    0    0  501 -0.00000000000E+00  0.00000000000E+00  0.10978383203E+01  0.10978498892E+01  0.50400000000E-02 0.  1.
          2   -1    0    0  501    0  0.00000000000E+00 -0.00000000000E+00 -0.14481906081E+04  0.14481906081E+04  0.25500000000E-02 0. -1.
         24    2    1    2    0    0  0.00000000000E+00 -0.88817841970E-15 -0.14470927698E+04  0.14492884580E+04  0.79746787511E+02 0.  0.
         66    2    3    3    0    0 -0.17040050012E+02 -0.53554237749E+01 -0.13713586931E+04  0.13714764705E+04  0.20000069903E+01 0.  0.
        -13    1    3    3    0    0  0.17040050012E+02  0.53554237749E+01 -0.75734076644E+02  0.77811987491E+02  0.10566000000E+00 0.  1.
         13    1    4    4    0    0 -0.65248545407E+01 -0.13755150030E+01 -0.53845290344E+03  0.53849420253E+03  0.10566000000E+00 0. -1.
        -13    1    4    4    0    0 -0.29283700696E+01 -0.11987205941E+01 -0.20391840724E+03  0.20394298286E+03  0.10566000000E+00 0.  1.
         14    1    4    4    0    0 -0.75868254014E+01 -0.27811881777E+01 -0.62898738243E+03  0.62903928509E+03  0.00000000000E+00 0. -1.
<mgrwt>
<rscale>  0 0.79746788E+02</rscale>
<asrwt>0</asrwt>
<pdfrwt beam="1">  1        2 0.22279703E+00 0.79746788E+02</pdfrwt>
<pdfrwt beam="2">  1       -1 0.16890025E-03 0.79746788E+02</pdfrwt>
<totfact> 0.33943515E+05</totfact>
</mgrwt>
</event>
<event>
 8    1  0.1226832E-016  0.8493457E+02  0.7818608E-02  0.1315604E+00
         -1   -1    0    0    0  501 -0.00000000000E+00  0.00000000000E+00  0.39827071355E+01  0.39827103244E+01  0.50400000000E-02 0.  1.
          2   -1    0    0  501    0  0.00000000000E+00 -0.00000000000E+00 -0.45282509006E+03  0.45282509007E+03  0.25500000000E-02 0. -1.
         24    2    1    2    0    0  0.00000000000E+00  0.00000000000E+00 -0.44884238292E+03  0.45680780039E+03  0.84934573580E+02 0.  0.
         66    2    3    3    0    0 -0.38429662599E+02 -0.75376846037E+01 -0.31256139871E+03  0.31501156109E+03  0.20000005392E+01 0.  0.
        -13    1    3    3    0    0  0.38429662599E+02  0.75376846037E+01 -0.13628098421E+03  0.14179623930E+03  0.10566000000E+00 0.  1.
         13    1    4    4    0    0 -0.10697388082E+01 -0.36810583136E+00 -0.96769106724E+01  0.97433878717E+01  0.10566000000E+00 0. -1.
        -13    1    4    4    0    0 -0.19636433397E+02 -0.41727657572E+01 -0.15438488341E+03  0.15568463276E+03  0.10566000000E+00 0.  1.
        -14    1    4    4    0    0 -0.17723490394E+02 -0.29968130151E+01 -0.14849960463E+03  0.14958354046E+03  0.00000000000E+00 0.  1.
<mgrwt>
<rscale>  0 0.84934574E+02</rscale>
<asrwt>0</asrwt>
<pdfrwt beam="1">  1        2 0.69665358E-01 0.84934574E+02</pdfrwt>
<pdfrwt beam="2">  1       -1 0.61272478E-03 0.84934574E+02</pdfrwt>
<totfact> 0.25206936E+05</totfact>
</mgrwt>
</event>
<event>
 8    1  0.1226832E-016  0.7954309E+02  0.7818608E-02  0.1330353E+00
         -1   -1    0    0    0  501 -0.00000000000E+00  0.00000000000E+00  0.23002479010E+01  0.23002534224E+01  0.50400000000E-02 0.  1.
          2   -1    0    0  501    0  0.00000000000E+00 -0.00000000000E+00 -0.68765367846E+03  0.68765367846E+03  0.25500000000E-02 0. -1.
         24    2    1    2    0    0  0.00000000000E+00  0.00000000000E+00 -0.68535343055E+03  0.68995393188E+03  0.79543091136E+02 0.  0.
         66    2    3    3    0    0 -0.23605022910E+02  0.25201967794E+02 -0.51362549881E+03  0.51478878126E+03  0.19999990538E+01 0.  0.
        -13    1    3    3    0    0  0.23605022910E+02 -0.25201967794E+02 -0.17172793175E+03  0.17516515062E+03  0.10566000000E+00 0.  1.
         13    1    4    4    0    0 -0.76993493062E+01  0.75835125821E+01 -0.15165533741E+03  0.15203993611E+03  0.10566000000E+00 0. -1.
        -13    1    4    4    0    0 -0.39680967676E+01  0.38197294574E+01 -0.82623773131E+02  0.82807216929E+02  0.10566000000E+00 0.  1.
         14    1    4    4    0    0 -0.11937576837E+02  0.13798725755E+02 -0.27934638827E+03  0.27994162822E+03  0.00000000000E+00 0. -1.
<mgrwt>
<rscale>  0 0.79543091E+02</rscale>
<asrwt>0</asrwt>
<pdfrwt beam="1">  1        2 0.10579271E+00 0.79543091E+02</pdfrwt>
<pdfrwt beam="2">  1       -1 0.35388527E-03 0.79543091E+02</pdfrwt>
<totfact> 0.33813463E+05</totfact>
</mgrwt>
</event>
<event>
 8    1  0.1226832E-016  0.7788875E+02  0.7818608E-02  0.1335152E+00
         -1   -1    0    0    0  501 -0.00000000000E+00  0.00000000000E+00  0.20921117752E+03  0.20921117758E+03  0.50400000000E-02 0.  1.
          2   -1    0    0  501    0  0.00000000000E+00 -0.00000000000E+00 -0.72494428595E+01  0.72494433080E+01  0.25500000000E-02 0. -1.
         24    2    1    2    0    0  0.00000000000E+00  0.00000000000E+00  0.20196173466E+03  0.21646062089E+03  0.77888754827E+02 0.  0.
         66    2    3    3    0    0  0.38590352551E+02  0.49914464393E+01  0.10307001321E+03  0.11018873569E+03  0.20000007529E+01 0.  0.
        -13    1    3    3    0    0 -0.38590352551E+02 -0.49914464393E+01  0.98891721454E+02  0.10627188520E+03  0.10566000000E+00 0.  1.
         13    1    4    4    0    0  0.53473302636E+01  0.10281339019E+01  0.13320555077E+02  0.14390946871E+02  0.10566000000E+00 0.  1.
        -13    1    4    4    0    0  0.10455363526E+02  0.12499369528E+01  0.26673940744E+02  0.28677294986E+02  0.10566000000E+00 0. -1.
         14    1    4    4    0    0  0.22787658761E+02  0.27133755846E+01  0.63075517387E+02  0.67120493834E+02  0.00000000000E+00 0. -1.
<mgrwt>
<rscale>  0 0.77888755E+02</rscale>
<asrwt>0</asrwt>
<pdfrwt beam="1">  1        2 0.11152990E-02 0.77888755E+02</pdfrwt>
<pdfrwt beam="2">  1       -1 0.32186334E-01 0.77888755E+02</pdfrwt>
<totfact> 0.10515979E+05</totfact>
</mgrwt>
</event>
<event>
 8    1  0.1226832E-016  0.8052936E+02  0.7818608E-02  0.1327556E+00
          2   -1    0    0  501    0  0.00000000000E+00  0.00000000000E+00  0.23482301549E+02  0.23482301688E+02  0.25500000000E-02 0. -1.
         -1   -1    0    0    0  501 -0.00000000000E+00 -0.00000000000E+00 -0.69041125178E+02  0.69041125362E+02  0.50400000000E-02 0.  1.
         24    2    1    2    0    0  0.00000000000E+00  0.00000000000E+00 -0.45558823629E+02  0.92523427050E+02  0.80529361991E+02 0.  0.
         66    2    3    3    0    0 -0.16325528163E+02 -0.36297864622E+02 -0.29608269625E+02  0.49645820039E+02  0.19999928262E+01 0.  0.
        -13    1    3    3    0    0  0.16325528163E+02  0.36297864622E+02 -0.15950554004E+02  0.42877607011E+02  0.10566000000E+00 0.  1.
         13    1    4    4    0    0 -0.89691732244E+01 -0.19512864564E+02 -0.16193122935E+02  0.26896586145E+02  0.10566000000E+00 0. -1.
        -13    1    4    4    0    0 -0.41371363655E+01 -0.10700570831E+02 -0.88452613795E+01  0.14486819055E+02  0.10566000000E+00 0.  1.
        -14    1    4    4    0    0 -0.32192185728E+01 -0.60844292265E+01 -0.45698853105E+01  0.82624148396E+01  0.00000000000E+00 0.  1.
<mgrwt>
<rscale>  0 0.80529362E+02</rscale>
<asrwt>0</asrwt>
<pdfrwt beam="1">  1        2 0.36126618E-02 0.80529362E+02</pdfrwt>
<pdfrwt beam="2">  1       -1 0.10621712E-01 0.80529362E+02</pdfrwt>
<totfact> 0.12582411E+05</totfact>
</mgrwt>
</event>
<event>
 8    1  0.1226832E-016  0.8285651E+02  0.7818608E-02  0.1321135E+00
          2   -1    0    0  501    0  0.00000000000E+00  0.00000000000E+00  0.19718717185E+03  0.19718717187E+03  0.25500000000E-02 0. -1.
         -1   -1    0    0    0  501 -0.00000000000E+00 -0.00000000000E+00 -0.87039138004E+01  0.87039152596E+01  0.50400000000E-02 0.  1.
         24    2    1    2    0    0  0.00000000000E+00 -0.71054273576E-14  0.18848325805E+03  0.20589108713E+03  0.82856509660E+02 0.  0.
         66    2    3    3    0    0  0.10589746505E+02 -0.39489116002E+02  0.78046834922E+02  0.88129685424E+02  0.19999994706E+01 0.  0.
        -13    1    3    3    0    0 -0.10589746505E+02  0.39489116002E+02  0.11043642313E+03  0.11776140170E+03  0.10566000000E+00 0.  1.
         13    1    4    4    0    0  0.45023261648E+01 -0.14675722976E+02  0.29251794663E+02  0.33035230298E+02  0.10566000000E+00 0. -1.
        -13    1    4    4    0    0  0.47599084186E+00 -0.34699619156E+01  0.72091374695E+01  0.80156116465E+01  0.10566000000E+00 0.  1.
        -14    1    4    4    0    0  0.56114294983E+01 -0.21343431111E+02  0.41585902790E+02  0.47078843480E+02  0.00000000000E+00 0.  1.
<mgrwt>
<rscale>  0 0.82856510E+02</rscale>
<asrwt>0</asrwt>
<pdfrwt beam="1">  1        2 0.30336489E-01 0.82856510E+02</pdfrwt>
<pdfrwt beam="2">  1       -1 0.13390637E-02 0.82856510E+02</pdfrwt>
<totfact> 0.20005806E+05</totfact>
</mgrwt>
</event>
<event>
 8    1  0.1226832E-016  0.7925176E+02  0.7818608E-02  0.1331188E+00
         -1   -1    0    0    0  501 -0.00000000000E+00  0.00000000000E+00  0.57439811838E+01  0.57439833950E+01  0.50400000000E-02 0.  1.
          2   -1    0    0  501    0  0.00000000000E+00 -0.00000000000E+00 -0.27336614321E+03  0.27336614322E+03  0.25500000000E-02 0. -1.
         24    2    1    2    0    0  0.17763568394E-14 -0.35527136788E-14 -0.26762216202E+03  0.27911012661E+03  0.79251758166E+02 0.  0.
         66    2    3    3    0    0  0.15589327625E+02 -0.19018400772E+02 -0.24321306896E+03  0.24446129269E+03  0.20000022952E+01 0.  0.
        -13    1    3    3    0    0 -0.15589327625E+02  0.19018400772E+02 -0.24409093062E+02  0.34648833918E+02  0.10566000000E+00 0.  1.
         13    1    4    4    0    0  0.90114196945E+01 -0.11493970186E+02 -0.14416490688E+03  0.14490289361E+03  0.10566000000E+00 0. -1.
        -13    1    4    4    0    0  0.37229118049E+01 -0.37159137594E+01 -0.56710101262E+02  0.56953620048E+02  0.10566000000E+00 0.  1.
        -14    1    4    4    0    0  0.28549961255E+01 -0.38085168269E+01 -0.42338060818E+02  0.42604779041E+02  0.00000000000E+00 0.  1.
<mgrwt>
<rscale>  0 0.79251758E+02</rscale>
<asrwt>0</asrwt>
<pdfrwt beam="1">  1        2 0.42056320E-01 0.79251758E+02</pdfrwt>
<pdfrwt beam="2">  1       -1 0.88368980E-03 0.79251758E+02</pdfrwt>
<totfact> 0.25265549E+05</totfact>
</mgrwt>
</event>
<event>
 8    1  0.1226832E-016  0.8887014E+02  0.7818608E-02  0.1305611E+00
          2   -1    0    0  501    0  0.00000000000E+00  0.00000000000E+00  0.96493445014E+03  0.96493445014E+03  0.25500000000E-02 0. -1.
         -1   -1    0    0    0  501 -0.00000000000E+00 -0.00000000000E+00 -0.20462244766E+01  0.20462306835E+01  0.50400000000E-02 0.  1.
         24    2    1    2    0    0  0.00000000000E+00  0.88817841970E-15  0.96288822566E+03  0.96698068083E+03  0.88870141055E+02 0.  0.
         66    2    3    3    0    0 -0.12269964767E+02 -0.67021355955E+01  0.94036283928E+03  0.94046889378E+03  0.20000006835E+01 0.  0.
        -13    1    3    3    0    0  0.12269964767E+02  0.67021355955E+01  0.22525386383E+02  0.26511787051E+02  0.10566000000E+00 0.  1.
         13    1    4    4    0    0 -0.85706186847E+01 -0.54404797574E+01  0.68150304094E+03  0.68157865306E+03  0.10566000000E+00 0. -1.
        -13    1    4    4    0    0 -0.29654129783E+01 -0.92667621707E+00  0.18599470681E+03  0.18602068307E+03  0.10566000000E+00 0.  1.
         14    1    4    4    0    0 -0.73393310382E+00 -0.33497962108E+00  0.72865091524E+02  0.72869557649E+02  0.00000000000E+00 0. -1.
<mgrwt>
<rscale>  0 0.88870141E+02</rscale>
<asrwt>0</asrwt>
<pdfrwt beam="1">  1        2 0.14845169E+00 0.88870141E+02</pdfrwt>
<pdfrwt beam="2">  1       -1 0.31480374E-03 0.88870141E+02</pdfrwt>
<totfact> 0.26723712E+05</totfact>
</mgrwt>
</event>
<event>
 8    1  0.1226832E-016  0.8055272E+02  0.7818608E-02  0.1327490E+00
         -1   -1    0    0    0  501 -0.00000000000E+00  0.00000000000E+00  0.20862573545E+01  0.20862634424E+01  0.50400000000E-02 0.  1.
          2   -1    0    0  501    0  0.00000000000E+00 -0.00000000000E+00 -0.77755642863E+03  0.77755642864E+03  0.25500000000E-02 0. -1.
         24    2    1    2    0    0  0.00000000000E+00  0.00000000000E+00 -0.77547017128E+03  0.77964269208E+03  0.80552720441E+02 0.  0.
         66    2    3    3    0    0  0.12697338462E+02  0.26219363350E+02 -0.65680741470E+03  0.65745620190E+03  0.19999997809E+01 0.  0.
        -13    1    3    3    0    0 -0.12697338462E+02 -0.26219363350E+02 -0.11866275658E+03  0.12218649018E+03  0.10566000000E+00 0.  1.
         13    1    4    4    0    0  0.49994815557E+01  0.11263702203E+02 -0.28490456942E+03  0.28517098493E+03  0.10566000000E+00 0. -1.
        -13    1    4    4    0    0  0.70223374353E+01  0.12857506880E+02 -0.32815493134E+03  0.32848180898E+03  0.10566000000E+00 0.  1.
        -14    1    4    4    0    0  0.67551947129E+00  0.20981542676E+01 -0.43747913940E+02  0.43803407995E+02  0.00000000000E+00 0.  1.
<mgrwt>
<rscale>  0 0.80552720E+02</rscale>
<asrwt>0</asrwt>
<pdfrwt beam="1">  1        2 0.11962384E+00 0.80552720E+02</pdfrwt>
<pdfrwt beam="2">  1       -1 0.32096376E-03 0.80552720E+02</pdfrwt>
<totfact> 0.33584539E+05</totfact>
</mgrwt>
</event>
<event>
 8    1  0.1226832E-016  0.8071064E+02  0.7818608E-02  0.1327047E+00
          2   -1    0    0  501    0  0.00000000000E+00  0.00000000000E+00  0.43921658761E+02  0.43921658835E+02  0.25500000000E-02 0. -1.
         -1   -1    0    0    0  501 -0.00000000000E+00 -0.00000000000E+00 -0.37078556134E+02  0.37078556476E+02  0.50400000000E-02 0.  1.
         24    2    1    2    0    0  0.35527136788E-14 -0.71054273576E-14  0.68431026275E+01  0.81000215312E+02  0.80710636393E+02 0.  0.
         66    2    3    3    0    0  0.18305286699E+02 -0.34909186004E+02  0.11987253016E+02  0.41248382198E+02  0.20000026260E+01 0.  0.
        -13    1    3    3    0    0 -0.18305286699E+02  0.34909186004E+02 -0.51441503882E+01  0.39751833113E+02  0.10566000000E+00 0.  1.
         13    1    4    4    0    0  0.76941187218E+01 -0.16216657810E+02  0.57830843817E+01  0.18858278884E+02  0.10566000000E+00 0. -1.
        -13    1    4    4    0    0  0.38164837657E+01 -0.75011567914E+01  0.22188958927E+01  0.87044565919E+01  0.10566000000E+00 0.  1.
         14    1    4    4    0    0  0.67946842114E+01 -0.11191371402E+02  0.39852727413E+01  0.13685646723E+02  0.00000000000E+00 0. -1.
<mgrwt>
<rscale>  0 0.80710636E+02</rscale>
<asrwt>0</asrwt>
<pdfrwt beam="1">  1        2 0.67571783E-02 0.80710636E+02</pdfrwt>
<pdfrwt beam="2">  1       -1 0.57043933E-02 0.80710636E+02</pdfrwt>
<totfact> 0.14184912E+05</totfact>
</mgrwt>
</event>
<event>
 8    1  0.1226832E-016  0.7898847E+02  0.7818608E-02  0.1331947E+00
          2   -1    0    0  501    0  0.00000000000E+00  0.00000000000E+00  0.70828984638E+03  0.70828984639E+03  0.25500000000E-02 0. -1.
         -1   -1    0    0    0  501 -0.00000000000E+00 -0.00000000000E+00 -0.22021955112E+01  0.22022012786E+01  0.50400000000E-02 0.  1.
         24    2    1    2    0    0  0.00000000000E+00  0.00000000000E+00  0.70608765087E+03  0.71049204767E+03  0.78988474369E+02 0.  0.
         66    2    3    3    0    0  0.17538876615E+02 -0.26880666803E+02  0.55987934026E+03  0.56080215591E+03  0.19999930827E+01 0.  0.
        -13    1    3    3    0    0 -0.17538876615E+02  0.26880666803E+02  0.14620831061E+03  0.14968989176E+03  0.10566000000E+00 0.  1.
         13    1    4    4    0    0  0.92158774150E+01 -0.14932718507E+02  0.31543141238E+03  0.31591914402E+03  0.10566000000E+00 0. -1.
        -13    1    4    4    0    0  0.12566689037E+01 -0.20843385019E+01  0.36162952514E+02  0.36244916641E+02  0.10566000000E+00 0. -1.
         14    1    4    4    0    0  0.70663302968E+01 -0.98636097941E+01  0.20828497537E+03  0.20863809524E+03  0.00000000000E+00 0. -1.
<mgrwt>
<rscale>  0 0.78988474E+02</rscale>
<asrwt>0</asrwt>
<pdfrwt beam="1">  1        2 0.10896769E+00 0.78988474E+02</pdfrwt>
<pdfrwt beam="2">  1       -1 0.33879968E-03 0.78988474E+02</pdfrwt>
<totfact> 0.34668299E+05</totfact>
</mgrwt>
</event>
<event>
 8    1  0.1226832E-016  0.8120516E+02  0.7818608E-02  0.1325666E+00
          2   -1    0    0  501    0  0.00000000000E+00  0.00000000000E+00  0.76470495887E+01  0.76470500139E+01  0.25500000000E-02 0. -1.
         -1   -1    0    0    0  501 -0.00000000000E+00 -0.00000000000E+00 -0.21558241099E+03  0.21558241105E+03  0.50400000000E-02 0.  1.
         24    2    1    2    0    0  0.35527136788E-14  0.00000000000E+00 -0.20793536141E+03  0.22322946107E+03  0.81205158490E+02 0.  0.
         66    2    3    3    0    0 -0.26504875076E+02 -0.24198935323E+02 -0.51983914853E+02  0.63201458144E+02  0.20000086340E+01 0.  0.
        -13    1    3    3    0    0  0.26504875076E+02  0.24198935323E+02 -0.15595144655E+03  0.16002800292E+03  0.10566000000E+00 0.  1.
         13    1    4    4    0    0 -0.32119641366E+00 -0.17332593966E+00 -0.54790159988E+00  0.66676023896E+00  0.10566000000E+00 0.  1.
        -13    1    4    4    0    0 -0.12323710031E+02 -0.12082789028E+02 -0.25746005199E+02  0.30995734664E+02  0.10566000000E+00 0.  1.
         14    1    4    4    0    0 -0.13859968631E+02 -0.11942820356E+02 -0.25690008054E+02  0.31538963241E+02  0.00000000000E+00 0. -1.
<mgrwt>
<rscale>  0 0.81205158E+02</rscale>
<asrwt>0</asrwt>
<pdfrwt beam="1">  1        2 0.11764694E-02 0.81205158E+02</pdfrwt>
<pdfrwt beam="2">  1       -1 0.33166520E-01 0.81205158E+02</pdfrwt>
<totfact> 0.93672471E+04</totfact>
</mgrwt>
</event>
<event>
 8    1  0.1226832E-016  0.7939257E+02  0.7818608E-02  0.1330784E+00
          2   -1    0    0  501    0  0.00000000000E+00  0.00000000000E+00  0.12603340078E+04  0.12603340078E+04  0.25500000000E-02 0. -1.
         -1   -1    0    0    0  501 -0.00000000000E+00 -0.00000000000E+00 -0.12502944700E+01  0.12503046282E+01  0.50400000000E-02 0.  1.
         24    2    1    2    0    0 -0.88817841970E-15  0.17763568394E-14  0.12590837133E+04  0.12615843124E+04  0.79392570172E+02 0.  0.
         66    2    3    3    0    0 -0.68846232163E+01  0.15649830551E+02  0.11987820003E+04  0.11989055841E+04  0.19999970605E+01 0.  0.
        -13    1    3    3    0    0  0.68846232163E+01 -0.15649830551E+02  0.60301713026E+02  0.62678728378E+02  0.10566000000E+00 0.  1.
         13    1    4    4    0    0 -0.30247993898E+01  0.74353531850E+01  0.52989828235E+03  0.52995908775E+03  0.10566000000E+00 0. -1.
        -13    1    4    4    0    0 -0.27622136311E+00  0.77039148728E+00  0.90712143399E+02  0.90715896762E+02  0.10566000000E+00 0.  1.
        -14    1    4    4    0    0 -0.35836024634E+01  0.74440858788E+01  0.57817157458E+03  0.57823059956E+03  0.00000000000E+00 0.  1.
<mgrwt>
<rscale>  0 0.79392570E+02</rscale>
<asrwt>0</asrwt>
<pdfrwt beam="1">  1        2 0.19389738E+00 0.79392570E+02</pdfrwt>
<pdfrwt beam="2">  1       -1 0.19235393E-03 0.79392570E+02</pdfrwt>
<totfact> 0.35502563E+05</totfact>
</mgrwt>
</event>
<event>
 8    1  0.1226832E-016  0.8224158E+02  0.7818608E-02  0.1322808E+00
          2   -1    0    0  501    0  0.00000000000E+00  0.00000000000E+00  0.12835074806E+03  0.12835074809E+03  0.25500000000E-02 0. -1.
         -1   -1    0    0    0  501 -0.00000000000E+00 -0.00000000000E+00 -0.13174206114E+02  0.13174207078E+02  0.50400000000E-02 0.  1.
         24    2    1    2    0    0  0.17763568394E-14  0.35527136788E-14  0.11517654195E+03  0.14152495517E+03  0.82241577803E+02 0.  0.
         66    2    3    3    0    0 -0.13786693291E+02  0.17174600904E+02  0.11733018770E+03  0.11939603332E+03  0.19999992992E+01 0.  0.
        -13    1    3    3    0    0  0.13786693291E+02 -0.17174600904E+02 -0.21536457552E+01  0.22128921849E+02  0.10566000000E+00 0.  1.
         13    1    4    4    0    0 -0.76641617288E+01  0.10194496848E+02  0.63848623927E+02  0.65110099696E+02  0.10566000000E+00 0. -1.
        -13    1    4    4    0    0 -0.45777936551E+01  0.48708556023E+01  0.39595188714E+02  0.40155591919E+02  0.10566000000E+00 0.  1.
        -14    1    4    4    0    0 -0.15447379072E+01  0.21092484535E+01  0.13886375063E+02  0.14130341702E+02  0.00000000000E+00 0.  1.
<mgrwt>
<rscale>  0 0.82241578E+02</rscale>
<asrwt>0</asrwt>
<pdfrwt beam="1">  1        2 0.19746269E-01 0.82241578E+02</pdfrwt>
<pdfrwt beam="2">  1       -1 0.20268011E-02 0.82241578E+02</pdfrwt>
<totfact> 0.17716705E+05</totfact>
</mgrwt>
</event>
<event>
 8    1  0.1226832E-016  0.7952001E+02  0.7818608E-02  0.1330419E+00
          2   -1    0    0  501    0  0.00000000000E+00  0.00000000000E+00  0.41543857506E+02  0.41543857584E+02  0.25500000000E-02 0. -1.
         -1   -1    0    0    0  501 -0.00000000000E+00 -0.00000000000E+00 -0.38052747403E+02  0.38052747736E+02  0.50400000000E-02 0.  1.
         24    2    1    2    0    0  0.00000000000E+00  0.00000000000E+00  0.34911101031E+01  0.79596605320E+02  0.79520008355E+02 0.  0.
         66    2    3    3    0    0 -0.28220195610E+02  0.23319407682E+02 -0.13717457181E+02  0.39145150873E+02  0.19999975964E+01 0.  0.
        -13    1    3    3    0    0  0.28220195610E+02 -0.23319407682E+02  0.17208567285E+02  0.40451454448E+02  0.10566000000E+00 0.  1.
         13    1    4    4    0    0 -0.72168325960E+01  0.57168124503E+01 -0.28079446544E+01  0.96260238172E+01  0.10566000000E+00 0. -1.
        -13    1    4    4    0    0 -0.24946069099E+01  0.18847635988E+01 -0.15975081779E+01  0.35126334669E+01  0.10566000000E+00 0.  1.
        -14    1    4    4    0    0 -0.18508756104E+02  0.15717831633E+02 -0.93120043492E+01  0.26006493589E+02  0.00000000000E+00 0.  1.
<mgrwt>
<rscale>  0 0.79520008E+02</rscale>
<asrwt>0</asrwt>
<pdfrwt beam="1">  1        2 0.63913627E-02 0.79520008E+02</pdfrwt>
<pdfrwt beam="2">  1       -1 0.58542689E-02 0.79520008E+02</pdfrwt>
<totfact> 0.14607555E+05</totfact>
</mgrwt>
</event>
<event>
 8    1  0.1226832E-016  0.7991160E+02  0.7818608E-02  0.1329302E+00
          2   -1    0    0  501    0  0.00000000000E+00  0.00000000000E+00  0.25741006896E+02  0.25741007023E+02  0.25500000000E-02 0. -1.
         -1   -1    0    0    0  501 -0.00000000000E+00 -0.00000000000E+00 -0.62020336711E+02  0.62020336916E+02  0.50400000000E-02 0.  1.
         24    2    1    2    0    0  0.00000000000E+00  0.00000000000E+00 -0.36279329815E+02  0.87761343939E+02  0.79911599397E+02 0.  0.
         66    2    3    3    0    0 -0.18027224702E+02 -0.24084812529E+02  0.10684650719E+02  0.31987822832E+02  0.20000058824E+01 0.  0.
        -13    1    3    3    0    0  0.18027224702E+02  0.24084812529E+02 -0.46963980534E+02  0.55773521106E+02  0.10566000000E+00 0.  1.
         13    1    4    4    0    0 -0.11368284479E+02 -0.16085910274E+02  0.64609021052E+01  0.20730384014E+02  0.10566000000E+00 0. -1.
        -13    1    4    4    0    0 -0.15125377306E+00 -0.17479863107E+00  0.55624596629E-01  0.26017378161E+00  0.10566000000E+00 0. -1.
        -14    1    4    4    0    0 -0.65076864494E+01 -0.78241036247E+01  0.41681240171E+01  0.10997265036E+02  0.00000000000E+00 0.  1.
<mgrwt>
<rscale>  0 0.79911599E+02</rscale>
<asrwt>0</asrwt>
<pdfrwt beam="1">  1        2 0.39601549E-02 0.79911599E+02</pdfrwt>
<pdfrwt beam="2">  1       -1 0.95415903E-02 0.79911599E+02</pdfrwt>
<totfact> 0.13096244E+05</totfact>
</mgrwt>
</event>
<event>
 8    1  0.1226832E-016  0.7991278E+02  0.7818608E-02  0.1329299E+00
         -1   -1    0    0    0  501 -0.00000000000E+00  0.00000000000E+00  0.21855151228E+01  0.21855209342E+01  0.50400000000E-02 0.  1.
          2   -1    0    0  501    0  0.00000000000E+00 -0.00000000000E+00 -0.73049640574E+03  0.73049640575E+03  0.25500000000E-02 0. -1.
         24    2    1    2    0    0  0.00000000000E+00  0.17763568394E-14 -0.72831089062E+03  0.73268192668E+03  0.79912779266E+02 0.  0.
         66    2    3    3    0    0 -0.31096548125E+02  0.15342654718E+02 -0.54593714069E+03  0.54704090701E+03  0.19999981306E+01 0.  0.
        -13    1    3    3    0    0  0.31096548125E+02 -0.15342654718E+02 -0.18237374993E+03  0.18564101967E+03  0.10566000000E+00 0.  1.
         13    1    4    4    0    0 -0.19741492725E+02  0.95311122597E+01 -0.34427064317E+03  0.34496790510E+03  0.10566000000E+00 0. -1.
        -13    1    4    4    0    0 -0.82931116364E+00  0.12675501950E+00 -0.14372211327E+02  0.14397063808E+02  0.10566000000E+00 0.  1.
         14    1    4    4    0    0 -0.10525744237E+02  0.56847874384E+01 -0.18729428620E+03  0.18767593811E+03  0.00000000000E+00 0. -1.
<mgrwt>
<rscale>  0 0.79912779E+02</rscale>
<asrwt>0</asrwt>
<pdfrwt beam="1">  1        2 0.11238387E+00 0.79912779E+02</pdfrwt>
<pdfrwt beam="2">  1       -1 0.33623413E-03 0.79912779E+02</pdfrwt>
<totfact> 0.33863912E+05</totfact>
</mgrwt>
</event>
<event>
 8    1  0.1226832E-016  0.8221044E+02  0.7818608E-02  0.1322893E+00
         -1   -1    0    0    0  501 -0.00000000000E+00  0.00000000000E+00  0.63391416313E+02  0.63391416514E+02  0.50400000000E-02 0.  1.
          2   -1    0    0  501    0  0.00000000000E+00 -0.00000000000E+00 -0.26654068405E+02  0.26654068527E+02  0.25500000000E-02 0. -1.
         24    2    1    2    0    0  0.00000000000E+00  0.00000000000E+00  0.36737347908E+02  0.90045485041E+02  0.82210441216E+02 0.  0.
         66    2    3    3    0    0  0.27652692076E+02 -0.38513262499E+01 -0.14627708379E+02  0.31582810929E+02  0.20000002124E+01 0.  0.
        -13    1    3    3    0    0 -0.27652692076E+02  0.38513262499E+01  0.51365056287E+02  0.58462674112E+02  0.10566000000E+00 0.  1.
         13    1    4    4    0    0  0.60278099096E+01 -0.75059832512E+00 -0.24251063504E+01  0.65414214815E+01  0.10566000000E+00 0. -1.
        -13    1    4    4    0    0  0.15535144403E+02 -0.19088048441E+01 -0.90676380576E+01  0.18089153422E+02  0.10566000000E+00 0.  1.
         14    1    4    4    0    0  0.60897377629E+01 -0.11919230807E+01 -0.31349639707E+01  0.69522360251E+01  0.00000000000E+00 0. -1.
<mgrwt>
<rscale>  0 0.82210441E+02</rscale>
<asrwt>0</asrwt>
<pdfrwt beam="1">  1        2 0.41006260E-02 0.82210441E+02</pdfrwt>
<pdfrwt beam="2">  1       -1 0.97525255E-02 0.82210441E+02</pdfrwt>
<totfact> 0.12170139E+05</totfact>
</mgrwt>
</event>
<event>
 8    1  0.1226832E-016  0.8033306E+02  0.7818608E-02  0.1328109E+00
          2   -1    0    0  501    0  0.00000000000E+00  0.00000000000E+00  0.25015129119E+03  0.25015129120E+03  0.25500000000E-02 0. -1.
         -1   -1    0    0    0  501 -0.00000000000E+00 -0.00000000000E+00 -0.64494973033E+01  0.64494992726E+01  0.50400000000E-02 0.  1.
         24    2    1    2    0    0  0.35527136788E-14  0.00000000000E+00  0.24370179389E+03  0.25660079048E+03  0.80333064980E+02 0.  0.
         66    2    3    3    0    0 -0.19671917619E+02  0.63059713760E+01  0.23186444209E+03  0.23279147130E+03  0.19999973082E+01 0.  0.
        -13    1    3    3    0    0  0.19671917619E+02 -0.63059713760E+01  0.11837351800E+02  0.23809319173E+02  0.10566000000E+00 0.  1.
         13    1    4    4    0    0 -0.24625091143E+01  0.54563434004E+00  0.24484045578E+02  0.24613844070E+02  0.10566000000E+00 0. -1.
        -13    1    4    4    0    0 -0.47508458863E+01  0.11178895426E+01  0.60598415493E+02  0.60794731169E+02  0.10566000000E+00 0.  1.
         14    1    4    4    0    0 -0.12458562619E+02  0.46424474934E+01  0.14678198101E+03  0.14738289606E+03  0.00000000000E+00 0. -1.
<mgrwt>
<rscale>  0 0.80333065E+02</rscale>
<asrwt>0</asrwt>
<pdfrwt beam="1">  1        2 0.38484816E-01 0.80333065E+02</pdfrwt>
<pdfrwt beam="2">  1       -1 0.99223045E-03 0.80333065E+02</pdfrwt>
<totfact> 0.23614148E+05</totfact>
</mgrwt>
</event>
<event>
 8    1  0.1226832E-016  0.7920820E+02  0.7818608E-02  0.1331314E+00
          2   -1    0    0  501    0  0.00000000000E+00  0.00000000000E+00  0.41359652772E+03  0.41359652773E+03  0.25500000000E-02 0. -1.
         -1   -1    0    0    0  501 -0.00000000000E+00 -0.00000000000E+00 -0.37923044488E+01  0.37923077979E+01  0.50400000000E-02 0.  1.
         24    2    1    2    0    0  0.17763568394E-14  0.35527136788E-14  0.40980422327E+03  0.41738883552E+03  0.79208197876E+02 0.  0.
         66    2    3    3    0    0 -0.15489889644E+02 -0.19886525495E+02  0.36582335537E+03  0.36669624748E+03  0.20000008783E+01 0.  0.
        -13    1    3    3    0    0  0.15489889644E+02  0.19886525495E+02  0.43980867898E+02  0.50692588043E+02  0.10566000000E+00 0.  1.
         13    1    4    4    0    0 -0.74243698998E+01 -0.87544639841E+01  0.16693890295E+03  0.16733311206E+03  0.10566000000E+00 0. -1.
        -13    1    4    4    0    0 -0.21356676655E+01 -0.35414942470E+01  0.53205540880E+02  0.53366131603E+02  0.10566000000E+00 0.  1.
        -14    1    4    4    0    0 -0.59298520791E+01 -0.75905672642E+01  0.14567891154E+03  0.14599700382E+03  0.00000000000E+00 0.  1.
<mgrwt>
<rscale>  0 0.79208198E+02</rscale>
<asrwt>0</asrwt>
<pdfrwt beam="1">  1        2 0.63630268E-01 0.79208198E+02</pdfrwt>
<pdfrwt beam="2">  1       -1 0.58343141E-03 0.79208198E+02</pdfrwt>
<totfact> 0.29335846E+05</totfact>
</mgrwt>
</event>
<event>
 8    1  0.1226832E-016  0.7972807E+02  0.7818608E-02  0.1329825E+00
         -1   -1    0    0    0  501 -0.00000000000E+00  0.00000000000E+00  0.69372994187E+02  0.69372994370E+02  0.50400000000E-02 0.  1.
          2   -1    0    0  501    0  0.00000000000E+00 -0.00000000000E+00 -0.22907205778E+02  0.22907205920E+02  0.25500000000E-02 0. -1.
         24    2    1    2    0    0  0.17763568394E-14  0.00000000000E+00  0.46465788409E+02  0.92280200290E+02  0.79728074561E+02 0.  0.
         66    2    3    3    0    0 -0.15554090341E+02  0.34800458970E+02  0.98424351354E+01  0.39419223759E+02  0.20000003713E+01 0.  0.
        -13    1    3    3    0    0  0.15554090341E+02 -0.34800458970E+02  0.36623353274E+02  0.52860976532E+02  0.10566000000E+00 0.  1.
         13    1    4    4    0    0 -0.93673484144E+01  0.21881884787E+02  0.56921672342E+01  0.24473986802E+02  0.10566000000E+00 0. -1.
        -13    1    4    4    0    0 -0.14095193372E+01  0.37091999509E+01  0.14382424577E+01  0.42219207051E+01  0.10566000000E+00 0.  1.
         14    1    4    4    0    0 -0.47772225895E+01  0.92093742324E+01  0.27120254435E+01  0.10723316251E+02  0.00000000000E+00 0. -1.
<mgrwt>
<rscale>  0 0.79728075E+02</rscale>
<asrwt>0</asrwt>
<pdfrwt beam="1">  1        2 0.35241855E-02 0.79728075E+02</pdfrwt>
<pdfrwt beam="2">  1       -1 0.10672768E-01 0.79728075E+02</pdfrwt>
<totfact> 0.12881984E+05</totfact>
</mgrwt>
</event>
<event>
 8    1  0.1226832E-016  0.8256335E+02  0.7818608E-02  0.1321930E+00
          2   -1    0    0  501    0  0.00000000000E+00  0.00000000000E+00  0.20127848659E+02  0.20127848820E+02  0.25500000000E-02 0. -1.
         -1   -1    0    0    0  501 -0.00000000000E+00 -0.00000000000E+00 -0.84667595371E+02  0.84667595521E+02  0.50400000000E-02 0.  1.
         24    2    1    2    0    0  0.00000000000E+00  0.00000000000E+00 -0.64539746712E+02  0.10479544434E+03  0.82563346886E+02 0.  0.
         66    2    3    3    0    0  0.36256827789E+02  0.17829726522E+02 -0.21690905916E+02  0.45901547961E+02  0.19999991434E+01 0.  0.
        -13    1    3    3    0    0 -0.36256827789E+02 -0.17829726522E+02 -0.42848840797E+02  0.58893896380E+02  0.10566000000E+00 0.  1.
         13    1    4    4    0    0  0.19623848196E+02  0.92555459251E+01 -0.12196901456E+02  0.24890482469E+02  0.10566000000E+00 0. -1.
        -13    1    4    4    0    0  0.23425852167E+01  0.14088475234E+01 -0.17547513055E+01  0.32500573874E+01  0.10566000000E+00 0.  1.
         14    1    4    4    0    0  0.14290394377E+02  0.71653330734E+01 -0.77392531539E+01  0.17761008104E+02  0.00000000000E+00 0. -1.
<mgrwt>
<rscale>  0 0.82563347E+02</rscale>
<asrwt>0</asrwt>
<pdfrwt beam="1">  1        2 0.30965922E-02 0.82563347E+02</pdfrwt>
<pdfrwt beam="2">  1       -1 0.13025784E-01 0.82563347E+02</pdfrwt>
<totfact> 0.11352169E+05</totfact>
</mgrwt>
</event>
<event>
 8    1  0.1226832E-016  0.7942370E+02  0.7818608E-02  0.1330695E+00
          2   -1    0    0  501    0  0.00000000000E+00  0.00000000000E+00  0.24547510821E+03  0.24547510822E+03  0.25500000000E-02 0. -1.
         -1   -1    0    0    0  501 -0.00000000000E+00 -0.00000000000E+00 -0.64244026985E+01  0.64244046755E+01  0.50400000000E-02 0.  1.
         24    2    1    2    0    0  0.00000000000E+00  0.00000000000E+00  0.23905070551E+03  0.25189951289E+03  0.79423704226E+02 0.  0.
         66    2    3    3    0    0 -0.87400193592E+01 -0.34594666798E+02  0.64498487716E+02  0.73737601114E+02  0.19999977975E+01 0.  0.
        -13    1    3    3    0    0  0.87400193592E+01  0.34594666798E+02  0.17455221779E+03  0.17816191178E+03  0.10566000000E+00 0.  1.
         13    1    4    4    0    0 -0.34976576773E+01 -0.14299492050E+02  0.25161626532E+02  0.29151804333E+02  0.10566000000E+00 0. -1.
        -13    1    4    4    0    0 -0.57865671213E+00 -0.20898800094E+01  0.47595046025E+01  0.52312990873E+01  0.10566000000E+00 0.  1.
        -14    1    4    4    0    0 -0.46637049698E+01 -0.18205294739E+02  0.34577356582E+02  0.39354497694E+02  0.00000000000E+00 0.  1.
<mgrwt>
<rscale>  0 0.79423704E+02</rscale>
<asrwt>0</asrwt>
<pdfrwt beam="1">  1        2 0.37765399E-01 0.79423704E+02</pdfrwt>
<pdfrwt beam="2">  1       -1 0.98836986E-03 0.79423704E+02</pdfrwt>
<totfact> 0.24167828E+05</totfact>
</mgrwt>
</event>
<event>
 8    1  0.1226832E-016  0.7991429E+02  0.7818608E-02  0.1329295E+00
          2   -1    0    0  501    0  0.00000000000E+00  0.00000000000E+00  0.14615177440E+03  0.14615177443E+03  0.25500000000E-02 0. -1.
         -1   -1    0    0    0  501 -0.00000000000E+00 -0.00000000000E+00 -0.10924078220E+02  0.10924079382E+02  0.50400000000E-02 0.  1.
         24    2    1    2    0    0  0.00000000000E+00  0.44408920985E-15  0.13522769618E+03  0.15707585381E+03  0.79914291802E+02 0.  0.
         66    2    3    3    0    0  0.36375338249E+02  0.26990043792E+01  0.99599729485E+02  0.10608749207E+03  0.20000008200E+01 0.  0.
        -13    1    3    3    0    0 -0.36375338249E+02 -0.26990043792E+01  0.35627966698E+02  0.50988361735E+02  0.10566000000E+00 0.  1.
         13    1    4    4    0    0  0.10560831056E+02  0.35559098361E+00  0.29147476065E+02  0.31003937211E+02  0.10566000000E+00 0. -1.
        -13    1    4    4    0    0  0.21770677903E+02  0.15166001259E+01  0.60016215459E+02  0.63860940913E+02  0.10566000000E+00 0.  1.
        -14    1    4    4    0    0  0.40438292896E+01  0.82681326969E+00  0.10436037961E+02  0.11222613948E+02  0.00000000000E+00 0.  1.
<mgrwt>
<rscale>  0 0.79914292E+02</rscale>
<asrwt>0</asrwt>
<pdfrwt beam="1">  1        2 0.22484890E-01 0.79914292E+02</pdfrwt>
<pdfrwt beam="2">  1       -1 0.16806274E-02 0.79914292E+02</pdfrwt>
<totfact> 0.19920224E+05</totfact>
</mgrwt>
</event>
<event>
 8    1  0.1226832E-016  0.8090733E+02  0.7818608E-02  0.1326496E+00
         -1   -1    0    0    0  501 -0.00000000000E+00  0.00000000000E+00  0.10787324602E+01  0.10787442340E+01  0.50400000000E-02 0.  1.
          2   -1    0    0  501    0  0.00000000000E+00 -0.00000000000E+00 -0.15170491796E+04  0.15170491796E+04  0.25500000000E-02 0. -1.
         24    2    1    2    0    0  0.00000000000E+00  0.00000000000E+00 -0.15159704471E+04  0.15181279238E+04  0.80907332978E+02 0.  0.
         66    2    3    3    0    0 -0.15163744988E+02  0.36487740962E+01 -0.14583241294E+04  0.14584088998E+04  0.20000036196E+01 0.  0.
        -13    1    3    3    0    0  0.15163744988E+02 -0.36487740962E+01 -0.57646317704E+02  0.59719023965E+02  0.10566000000E+00 0.  1.
         13    1    4    4    0    0 -0.12515050825E+02  0.28861969213E+01 -0.11885610137E+04  0.11886304098E+04  0.10566000000E+00 0. -1.
        -13    1    4    4    0    0 -0.52587818223E+00  0.48482288915E+00 -0.81282792163E+02  0.81286007818E+02  0.10566000000E+00 0.  1.
         14    1    4    4    0    0 -0.21228159800E+01  0.27775428580E+00 -0.18848032354E+03  0.18849248223E+03  0.00000000000E+00 0. -1.
<mgrwt>
<rscale>  0 0.80907333E+02</rscale>
<asrwt>0</asrwt>
<pdfrwt beam="1">  1        2 0.23339048E+00 0.80907333E+02</pdfrwt>
<pdfrwt beam="2">  1       -1 0.16596096E-03 0.80907333E+02</pdfrwt>
<totfact> 0.32150393E+05</totfact>
</mgrwt>
</event>
<event>
 8    1  0.1226832E-016  0.8359529E+02  0.7818608E-02  0.1319147E+00
         -1   -1    0    0    0  501 -0.00000000000E+00  0.00000000000E+00  0.12550136750E+01  0.12550237950E+01  0.50400000000E-02 0.  1.
          2   -1    0    0  501    0  0.00000000000E+00 -0.00000000000E+00 -0.13920455509E+04  0.13920455509E+04  0.25500000000E-02 0. -1.
         24    2    1    2    0    0  0.17763568394E-14  0.00000000000E+00 -0.13907905372E+04  0.13933005747E+04  0.83595293034E+02 0.  0.
         66    2    3    3    0    0 -0.89301492683E+01 -0.20027769294E+02 -0.12883999129E+04  0.12885880624E+04  0.20000004246E+01 0.  0.
        -13    1    3    3    0    0  0.89301492683E+01  0.20027769294E+02 -0.10239062432E+03  0.10471251225E+03  0.10566000000E+00 0.  1.
         13    1    4    4    0    0 -0.60314455157E+01 -0.15090618008E+02 -0.93126808646E+03  0.93140988030E+03  0.10566000000E+00 0. -1.
        -13    1    4    4    0    0 -0.21456475950E+01 -0.40907157854E+01 -0.28425213748E+03  0.28428968779E+03  0.10566000000E+00 0.  1.
         14    1    4    4    0    0 -0.75305615752E+00 -0.84643550025E+00 -0.72879688960E+02  0.72888494356E+02  0.00000000000E+00 0. -1.
<mgrwt>
<rscale>  0 0.83595293E+02</rscale>
<asrwt>0</asrwt>
<pdfrwt beam="1">  1        2 0.21415962E+00 0.83595293E+02</pdfrwt>
<pdfrwt beam="2">  1       -1 0.19308092E-03 0.83595293E+02</pdfrwt>
<totfact> 0.30383131E+05</totfact>
</mgrwt>
</event>
<event>
 8    1  0.1226832E-016  0.7817742E+02  0.7818608E-02  0.1334305E+00
          2   -1    0    0  501    0  0.00000000000E+00  0.00000000000E+00  0.10665468109E+03  0.10665468112E+03  0.25500000000E-02 0. -1.
         -1   -1    0    0    0  501 -0.00000000000E+00 -0.00000000000E+00 -0.14325925729E+02  0.14325926616E+02  0.50400000000E-02 0.  1.
         24    2    1    2    0    0  0.00000000000E+00 -0.35527136788E-14  0.92328755364E+02  0.12098060774E+03  0.78177416061E+02 0.  0.
         66    2    3    3    0    0  0.14851017064E+02 -0.19497069016E+02  0.93266239721E+02  0.96453511520E+02  0.20000011867E+01 0.  0.
        -13    1    3    3    0    0 -0.14851017064E+02  0.19497069016E+02 -0.93748435680E+00  0.24527096220E+02  0.10566000000E+00 0.  1.
         13    1    4    4    0    0  0.62202462806E+01 -0.89776506969E+01  0.41423487899E+02  0.42839306596E+02  0.10566000000E+00 0.  1.
        -13    1    4    4    0    0  0.86062480946E+01 -0.10291976243E+02  0.50485690892E+02  0.52237997953E+02  0.10566000000E+00 0. -1.
        -14    1    4    4    0    0  0.24522688770E-01 -0.22744207608E+00  0.13570609300E+01  0.13762069713E+01  0.00000000000E+00 0.  1.
<mgrwt>
<rscale>  0 0.78177416E+02</rscale>
<asrwt>0</asrwt>
<pdfrwt beam="1">  1        2 0.16408413E-01 0.78177416E+02</pdfrwt>
<pdfrwt beam="2">  1       -1 0.22039886E-02 0.78177416E+02</pdfrwt>
<totfact> 0.19198419E+05</totfact>
</mgrwt>
</event>
<event>
 8    1  0.1226832E-016  0.8243031E+02  0.7818608E-02  0.1322293E+00
          2   -1    0    0  501    0  0.00000000000E+00  0.00000000000E+00  0.95364280032E+01  0.95364283441E+01  0.25500000000E-02 0. -1.
         -1   -1    0    0    0  501 -0.00000000000E+00 -0.00000000000E+00 -0.17812634443E+03  0.17812634450E+03  0.50400000000E-02 0.  1.
         24    2    1    2    0    0  0.00000000000E+00  0.71054273576E-14 -0.16858991643E+03  0.18766277284E+03  0.82430312332E+02 0.  0.
         66    2    3    3    0    0 -0.23056818402E+02 -0.34133076306E+02 -0.84303381844E+02  0.93849581614E+02  0.20000014662E+01 0.  0.
        -13    1    3    3    0    0  0.23056818402E+02  0.34133076306E+02 -0.84286534582E+02  0.93813191230E+02  0.10566000000E+00 0.  1.
         13    1    4    4    0    0 -0.54882602883E+01 -0.73250216698E+01 -0.19603216344E+02  0.21635022499E+02  0.10566000000E+00 0. -1.
        -13    1    4    4    0    0 -0.71500364015E+01 -0.11758247449E+02 -0.28631526361E+02  0.31767198010E+02  0.10566000000E+00 0.  1.
         14    1    4    4    0    0 -0.10418521712E+02 -0.15049807188E+02 -0.36068639138E+02  0.40447361105E+02  0.00000000000E+00 0. -1.
<mgrwt>
<rscale>  0 0.82430312E+02</rscale>
<asrwt>0</asrwt>
<pdfrwt beam="1">  1        2 0.14671429E-02 0.82430312E+02</pdfrwt>
<pdfrwt beam="2">  1       -1 0.27404050E-01 0.82430312E+02</pdfrwt>
<totfact> 0.95486576E+04</totfact>
</mgrwt>
</event>
<event>
 8    1  0.1226832E-016  0.7845789E+02  0.7818608E-02  0.1333486E+00
          2   -1    0    0  501    0  0.00000000000E+00  0.00000000000E+00  0.12170916919E+04  0.12170916919E+04  0.25500000000E-02 0. -1.
         -1   -1    0    0    0  501 -0.00000000000E+00 -0.00000000000E+00 -0.12644108821E+01  0.12644209269E+01  0.50400000000E-02 0.  1.
         24    2    1    2    0    0  0.17763568394E-14  0.17763568394E-14  0.12158272810E+04  0.12183561128E+04  0.78457889352E+02 0.  0.
         66    2    3    3    0    0  0.94847317914E+01  0.97421318595E+01  0.11793018190E+04  0.11793818930E+04  0.20000013398E+01 0.  0.
        -13    1    3    3    0    0 -0.94847317914E+01 -0.97421318595E+01  0.36525461988E+02  0.38974219784E+02  0.10566000000E+00 0.  1.
         13    1    4    4    0    0  0.47717951164E+01  0.55097039540E+01  0.58636438541E+03  0.58640969510E+03  0.10566000000E+00 0. -1.
        -13    1    4    4    0    0  0.45073039805E+01  0.36484295832E+01  0.53984572187E+03  0.53987687616E+03  0.10566000000E+00 0.  1.
        -14    1    4    4    0    0  0.20563269448E+00  0.58399832221E+00  0.53091711714E+02  0.53095321749E+02  0.00000000000E+00 0.  1.
<mgrwt>
<rscale>  0 0.78457889E+02</rscale>
<asrwt>0</asrwt>
<pdfrwt beam="1">  1        2 0.18724527E+00 0.78457889E+02</pdfrwt>
<pdfrwt beam="2">  1       -1 0.19452511E-03 0.78457889E+02</pdfrwt>
<totfact> 0.36791366E+05</totfact>
</mgrwt>
</event>
<event>
 8    1  0.1226832E-016  0.8012774E+02  0.7818608E-02  0.1328689E+00
          2   -1    0    0  501    0  0.00000000000E+00  0.00000000000E+00  0.51869045280E+03  0.51869045280E+03  0.25500000000E-02 0. -1.
         -1   -1    0    0    0  501 -0.00000000000E+00 -0.00000000000E+00 -0.30945480205E+01  0.30945521247E+01  0.50400000000E-02 0.  1.
         24    2    1    2    0    0  0.17763568394E-14  0.00000000000E+00  0.51559590478E+03  0.52178500493E+03  0.80127737678E+02 0.  0.
         66    2    3    3    0    0 -0.94377756751E+01  0.37991152328E+02  0.31271606267E+03  0.31516302942E+03  0.19999993880E+01 0.  0.
        -13    1    3    3    0    0  0.94377756751E+01 -0.37991152328E+02  0.20287984211E+03  0.20662197551E+03  0.10566000000E+00 0.  1.
         13    1    4    4    0    0 -0.67229798595E+01  0.25278741556E+02  0.20405213746E+03  0.20572189772E+03  0.10566000000E+00 0. -1.
        -13    1    4    4    0    0 -0.26115447270E+01  0.11441494299E+02  0.96790992400E+02  0.97499924777E+02  0.10566000000E+00 0.  1.
         14    1    4    4    0    0 -0.10325108858E+00  0.12709164730E+01  0.11872932803E+02  0.11941206924E+02  0.00000000000E+00 0. -1.
<mgrwt>
<rscale>  0 0.80127738E+02</rscale>
<asrwt>0</asrwt>
<pdfrwt beam="1">  1        2 0.79798561E-01 0.80127738E+02</pdfrwt>
<pdfrwt beam="2">  1       -1 0.47608445E-03 0.80127738E+02</pdfrwt>
<totfact> 0.30677853E+05</totfact>
</mgrwt>
</event>
<event>
 8    1  0.1226832E-016  0.7998423E+02  0.7818608E-02  0.1329096E+00
          2   -1    0    0  501    0  0.00000000000E+00  0.00000000000E+00  0.50585263874E+03  0.50585263875E+03  0.25500000000E-02 0. -1.
         -1   -1    0    0    0  501 -0.00000000000E+00 -0.00000000000E+00 -0.31617274410E+01  0.31617314580E+01  0.50400000000E-02 0.  1.
         24    2    1    2    0    0 -0.35527136788E-14  0.00000000000E+00  0.50269091130E+03  0.50901437021E+03  0.79984228270E+02 0.  0.
         66    2    3    3    0    0  0.27411697710E+02  0.11350076376E+02  0.42192481547E+03  0.42297136465E+03  0.20000002239E+01 0.  0.
        -13    1    3    3    0    0 -0.27411697710E+02 -0.11350076376E+02  0.80766095834E+02  0.86043005557E+02  0.10566000000E+00 0.  1.
         13    1    4    4    0    0  0.11324359564E+02  0.50683228076E+01  0.16882253712E+03  0.16927784621E+03  0.10566000000E+00 0. -1.
        -13    1    4    4    0    0  0.51314807334E+01  0.15109949139E+01  0.74313563537E+02  0.74505919831E+02  0.10566000000E+00 0.  1.
        -14    1    4    4    0    0  0.10955857412E+02  0.47707586549E+01  0.17878871481E+03  0.17918759860E+03  0.00000000000E+00 0.  1.
<mgrwt>
<rscale>  0 0.79984228E+02</rscale>
<asrwt>0</asrwt>
<pdfrwt beam="1">  1        2 0.77823443E-01 0.79984228E+02</pdfrwt>
<pdfrwt beam="2">  1       -1 0.48642017E-03 0.79984228E+02</pdfrwt>
<totfact> 0.30579791E+05</totfact>
</mgrwt>
</event>
<event>
 8    1  0.1226832E-016  0.7917687E+02  0.7818608E-02  0.1331404E+00
          2   -1    0    0  501    0  0.00000000000E+00  0.00000000000E+00  0.27420593994E+03  0.27420593995E+03  0.25500000000E-02 0. -1.
         -1   -1    0    0    0  501 -0.00000000000E+00 -0.00000000000E+00 -0.57155721314E+01  0.57155743535E+01  0.50400000000E-02 0.  1.
         24    2    1    2    0    0 -0.55511151231E-16  0.00000000000E+00  0.26849036781E+03  0.27992151431E+03  0.79176868876E+02 0.  0.
         66    2    3    3    0    0 -0.44722236558E+00  0.37959911054E+02  0.17371248111E+03  0.17782345445E+03  0.20000010487E+01 0.  0.
        -13    1    3    3    0    0  0.44722236558E+00 -0.37959911054E+02  0.94777886703E+02  0.10209805986E+03  0.10566000000E+00 0.  1.
         13    1    4    4    0    0  0.33021644297E+00  0.71352785036E+01  0.34048747443E+02  0.34790079170E+02  0.10566000000E+00 0. -1.
        -13    1    4    4    0    0 -0.57240838914E+00  0.18758834151E+02  0.81971996061E+02  0.84093048537E+02  0.10566000000E+00 0.  1.
        -14    1    4    4    0    0 -0.20503041941E+00  0.12065798400E+02  0.57691737603E+02  0.58940326739E+02  0.00000000000E+00 0.  1.
<mgrwt>
<rscale>  0 0.79176869E+02</rscale>
<asrwt>0</asrwt>
<pdfrwt beam="1">  1        2 0.42185532E-01 0.79176869E+02</pdfrwt>
<pdfrwt beam="2">  1       -1 0.87931891E-03 0.79176869E+02</pdfrwt>
<totfact> 0.25356391E+05</totfact>
</mgrwt>
</event>
<event>
 8    1  0.1226832E-016  0.7090171E+02  0.7818608E-02  0.1357053E+00
          2   -1    0    0  501    0  0.00000000000E+00  0.00000000000E+00  0.17193605660E+03  0.17193605662E+03  0.25500000000E-02 0. -1.
         -1   -1    0    0    0  501 -0.00000000000E+00 -0.00000000000E+00 -0.73094797218E+01  0.73094814594E+01  0.50400000000E-02 0.  1.
         24    2    1    2    0    0 -0.71054273576E-14  0.00000000000E+00  0.16462657688E+03  0.17924553808E+03  0.70901714410E+02 0.  0.
         66    2    3    3    0    0 -0.27966808712E+02  0.93247126974E+01  0.32731122645E+02  0.44095567054E+02  0.19999969409E+01 0.  0.
        -13    1    3    3    0    0  0.27966808712E+02 -0.93247126974E+01  0.13189545423E+03  0.13514997102E+03  0.10566000000E+00 0.  1.
         13    1    4    4    0    0 -0.10593012480E+02  0.31430356105E+01  0.12392783149E+02  0.16603699120E+02  0.10566000000E+00 0. -1.
        -13    1    4    4    0    0 -0.76550051172E+01  0.29583254098E+01  0.80451203912E+01  0.11492863817E+02  0.10566000000E+00 0.  1.
        -14    1    4    4    0    0 -0.97187911153E+01  0.32233516771E+01  0.12293219105E+02  0.15999004117E+02  0.00000000000E+00 0.  1.
<mgrwt>
<rscale>  0 0.70901714E+02</rscale>
<asrwt>0</asrwt>
<pdfrwt beam="1">  1        2 0.26451697E-01 0.70901714E+02</pdfrwt>
<pdfrwt beam="2">  1       -1 0.11245356E-02 0.70901714E+02</pdfrwt>
<totfact> 0.28766373E+05</totfact>
</mgrwt>
</event>
<event>
 8    1  0.1226832E-016  0.8412715E+02  0.7818608E-02  0.1317731E+00
         -1   -1    0    0    0  501 -0.00000000000E+00  0.00000000000E+00  0.14335289945E+02  0.14335290831E+02  0.50400000000E-02 0.  1.
          2   -1    0    0  501    0  0.00000000000E+00 -0.00000000000E+00 -0.12342576850E+03  0.12342576852E+03  0.25500000000E-02 0. -1.
         24    2    1    2    0    0  0.00000000000E+00  0.00000000000E+00 -0.10909047855E+03  0.13776105935E+03  0.84127147602E+02 0.  0.
         66    2    3    3    0    0 -0.96551098318E+01  0.39395607985E+02 -0.72670853165E+02  0.83248351186E+02  0.20000002708E+01 0.  0.
        -13    1    3    3    0    0  0.96551098318E+01 -0.39395607985E+02 -0.36419625385E+02  0.54512708166E+02  0.10566000000E+00 0.  1.
         13    1    4    4    0    0 -0.44427243039E+01  0.18168848369E+02 -0.33373355972E+02  0.38257507801E+02  0.10566000000E+00 0. -1.
        -13    1    4    4    0    0 -0.39149092821E+01  0.15865108055E+02 -0.28036276191E+02  0.32451072633E+02  0.10566000000E+00 0.  1.
         14    1    4    4    0    0 -0.12974762459E+01  0.53616515607E+01 -0.11261221002E+02  0.12539770752E+02  0.00000000000E+00 0. -1.
<mgrwt>
<rscale>  0 0.84127148E+02</rscale>
<asrwt>0</asrwt>
<pdfrwt beam="1">  1        2 0.18988579E-01 0.84127148E+02</pdfrwt>
<pdfrwt beam="2">  1       -1 0.22054294E-02 0.84127148E+02</pdfrwt>
<totfact> 0.16474761E+05</totfact>
</mgrwt>
</event>
<event>
 8    1  0.1226832E-016  0.8122993E+02  0.7818608E-02  0.1325597E+00
         -1   -1    0    0    0  501 -0.00000000000E+00  0.00000000000E+00  0.45861153512E+02  0.45861153789E+02  0.50400000000E-02 0.  1.
          2   -1    0    0  501    0  0.00000000000E+00 -0.00000000000E+00 -0.35968898809E+02  0.35968898900E+02  0.25500000000E-02 0. -1.
         24    2    1    2    0    0  0.00000000000E+00 -0.35527136788E-14  0.98922547028E+01  0.81830052689E+02  0.81229925643E+02 0.  0.
         66    2    3    3    0    0  0.24582081668E+02 -0.30906179138E+02 -0.45063644808E+01  0.39796708229E+02  0.20000042493E+01 0.  0.
        -13    1    3    3    0    0 -0.24582081668E+02  0.30906179138E+02  0.14398619184E+02  0.42033344460E+02  0.10566000000E+00 0.  1.
         13    1    4    4    0    0  0.60222785768E+01 -0.67898487930E+01 -0.75004031043E+00  0.91073382715E+01  0.10566000000E+00 0. -1.
        -13    1    4    4    0    0  0.13001620841E+02 -0.16920386162E+02 -0.20407283685E+01  0.21436355770E+02  0.10566000000E+00 0. -1.
        -14    1    4    4    0    0  0.55581822496E+01 -0.71959441833E+01 -0.17155958019E+01  0.92530141880E+01  0.00000000000E+00 0.  1.
<mgrwt>
<rscale>  0 0.81229926E+02</rscale>
<asrwt>0</asrwt>
<pdfrwt beam="1">  1        2 0.55336768E-02 0.81229926E+02</pdfrwt>
<pdfrwt beam="2">  1       -1 0.70555621E-02 0.81229926E+02</pdfrwt>
<totfact> 0.13370808E+05</totfact>
</mgrwt>
</event>
<event>
 8    1  0.1226832E-016  0.7944892E+02  0.7818608E-02  0.1330623E+00
          2   -1    0    0  501    0  0.00000000000E+00  0.00000000000E+00  0.47151417791E+03  0.47151417792E+03  0.25500000000E-02 0. -1.
         -1   -1    0    0    0  501 -0.00000000000E+00 -0.00000000000E+00 -0.33467320944E+01  0.33467358893E+01  0.50400000000E-02 0.  1.
         24    2    1    2    0    0  0.35527136788E-14 -0.35527136788E-14  0.46816744582E+03  0.47486091381E+03  0.79448915281E+02 0.  0.
         66    2    3    3    0    0 -0.22175810598E+02  0.28140488325E+02  0.33643091251E+03  0.33833919747E+03  0.19999990821E+01 0.  0.
        -13    1    3    3    0    0  0.22175810598E+02 -0.28140488325E+02  0.13173653331E+03  0.13652171633E+03  0.10566000000E+00 0.  1.
         13    1    4    4    0    0 -0.26001750738E+01  0.27694148096E+01  0.38905836172E+02  0.39090994117E+02  0.10566000000E+00 0. -1.
        -13    1    4    4    0    0 -0.18871841162E+02  0.24053562915E+02  0.28392923107E+03  0.28557055118E+03  0.10566000000E+00 0.  1.
        -14    1    4    4    0    0 -0.70379436232E+00  0.13175106001E+01  0.13595845263E+02  0.13677652178E+02  0.00000000000E+00 0.  1.
<mgrwt>
<rscale>  0 0.79448915E+02</rscale>
<asrwt>0</asrwt>
<pdfrwt beam="1">  1        2 0.72540693E-01 0.79448915E+02</pdfrwt>
<pdfrwt beam="2">  1       -1 0.51488180E-03 0.79448915E+02</pdfrwt>
<totfact> 0.30421754E+05</totfact>
</mgrwt>
</event>
<event>
 8    1  0.1226832E-016  0.8024877E+02  0.7818608E-02  0.1328347E+00
         -1   -1    0    0    0  501 -0.00000000000E+00  0.00000000000E+00  0.22313231555E+02  0.22313232124E+02  0.50400000000E-02 0.  1.
          2   -1    0    0  501    0  0.00000000000E+00 -0.00000000000E+00 -0.72152976534E+02  0.72152976579E+02  0.25500000000E-02 0. -1.
         24    2    1    2    0    0  0.35527136788E-14  0.00000000000E+00 -0.49839744979E+02  0.94466208704E+02  0.80248765768E+02 0.  0.
         66    2    3    3    0    0 -0.22575319283E+02 -0.32273131453E+02 -0.33804079445E+02  0.51941465464E+02  0.19999982282E+01 0.  0.
        -13    1    3    3    0    0  0.22575319283E+02  0.32273131453E+02 -0.16035665534E+02  0.42524743240E+02  0.10566000000E+00 0.  1.
         13    1    4    4    0    0 -0.11711826664E+02 -0.17665467231E+02 -0.17315457056E+02  0.27369176703E+02  0.10566000000E+00 0. -1.
        -13    1    4    4    0    0 -0.20659662757E+01 -0.25913604798E+01 -0.26881610241E+01  0.42685758182E+01  0.10566000000E+00 0.  1.
        -14    1    4    4    0    0 -0.87975263426E+01 -0.12016303742E+02 -0.13800461365E+02  0.20303712943E+02  0.00000000000E+00 0.  1.
<mgrwt>
<rscale>  0 0.80248766E+02</rscale>
<asrwt>0</asrwt>
<pdfrwt beam="1">  1        2 0.11100458E-01 0.80248766E+02</pdfrwt>
<pdfrwt beam="2">  1       -1 0.34328049E-02 0.80248766E+02</pdfrwt>
<totfact> 0.16131046E+05</totfact>
</mgrwt>
</event>
<event>
 8    1  0.1226832E-016  0.7936918E+02  0.7818608E-02  0.1330851E+00
         -1   -1    0    0    0  501 -0.00000000000E+00  0.00000000000E+00  0.54730593584E+02  0.54730593816E+02  0.50400000000E-02 0.  1.
          2   -1    0    0  501    0  0.00000000000E+00 -0.00000000000E+00 -0.28774888380E+02  0.28774888493E+02  0.25500000000E-02 0. -1.
         24    2    1    2    0    0 -0.13877787808E-15 -0.35527136788E-14  0.25955705204E+02  0.83505482309E+02  0.79369181318E+02 0.  0.
         66    2    3    3    0    0  0.16525208361E+00 -0.27233681411E+02 -0.17346253805E+02  0.32351093157E+02  0.19999989935E+01 0.  0.
        -13    1    3    3    0    0 -0.16525208361E+00  0.27233681411E+02  0.43301959009E+02  0.51154389152E+02  0.10566000000E+00 0.  1.
         13    1    4    4    0    0 -0.10868238996E+00 -0.10282825712E+02 -0.60538941301E+01  0.11933529011E+02  0.10566000000E+00 0. -1.
        -13    1    4    4    0    0 -0.36333947444E+00 -0.74368185086E+01 -0.43649299320E+01  0.86314577245E+01  0.10566000000E+00 0.  1.
        -14    1    4    4    0    0  0.63727394802E+00 -0.95140371901E+01 -0.69274297429E+01  0.11786106422E+02  0.00000000000E+00 0.  1.
<mgrwt>
<rscale>  0 0.79369181E+02</rscale>
<asrwt>0</asrwt>
<pdfrwt beam="1">  1        2 0.44269060E-02 0.79369181E+02</pdfrwt>
<pdfrwt beam="2">  1       -1 0.84200913E-02 0.79369181E+02</pdfrwt>
<totfact> 0.13644945E+05</totfact>
</mgrwt>
</event>
<event>
 8    1  0.1226832E-016  0.8046435E+02  0.7818608E-02  0.1327739E+00
         -1   -1    0    0    0  501 -0.00000000000E+00  0.00000000000E+00  0.20131932624E+01  0.20131995712E+01  0.50400000000E-02 0.  1.
          2   -1    0    0  501    0  0.00000000000E+00 -0.00000000000E+00 -0.80400897684E+03  0.80400897685E+03  0.25500000000E-02 0. -1.
         24    2    1    2    0    0  0.00000000000E+00  0.00000000000E+00 -0.80199578358E+03  0.80602217642E+03  0.80464352336E+02 0.  0.
         66    2    3    3    0    0 -0.12662521809E+02 -0.90256685434E+01 -0.77266600447E+03  0.77282504916E+03  0.20000002611E+01 0.  0.
        -13    1    3    3    0    0  0.12662521809E+02  0.90256685434E+01 -0.29329779113E+02  0.33197127256E+02  0.10566000000E+00 0.  1.
         13    1    4    4    0    0 -0.48087311673E+01 -0.32805717571E+01 -0.30284994641E+03  0.30290590495E+03  0.10566000000E+00 0. -1.
        -13    1    4    4    0    0 -0.48058870480E+01 -0.43028204346E+01 -0.32212885520E+03  0.32219345327E+03  0.10566000000E+00 0.  1.
         14    1    4    4    0    0 -0.30479035935E+01 -0.14422763517E+01 -0.14768720286E+03  0.14772569095E+03  0.00000000000E+00 0. -1.
<mgrwt>
<rscale>  0 0.80464352E+02</rscale>
<asrwt>0</asrwt>
<pdfrwt beam="1">  1        2 0.12369343E+00 0.80464352E+02</pdfrwt>
<pdfrwt beam="2">  1       -1 0.30972317E-03 0.80464352E+02</pdfrwt>
<totfact> 0.33881695E+05</totfact>
</mgrwt>
</event>
<event>
 8    1  0.1226832E-016  0.8135796E+02  0.7818608E-02  0.1325241E+00
          2   -1    0    0  501    0  0.00000000000E+00  0.00000000000E+00  0.42604698689E+02  0.42604698765E+02  0.25500000000E-02 0. -1.
         -1   -1    0    0    0  501 -0.00000000000E+00 -0.00000000000E+00 -0.38840301773E+02  0.38840302100E+02  0.50400000000E-02 0.  1.
         24    2    1    2    0    0  0.00000000000E+00  0.00000000000E+00  0.37643969162E+01  0.81445000865E+02  0.81357958933E+02 0.  0.
         66    2    3    3    0    0 -0.23582089765E+02  0.95126262901E+01  0.33637442015E+02  0.42214719141E+02  0.19999975488E+01 0.  0.
        -13    1    3    3    0    0  0.23582089765E+02 -0.95126262901E+01 -0.29873045099E+02  0.39230281724E+02  0.10566000000E+00 0.  1.
         13    1    4    4    0    0 -0.12236392472E+02  0.59246683858E+01  0.18342634659E+02  0.22831872601E+02  0.10566000000E+00 0. -1.
        -13    1    4    4    0    0 -0.39656474635E+01  0.13080850519E+01  0.50989056387E+01  0.65914678984E+01  0.10566000000E+00 0.  1.
         14    1    4    4    0    0 -0.73800498298E+01  0.22798728524E+01  0.10195901718E+02  0.12791378642E+02  0.00000000000E+00 0. -1.
<mgrwt>
<rscale>  0 0.81357959E+02</rscale>
<asrwt>0</asrwt>
<pdfrwt beam="1">  1        2 0.65545691E-02 0.81357959E+02</pdfrwt>
<pdfrwt beam="2">  1       -1 0.59754311E-02 0.81357959E+02</pdfrwt>
<totfact> 0.13786841E+05</totfact>
</mgrwt>
</event>
<event>
 8    1  0.1226832E-016  0.8014285E+02  0.7818608E-02  0.1328647E+00
         -1   -1    0    0    0  501 -0.00000000000E+00  0.00000000000E+00  0.18782632747E+03  0.18782632754E+03  0.50400000000E-02 0.  1.
          2   -1    0    0  501    0  0.00000000000E+00 -0.00000000000E+00 -0.85489558593E+01  0.85489562396E+01  0.25500000000E-02 0. -1.
         24    2    1    2    0    0  0.00000000000E+00  0.00000000000E+00  0.17927737161E+03  0.19637528378E+03  0.80142848133E+02 0.  0.
         66    2    3    3    0    0  0.38440948821E+02  0.50429547968E+01  0.65120714223E+02  0.75814545851E+02  0.20000005814E+01 0.  0.
        -13    1    3    3    0    0 -0.38440948821E+02 -0.50429547968E+01  0.11415665739E+03  0.12056073793E+03  0.10566000000E+00 0.  1.
         13    1    4    4    0    0  0.62130377025E+01  0.63295930827E+00  0.10042018729E+02  0.11826063554E+02  0.10566000000E+00 0. -1.
        -13    1    4    4    0    0  0.21516645724E+02  0.25828386044E+01  0.38035407189E+02  0.43776026116E+02  0.10566000000E+00 0.  1.
        -14    1    4    4    0    0  0.10711265395E+02  0.18271568842E+01  0.17043288304E+02  0.20212456181E+02  0.00000000000E+00 0.  1.
<mgrwt>
<rscale>  0 0.80142848E+02</rscale>
<asrwt>0</asrwt>
<pdfrwt beam="1">  1        2 0.13152242E-02 0.80142848E+02</pdfrwt>
<pdfrwt beam="2">  1       -1 0.28896354E-01 0.80142848E+02</pdfrwt>
<totfact> 0.10101753E+05</totfact>
</mgrwt>
</event>
<event>
 8    1  0.1226832E-016  0.7851026E+02  0.7818608E-02  0.1333333E+00
          2   -1    0    0  501    0  0.00000000000E+00  0.00000000000E+00  0.31637470963E+03  0.31637470964E+03  0.25500000000E-02 0. -1.
         -1   -1    0    0    0  501 -0.00000000000E+00 -0.00000000000E+00 -0.48706948213E+01  0.48706974288E+01  0.50400000000E-02 0.  1.
         24    2    1    2    0    0 -0.71054273576E-14  0.71054273576E-14  0.31150401481E+03  0.32124540707E+03  0.78510256152E+02 0.  0.
         66    2    3    3    0    0  0.31110265111E+02 -0.23468928385E+02  0.17429795553E+03  0.17861247587E+03  0.20000101494E+01 0.  0.
        -13    1    3    3    0    0 -0.31110265111E+02  0.23468928385E+02  0.13720605928E+03  0.14263293119E+03  0.10566000000E+00 0.  1.
         13    1    4    4    0    0  0.12254676263E+02 -0.87724246956E+01  0.65660062621E+02  0.67367555342E+02  0.10566000000E+00 0. -1.
        -13    1    4    4    0    0  0.42318208876E+01 -0.39610793074E+01  0.25464971810E+02  0.26116554341E+02  0.10566000000E+00 0.  1.
        -14    1    4    4    0    0  0.14623767961E+02 -0.10735424382E+02  0.83172921100E+02  0.85128366191E+02  0.00000000000E+00 0.  1.
<mgrwt>
<rscale>  0 0.78510256E+02</rscale>
<asrwt>0</asrwt>
<pdfrwt beam="1">  1        2 0.48673031E-01 0.78510256E+02</pdfrwt>
<pdfrwt beam="2">  1       -1 0.74933789E-03 0.78510256E+02</pdfrwt>
<totfact> 0.27299846E+05</totfact>
</mgrwt>
</event>
<event>
 8    1  0.1226832E-016  0.7588970E+02  0.7818608E-02  0.1341138E+00
         -1   -1    0    0    0  501 -0.00000000000E+00  0.00000000000E+00  0.31979156656E+02  0.31979157053E+02  0.50400000000E-02 0.  1.
          2   -1    0    0  501    0  0.00000000000E+00 -0.00000000000E+00 -0.45023445303E+02  0.45023445376E+02  0.25500000000E-02 0. -1.
         24    2    1    2    0    0  0.00000000000E+00  0.00000000000E+00 -0.13044288647E+02  0.77002602429E+02  0.75889704931E+02 0.  0.
         66    2    3    3    0    0 -0.56716818669E+01  0.23670994325E+02 -0.36027467388E+02  0.43525421893E+02  0.19999992646E+01 0.  0.
        -13    1    3    3    0    0  0.56716818669E+01 -0.23670994325E+02  0.22983178741E+02  0.33477180535E+02  0.10566000000E+00 0.  1.
         13    1    4    4    0    0 -0.72927435275E+00  0.18723177448E+01 -0.26466225191E+01  0.33246337563E+01  0.10566000000E+00 0. -1.
        -13    1    4    4    0    0 -0.22396801106E+01  0.76185736191E+01 -0.10960580885E+02  0.13535299345E+02  0.10566000000E+00 0.  1.
         14    1    4    4    0    0 -0.27027274035E+01  0.14180102961E+02 -0.22420263984E+02  0.26665488792E+02  0.00000000000E+00 0. -1.
<mgrwt>
<rscale>  0 0.75889705E+02</rscale>
<asrwt>0</asrwt>
<pdfrwt beam="1">  1        2 0.69266839E-02 0.75889705E+02</pdfrwt>
<pdfrwt beam="2">  1       -1 0.49198703E-02 0.75889705E+02</pdfrwt>
<totfact> 0.16882651E+05</totfact>
</mgrwt>
</event>
<event>
 8    1  0.1226832E-016  0.7840461E+02  0.7818608E-02  0.1333641E+00
         -1   -1    0    0    0  501 -0.00000000000E+00  0.00000000000E+00  0.46641662631E+02  0.46641662904E+02  0.50400000000E-02 0.  1.
          2   -1    0    0  501    0  0.00000000000E+00 -0.00000000000E+00 -0.32949524981E+02  0.32949525080E+02  0.25500000000E-02 0. -1.
         24    2    1    2    0    0  0.00000000000E+00  0.35527136788E-14  0.13692137650E+02  0.79591187984E+02  0.78404608099E+02 0.  0.
         66    2    3    3    0    0  0.25727380411E+02  0.29339963523E+02  0.10379346214E+02  0.40428484891E+02  0.20000001066E+01 0.  0.
        -13    1    3    3    0    0 -0.25727380411E+02 -0.29339963523E+02  0.33127914360E+01  0.39162703092E+02  0.10566000000E+00 0.  1.
         13    1    4    4    0    0  0.14186315519E+02  0.16133149959E+02  0.50541589151E+01  0.22070019528E+02  0.10566000000E+00 0. -1.
        -13    1    4    4    0    0  0.70386579469E+01  0.77275351799E+01  0.36436704695E+01  0.11070004705E+02  0.10566000000E+00 0.  1.
        -14    1    4    4    0    0  0.45024069451E+01  0.54792783846E+01  0.16815168294E+01  0.72884606579E+01  0.00000000000E+00 0.  1.
<mgrwt>
<rscale>  0 0.78404608E+02</rscale>
<asrwt>0</asrwt>
<pdfrwt beam="1">  1        2 0.50691577E-02 0.78404608E+02</pdfrwt>
<pdfrwt beam="2">  1       -1 0.71756405E-02 0.78404608E+02</pdfrwt>
<totfact> 0.14498594E+05</totfact>
</mgrwt>
</event>
<event>
 8    1  0.1226832E-016  0.7858119E+02  0.7818608E-02  0.1333127E+00
         -1   -1    0    0    0  501 -0.00000000000E+00  0.00000000000E+00  0.87821443530E+02  0.87821443675E+02  0.50400000000E-02 0.  1.
          2   -1    0    0  501    0  0.00000000000E+00 -0.00000000000E+00 -0.17578290574E+02  0.17578290759E+02  0.25500000000E-02 0. -1.
         24    2    1    2    0    0 -0.14210854715E-13  0.00000000000E+00  0.70243152956E+02  0.10539973443E+03  0.78581190379E+02 0.  0.
         66    2    3    3    0    0  0.34473925701E+02  0.14820976866E+02  0.50649479414E+02  0.63067286886E+02  0.20000004408E+01 0.  0.
        -13    1    3    3    0    0 -0.34473925701E+02 -0.14820976866E+02  0.19593673543E+02  0.42332447548E+02  0.10566000000E+00 0.  1.
         13    1    4    4    0    0  0.20480980270E+02  0.92561819042E+01  0.29659234030E+02  0.37213287728E+02  0.10566000000E+00 0. -1.
        -13    1    4    4    0    0  0.73808167755E+00  0.38084907447E+00  0.15363263452E+01  0.17496494663E+01  0.10566000000E+00 0.  1.
        -14    1    4    4    0    0  0.13254863753E+02  0.51839458871E+01  0.19453919038E+02  0.24104349691E+02  0.00000000000E+00 0.  1.
<mgrwt>
<rscale>  0 0.78581190E+02</rscale>
<asrwt>0</asrwt>
<pdfrwt beam="1">  1        2 0.27043524E-02 0.78581190E+02</pdfrwt>
<pdfrwt beam="2">  1       -1 0.13510991E-01 0.78581190E+02</pdfrwt>
<totfact> 0.12733670E+05</totfact>
</mgrwt>
</event>
<event>
 8    1  0.1226832E-016  0.7840134E+02  0.7818608E-02  0.1333650E+00
         -1   -1    0    0    0  501 -0.00000000000E+00  0.00000000000E+00  0.72890652378E+01  0.72890669802E+01  0.50400000000E-02 0.  1.
          2   -1    0    0  501    0  0.00000000000E+00 -0.00000000000E+00 -0.21082157092E+03  0.21082157094E+03  0.25500000000E-02 0. -1.
         24    2    1    2    0    0  0.35527136788E-14  0.00000000000E+00 -0.20353250568E+03  0.21811063792E+03  0.78401336103E+02 0.  0.
         66    2    3    3    0    0 -0.27515107015E+02  0.27544049602E+02 -0.11393681669E+03  0.12042156774E+03  0.19999990094E+01 0.  0.
        -13    1    3    3    0    0  0.27515107015E+02 -0.27544049602E+02 -0.89595688991E+02  0.97689070178E+02  0.10566000000E+00 0.  1.
         13    1    4    4    0    0 -0.57516960537E+01  0.62996544331E+01 -0.23691895941E+02  0.25181039510E+02  0.10566000000E+00 0. -1.
        -13    1    4    4    0    0 -0.20946259660E+01  0.15869029984E+01 -0.81421458293E+01  0.85563673253E+01  0.10566000000E+00 0.  1.
        -14    1    4    4    0    0 -0.19668784995E+02  0.19657492171E+02 -0.82102774922E+02  0.86684160903E+02  0.00000000000E+00 0.  1.
<mgrwt>
<rscale>  0 0.78401336E+02</rscale>
<asrwt>0</asrwt>
<pdfrwt beam="1">  1        2 0.32434083E-01 0.78401336E+02</pdfrwt>
<pdfrwt beam="2">  1       -1 0.11213950E-02 0.78401336E+02</pdfrwt>
<totfact> 0.23694611E+05</totfact>
</mgrwt>
</event>
<event>
 8    1  0.1226832E-016  0.7999019E+02  0.7818608E-02  0.1329079E+00
         -1   -1    0    0    0  501 -0.00000000000E+00  0.00000000000E+00  0.16048347438E+02  0.16048348230E+02  0.50400000000E-02 0.  1.
          2   -1    0    0  501    0  0.00000000000E+00 -0.00000000000E+00 -0.99674281084E+02  0.99674281116E+02  0.25500000000E-02 0. -1.
         24    2    1    2    0    0  0.00000000000E+00 -0.35527136788E-14 -0.83625933645E+02  0.11572262935E+03  0.79990187928E+02 0.  0.
         66    2    3    3    0    0  0.37231747900E+01 -0.29284592822E+02 -0.80823867909E+02  0.86069431480E+02  0.20000010384E+01 0.  0.
        -13    1    3    3    0    0 -0.37231747900E+01  0.29284592822E+02 -0.28020657359E+01  0.29653197866E+02  0.10566000000E+00 0.  1.
         13    1    4    4    0    0  0.10004331152E+01 -0.68798860738E+01 -0.19357608462E+02  0.20568467814E+02  0.10566000000E+00 0. -1.
        -13    1    4    4    0    0  0.15393744427E+01 -0.64209325325E+01 -0.18358055990E+02  0.19509675344E+02  0.10566000000E+00 0.  1.
        -14    1    4    4    0    0  0.11833672321E+01 -0.15983774216E+02 -0.43108203457E+02  0.45991288322E+02  0.00000000000E+00 0.  1.
<mgrwt>
<rscale>  0 0.79990188E+02</rscale>
<asrwt>0</asrwt>
<pdfrwt beam="1">  1        2 0.15334504E-01 0.79990188E+02</pdfrwt>
<pdfrwt beam="2">  1       -1 0.24689767E-02 0.79990188E+02</pdfrwt>
<totfact> 0.17715502E+05</totfact>
</mgrwt>
</event>
<event>
 8    1  0.1226832E-016  0.8084127E+02  0.7818608E-02  0.1326681E+00
          2   -1    0    0  501    0  0.00000000000E+00  0.00000000000E+00  0.73768288373E+02  0.73768288418E+02  0.25500000000E-02 0. -1.
         -1   -1    0    0    0  501 -0.00000000000E+00 -0.00000000000E+00 -0.22148101090E+02  0.22148101664E+02  0.50400000000E-02 0.  1.
         24    2    1    2    0    0  0.00000000000E+00  0.00000000000E+00  0.51620187283E+02  0.95916390081E+02  0.80841265151E+02 0.  0.
         66    2    3    3    0    0  0.28612544713E+02 -0.71220792632E+01 -0.69351495015E+01  0.30356186009E+02  0.20000006038E+01 0.  0.
        -13    1    3    3    0    0 -0.28612544713E+02  0.71220792632E+01  0.58555336784E+02  0.65560204072E+02  0.10566000000E+00 0.  1.
         13    1    4    4    0    0  0.18473947305E+02 -0.37538378973E+01 -0.41391133595E+01  0.19300814786E+02  0.10566000000E+00 0. -1.
        -13    1    4    4    0    0  0.31113763870E+01 -0.11891758193E+01 -0.69972399504E+00  0.34052283118E+01  0.10566000000E+00 0.  1.
         14    1    4    4    0    0  0.70272210218E+01 -0.21790655465E+01 -0.20963121470E+01  0.76501429113E+01  0.00000000000E+00 0. -1.
<mgrwt>
<rscale>  0 0.80841265E+02</rscale>
<asrwt>0</asrwt>
<pdfrwt beam="1">  1        2 0.11348967E-01 0.80841265E+02</pdfrwt>
<pdfrwt beam="2">  1       -1 0.34074003E-02 0.80841265E+02</pdfrwt>
<totfact> 0.15900427E+05</totfact>
</mgrwt>
</event>
<event>
 8    1  0.1226832E-016  0.8020954E+02  0.7818608E-02  0.1328458E+00
          2   -1    0    0  501    0  0.00000000000E+00  0.00000000000E+00  0.32130400217E+03  0.32130400218E+03  0.25500000000E-02 0. -1.
         -1   -1    0    0    0  501 -0.00000000000E+00 -0.00000000000E+00 -0.50058269297E+01  0.50058294669E+01  0.50400000000E-02 0.  1.
         24    2    1    2    0    0  0.35527136788E-14  0.00000000000E+00  0.31629817524E+03  0.32630983165E+03  0.80209541634E+02 0.  0.
         66    2    3    3    0    0  0.97723495748E+01 -0.13349951881E+02  0.30676033925E+03  0.30721267189E+03  0.20000001130E+01 0.  0.
        -13    1    3    3    0    0 -0.97723495748E+01  0.13349951881E+02  0.95378359903E+01  0.19097159759E+02  0.10566000000E+00 0.  1.
         13    1    4    4    0    0  0.30764092531E+01 -0.48464289913E+01  0.99831076908E+02  0.99996036164E+02  0.10566000000E+00 0. -1.
        -13    1    4    4    0    0  0.91598589696E+00 -0.19835883500E+01  0.38273827084E+02  0.38336283813E+02  0.10566000000E+00 0.  1.
        -14    1    4    4    0    0  0.57799544247E+01 -0.65199345399E+01  0.16865543526E+03  0.16888035191E+03  0.00000000000E+00 0.  1.
<mgrwt>
<rscale>  0 0.80209542E+02</rscale>
<asrwt>0</asrwt>
<pdfrwt beam="1">  1        2 0.49431400E-01 0.80209542E+02</pdfrwt>
<pdfrwt beam="2">  1       -1 0.77012719E-03 0.80209542E+02</pdfrwt>
<totfact> 0.25956067E+05</totfact>
</mgrwt>
</event>
<event>
 8    1  0.1226832E-016  0.8030776E+02  0.7818608E-02  0.1328180E+00
          2   -1    0    0  501    0  0.00000000000E+00  0.00000000000E+00  0.90323155230E+03  0.90323155231E+03  0.25500000000E-02 0. -1.
         -1   -1    0    0    0  501 -0.00000000000E+00 -0.00000000000E+00 -0.17850694366E+01  0.17850765516E+01  0.50400000000E-02 0.  1.
         24    2    1    2    0    0 -0.88817841970E-15  0.00000000000E+00  0.90144648287E+03  0.90501662886E+03  0.80307764492E+02 0.  0.
         66    2    3    3    0    0  0.71185718801E+01  0.29572168769E+02  0.74597981216E+03  0.74660234890E+03  0.19999989418E+01 0.  0.
        -13    1    3    3    0    0 -0.71185718801E+01 -0.29572168769E+02  0.15546667071E+03  0.15841427996E+03  0.10566000000E+00 0.  1.
         13    1    4    4    0    0  0.12390350418E+01  0.65447813269E+01  0.16628361341E+03  0.16641700822E+03  0.10566000000E+00 0. -1.
        -13    1    4    4    0    0  0.40454532950E+00  0.98967197118E+00  0.20240275771E+02  0.20268769939E+02  0.10566000000E+00 0.  1.
         14    1    4    4    0    0  0.54749915088E+01  0.22037715471E+02  0.55945592298E+03  0.55991657074E+03  0.00000000000E+00 0. -1.
<mgrwt>
<rscale>  0 0.80307764E+02</rscale>
<asrwt>0</asrwt>
<pdfrwt beam="1">  1        2 0.13895851E+00 0.80307764E+02</pdfrwt>
<pdfrwt beam="2">  1       -1 0.27462698E-03 0.80307764E+02</pdfrwt>
<totfact> 0.34613316E+05</totfact>
</mgrwt>
</event>
<event>
 8    1  0.1226832E-016  0.7920684E+02  0.7818608E-02  0.1331317E+00
          2   -1    0    0  501    0  0.00000000000E+00  0.00000000000E+00  0.15423168463E+03  0.15423168465E+03  0.25500000000E-02 0. -1.
         -1   -1    0    0    0  501 -0.00000000000E+00 -0.00000000000E+00 -0.10169316557E+02  0.10169317805E+02  0.50400000000E-02 0.  1.
         24    2    1    2    0    0  0.00000000000E+00  0.00000000000E+00  0.14406236807E+03  0.16440100245E+03  0.79206841331E+02 0.  0.
         66    2    3    3    0    0  0.19913211131E+02 -0.32110569529E+02  0.96530343607E+02  0.10368091380E+03  0.19999988950E+01 0.  0.
        -13    1    3    3    0    0 -0.19913211131E+02  0.32110569529E+02  0.47532024463E+02  0.60720088658E+02  0.10566000000E+00 0.  1.
         13    1    4    4    0    0  0.39692292112E+01 -0.58196277736E+01  0.16938654196E+02  0.18345354124E+02  0.10566000000E+00 0. -1.
        -13    1    4    4    0    0  0.50488001866E+01 -0.86228099438E+01  0.27610207088E+02  0.29362866586E+02  0.10566000000E+00 0.  1.
         14    1    4    4    0    0  0.10895181733E+02 -0.17668131811E+02  0.51981482323E+02  0.55972693085E+02  0.00000000000E+00 0. -1.
<mgrwt>
<rscale>  0 0.79206841E+02</rscale>
<asrwt>0</asrwt>
<pdfrwt beam="1">  1        2 0.23727953E-01 0.79206841E+02</pdfrwt>
<pdfrwt beam="2">  1       -1 0.15645103E-02 0.79206841E+02</pdfrwt>
<totfact> 0.20751990E+05</totfact>
</mgrwt>
</event>
<event>
 8    1  0.1226832E-016  0.8009126E+02  0.7818608E-02  0.1328793E+00
          2   -1    0    0  501    0  0.00000000000E+00  0.00000000000E+00  0.28214483215E+03  0.28214483216E+03  0.25500000000E-02 0. -1.
         -1   -1    0    0    0  501 -0.00000000000E+00 -0.00000000000E+00 -0.56837899820E+01  0.56837922166E+01  0.50400000000E-02 0.  1.
         24    2    1    2    0    0 -0.17763568394E-14 -0.17763568394E-14  0.27646104216E+03  0.28782862437E+03  0.80091255295E+02 0.  0.
         66    2    3    3    0    0 -0.13217267854E+02 -0.11731859257E+02  0.26735766164E+03  0.26794859942E+03  0.20000009752E+01 0.  0.
        -13    1    3    3    0    0  0.13217267854E+02  0.11731859257E+02  0.91033805279E+01  0.19880024955E+02  0.10566000000E+00 0.  1.
         13    1    4    4    0    0 -0.70768007951E+01 -0.72975994770E+01  0.15228375232E+03  0.15262269967E+03  0.10566000000E+00 0.  1.
        -13    1    4    4    0    0 -0.15781081156E+00 -0.15875400476E+00  0.25534818703E+01  0.25654513801E+01  0.10566000000E+00 0. -1.
         14    1    4    4    0    0 -0.59826562475E+01 -0.42755057750E+01  0.11252042744E+03  0.11276044837E+03  0.00000000000E+00 0. -1.
<mgrwt>
<rscale>  0 0.80091255E+02</rscale>
<asrwt>0</asrwt>
<pdfrwt beam="1">  1        2 0.43406909E-01 0.80091255E+02</pdfrwt>
<pdfrwt beam="2">  1       -1 0.87442917E-03 0.80091255E+02</pdfrwt>
<totfact> 0.24859540E+05</totfact>
</mgrwt>
</event>
<event>
 8    1  0.1226832E-016  0.7822127E+02  0.7818608E-02  0.1334176E+00
          2   -1    0    0  501    0  0.00000000000E+00  0.00000000000E+00  0.41147101219E+03  0.41147101219E+03  0.25500000000E-02 0. -1.
         -1   -1    0    0    0  501 -0.00000000000E+00 -0.00000000000E+00 -0.37174939386E+01  0.37174973551E+01  0.50400000000E-02 0.  1.
         24    2    1    2    0    0  0.00000000000E+00  0.00000000000E+00  0.40775351825E+03  0.41518850955E+03  0.78221268325E+02 0.  0.
         66    2    3    3    0    0  0.43894105993E+01  0.38833899426E+02  0.20690766841E+03  0.21057569169E+03  0.20000037492E+01 0.  0.
        -13    1    3    3    0    0 -0.43894105993E+01 -0.38833899426E+02  0.20084584984E+03  0.20461281785E+03  0.10566000000E+00 0.  1.
         13    1    4    4    0    0  0.48309962382E+00  0.82983386170E+01  0.44747375143E+02  0.45513015229E+02  0.10566000000E+00 0. -1.
        -13    1    4    4    0    0  0.16763655096E+01  0.10112342457E+02  0.56965403205E+02  0.57880376620E+02  0.10566000000E+00 0.  1.
        -14    1    4    4    0    0  0.22299454658E+01  0.20423218352E+02  0.10519489006E+03  0.10718229984E+03  0.00000000000E+00 0.  1.
<mgrwt>
<rscale>  0 0.78221268E+02</rscale>
<asrwt>0</asrwt>
<pdfrwt beam="1">  1        2 0.63303234E-01 0.78221268E+02</pdfrwt>
<pdfrwt beam="2">  1       -1 0.57192240E-03 0.78221268E+02</pdfrwt>
<totfact> 0.30256666E+05</totfact>
</mgrwt>
</event>
<event>
 8    1  0.1226832E-016  0.7928752E+02  0.7818608E-02  0.1331086E+00
          2   -1    0    0  501    0  0.00000000000E+00  0.00000000000E+00  0.78389522527E+02  0.78389522568E+02  0.25500000000E-02 0. -1.
         -1   -1    0    0    0  501 -0.00000000000E+00 -0.00000000000E+00 -0.20048949084E+02  0.20048949717E+02  0.50400000000E-02 0.  1.
         24    2    1    2    0    0  0.00000000000E+00  0.17763568394E-14  0.58340573443E+02  0.98438472285E+02  0.79287516774E+02 0.  0.
         66    2    3    3    0    0  0.17807087638E+02 -0.13871798343E+02  0.69612320009E+02  0.73207883824E+02  0.19999993741E+01 0.  0.
        -13    1    3    3    0    0 -0.17807087638E+02  0.13871798343E+02 -0.11271746567E+02  0.25230588461E+02  0.10566000000E+00 0.  1.
         13    1    4    4    0    0  0.10798882282E+02 -0.79992154454E+01  0.41841520503E+02  0.43946869152E+02  0.10566000000E+00 0. -1.
        -13    1    4    4    0    0  0.16060599492E+01 -0.87563574948E+00  0.46773152637E+01  0.50234060794E+01  0.10566000000E+00 0.  1.
        -14    1    4    4    0    0  0.54021454070E+01 -0.49969471477E+01  0.23093484243E+02  0.24237608592E+02  0.00000000000E+00 0.  1.
<mgrwt>
<rscale>  0 0.79287517E+02</rscale>
<asrwt>0</asrwt>
<pdfrwt beam="1">  1        2 0.12059927E-01 0.79287517E+02</pdfrwt>
<pdfrwt beam="2">  1       -1 0.30844538E-02 0.79287517E+02</pdfrwt>
<totfact> 0.17014446E+05</totfact>
</mgrwt>
</event>
<event>
 8    1  0.1226832E-016  0.8035373E+02  0.7818608E-02  0.1328051E+00
         -1   -1    0    0    0  501 -0.00000000000E+00  0.00000000000E+00  0.13613731232E+01  0.13613824525E+01  0.50400000000E-02 0.  1.
          2   -1    0    0  501    0  0.00000000000E+00 -0.00000000000E+00 -0.11856960769E+04  0.11856960769E+04  0.25500000000E-02 0. -1.
         24    2    1    2    0    0  0.00000000000E+00  0.00000000000E+00 -0.11843347037E+04  0.11870574593E+04  0.80353725742E+02 0.  0.
         66    2    3    3    0    0 -0.23191044504E+02 -0.79918056435E+01 -0.10621352268E+04  0.10624203186E+04  0.19999986289E+01 0.  0.
        -13    1    3    3    0    0  0.23191044504E+02  0.79918056435E+01 -0.12219947697E+03  0.12463714069E+03  0.10566000000E+00 0.  1.
         13    1    4    4    0    0 -0.11483516758E+02 -0.40332658282E+01 -0.51700053606E+03  0.51714379416E+03  0.10566000000E+00 0. -1.
        -13    1    4    4    0    0 -0.38439467289E+01 -0.19845719642E+01 -0.18603164728E+03  0.18608196959E+03  0.10566000000E+00 0. -1.
         14    1    4    4    0    0 -0.78635810171E+01 -0.19739678510E+01 -0.35910304344E+03  0.35919455489E+03  0.00000000000E+00 0. -1.
<mgrwt>
<rscale>  0 0.80353726E+02</rscale>
<asrwt>0</asrwt>
<pdfrwt beam="1">  1        2 0.18241396E+00 0.80353726E+02</pdfrwt>
<pdfrwt beam="2">  1       -1 0.20944369E-03 0.80353726E+02</pdfrwt>
<totfact> 0.34682382E+05</totfact>
</mgrwt>
</event>
<event>
 8    1  0.1226832E-016  0.7932495E+02  0.7818608E-02  0.1330978E+00
         -1   -1    0    0    0  501 -0.00000000000E+00  0.00000000000E+00  0.53016390425E+01  0.53016414382E+01  0.50400000000E-02 0.  1.
          2   -1    0    0  501    0  0.00000000000E+00 -0.00000000000E+00 -0.29672176370E+03  0.29672176371E+03  0.25500000000E-02 0. -1.
         24    2    1    2    0    0  0.00000000000E+00  0.71054273576E-14 -0.29142012466E+03  0.30202340515E+03  0.79324953215E+02 0.  0.
         66    2    3    3    0    0  0.57691905028E+01 -0.39041194405E+02 -0.15984798209E+03  0.16465987912E+03  0.19999983950E+01 0.  0.
        -13    1    3    3    0    0 -0.57691905028E+01  0.39041194405E+02 -0.13157214257E+03  0.13736352603E+03  0.10566000000E+00 0.  1.
         13    1    4    4    0    0  0.40510425637E+01 -0.23363703765E+02 -0.94991304558E+02  0.97906244464E+02  0.10566000000E+00 0. -1.
        -13    1    4    4    0    0  0.16960551685E+00 -0.54272583141E+01 -0.21670214712E+02  0.22340395443E+02  0.10566000000E+00 0.  1.
         14    1    4    4    0    0  0.15485424222E+01 -0.10250232326E+02 -0.43186462823E+02  0.44413239214E+02  0.00000000000E+00 0. -1.
<mgrwt>
<rscale>  0 0.79324953E+02</rscale>
<asrwt>0</asrwt>
<pdfrwt beam="1">  1        2 0.45649489E-01 0.79324953E+02</pdfrwt>
<pdfrwt beam="2">  1       -1 0.81563720E-03 0.79324953E+02</pdfrwt>
<totfact> 0.25963566E+05</totfact>
</mgrwt>
</event>
<event>
 8    1  0.1226832E-016  0.7998038E+02  0.7818608E-02  0.1329107E+00
          2   -1    0    0  501    0  0.00000000000E+00  0.00000000000E+00  0.10332789395E+03  0.10332789398E+03  0.25500000000E-02 0. -1.
         -1   -1    0    0    0  501 -0.00000000000E+00 -0.00000000000E+00 -0.15477090469E+02  0.15477091290E+02  0.50400000000E-02 0.  1.
         24    2    1    2    0    0  0.00000000000E+00  0.00000000000E+00  0.87850803484E+02  0.11880498527E+03  0.79980377926E+02 0.  0.
         66    2    3    3    0    0 -0.18382209834E+02 -0.47962507663E+01  0.96181977238E+02  0.98060605796E+02  0.20000010067E+01 0.  0.
        -13    1    3    3    0    0  0.18382209834E+02  0.47962507663E+01 -0.83311737534E+01  0.20744379478E+02  0.10566000000E+00 0.  1.
         13    1    4    4    0    0 -0.25275595934E+01 -0.87003961129E+00  0.15595971329E+02  0.15823748360E+02  0.10566000000E+00 0. -1.
        -13    1    4    4    0    0 -0.13947966517E+01  0.17662805601E-01  0.61909663736E+01  0.63470464272E+01  0.10566000000E+00 0.  1.
         14    1    4    4    0    0 -0.14459853589E+02 -0.39438739607E+01  0.74395039535E+02  0.75889811009E+02  0.00000000000E+00 0. -1.
<mgrwt>
<rscale>  0 0.79980378E+02</rscale>
<asrwt>0</asrwt>
<pdfrwt beam="1">  1        2 0.15896599E-01 0.79980378E+02</pdfrwt>
<pdfrwt beam="2">  1       -1 0.23810909E-02 0.79980378E+02</pdfrwt>
<totfact> 0.17901775E+05</totfact>
</mgrwt>
</event>
<event>
 8    1  0.1226832E-016  0.7860733E+02  0.7818608E-02  0.1333051E+00
          2   -1    0    0  501    0  0.00000000000E+00  0.00000000000E+00  0.41376499427E+02  0.41376499506E+02  0.25500000000E-02 0. -1.
         -1   -1    0    0    0  501 -0.00000000000E+00 -0.00000000000E+00 -0.37334668453E+02  0.37334668793E+02  0.50400000000E-02 0.  1.
         24    2    1    2    0    0  0.00000000000E+00  0.00000000000E+00  0.40418309746E+01  0.78711168299E+02  0.78607325469E+02 0.  0.
         66    2    3    3    0    0  0.15734578559E+02  0.29862377376E+02  0.22134429985E+02  0.40413755227E+02  0.20000189561E+01 0.  0.
        -13    1    3    3    0    0 -0.15734578559E+02 -0.29862377376E+02 -0.18092599011E+02  0.38297413072E+02  0.10566000000E+00 0.  1.
         13    1    4    4    0    0  0.69115565596E+01  0.13367707022E+02  0.11031022993E+02  0.18659041706E+02  0.10566000000E+00 0. -1.
        -13    1    4    4    0    0  0.61115895849E+01  0.11633744420E+02  0.77959407396E+01  0.15280163367E+02  0.10566000000E+00 0.  1.
         14    1    4    4    0    0  0.27114324149E+01  0.48609259344E+01  0.33074662529E+01  0.64745501538E+01  0.00000000000E+00 0. -1.
<mgrwt>
<rscale>  0 0.78607325E+02</rscale>
<asrwt>0</asrwt>
<pdfrwt beam="1">  1        2 0.63656153E-02 0.78607325E+02</pdfrwt>
<pdfrwt beam="2">  1       -1 0.57437952E-02 0.78607325E+02</pdfrwt>
<totfact> 0.15067092E+05</totfact>
</mgrwt>
</event>
<event>
 8    1  0.1226832E-016  0.7938722E+02  0.7818608E-02  0.1330799E+00
          2   -1    0    0  501    0  0.00000000000E+00  0.00000000000E+00  0.18911044428E+02  0.18911044600E+02  0.25500000000E-02 0. -1.
         -1   -1    0    0    0  501 -0.00000000000E+00 -0.00000000000E+00 -0.83315470032E+02  0.83315470184E+02  0.50400000000E-02 0.  1.
         24    2    1    2    0    0  0.88817841970E-15 -0.71054273576E-14 -0.64404425604E+02  0.10222651478E+03  0.79387217407E+02 0.  0.
         66    2    3    3    0    0 -0.52350051064E+01  0.38864738060E+02 -0.24528203256E+02  0.46298012072E+02  0.20000059872E+01 0.  0.
        -13    1    3    3    0    0  0.52350051064E+01 -0.38864738060E+02 -0.39876222347E+02  0.55928502712E+02  0.10566000000E+00 0.  1.
         13    1    4    4    0    0 -0.25219875272E+01  0.15342882592E+02 -0.96259703954E+01  0.18287562369E+02  0.10566000000E+00 0. -1.
        -13    1    4    4    0    0 -0.11941499381E+01  0.56420415628E+01 -0.33783791444E+01  0.66845520979E+01  0.10566000000E+00 0.  1.
         14    1    4    4    0    0 -0.15188676411E+01  0.17879813905E+02 -0.11523853717E+02  0.21325897605E+02  0.00000000000E+00 0. -1.
<mgrwt>
<rscale>  0 0.79387217E+02</rscale>
<asrwt>0</asrwt>
<pdfrwt beam="1">  1        2 0.29093915E-02 0.79387217E+02</pdfrwt>
<pdfrwt beam="2">  1       -1 0.12817764E-01 0.79387217E+02</pdfrwt>
<totfact> 0.12550108E+05</totfact>
</mgrwt>
</event>
<event>
 8    1  0.1226832E-016  0.7691734E+02  0.7818608E-02  0.1338034E+00
          2   -1    0    0  501    0  0.00000000000E+00  0.00000000000E+00  0.11794372112E+04  0.11794372112E+04  0.25500000000E-02 0. -1.
         -1   -1    0    0    0  501 -0.00000000000E+00 -0.00000000000E+00 -0.12540415409E+01  0.12540516687E+01  0.50400000000E-02 0.  1.
         24    2    1    2    0    0  0.00000000000E+00  0.00000000000E+00  0.11781831697E+04  0.11806912629E+04  0.76917338442E+02 0.  0.
         66    2    3    3    0    0 -0.23877903175E+02  0.94196744922E+01  0.10285615022E+04  0.10288836904E+04  0.20000000107E+01 0.  0.
        -13    1    3    3    0    0  0.23877903175E+02 -0.94196744922E+01  0.14962166745E+03  0.15180757248E+03  0.10566000000E+00 0.  1.
         13    1    4    4    0    0 -0.18085009336E+02  0.67945487829E+01  0.74860419867E+03  0.74885345087E+03  0.10566000000E+00 0. -1.
        -13    1    4    4    0    0 -0.27665946140E+00  0.40541953376E-01  0.12580134124E+02  0.12583684784E+02  0.10566000000E+00 0.  1.
         14    1    4    4    0    0 -0.55162343780E+01  0.25845837559E+01  0.26737716942E+03  0.26744655474E+03  0.00000000000E+00 0. -1.
<mgrwt>
<rscale>  0 0.76917338E+02</rscale>
<asrwt>0</asrwt>
<pdfrwt beam="1">  1        2 0.18145177E+00 0.76917338E+02</pdfrwt>
<pdfrwt beam="2">  1       -1 0.19293037E-03 0.76917338E+02</pdfrwt>
<totfact> 0.38861529E+05</totfact>
</mgrwt>
</event>
<event>
 8    1  0.1226832E-016  0.8016324E+02  0.7818608E-02  0.1328589E+00
          2   -1    0    0  501    0  0.00000000000E+00  0.00000000000E+00  0.45949102183E+03  0.45949102184E+03  0.25500000000E-02 0. -1.
         -1   -1    0    0    0  501 -0.00000000000E+00 -0.00000000000E+00 -0.34963366967E+01  0.34963403293E+01  0.50400000000E-02 0.  1.
         24    2    1    2    0    0  0.00000000000E+00 -0.35527136788E-14  0.45599468514E+03  0.46298736217E+03  0.80163237560E+02 0.  0.
         66    2    3    3    0    0 -0.20638361049E+01 -0.28483734735E+02  0.39036404088E+03  0.39141240011E+03  0.19999965120E+01 0.  0.
        -13    1    3    3    0    0  0.20638361049E+01  0.28483734735E+02  0.65630644260E+02  0.71574962060E+02  0.10566000000E+00 0.  1.
         13    1    4    4    0    0 -0.21907639417E+01 -0.20217086834E+02  0.27872850688E+03  0.27946935746E+03  0.10566000000E+00 0. -1.
        -13    1    4    4    0    0  0.23582065863E+00 -0.22860476698E+01  0.28665813697E+02  0.28757984357E+02  0.10566000000E+00 0. -1.
         14    1    4    4    0    0 -0.10889282188E+00 -0.59806002311E+01  0.82969720296E+02  0.83185058291E+02  0.00000000000E+00 0. -1.
<mgrwt>
<rscale>  0 0.80163238E+02</rscale>
<asrwt>0</asrwt>
<pdfrwt beam="1">  1        2 0.70690924E-01 0.80163238E+02</pdfrwt>
<pdfrwt beam="2">  1       -1 0.53789825E-03 0.80163238E+02</pdfrwt>
<totfact> 0.29467277E+05</totfact>
</mgrwt>
</event>
<event>
 8    1  0.1226832E-016  0.7766380E+02  0.7818608E-02  0.1335815E+00
         -1   -1    0    0    0  501 -0.00000000000E+00  0.00000000000E+00  0.16475774018E+02  0.16475774789E+02  0.50400000000E-02 0.  1.
          2   -1    0    0  501    0  0.00000000000E+00 -0.00000000000E+00 -0.91523246924E+02  0.91523246959E+02  0.25500000000E-02 0. -1.
         24    2    1    2    0    0  0.00000000000E+00  0.88817841970E-15 -0.75047472906E+02  0.10799902175E+03  0.77663797931E+02 0.  0.
         66    2    3    3    0    0 -0.34063951328E+02  0.68366596105E+01 -0.61586927649E+02  0.70739256085E+02  0.19999998526E+01 0.  0.
        -13    1    3    3    0    0  0.34063951328E+02 -0.68366596105E+01 -0.13460545256E+02  0.37259765664E+02  0.10566000000E+00 0.  1.
         13    1    4    4    0    0 -0.41178121823E+01  0.28401839038E+00 -0.70642902901E+01  0.81824449252E+01  0.10566000000E+00 0.  1.
        -13    1    4    4    0    0 -0.15754902467E+02  0.29661682188E+01 -0.28352970703E+02  0.32571724201E+02  0.10566000000E+00 0. -1.
        -14    1    4    4    0    0 -0.14191236678E+02  0.35864730012E+01 -0.26169666656E+02  0.29985086959E+02  0.00000000000E+00 0.  1.
<mgrwt>
<rscale>  0 0.77663798E+02</rscale>
<asrwt>0</asrwt>
<pdfrwt beam="1">  1        2 0.14080499E-01 0.77663798E+02</pdfrwt>
<pdfrwt beam="2">  1       -1 0.25347346E-02 0.77663798E+02</pdfrwt>
<totfact> 0.18729132E+05</totfact>
</mgrwt>
</event>
<event>
 8    1  0.1226832E-016  0.8111514E+02  0.7818608E-02  0.1325916E+00
         -1   -1    0    0    0  501 -0.00000000000E+00  0.00000000000E+00  0.92512136445E+01  0.92512150174E+01  0.50400000000E-02 0.  1.
          2   -1    0    0  501    0  0.00000000000E+00 -0.00000000000E+00 -0.17780547706E+03  0.17780547707E+03  0.25500000000E-02 0. -1.
         24    2    1    2    0    0  0.00000000000E+00  0.00000000000E+00 -0.16855426341E+03  0.18705669209E+03  0.81115142496E+02 0.  0.
         66    2    3    3    0    0  0.38121774372E+02 -0.10100358768E+02 -0.62741609242E+02  0.74133639197E+02  0.20000004633E+01 0.  0.
        -13    1    3    3    0    0 -0.38121774372E+02  0.10100358768E+02 -0.10581265417E+03  0.11292305289E+03  0.10566000000E+00 0.  1.
         13    1    4    4    0    0  0.19498902399E+02 -0.51736231691E+01 -0.30758495279E+02  0.36784096663E+02  0.10566000000E+00 0. -1.
        -13    1    4    4    0    0  0.47241227261E+01 -0.87867197350E+00 -0.83975481040E+01  0.96757107317E+01  0.10566000000E+00 0.  1.
        -14    1    4    4    0    0  0.13898749247E+02 -0.40480636253E+01 -0.23585565859E+02  0.27673831803E+02  0.00000000000E+00 0.  1.
<mgrwt>
<rscale>  0 0.81115142E+02</rscale>
<asrwt>0</asrwt>
<pdfrwt beam="1">  1        2 0.27354686E-01 0.81115142E+02</pdfrwt>
<pdfrwt beam="2">  1       -1 0.14232639E-02 0.81115142E+02</pdfrwt>
<totfact> 0.20424014E+05</totfact>
</mgrwt>
</event>
<event>
 8    1  0.1226832E-016  0.7931352E+02  0.7818608E-02  0.1331011E+00
         -1   -1    0    0    0  501 -0.00000000000E+00  0.00000000000E+00  0.30204246184E+02  0.30204246605E+02  0.50400000000E-02 0.  1.
          2   -1    0    0  501    0  0.00000000000E+00 -0.00000000000E+00 -0.52067460795E+02  0.52067460858E+02  0.25500000000E-02 0. -1.
         24    2    1    2    0    0  0.00000000000E+00  0.00000000000E+00 -0.21863214611E+02  0.82271707462E+02  0.79313515214E+02 0.  0.
         66    2    3    3    0    0  0.10646020439E+02  0.37937826726E+02 -0.65331342356E+01  0.39991227613E+02  0.19999988027E+01 0.  0.
        -13    1    3    3    0    0 -0.10646020439E+02 -0.37937826726E+02 -0.15330080375E+02  0.42280479849E+02  0.10566000000E+00 0.  1.
         13    1    4    4    0    0  0.10457509207E+01  0.39044049984E+01 -0.10595031635E+01  0.41799143973E+01  0.10566000000E+00 0.  1.
        -13    1    4    4    0    0  0.54066226034E+01  0.16924019260E+02 -0.23748634079E+01  0.17924986363E+02  0.10566000000E+00 0. -1.
         14    1    4    4    0    0  0.41936469154E+01  0.17109402468E+02 -0.30987676642E+01  0.17886326853E+02  0.00000000000E+00 0. -1.
<mgrwt>
<rscale>  0 0.79313515E+02</rscale>
<asrwt>0</asrwt>
<pdfrwt beam="1">  1        2 0.80103786E-02 0.79313515E+02</pdfrwt>
<pdfrwt beam="2">  1       -1 0.46468071E-02 0.79313515E+02</pdfrwt>
<totfact> 0.15435556E+05</totfact>
</mgrwt>
</event>
<event>
 8    1  0.1226832E-016  0.7950607E+02  0.7818608E-02  0.1330459E+00
         -1   -1    0    0    0  501 -0.00000000000E+00  0.00000000000E+00  0.26870821113E+01  0.26870868379E+01  0.50400000000E-02 0.  1.
          2   -1    0    0  501    0  0.00000000000E+00 -0.00000000000E+00 -0.58811096927E+03  0.58811096927E+03  0.25500000000E-02 0. -1.
         24    2    1    2    0    0 -0.35527136788E-14  0.00000000000E+00 -0.58542388715E+03  0.59079805611E+03  0.79506071790E+02 0.  0.
         66    2    3    3    0    0 -0.19744234385E+02  0.12274512185E+02 -0.53228096753E+03  0.53279219855E+03  0.20000002326E+01 0.  0.
        -13    1    3    3    0    0  0.19744234385E+02 -0.12274512185E+02 -0.53142919621E+02  0.58005857555E+02  0.10566000000E+00 0.  1.
         13    1    4    4    0    0 -0.83861354244E+01  0.61838131909E+01 -0.22948772937E+03  0.22972417354E+03  0.10566000000E+00 0. -1.
        -13    1    4    4    0    0 -0.99606350747E+01  0.51261316436E+01 -0.26110266391E+03  0.26134288539E+03  0.10566000000E+00 0.  1.
        -14    1    4    4    0    0 -0.13974638858E+01  0.96456735077E+00 -0.41690574251E+02  0.41725139627E+02  0.00000000000E+00 0.  1.
<mgrwt>
<rscale>  0 0.79506072E+02</rscale>
<asrwt>0</asrwt>
<pdfrwt beam="1">  1        2 0.90478508E-01 0.79506072E+02</pdfrwt>
<pdfrwt beam="2">  1       -1 0.41339808E-03 0.79506072E+02</pdfrwt>
<totfact> 0.32502646E+05</totfact>
</mgrwt>
</event>
<event>
 8    1  0.1226832E-016  0.7999953E+02  0.7818608E-02  0.1329053E+00
         -1   -1    0    0    0  501 -0.00000000000E+00  0.00000000000E+00  0.76382341426E+02  0.76382341592E+02  0.50400000000E-02 0.  1.
          2   -1    0    0  501    0  0.00000000000E+00 -0.00000000000E+00 -0.20947003299E+02  0.20947003455E+02  0.25500000000E-02 0. -1.
         24    2    1    2    0    0  0.71054273576E-14  0.71054273576E-14  0.55435338126E+02  0.97329345047E+02  0.79999529336E+02 0.  0.
         66    2    3    3    0    0  0.25735746402E+02  0.28662555172E+02  0.14738945271E+02  0.41292943776E+02  0.19999965361E+01 0.  0.
        -13    1    3    3    0    0 -0.25735746402E+02 -0.28662555172E+02  0.40696392856E+02  0.56036401271E+02  0.10566000000E+00 0.  1.
         13    1    4    4    0    0  0.12370610882E+02  0.12789394251E+02  0.69053976589E+01  0.19086547612E+02  0.10566000000E+00 0. -1.
        -13    1    4    4    0    0  0.89104567878E+01  0.10567345331E+02  0.57572526952E+01  0.14974049223E+02  0.10566000000E+00 0.  1.
        -14    1    4    4    0    0  0.44546787323E+01  0.53058155907E+01  0.20762949165E+01  0.72323469407E+01  0.00000000000E+00 0.  1.
<mgrwt>
<rscale>  0 0.79999529E+02</rscale>
<asrwt>0</asrwt>
<pdfrwt beam="1">  1        2 0.32226158E-02 0.79999529E+02</pdfrwt>
<pdfrwt beam="2">  1       -1 0.11751130E-01 0.79999529E+02</pdfrwt>
<totfact> 0.12532231E+05</totfact>
</mgrwt>
</event>
<event>
 8    1  0.1226832E-016  0.7917432E+02  0.7818608E-02  0.1331411E+00
          2   -1    0    0  501    0  0.00000000000E+00  0.00000000000E+00  0.15628813177E+02  0.15628813385E+02  0.25500000000E-02 0. -1.
         -1   -1    0    0    0  501 -0.00000000000E+00 -0.00000000000E+00 -0.10027270396E+03  0.10027270409E+03  0.50400000000E-02 0.  1.
         24    2    1    2    0    0  0.00000000000E+00  0.88817841970E-15 -0.84643890785E+02  0.11590151747E+03  0.79174323523E+02 0.  0.
         66    2    3    3    0    0  0.34511765398E+02  0.41338236250E+01 -0.14690189062E+02  0.37788253571E+02  0.20000011564E+01 0.  0.
        -13    1    3    3    0    0 -0.34511765398E+02 -0.41338236250E+01 -0.69953701723E+02  0.78113263902E+02  0.10566000000E+00 0.  1.
         13    1    4    4    0    0  0.22248671782E+02  0.30594186614E+01 -0.10021092182E+02  0.24592618632E+02  0.10566000000E+00 0. -1.
        -13    1    4    4    0    0  0.11932183453E+02  0.11662921183E+01 -0.44523149423E+01  0.12789507874E+02  0.10566000000E+00 0.  1.
         14    1    4    4    0    0  0.33091016257E+00 -0.91887154725E-01 -0.21678193791E+00  0.40612706571E+00  0.00000000000E+00 0. -1.
<mgrwt>
<rscale>  0 0.79174324E+02</rscale>
<asrwt>0</asrwt>
<pdfrwt beam="1">  1        2 0.24044329E-02 0.79174324E+02</pdfrwt>
<pdfrwt beam="2">  1       -1 0.15426570E-01 0.79174324E+02</pdfrwt>
<totfact> 0.12156452E+05</totfact>
</mgrwt>
</event>
<event>
 8    1  0.1226832E-016  0.8123408E+02  0.7818608E-02  0.1325585E+00
         -1   -1    0    0    0  501 -0.00000000000E+00  0.00000000000E+00  0.13676357960E+02  0.13676358889E+02  0.50400000000E-02 0.  1.
          2   -1    0    0  501    0  0.00000000000E+00 -0.00000000000E+00 -0.12062744139E+03  0.12062744142E+03  0.25500000000E-02 0. -1.
         24    2    1    2    0    0 -0.35527136788E-14  0.00000000000E+00 -0.10695108343E+03  0.13430380031E+03  0.81234084779E+02 0.  0.
         66    2    3    3    0    0 -0.16923672556E+02  0.17853424623E+02 -0.10689117259E+03  0.10970359265E+03  0.19999997262E+01 0.  0.
        -13    1    3    3    0    0  0.16923672556E+02 -0.17853424623E+02 -0.59910841937E-01  0.24600207659E+02  0.10566000000E+00 0.  1.
         13    1    4    4    0    0 -0.98003122631E+00  0.15048935944E+01 -0.92207638255E+01  0.93946163038E+01  0.10566000000E+00 0. -1.
        -13    1    4    4    0    0 -0.21740594888E+01  0.26601762835E+01 -0.15250880412E+02  0.15633412612E+02  0.10566000000E+00 0.  1.
         14    1    4    4    0    0 -0.13769581841E+02  0.13688354745E+02 -0.82419528350E+02  0.84675563731E+02  0.00000000000E+00 0. -1.
<mgrwt>
<rscale>  0 0.81234085E+02</rscale>
<asrwt>0</asrwt>
<pdfrwt beam="1">  1        2 0.18558067E-01 0.81234085E+02</pdfrwt>
<pdfrwt beam="2">  1       -1 0.21040552E-02 0.81234085E+02</pdfrwt>
<totfact> 0.17966512E+05</totfact>
</mgrwt>
</event>
<event>
 8    1  0.1226832E-016  0.8225584E+02  0.7818608E-02  0.1322769E+00
          2   -1    0    0  501    0  0.00000000000E+00  0.00000000000E+00  0.44149420323E+03  0.44149420324E+03  0.25500000000E-02 0. -1.
         -1   -1    0    0    0  501 -0.00000000000E+00 -0.00000000000E+00 -0.38313184199E+01  0.38313217349E+01  0.50400000000E-02 0.  1.
         24    2    1    2    0    0  0.00000000000E+00  0.00000000000E+00  0.43766288481E+03  0.44532552497E+03  0.82255835365E+02 0.  0.
         66    2    3    3    0    0  0.82426979388E+01 -0.26840373148E+02  0.38148168874E+03  0.38251879240E+03  0.19999995771E+01 0.  0.
        -13    1    3    3    0    0 -0.82426979388E+01  0.26840373148E+02  0.56181196073E+02  0.62806732571E+02  0.10566000000E+00 0.  1.
         13    1    4    4    0    0  0.44360266427E+01 -0.13266077442E+02  0.18511250111E+03  0.18564028758E+03  0.10566000000E+00 0. -1.
        -13    1    4    4    0    0  0.19219346604E+01 -0.47907266669E+01  0.68963610566E+02  0.69156602296E+02  0.10566000000E+00 0.  1.
         14    1    4    4    0    0  0.18847366357E+01 -0.87835690387E+01  0.12740557706E+03  0.12772190252E+03  0.00000000000E+00 0. -1.
<mgrwt>
<rscale>  0 0.82255835E+02</rscale>
<asrwt>0</asrwt>
<pdfrwt beam="1">  1        2 0.67922159E-01 0.82255835E+02</pdfrwt>
<pdfrwt beam="2">  1       -1 0.58943409E-03 0.82255835E+02</pdfrwt>
<totfact> 0.27181395E+05</totfact>
</mgrwt>
</event>
<event>
 8    1  0.1226832E-016  0.7782619E+02  0.7818608E-02  0.1335336E+00
          2   -1    0    0  501    0  0.00000000000E+00  0.00000000000E+00  0.29151397960E+03  0.29151397961E+03  0.25500000000E-02 0. -1.
         -1   -1    0    0    0  501 -0.00000000000E+00 -0.00000000000E+00 -0.51943602758E+01  0.51943627209E+01  0.50400000000E-02 0.  1.
         24    2    1    2    0    0  0.00000000000E+00  0.00000000000E+00  0.28631961932E+03  0.29670834233E+03  0.77826190960E+02 0.  0.
         66    2    3    3    0    0 -0.33848788092E+02 -0.88339538188E+01  0.20800343682E+03  0.21093413408E+03  0.19999988427E+01 0.  0.
        -13    1    3    3    0    0  0.33848788092E+02  0.88339538188E+01  0.78316182503E+02  0.85774208252E+02  0.10566000000E+00 0.  1.
         13    1    4    4    0    0 -0.18203168570E+02 -0.45540140020E+01  0.11028961113E+03  0.11187450057E+03  0.10566000000E+00 0. -1.
        -13    1    4    4    0    0 -0.24874151652E+01 -0.99147666328E+00  0.18499409322E+02  0.18692500354E+02  0.10566000000E+00 0.  1.
        -14    1    4    4    0    0 -0.13158204357E+02 -0.32884631535E+01  0.79214416365E+02  0.80367133157E+02  0.00000000000E+00 0.  1.
<mgrwt>
<rscale>  0 0.77826191E+02</rscale>
<asrwt>0</asrwt>
<pdfrwt beam="1">  1        2 0.44848319E-01 0.77826191E+02</pdfrwt>
<pdfrwt beam="2">  1       -1 0.79913228E-03 0.77826191E+02</pdfrwt>
<totfact> 0.27118763E+05</totfact>
</mgrwt>
</event>
<event>
 8    1  0.1226832E-016  0.8043789E+02  0.7818608E-02  0.1327813E+00
         -1   -1    0    0    0  501 -0.00000000000E+00  0.00000000000E+00  0.21593229514E+02  0.21593230102E+02  0.50400000000E-02 0.  1.
          2   -1    0    0  501    0  0.00000000000E+00 -0.00000000000E+00 -0.74910671212E+02  0.74910671256E+02  0.25500000000E-02 0. -1.
         24    2    1    2    0    0  0.00000000000E+00  0.00000000000E+00 -0.53317441698E+02  0.96503901358E+02  0.80437885278E+02 0.  0.
         66    2    3    3    0    0  0.25545928689E+02 -0.86772295821E+01 -0.62419710870E+02  0.68030207289E+02  0.20000032288E+01 0.  0.
        -13    1    3    3    0    0 -0.25545928689E+02  0.86772295821E+01  0.91022691716E+01  0.28473694068E+02  0.10566000000E+00 0.  1.
         13    1    4    4    0    0  0.56839734676E+01 -0.16123494195E+01 -0.14173849960E+02  0.15356315045E+02  0.10566000000E+00 0. -1.
        -13    1    4    4    0    0  0.12799614326E+02 -0.37709513304E+01 -0.30047282195E+02  0.32877051756E+02  0.10566000000E+00 0.  1.
        -14    1    4    4    0    0  0.70623408954E+01 -0.32939288322E+01 -0.18198578715E+02  0.19796840488E+02  0.00000000000E+00 0.  1.
<mgrwt>
<rscale>  0 0.80437885E+02</rscale>
<asrwt>0</asrwt>
<pdfrwt beam="1">  1        2 0.11524719E-01 0.80437885E+02</pdfrwt>
<pdfrwt beam="2">  1       -1 0.33220354E-02 0.80437885E+02</pdfrwt>
<totfact> 0.16179157E+05</totfact>
</mgrwt>
</event>
<event>
 8    1  0.1226832E-016  0.8108731E+02  0.7818608E-02  0.1325994E+00
          2   -1    0    0  501    0  0.00000000000E+00  0.00000000000E+00  0.12933966336E+03  0.12933966338E+03  0.25500000000E-02 0. -1.
         -1   -1    0    0    0  501 -0.00000000000E+00 -0.00000000000E+00 -0.12709076996E+02  0.12709077995E+02  0.50400000000E-02 0.  1.
         24    2    1    2    0    0  0.00000000000E+00  0.00000000000E+00  0.11663058636E+03  0.14204874138E+03  0.81087306356E+02 0.  0.
         66    2    3    3    0    0  0.10511397460E+02  0.37637703847E+02  0.77111835613E+02  0.86471506361E+02  0.19999983258E+01 0.  0.
        -13    1    3    3    0    0 -0.10511397460E+02 -0.37637703847E+02  0.39518750749E+02  0.55577235017E+02  0.10566000000E+00 0.  1.
         13    1    4    4    0    0  0.34763670582E+01  0.15132910741E+02  0.30053966410E+02  0.33828127001E+02  0.10566000000E+00 0. -1.
        -13    1    4    4    0    0  0.64485905174E+00  0.30136808368E+01  0.64249549672E+01  0.71266630163E+01  0.10566000000E+00 0.  1.
         14    1    4    4    0    0  0.63901713498E+01  0.19491112269E+02  0.40632914236E+02  0.45516716343E+02  0.00000000000E+00 0. -1.
<mgrwt>
<rscale>  0 0.81087306E+02</rscale>
<asrwt>0</asrwt>
<pdfrwt beam="1">  1        2 0.19898410E-01 0.81087306E+02</pdfrwt>
<pdfrwt beam="2">  1       -1 0.19552427E-02 0.81087306E+02</pdfrwt>
<totfact> 0.18441282E+05</totfact>
</mgrwt>
</event>
<event>
 8    1  0.1226832E-016  0.7901769E+02  0.7818608E-02  0.1331862E+00
          2   -1    0    0  501    0  0.00000000000E+00  0.00000000000E+00  0.46602218946E+01  0.46602225922E+01  0.25500000000E-02 0. -1.
         -1   -1    0    0    0  501 -0.00000000000E+00 -0.00000000000E+00 -0.33495159548E+03  0.33495159552E+03  0.50400000000E-02 0.  1.
         24    2    1    2    0    0 -0.35527136788E-14  0.00000000000E+00 -0.33029137359E+03  0.33961181811E+03  0.79017691280E+02 0.  0.
         66    2    3    3    0    0 -0.30278393416E+02 -0.24390672252E+02 -0.19479700054E+03  0.19864933271E+03  0.19999909389E+01 0.  0.
        -13    1    3    3    0    0  0.30278393416E+02  0.24390672252E+02 -0.13549437304E+03  0.14096248540E+03  0.10566000000E+00 0.  1.
         13    1    4    4    0    0 -0.24897545332E+02 -0.20872681335E+02 -0.16102087069E+03  0.16426590806E+03  0.10566000000E+00 0. -1.
        -13    1    4    4    0    0 -0.40417268794E+01 -0.27094055208E+01 -0.25148019590E+02  0.25614653770E+02  0.10566000000E+00 0. -1.
         14    1    4    4    0    0 -0.13391212053E+01 -0.80858539570E+00 -0.86281102651E+01  0.87687708768E+01  0.00000000000E+00 0. -1.
<mgrwt>
<rscale>  0 0.79017691E+02</rscale>
<asrwt>0</asrwt>
<pdfrwt beam="1">  1        2 0.71695753E-03 0.79017691E+02</pdfrwt>
<pdfrwt beam="2">  1       -1 0.51530996E-01 0.79017691E+02</pdfrwt>
<totfact> 0.85149910E+04</totfact>
</mgrwt>
</event>
<event>
 8    1  0.1226832E-016  0.8063260E+02  0.7818608E-02  0.1327266E+00
         -1   -1    0    0    0  501 -0.00000000000E+00  0.00000000000E+00  0.18268228144E+01  0.18268297668E+01  0.50400000000E-02 0.  1.
          2   -1    0    0  501    0  0.00000000000E+00 -0.00000000000E+00 -0.88974194298E+03  0.88974194299E+03  0.25500000000E-02 0. -1.
         24    2    1    2    0    0 -0.35527136788E-14  0.00000000000E+00 -0.88791512017E+03  0.89156877275E+03  0.80632598402E+02 0.  0.
         66    2    3    3    0    0 -0.22271811725E+02  0.57479010478E+00 -0.81543415226E+03  0.81574090285E+03  0.19999820580E+01 0.  0.
        -13    1    3    3    0    0  0.22271811725E+02 -0.57479010478E+00 -0.72480967908E+02  0.75827869904E+02  0.10566000000E+00 0.  1.
         13    1    4    4    0    0 -0.10769448042E+01  0.21217346798E+00 -0.36039706494E+02  0.36056572714E+02  0.10566000000E+00 0. -1.
        -13    1    4    4    0    0 -0.20519762882E+01  0.46342063878E+00 -0.84589182113E+02  0.84615402026E+02  0.10566000000E+00 0.  1.
         14    1    4    4    0    0 -0.19142890633E+02 -0.10080400198E+00 -0.69480526365E+03  0.69506892811E+03  0.00000000000E+00 0. -1.
<mgrwt>
<rscale>  0 0.80632598E+02</rscale>
<asrwt>0</asrwt>
<pdfrwt beam="1">  1        2 0.13688303E+00 0.80632598E+02</pdfrwt>
<pdfrwt beam="2">  1       -1 0.28105091E-03 0.80632598E+02</pdfrwt>
<totfact> 0.34194325E+05</totfact>
</mgrwt>
</event>
<event>
 8    1  0.1226832E-016  0.7973153E+02  0.7818608E-02  0.1329815E+00
          2   -1    0    0  501    0  0.00000000000E+00  0.00000000000E+00  0.51592829793E+03  0.51592829794E+03  0.25500000000E-02 0. -1.
         -1   -1    0    0    0  501 -0.00000000000E+00 -0.00000000000E+00 -0.30804241416E+01  0.30804282646E+01  0.50400000000E-02 0.  1.
         24    2    1    2    0    0 -0.88817841970E-15  0.35527136788E-14  0.51284787379E+03  0.51900872620E+03  0.79731525907E+02 0.  0.
         66    2    3    3    0    0  0.37496061337E+01  0.28701250386E+02  0.43478853453E+03  0.43575554050E+03  0.19999994641E+01 0.  0.
        -13    1    3    3    0    0 -0.37496061337E+01 -0.28701250386E+02  0.78059339263E+02  0.83253185706E+02  0.10566000000E+00 0.  1.
         13    1    4    4    0    0  0.28493285998E+01  0.16303214297E+02  0.25233783426E+03  0.25288002537E+03  0.10566000000E+00 0. -1.
        -13    1    4    4    0    0 -0.16001837679E-01  0.51871262218E+01  0.76910869989E+02  0.77085664173E+02  0.10566000000E+00 0.  1.
        -14    1    4    4    0    0  0.91627937155E+00  0.72109098681E+01  0.10553983028E+03  0.10578985095E+03  0.00000000000E+00 0.  1.
<mgrwt>
<rscale>  0 0.79731526E+02</rscale>
<asrwt>0</asrwt>
<pdfrwt beam="1">  1        2 0.79373464E-01 0.79731526E+02</pdfrwt>
<pdfrwt beam="2">  1       -1 0.47391244E-03 0.79731526E+02</pdfrwt>
<totfact> 0.31024817E+05</totfact>
</mgrwt>
</event>
<event>
 8    1  0.1226832E-016  0.8075744E+02  0.7818608E-02  0.1326916E+00
         -1   -1    0    0    0  501 -0.00000000000E+00  0.00000000000E+00  0.36979066288E+01  0.36979100633E+01  0.50400000000E-02 0.  1.
          2   -1    0    0  501    0  0.00000000000E+00 -0.00000000000E+00 -0.44090893596E+03  0.44090893597E+03  0.25500000000E-02 0. -1.
         24    2    1    2    0    0 -0.35527136788E-14  0.00000000000E+00 -0.43721102933E+03  0.44460684603E+03  0.80757435376E+02 0.  0.
         66    2    3    3    0    0 -0.24603621468E+02 -0.20896125332E+02 -0.35206341717E+03  0.35354580462E+03  0.20000016865E+01 0.  0.
        -13    1    3    3    0    0  0.24603621468E+02  0.20896125332E+02 -0.85147612157E+02  0.91061041413E+02  0.10566000000E+00 0.  1.
         13    1    4    4    0    0 -0.11229713122E+02 -0.99768185979E+01 -0.16840132688E+03  0.16906998973E+03  0.10566000000E+00 0. -1.
        -13    1    4    4    0    0 -0.66136032260E+01 -0.50333921425E+01 -0.82732461944E+02  0.83148939905E+02  0.10566000000E+00 0.  1.
        -14    1    4    4    0    0 -0.67603051206E+01 -0.58859145914E+01 -0.10092962835E+03  0.10132687498E+03  0.00000000000E+00 0.  1.
<mgrwt>
<rscale>  0 0.80757435E+02</rscale>
<asrwt>0</asrwt>
<pdfrwt beam="1">  1        2 0.67832102E-01 0.80757435E+02</pdfrwt>
<pdfrwt beam="2">  1       -1 0.56890933E-03 0.80757435E+02</pdfrwt>
<totfact> 0.28506820E+05</totfact>
</mgrwt>
</event>
<event>
 8    1  0.1226832E-016  0.7992412E+02  0.7818608E-02  0.1329267E+00
          2   -1    0    0  501    0  0.00000000000E+00  0.00000000000E+00  0.64175485751E+03  0.64175485752E+03  0.25500000000E-02 0. -1.
         -1   -1    0    0    0  501 -0.00000000000E+00 -0.00000000000E+00 -0.24884338536E+01  0.24884389575E+01  0.50400000000E-02 0.  1.
         24    2    1    2    0    0  0.35527136788E-14  0.35527136788E-14  0.63926642366E+03  0.64424329648E+03  0.79924117983E+02 0.  0.
         66    2    3    3    0    0  0.24025049169E+02  0.30026277650E+02  0.40671671383E+03  0.40853551331E+03  0.19999982664E+01 0.  0.
        -13    1    3    3    0    0 -0.24025049169E+02 -0.30026277650E+02  0.23254970983E+03  0.23570778316E+03  0.10566000000E+00 0.  1.
         13    1    4    4    0    0  0.59336739159E+01  0.70665521201E+01  0.93718063071E+02  0.94171286254E+02  0.10566000000E+00 0. -1.
        -13    1    4    4    0    0  0.42751242225E+01  0.64167732428E+01  0.79986224874E+02  0.80357071870E+02  0.10566000000E+00 0.  1.
         14    1    4    4    0    0  0.13816251031E+02  0.16542952288E+02  0.23301242588E+03  0.23400715519E+03  0.00000000000E+00 0. -1.
<mgrwt>
<rscale>  0 0.79924118E+02</rscale>
<asrwt>0</asrwt>
<pdfrwt beam="1">  1        2 0.98731535E-01 0.79924118E+02</pdfrwt>
<pdfrwt beam="2">  1       -1 0.38283630E-03 0.79924118E+02</pdfrwt>
<totfact> 0.32830896E+05</totfact>
</mgrwt>
</event>
<event>
 8    1  0.1226832E-016  0.8120552E+02  0.7818608E-02  0.1325665E+00
          2   -1    0    0  501    0  0.00000000000E+00  0.00000000000E+00  0.55599162119E+03  0.55599162119E+03  0.25500000000E-02 0. -1.
         -1   -1    0    0    0  501 -0.00000000000E+00 -0.00000000000E+00 -0.29651215790E+01  0.29651258624E+01  0.50400000000E-02 0.  1.
         24    2    1    2    0    0  0.00000000000E+00  0.00000000000E+00  0.55302649961E+03  0.55895674705E+03  0.81205515883E+02 0.  0.
         66    2    3    3    0    0 -0.14315388717E+02  0.74210574595E+01  0.53298994499E+03  0.53323754931E+03  0.20000198289E+01 0.  0.
        -13    1    3    3    0    0  0.14315388717E+02 -0.74210574595E+01  0.20036554616E+02  0.25719197749E+02  0.10566000000E+00 0.  1.
         13    1    4    4    0    0 -0.69711795528E+01  0.40338133344E+01  0.28454807131E+03  0.28466205410E+03  0.10566000000E+00 0. -1.
        -13    1    4    4    0    0 -0.27013720119E+01  0.14286480590E+01  0.10789041704E+03  0.10793373754E+03  0.10566000000E+00 0.  1.
         14    1    4    4    0    0 -0.46428371525E+01  0.19585960661E+01  0.14055145663E+03  0.14064175766E+03  0.00000000000E+00 0. -1.
<mgrwt>
<rscale>  0 0.81205516E+02</rscale>
<asrwt>0</asrwt>
<pdfrwt beam="1">  1        2 0.85537224E-01 0.81205516E+02</pdfrwt>
<pdfrwt beam="2">  1       -1 0.45617261E-03 0.81205516E+02</pdfrwt>
<totfact> 0.30262225E+05</totfact>
</mgrwt>
</event>
<event>
 8    1  0.1226832E-016  0.8355846E+02  0.7818608E-02  0.1319246E+00
          2   -1    0    0  501    0  0.00000000000E+00  0.00000000000E+00  0.24640711856E+03  0.24640711857E+03  0.25500000000E-02 0. -1.
         -1   -1    0    0    0  501 -0.00000000000E+00 -0.00000000000E+00 -0.70838213173E+01  0.70838231102E+01  0.50400000000E-02 0.  1.
         24    2    1    2    0    0  0.71054273576E-14  0.00000000000E+00  0.23932329724E+03  0.25349094168E+03  0.83558464037E+02 0.  0.
         66    2    3    3    0    0 -0.40909035385E+02 -0.20010249438E+01  0.95094248541E+02  0.10355901403E+03  0.20000009936E+01 0.  0.
        -13    1    3    3    0    0  0.40909035385E+02  0.20010249438E+01  0.14422904870E+03  0.14993192765E+03  0.10566000000E+00 0.  1.
         13    1    4    4    0    0 -0.25053466202E+02 -0.13384309390E+01  0.60153498657E+02  0.65176085575E+02  0.10566000000E+00 0. -1.
        -13    1    4    4    0    0 -0.14954466084E+01  0.94948044451E-01  0.30420164198E+01  0.33926985754E+01  0.10566000000E+00 0.  1.
        -14    1    4    4    0    0 -0.14360122574E+02 -0.75754204927E+00  0.31898733464E+02  0.34990229878E+02  0.00000000000E+00 0.  1.
<mgrwt>
<rscale>  0 0.83558464E+02</rscale>
<asrwt>0</asrwt>
<pdfrwt beam="1">  1        2 0.37908784E-01 0.83558464E+02</pdfrwt>
<pdfrwt beam="2">  1       -1 0.10898189E-02 0.83558464E+02</pdfrwt>
<totfact> 0.21172031E+05</totfact>
</mgrwt>
</event>
<event>
 8    1  0.1226832E-016  0.7967869E+02  0.7818608E-02  0.1329966E+00
          2   -1    0    0  501    0  0.00000000000E+00  0.00000000000E+00  0.17619597109E+03  0.17619597111E+03  0.25500000000E-02 0. -1.
         -1   -1    0    0    0  501 -0.00000000000E+00 -0.00000000000E+00 -0.90080007900E+01  0.90080022000E+01  0.50400000000E-02 0.  1.
         24    2    1    2    0    0  0.00000000000E+00  0.44408920985E-15  0.16718797030E+03  0.18520397331E+03  0.79678694242E+02 0.  0.
         66    2    3    3    0    0  0.39713871111E+02 -0.20791518587E+01  0.88089786925E+02  0.96671221130E+02  0.20000007880E+01 0.  0.
        -13    1    3    3    0    0 -0.39713871111E+02  0.20791518587E+01  0.79098183372E+02  0.88532752176E+02  0.10566000000E+00 0.  1.
         13    1    4    4    0    0  0.25456783284E+02 -0.15260278568E+01  0.58411987282E+02  0.63736551511E+02  0.10566000000E+00 0. -1.
        -13    1    4    4    0    0  0.17582945989E+01 -0.11170649775E+00  0.33095156878E+01  0.37507514396E+01  0.10566000000E+00 0.  1.
         14    1    4    4    0    0  0.12498793228E+02 -0.44141750416E+00  0.26368283955E+02  0.29183918179E+02  0.00000000000E+00 0. -1.
<mgrwt>
<rscale>  0 0.79678694E+02</rscale>
<asrwt>0</asrwt>
<pdfrwt beam="1">  1        2 0.27107070E-01 0.79678694E+02</pdfrwt>
<pdfrwt beam="2">  1       -1 0.13858465E-02 0.79678694E+02</pdfrwt>
<totfact> 0.21347132E+05</totfact>
</mgrwt>
</event>
<event>
 8    1  0.1226832E-016  0.7507685E+02  0.7818608E-02  0.1343633E+00
         -1   -1    0    0    0  501 -0.00000000000E+00  0.00000000000E+00  0.97828059959E+02  0.97828060088E+02  0.50400000000E-02 0.  1.
          2   -1    0    0  501    0  0.00000000000E+00 -0.00000000000E+00 -0.14404183040E+02  0.14404183266E+02  0.25500000000E-02 0. -1.
         24    2    1    2    0    0  0.00000000000E+00  0.00000000000E+00  0.83423876919E+02  0.11223224335E+03  0.75076848683E+02 0.  0.
         66    2    3    3    0    0  0.46423953008E+00  0.37166604055E+02  0.34184240644E+02  0.50538443667E+02  0.20000011422E+01 0.  0.
        -13    1    3    3    0    0 -0.46423953008E+00 -0.37166604055E+02  0.49239636274E+02  0.61693799687E+02  0.10566000000E+00 0.  1.
         13    1    4    4    0    0  0.37572216330E+00  0.58977698612E+01  0.54835215045E+01  0.80625696032E+01  0.10566000000E+00 0. -1.
        -13    1    4    4    0    0 -0.26820241066E+00  0.14673091580E+02  0.14499108355E+02  0.20630241302E+02  0.10566000000E+00 0.  1.
         14    1    4    4    0    0  0.35671977744E+00  0.16595742614E+02  0.14201610784E+02  0.21845632762E+02  0.00000000000E+00 0. -1.
<mgrwt>
<rscale>  0 0.75076849E+02</rscale>
<asrwt>0</asrwt>
<pdfrwt beam="1">  1        2 0.22160283E-02 0.75076849E+02</pdfrwt>
<pdfrwt beam="2">  1       -1 0.15050470E-01 0.75076849E+02</pdfrwt>
<totfact> 0.13949297E+05</totfact>
</mgrwt>
</event>
<event>
 8    1  0.1226832E-016  0.8009210E+02  0.7818608E-02  0.1328790E+00
          2   -1    0    0  501    0  0.00000000000E+00  0.00000000000E+00  0.16046583499E+03  0.16046583501E+03  0.25500000000E-02 0. -1.
         -1   -1    0    0    0  501 -0.00000000000E+00 -0.00000000000E+00 -0.99939402874E+01  0.99939415582E+01  0.50400000000E-02 0.  1.
         24    2    1    2    0    0  0.00000000000E+00  0.00000000000E+00  0.15047189470E+03  0.17045977656E+03  0.80092099062E+02 0.  0.
         66    2    3    3    0    0  0.18037466447E+02  0.26604974368E+02  0.12602850317E+03  0.13007827820E+03  0.19999975141E+01 0.  0.
        -13    1    3    3    0    0 -0.18037466447E+02 -0.26604974368E+02  0.24443391525E+02  0.40381498365E+02  0.10566000000E+00 0.  1.
         13    1    4    4    0    0  0.70405302436E+01  0.11014734487E+02  0.51511492680E+02  0.53144505681E+02  0.10566000000E+00 0. -1.
        -13    1    4    4    0    0  0.86480105618E+01  0.11181732035E+02  0.54874603454E+02  0.56666149386E+02  0.10566000000E+00 0.  1.
         14    1    4    4    0    0  0.23489256417E+01  0.44085078464E+01  0.19642407039E+02  0.20267623132E+02  0.00000000000E+00 0. -1.
<mgrwt>
<rscale>  0 0.80092099E+02</rscale>
<asrwt>0</asrwt>
<pdfrwt beam="1">  1        2 0.24687050E-01 0.80092099E+02</pdfrwt>
<pdfrwt beam="2">  1       -1 0.15375295E-02 0.80092099E+02</pdfrwt>
<totfact> 0.20412071E+05</totfact>
</mgrwt>
</event>
<event>
 8    1  0.1226832E-016  0.7830722E+02  0.7818608E-02  0.1333925E+00
          2   -1    0    0  501    0  0.00000000000E+00  0.00000000000E+00  0.42202811514E+02  0.42202811591E+02  0.25500000000E-02 0. -1.
         -1   -1    0    0    0  501 -0.00000000000E+00 -0.00000000000E+00 -0.36324715063E+02  0.36324715412E+02  0.50400000000E-02 0.  1.
         24    2    1    2    0    0  0.00000000000E+00  0.00000000000E+00  0.58780964514E+01  0.78527527003E+02  0.78307218565E+02 0.  0.
         66    2    3    3    0    0  0.18428171152E+02 -0.22378349808E+02  0.29294395180E+02  0.41261963244E+02  0.19999974022E+01 0.  0.
        -13    1    3    3    0    0 -0.18428171152E+02  0.22378349808E+02 -0.23416298729E+02  0.37265563760E+02  0.10566000000E+00 0.  1.
         13    1    4    4    0    0  0.57977616597E+01 -0.80806031169E+01  0.10921832512E+02  0.14771857583E+02  0.10566000000E+00 0. -1.
        -13    1    4    4    0    0  0.35110141330E+01 -0.36911849511E+01  0.49145073806E+01  0.70792381945E+01  0.10566000000E+00 0.  1.
         14    1    4    4    0    0  0.91193953592E+01 -0.10606561740E+02  0.13458055287E+02  0.19410867466E+02  0.00000000000E+00 0. -1.
<mgrwt>
<rscale>  0 0.78307219E+02</rscale>
<asrwt>0</asrwt>
<pdfrwt beam="1">  1        2 0.64927402E-02 0.78307219E+02</pdfrwt>
<pdfrwt beam="2">  1       -1 0.55884178E-02 0.78307219E+02</pdfrwt>
<totfact> 0.15288387E+05</totfact>
</mgrwt>
</event>
<event>
 8    1  0.1226832E-016  0.7865572E+02  0.7818608E-02  0.1332910E+00
         -1   -1    0    0    0  501 -0.00000000000E+00  0.00000000000E+00  0.90801991160E+01  0.90802005147E+01  0.50400000000E-02 0.  1.
          2   -1    0    0  501    0  0.00000000000E+00 -0.00000000000E+00 -0.17033550651E+03  0.17033550653E+03  0.25500000000E-02 0. -1.
         24    2    1    2    0    0  0.00000000000E+00  0.00000000000E+00 -0.16125530739E+03  0.17941570704E+03  0.78655716710E+02 0.  0.
         66    2    3    3    0    0 -0.17729618759E+02 -0.21241795515E+02 -0.14434936216E+03  0.14699078751E+03  0.20000001035E+01 0.  0.
        -13    1    3    3    0    0  0.17729618759E+02  0.21241795515E+02 -0.16905945231E+02  0.32424919526E+02  0.10566000000E+00 0.  1.
         13    1    4    4    0    0 -0.53794663807E+01 -0.72282436040E+01 -0.45019424156E+02  0.45912371748E+02  0.10566000000E+00 0. -1.
        -13    1    4    4    0    0 -0.72250866129E+01 -0.76143798770E+01 -0.58267634029E+02  0.59205650041E+02  0.10566000000E+00 0.  1.
        -14    1    4    4    0    0 -0.51250657650E+01 -0.63991720343E+01 -0.41062303973E+02  0.41872765725E+02  0.00000000000E+00 0.  1.
<mgrwt>
<rscale>  0 0.78655717E+02</rscale>
<asrwt>0</asrwt>
<pdfrwt beam="1">  1        2 0.26205460E-01 0.78655717E+02</pdfrwt>
<pdfrwt beam="2">  1       -1 0.13969539E-02 0.78655717E+02</pdfrwt>
<totfact> 0.21840164E+05</totfact>
</mgrwt>
</event>
<event>
 8    1  0.1226832E-016  0.8149080E+02  0.7818608E-02  0.1324873E+00
          2   -1    0    0  501    0  0.00000000000E+00  0.00000000000E+00  0.12298887251E+04  0.12298887251E+04  0.25500000000E-02 0. -1.
         -1   -1    0    0    0  501 -0.00000000000E+00 -0.00000000000E+00 -0.13498635006E+01  0.13498729096E+01  0.50400000000E-02 0.  1.
         24    2    1    2    0    0  0.22204460493E-15  0.00000000000E+00  0.12285388616E+04  0.12312385980E+04  0.81490801782E+02 0.  0.
         66    2    3    3    0    0  0.11312128425E+01 -0.28175028999E+02  0.10585094730E+04  0.10588868761E+04  0.20000001435E+01 0.  0.
        -13    1    3    3    0    0 -0.11312128425E+01  0.28175028999E+02  0.17002938856E+03  0.17235172189E+03  0.10566000000E+00 0.  1.
         13    1    4    4    0    0  0.38129298968E+00 -0.23175211377E+01  0.93551518008E+02  0.93581055638E+02  0.10566000000E+00 0. -1.
        -13    1    4    4    0    0  0.12044204019E+01 -0.19833161495E+02  0.74408223035E+03  0.74434748714E+03  0.10566000000E+00 0.  1.
         14    1    4    4    0    0 -0.45450054907E+00 -0.60243463654E+01  0.22087572465E+03  0.22095833331E+03  0.00000000000E+00 0. -1.
<mgrwt>
<rscale>  0 0.81490802E+02</rscale>
<asrwt>0</asrwt>
<pdfrwt beam="1">  1        2 0.18921318E+00 0.81490802E+02</pdfrwt>
<pdfrwt beam="2">  1       -1 0.20767254E-03 0.81490802E+02</pdfrwt>
<totfact> 0.33296021E+05</totfact>
</mgrwt>
</event>
<event>
 8    1  0.1226832E-016  0.8443818E+02  0.7818608E-02  0.1316908E+00
          2   -1    0    0  501    0  0.00000000000E+00  0.00000000000E+00  0.39903754346E+02  0.39903754428E+02  0.25500000000E-02 0. -1.
         -1   -1    0    0    0  501 -0.00000000000E+00 -0.00000000000E+00 -0.44668767345E+02  0.44668767630E+02  0.50400000000E-02 0.  1.
         24    2    1    2    0    0  0.00000000000E+00  0.00000000000E+00 -0.47650129989E+01  0.84572522057E+02  0.84438179387E+02 0.  0.
         66    2    3    3    0    0 -0.95171794966E+01  0.78482164008E+01  0.38032254508E+02  0.40032781641E+02  0.20000041705E+01 0.  0.
        -13    1    3    3    0    0  0.95171794966E+01 -0.78482164008E+01 -0.42797267507E+02  0.44539740416E+02  0.10566000000E+00 0.  1.
         13    1    4    4    0    0 -0.22252810652E+01  0.13998732555E+01  0.99228608472E+01  0.10265761169E+02  0.10566000000E+00 0. -1.
        -13    1    4    4    0    0 -0.23767901035E+01  0.19551855119E+01  0.74682033595E+01  0.80781871132E+01  0.10566000000E+00 0.  1.
         14    1    4    4    0    0 -0.49151083278E+01  0.44931576335E+01  0.20641190302E+02  0.21688833359E+02  0.00000000000E+00 0. -1.
<mgrwt>
<rscale>  0 0.84438179E+02</rscale>
<asrwt>0</asrwt>
<pdfrwt beam="1">  1        2 0.61390392E-02 0.84438179E+02</pdfrwt>
<pdfrwt beam="2">  1       -1 0.68721181E-02 0.84438179E+02</pdfrwt>
<totfact> 0.12264546E+05</totfact>
</mgrwt>
</event>
<event>
 8    1  0.1226832E-016  0.8054785E+02  0.7818608E-02  0.1327504E+00
          2   -1    0    0  501    0  0.00000000000E+00  0.00000000000E+00  0.15745911780E+03  0.15745911782E+03  0.25500000000E-02 0. -1.
         -1   -1    0    0    0  501 -0.00000000000E+00 -0.00000000000E+00 -0.10301015947E+02  0.10301017180E+02  0.50400000000E-02 0.  1.
         24    2    1    2    0    0  0.00000000000E+00  0.00000000000E+00  0.14715810185E+03  0.16776013500E+03  0.80547848850E+02 0.  0.
         66    2    3    3    0    0 -0.22046753506E+02  0.67046735900E+01  0.14235378763E+03  0.14422070877E+03  0.19999995987E+01 0.  0.
        -13    1    3    3    0    0  0.22046753506E+02 -0.67046735900E+01  0.48043142279E+01  0.23539426232E+02  0.10566000000E+00 0.  1.
         13    1    4    4    0    0 -0.42988807058E+01  0.90610934825E+00  0.26055639724E+02  0.26423643484E+02  0.10566000000E+00 0. -1.
        -13    1    4    4    0    0 -0.61875669278E+01  0.13413517946E+01  0.41181131594E+02  0.41665116975E+02  0.10566000000E+00 0.  1.
         14    1    4    4    0    0 -0.11560305872E+02  0.44572124472E+01  0.75117016308E+02  0.76131948311E+02  0.00000000000E+00 0. -1.
<mgrwt>
<rscale>  0 0.80547849E+02</rscale>
<asrwt>0</asrwt>
<pdfrwt beam="1">  1        2 0.24224480E-01 0.80547849E+02</pdfrwt>
<pdfrwt beam="2">  1       -1 0.15847717E-02 0.80547849E+02</pdfrwt>
<totfact> 0.19982980E+05</totfact>
</mgrwt>
</event>
<event>
 8    1  0.1226832E-016  0.8090188E+02  0.7818608E-02  0.1326511E+00
          2   -1    0    0  501    0  0.00000000000E+00  0.00000000000E+00  0.75437793874E+02  0.75437793918E+02  0.25500000000E-02 0. -1.
         -1   -1    0    0    0  501 -0.00000000000E+00 -0.00000000000E+00 -0.21690433900E+02  0.21690434485E+02  0.50400000000E-02 0.  1.
         24    2    1    2    0    0  0.00000000000E+00  0.00000000000E+00  0.53747359975E+02  0.97128228403E+02  0.80901879140E+02 0.  0.
         66    2    3    3    0    0  0.93115840431E+01 -0.23777943622E+02  0.64515517320E+02  0.69414322562E+02  0.20000003772E+01 0.  0.
        -13    1    3    3    0    0 -0.93115840431E+01  0.23777943622E+02 -0.10768157345E+02  0.27713905840E+02  0.10566000000E+00 0.  1.
         13    1    4    4    0    0  0.83945910973E+01 -0.21413906313E+02  0.58516065713E+02  0.62874204995E+02  0.10566000000E+00 0. -1.
        -13    1    4    4    0    0 -0.40113891646E-01 -0.13575295894E+00  0.47606355274E+00  0.50777803420E+00  0.10566000000E+00 0.  1.
         14    1    4    4    0    0  0.95710683751E+00 -0.22282843507E+01  0.55233880540E+01  0.60323395329E+01  0.00000000000E+00 0. -1.
<mgrwt>
<rscale>  0 0.80901879E+02</rscale>
<asrwt>0</asrwt>
<pdfrwt beam="1">  1        2 0.11605815E-01 0.80901879E+02</pdfrwt>
<pdfrwt beam="2">  1       -1 0.33369899E-02 0.80901879E+02</pdfrwt>
<totfact> 0.15957615E+05</totfact>
</mgrwt>
</event>
<event>
 8    1  0.1226832E-016  0.8054794E+02  0.7818608E-02  0.1327504E+00
          2   -1    0    0  501    0  0.00000000000E+00  0.00000000000E+00  0.27592503462E+02  0.27592503580E+02  0.25500000000E-02 0. -1.
         -1   -1    0    0    0  501 -0.00000000000E+00 -0.00000000000E+00 -0.58783812682E+02  0.58783812898E+02  0.50400000000E-02 0.  1.
         24    2    1    2    0    0  0.35527136788E-14  0.00000000000E+00 -0.31191309220E+02  0.86376316478E+02  0.80547937761E+02 0.  0.
         66    2    3    3    0    0  0.27037631521E+02 -0.22063555534E+02  0.58995980857E+01  0.35449107937E+02  0.19999987159E+01 0.  0.
        -13    1    3    3    0    0 -0.27037631521E+02  0.22063555534E+02 -0.37090907306E+02  0.50927208542E+02  0.10566000000E+00 0.  1.
         13    1    4    4    0    0  0.54078218392E+01 -0.50182417862E+01  0.63524139685E+00  0.74055373429E+01  0.10566000000E+00 0. -1.
        -13    1    4    4    0    0  0.20974856077E+02 -0.16647998408E+02  0.51099645299E+01  0.27262122808E+02  0.10566000000E+00 0.  1.
         14    1    4    4    0    0  0.65495360469E+00 -0.39731533941E+00  0.15439215897E+00  0.78144778583E+00  0.00000000000E+00 0. -1.
<mgrwt>
<rscale>  0 0.80547938E+02</rscale>
<asrwt>0</asrwt>
<pdfrwt beam="1">  1        2 0.42450005E-02 0.80547938E+02</pdfrwt>
<pdfrwt beam="2">  1       -1 0.90436636E-02 0.80547938E+02</pdfrwt>
<totfact> 0.12983189E+05</totfact>
</mgrwt>
</event>
<event>
 8    1  0.1226832E-016  0.7946436E+02  0.7818608E-02  0.1330578E+00
          2   -1    0    0  501    0  0.00000000000E+00  0.00000000000E+00  0.28964661522E+02  0.28964661635E+02  0.25500000000E-02 0. -1.
         -1   -1    0    0    0  501 -0.00000000000E+00 -0.00000000000E+00 -0.54502483773E+02  0.54502484006E+02  0.50400000000E-02 0.  1.
         24    2    1    2    0    0  0.17763568394E-14 -0.71054273576E-14 -0.25537822251E+02  0.83467145641E+02  0.79464357017E+02 0.  0.
         66    2    3    3    0    0  0.10182868925E+02 -0.34540771227E+02  0.47955119564E+01  0.36383411458E+02  0.19999994694E+01 0.  0.
        -13    1    3    3    0    0 -0.10182868925E+02  0.34540771227E+02 -0.30333334207E+02  0.47083734184E+02  0.10566000000E+00 0.  1.
         13    1    4    4    0    0  0.32849349014E+01 -0.99140416321E+01  0.21068494138E+01  0.10654998699E+02  0.10566000000E+00 0. -1.
        -13    1    4    4    0    0  0.13324630049E+00 -0.41404621204E+00  0.51753645331E-01  0.45058996627E+00  0.10566000000E+00 0. -1.
        -14    1    4    4    0    0  0.67646877235E+01 -0.24212683383E+02  0.26369088973E+01  0.25277822792E+02  0.00000000000E+00 0.  1.
<mgrwt>
<rscale>  0 0.79464357E+02</rscale>
<asrwt>0</asrwt>
<pdfrwt beam="1">  1        2 0.44561018E-02 0.79464357E+02</pdfrwt>
<pdfrwt beam="2">  1       -1 0.83849975E-02 0.79464357E+02</pdfrwt>
<totfact> 0.13616677E+05</totfact>
</mgrwt>
</event>
<event>
 8    1  0.1226832E-016  0.7965528E+02  0.7818608E-02  0.1330033E+00
          2   -1    0    0  501    0  0.00000000000E+00  0.00000000000E+00  0.24022604213E+02  0.24022604348E+02  0.25500000000E-02 0. -1.
         -1   -1    0    0    0  501 -0.00000000000E+00 -0.00000000000E+00 -0.66031173537E+02  0.66031173729E+02  0.50400000000E-02 0.  1.
         24    2    1    2    0    0  0.00000000000E+00  0.00000000000E+00 -0.42008569324E+02  0.90053778077E+02  0.79655276344E+02 0.  0.
         66    2    3    3    0    0  0.11056014416E+02 -0.24094315709E+02  0.12547750493E+02  0.29397577239E+02  0.20000002099E+01 0.  0.
        -13    1    3    3    0    0 -0.11056014416E+02  0.24094315709E+02 -0.54556319817E+02  0.60656200839E+02  0.10566000000E+00 0.  1.
         13    1    4    4    0    0  0.82491078189E+01 -0.17872275807E+02  0.88900383819E+01  0.21598841839E+02  0.10566000000E+00 0. -1.
        -13    1    4    4    0    0  0.14771614140E+01 -0.42362933495E+01  0.25873824948E+01  0.51801447273E+01  0.10566000000E+00 0.  1.
        -14    1    4    4    0    0  0.13297451828E+01 -0.19857465526E+01  0.10703296160E+01  0.26185906723E+01  0.00000000000E+00 0.  1.
<mgrwt>
<rscale>  0 0.79655276E+02</rscale>
<asrwt>0</asrwt>
<pdfrwt beam="1">  1        2 0.36957853E-02 0.79655276E+02</pdfrwt>
<pdfrwt beam="2">  1       -1 0.10158642E-01 0.79655276E+02</pdfrwt>
<totfact> 0.13037282E+05</totfact>
</mgrwt>
</event>
<event>
 8    1  0.1226832E-016  0.8772038E+02  0.7818608E-02  0.1308468E+00
          2   -1    0    0  501    0  0.00000000000E+00  0.00000000000E+00  0.21223708323E+03  0.21223708324E+03  0.25500000000E-02 0. -1.
         -1   -1    0    0    0  501 -0.00000000000E+00 -0.00000000000E+00 -0.90639964356E+01  0.90639978369E+01  0.50400000000E-02 0.  1.
         24    2    1    2    0    0  0.00000000000E+00  0.00000000000E+00  0.20317308679E+03  0.22130108108E+03  0.87720381272E+02 0.  0.
         66    2    3    3    0    0  0.25634750573E+02 -0.12051765671E+02  0.18604286263E+03  0.18819758826E+03  0.19999999865E+01 0.  0.
        -13    1    3    3    0    0 -0.25634750573E+02  0.12051765671E+02  0.17130224161E+02  0.33103492815E+02  0.10566000000E+00 0.  1.
         13    1    4    4    0    0  0.58662997636E+01 -0.21801242075E+01  0.38396525560E+02  0.38903351444E+02  0.10566000000E+00 0.  1.
        -13    1    4    4    0    0  0.14438447980E+02 -0.67310106265E+01  0.10754818122E+03  0.10872165254E+03  0.10566000000E+00 0. -1.
        -14    1    4    4    0    0  0.53300028292E+01 -0.31406308374E+01  0.40098155851E+02  0.40572584276E+02  0.00000000000E+00 0.  1.
<mgrwt>
<rscale>  0 0.87720381E+02</rscale>
<asrwt>0</asrwt>
<pdfrwt beam="1">  1        2 0.32651858E-01 0.87720381E+02</pdfrwt>
<pdfrwt beam="2">  1       -1 0.13944612E-02 0.87720381E+02</pdfrwt>
<totfact> 0.17644685E+05</totfact>
</mgrwt>
</event>
<event>
 8    1  0.1226832E-016  0.7962330E+02  0.7818608E-02  0.1330124E+00
          2   -1    0    0  501    0  0.00000000000E+00  0.00000000000E+00  0.44911003503E+03  0.44911003504E+03  0.25500000000E-02 0. -1.
         -1   -1    0    0    0  501 -0.00000000000E+00 -0.00000000000E+00 -0.35291276547E+01  0.35291312535E+01  0.50400000000E-02 0.  1.
         24    2    1    2    0    0  0.35527136788E-14  0.00000000000E+00  0.44558090738E+03  0.45263916629E+03  0.79623299624E+02 0.  0.
         66    2    3    3    0    0 -0.22132693756E+02  0.21210198007E+02  0.36710776829E+03  0.36839088230E+03  0.19999988113E+01 0.  0.
        -13    1    3    3    0    0  0.22132693756E+02 -0.21210198007E+02  0.78473139090E+02  0.84248283989E+02  0.10566000000E+00 0.  1.
         13    1    4    4    0    0 -0.39371669368E+01  0.39739906401E+01  0.69789199117E+02  0.70013122788E+02  0.10566000000E+00 0. -1.
        -13    1    4    4    0    0 -0.31308315798E+01  0.30219577854E+01  0.44621414230E+02  0.44833203178E+02  0.10566000000E+00 0.  1.
         14    1    4    4    0    0 -0.15064695240E+02  0.14214249582E+02  0.25269715494E+03  0.25354455634E+03  0.00000000000E+00 0. -1.
<mgrwt>
<rscale>  0 0.79623300E+02</rscale>
<asrwt>0</asrwt>
<pdfrwt beam="1">  1        2 0.69093856E-01 0.79623300E+02</pdfrwt>
<pdfrwt beam="2">  1       -1 0.54294296E-03 0.79623300E+02</pdfrwt>
<totfact> 0.29763121E+05</totfact>
</mgrwt>
</event>
<event>
 8    1  0.1226832E-016  0.8268671E+02  0.7818608E-02  0.1321595E+00
         -1   -1    0    0    0  501 -0.00000000000E+00  0.00000000000E+00  0.70473706073E+02  0.70473706253E+02  0.50400000000E-02 0.  1.
          2   -1    0    0  501    0  0.00000000000E+00 -0.00000000000E+00 -0.24254053993E+02  0.24254054127E+02  0.25500000000E-02 0. -1.
         24    2    1    2    0    0  0.27755575616E-16  0.00000000000E+00  0.46219652080E+02  0.94727760380E+02  0.82686712042E+02 0.  0.
         66    2    3    3    0    0  0.15916911462E+00 -0.31951641961E+02 -0.68897118356E+01  0.32747534031E+02  0.20000242857E+01 0.  0.
        -13    1    3    3    0    0 -0.15916911462E+00  0.31951641961E+02  0.53109363915E+02  0.61980226349E+02  0.10566000000E+00 0.  1.
         13    1    4    4    0    0  0.25872634821E+00 -0.52356394890E+01 -0.17832358845E+01  0.55380460848E+01  0.10566000000E+00 0. -1.
        -13    1    4    4    0    0 -0.29935493908E+00 -0.14860737528E+02 -0.25804731477E+01  0.15086455480E+02  0.10566000000E+00 0.  1.
         14    1    4    4    0    0  0.19979770549E+00 -0.11855264943E+02 -0.25260028034E+01  0.12123032466E+02  0.00000000000E+00 0. -1.
<mgrwt>
<rscale>  0 0.82686712E+02</rscale>
<asrwt>0</asrwt>
<pdfrwt beam="1">  1        2 0.37313930E-02 0.82686712E+02</pdfrwt>
<pdfrwt beam="2">  1       -1 0.10842109E-01 0.82686712E+02</pdfrwt>
<totfact> 0.11745365E+05</totfact>
</mgrwt>
</event>
<event>
 8    1  0.1557462E-016  0.7878737E+02  0.7818608E-02  0.1332528E+00
          2   -1    0    0  501    0  0.00000000000E+00  0.00000000000E+00  0.76098664945E+02  0.76098664988E+02  0.25500000000E-02 0. -1.
         -1   -1    0    0    0  501 -0.00000000000E+00 -0.00000000000E+00 -0.20392766019E+02  0.20392766641E+02  0.50400000000E-02 0.  1.
         24    2    1    2    0    0  0.00000000000E+00  0.00000000000E+00  0.55705898927E+02  0.96491431629E+02  0.78787367025E+02 0.  0.
         66    2    3    3    0    0  0.66223789227E+01 -0.18727840652E+02  0.69497722128E+02  0.72308514739E+02  0.20000011687E+01 0.  0.
        -13    1    3    3    0    0 -0.66223789227E+01  0.18727840652E+02 -0.13791823201E+02  0.24182916891E+02  0.10566000000E+00 0.  1.
         13    1    4    4    0    0  0.31174273824E+01 -0.82198934469E+01  0.30675897424E+02  0.31910920522E+02  0.10566000000E+00 0. -1.
        -13    1    4    4    0    0  0.32538996558E+01 -0.79170229646E+01  0.30455294151E+02  0.31635474099E+02  0.10566000000E+00 0.  1.
        -14    1    4    4    0    0  0.25105188453E+00 -0.25909242404E+01  0.83665305532E+01  0.87621201183E+01  0.00000000000E+00 0.  1.
<mgrwt>
<rscale>  0 0.78787367E+02</rscale>
<asrwt>0</asrwt>
<pdfrwt beam="1">  1        2 0.11707487E-01 0.78787367E+02</pdfrwt>
<pdfrwt beam="2">  1       -1 0.31373487E-02 0.78787367E+02</pdfrwt>
<totfact> 0.17177935E+05</totfact>
</mgrwt>
</event>
<event>
 8    1  0.1226832E-016  0.8119884E+02  0.7818608E-02  0.1325683E+00
          2   -1    0    0  501    0  0.00000000000E+00  0.00000000000E+00  0.11248840581E+03  0.11248840584E+03  0.25500000000E-02 0. -1.
         -1   -1    0    0    0  501 -0.00000000000E+00 -0.00000000000E+00 -0.14653180645E+02  0.14653181512E+02  0.50400000000E-02 0.  1.
         24    2    1    2    0    0  0.35527136788E-14  0.00000000000E+00  0.97835225169E+02  0.12714158735E+03  0.81198842055E+02 0.  0.
         66    2    3    3    0    0 -0.18297418294E+02  0.24491691582E+01  0.10552272924E+03  0.10714401678E+03  0.20000001051E+01 0.  0.
        -13    1    3    3    0    0  0.18297418294E+02 -0.24491691582E+01 -0.76875040720E+01  0.19997570570E+02  0.10566000000E+00 0.  1.
         13    1    4    4    0    0 -0.10105907413E+02  0.83420186214E+00  0.60062409013E+02  0.60912473253E+02  0.10566000000E+00 0. -1.
        -13    1    4    4    0    0 -0.33332148649E+01  0.30428251850E+00  0.16333289094E+02  0.16673044288E+02  0.10566000000E+00 0.  1.
        -14    1    4    4    0    0 -0.48582960169E+01  0.13106847775E+01  0.29127031135E+02  0.29558499243E+02  0.00000000000E+00 0.  1.
<mgrwt>
<rscale>  0 0.81198842E+02</rscale>
<asrwt>0</asrwt>
<pdfrwt beam="1">  1        2 0.17305909E-01 0.81198842E+02</pdfrwt>
<pdfrwt beam="2">  1       -1 0.22543355E-02 0.81198842E+02</pdfrwt>
<totfact> 0.17618103E+05</totfact>
</mgrwt>
</event>
<event>
 8    1  0.1226832E-016  0.7867695E+02  0.7818608E-02  0.1332849E+00
         -1   -1    0    0    0  501 -0.00000000000E+00  0.00000000000E+00  0.27054146495E+03  0.27054146500E+03  0.50400000000E-02 0.  1.
          2   -1    0    0  501    0  0.00000000000E+00 -0.00000000000E+00 -0.57200677475E+01  0.57200683159E+01  0.25500000000E-02 0. -1.
         24    2    1    2    0    0 -0.71054273576E-14  0.00000000000E+00  0.26482139721E+03  0.27626153332E+03  0.78676949434E+02 0.  0.
         66    2    3    3    0    0  0.33732418581E+02 -0.87144756121E+01  0.68545995800E+02  0.76917954263E+02  0.19999998305E+01 0.  0.
        -13    1    3    3    0    0 -0.33732418581E+02  0.87144756121E+01  0.19627540141E+03  0.19934357905E+03  0.10566000000E+00 0.  1.
         13    1    4    4    0    0  0.61614591575E+01 -0.14627018884E+01  0.11848319548E+02  0.13434914064E+02  0.10566000000E+00 0. -1.
        -13    1    4    4    0    0  0.11037798165E+02 -0.37345292399E+01  0.23291661586E+02  0.26044046545E+02  0.10566000000E+00 0.  1.
        -14    1    4    4    0    0  0.16533161259E+02 -0.35172444838E+01  0.33406014665E+02  0.37438993654E+02  0.00000000000E+00 0.  1.
<mgrwt>
<rscale>  0 0.78676949E+02</rscale>
<asrwt>0</asrwt>
<pdfrwt beam="1">  1        2 0.88001049E-03 0.78676949E+02</pdfrwt>
<pdfrwt beam="2">  1       -1 0.41621763E-01 0.78676949E+02</pdfrwt>
<totfact> 0.93908754E+04</totfact>
</mgrwt>
</event>
<event>
 8    1  0.1226832E-016  0.8231234E+02  0.7818608E-02  0.1322615E+00
         -1   -1    0    0    0  501 -0.00000000000E+00  0.00000000000E+00  0.83729018030E+01  0.83729033199E+01  0.50400000000E-02 0.  1.
          2   -1    0    0  501    0  0.00000000000E+00 -0.00000000000E+00 -0.20229908184E+03  0.20229908186E+03  0.25500000000E-02 0. -1.
         24    2    1    2    0    0 -0.17763568394E-14  0.00000000000E+00 -0.19392618004E+03  0.21067198518E+03  0.82312344362E+02 0.  0.
         66    2    3    3    0    0 -0.15252888217E+02 -0.34749061402E+02 -0.13762373749E+03  0.14277409075E+03  0.20000000424E+01 0.  0.
        -13    1    3    3    0    0  0.15252888217E+02  0.34749061402E+02 -0.56302442545E+02  0.67897894429E+02  0.10566000000E+00 0.  1.
         13    1    4    4    0    0 -0.12003994043E+01 -0.26305615166E+01 -0.11552326857E+02  0.11909165901E+02  0.10566000000E+00 0. -1.
        -13    1    4    4    0    0 -0.30296074846E+01 -0.64792372768E+01 -0.28074531433E+02  0.28971529411E+02  0.10566000000E+00 0.  1.
        -14    1    4    4    0    0 -0.11022881328E+02 -0.25639262609E+02 -0.97996879205E+02  0.10189339544E+03  0.00000000000E+00 0.  1.
<mgrwt>
<rscale>  0 0.82312344E+02</rscale>
<asrwt>0</asrwt>
<pdfrwt beam="1">  1        2 0.31122932E-01 0.82312344E+02</pdfrwt>
<pdfrwt beam="2">  1       -1 0.12881390E-02 0.82312344E+02</pdfrwt>
<totfact> 0.20540342E+05</totfact>
</mgrwt>
</event>
<event>
 8    1  0.1226832E-016  0.7946542E+02  0.7818608E-02  0.1330575E+00
         -1   -1    0    0    0  501 -0.00000000000E+00  0.00000000000E+00  0.18968146172E+01  0.18968213130E+01  0.50400000000E-02 0.  1.
          2   -1    0    0  501    0  0.00000000000E+00 -0.00000000000E+00 -0.83228239381E+03  0.83228239381E+03  0.25500000000E-02 0. -1.
         24    2    1    2    0    0 -0.71054273576E-14 -0.35527136788E-14 -0.83038557919E+03  0.83417921513E+03  0.79465419009E+02 0.  0.
         66    2    3    3    0    0  0.21315473508E+02  0.19405600751E+02 -0.70212338040E+03  0.70271770154E+03  0.20000004493E+01 0.  0.
        -13    1    3    3    0    0 -0.21315473508E+02 -0.19405600751E+02 -0.12826219879E+03  0.13146151359E+03  0.10566000000E+00 0.  1.
         13    1    4    4    0    0  0.15288666638E+01  0.14229747765E+01 -0.55515471572E+02  0.55554847119E+02  0.10566000000E+00 0. -1.
        -13    1    4    4    0    0  0.33626515770E+01  0.27233773441E+01 -0.91137345623E+02  0.91240074206E+02  0.10566000000E+00 0.  1.
         14    1    4    4    0    0  0.16423955267E+02  0.15259248631E+02 -0.55547056321E+03  0.55592278022E+03  0.00000000000E+00 0. -1.
<mgrwt>
<rscale>  0 0.79465419E+02</rscale>
<asrwt>0</asrwt>
<pdfrwt beam="1">  1        2 0.12804315E+00 0.79465419E+02</pdfrwt>
<pdfrwt beam="2">  1       -1 0.29181881E-03 0.79465419E+02</pdfrwt>
<totfact> 0.35195040E+05</totfact>
</mgrwt>
</event>
<event>
 8    1  0.1226832E-016  0.7883003E+02  0.7818608E-02  0.1332405E+00
         -1   -1    0    0    0  501 -0.00000000000E+00  0.00000000000E+00  0.13611383288E+03  0.13611383298E+03  0.50400000000E-02 0.  1.
          2   -1    0    0  501    0  0.00000000000E+00 -0.00000000000E+00 -0.11413560037E+02  0.11413560322E+02  0.25500000000E-02 0. -1.
         24    2    1    2    0    0  0.17763568394E-14  0.35527136788E-14  0.12470027285E+03  0.14752739330E+03  0.78830030608E+02 0.  0.
         66    2    3    3    0    0 -0.97791128127E+01 -0.29232866971E+02  0.16497467635E+02  0.35019394569E+02  0.19999997010E+01 0.  0.
        -13    1    3    3    0    0  0.97791128127E+01  0.29232866971E+02  0.10820280521E+03  0.11250799873E+03  0.10566000000E+00 0.  1.
         13    1    4    4    0    0 -0.22554863685E-01 -0.10036535797E+00  0.68973419634E-01  0.16279832669E+00  0.10566000000E+00 0. -1.
        -13    1    4    4    0    0 -0.42996125322E+01 -0.12185256330E+02  0.63533202655E+01  0.14399409092E+02  0.10566000000E+00 0. -1.
         14    1    4    4    0    0 -0.54569454168E+01 -0.16947245283E+02  0.10075173950E+02  0.20457187150E+02  0.00000000000E+00 0. -1.
<mgrwt>
<rscale>  0 0.78830031E+02</rscale>
<asrwt>0</asrwt>
<pdfrwt beam="1">  1        2 0.17559323E-02 0.78830031E+02</pdfrwt>
<pdfrwt beam="2">  1       -1 0.20940590E-01 0.78830031E+02</pdfrwt>
<totfact> 0.11469045E+05</totfact>
</mgrwt>
</event>
<event>
 8    1  0.1639622E-016  0.8007079E+02  0.7818608E-02  0.1328851E+00
         -1   -1    0    0    0  501 -0.00000000000E+00  0.00000000000E+00  0.13254427049E+03  0.13254427058E+03  0.50400000000E-02 0.  1.
          2   -1    0    0  501    0  0.00000000000E+00 -0.00000000000E+00 -0.12092810236E+02  0.12092810505E+02  0.25500000000E-02 0. -1.
         24    2    1    2    0    0  0.00000000000E+00  0.00000000000E+00  0.12045146025E+03  0.14463708109E+03  0.80070787114E+02 0.  0.
         66    2    3    3    0    0 -0.13751826488E+02 -0.21098478040E+02  0.41038537829E+01  0.25594923840E+02  0.20000007971E+01 0.  0.
        -13    1    3    3    0    0  0.13751826488E+02  0.21098478040E+02  0.11634760647E+03  0.11904215725E+03  0.10566000000E+00 0.  1.
         13    1    4    4    0    0 -0.79546868633E+01 -0.12508099627E+02  0.23114355783E+01  0.15002783003E+02  0.10566000000E+00 0. -1.
        -13    1    4    4    0    0 -0.57507391802E+01 -0.85660407445E+01  0.16611112142E+01  0.10450765984E+02  0.10566000000E+00 0.  1.
        -14    1    4    4    0    0 -0.46400443968E-01 -0.24337668112E-01  0.13130699046E+00  0.14137485290E+00  0.00000000000E+00 0.  1.
<mgrwt>
<rscale>  0 0.80070787E+02</rscale>
<asrwt>0</asrwt>
<pdfrwt beam="1">  1        2 0.18604323E-02 0.80070787E+02</pdfrwt>
<pdfrwt beam="2">  1       -1 0.20391427E-01 0.80070787E+02</pdfrwt>
<totfact> 0.11097432E+05</totfact>
</mgrwt>
</event>
<event>
 8    1  0.1226832E-016  0.8013683E+02  0.7818608E-02  0.1328664E+00
         -1   -1    0    0    0  501 -0.00000000000E+00  0.00000000000E+00  0.52887617991E+02  0.52887618231E+02  0.50400000000E-02 0.  1.
          2   -1    0    0  501    0  0.00000000000E+00 -0.00000000000E+00 -0.30356399729E+02  0.30356399836E+02  0.25500000000E-02 0. -1.
         24    2    1    2    0    0  0.00000000000E+00 -0.17763568394E-14  0.22531218261E+02  0.83244018067E+02  0.80136825166E+02 0.  0.
         66    2    3    3    0    0 -0.36285185627E+02  0.15464236581E+02  0.18448075222E+02  0.43590007801E+02  0.19999979303E+01 0.  0.
        -13    1    3    3    0    0  0.36285185627E+02 -0.15464236581E+02  0.40831430396E+01  0.39654010266E+02  0.10566000000E+00 0.  1.
         13    1    4    4    0    0 -0.96101808456E+01  0.46872970841E+01  0.54788990524E+01  0.12014817048E+02  0.10566000000E+00 0. -1.
        -13    1    4    4    0    0 -0.69799564722E+01  0.28040025475E+01  0.38892814451E+01  0.84687600530E+01  0.10566000000E+00 0.  1.
        -14    1    4    4    0    0 -0.19695048309E+02  0.79729369495E+01  0.90798947241E+01  0.23106430700E+02  0.00000000000E+00 0.  1.
<mgrwt>
<rscale>  0 0.80136825E+02</rscale>
<asrwt>0</asrwt>
<pdfrwt beam="1">  1        2 0.46702154E-02 0.80136825E+02</pdfrwt>
<pdfrwt beam="2">  1       -1 0.81365567E-02 0.80136825E+02</pdfrwt>
<totfact> 0.13422227E+05</totfact>
</mgrwt>
</event>
<event>
 8    1  0.1226832E-016  0.7508031E+02  0.7818608E-02  0.1343623E+00
         -1   -1    0    0    0  501 -0.00000000000E+00  0.00000000000E+00  0.16482721898E+03  0.16482721906E+03  0.50400000000E-02 0.  1.
          2   -1    0    0  501    0  0.00000000000E+00 -0.00000000000E+00 -0.85499426074E+01  0.85499429877E+01  0.25500000000E-02 0. -1.
         24    2    1    2    0    0 -0.35527136788E-14  0.00000000000E+00  0.15627727637E+03  0.17337716204E+03  0.75080311722E+02 0.  0.
         66    2    3    3    0    0 -0.27209172404E+02 -0.24330870856E+02  0.58205066217E+02  0.68732525735E+02  0.20000052717E+01 0.  0.
        -13    1    3    3    0    0  0.27209172404E+02  0.24330870856E+02  0.98072210156E+02  0.10464463631E+03  0.10566000000E+00 0.  1.
         13    1    4    4    0    0 -0.12584613680E+02 -0.11164172599E+02  0.26929755043E+02  0.31752702594E+02  0.10566000000E+00 0. -1.
        -13    1    4    4    0    0 -0.44578328492E+01 -0.48711257839E+01  0.10019861762E+02  0.12000372239E+02  0.10566000000E+00 0.  1.
        -14    1    4    4    0    0 -0.10166725875E+02 -0.82955724729E+01  0.21255449412E+02  0.24979450902E+02  0.00000000000E+00 0.  1.
<mgrwt>
<rscale>  0 0.75080312E+02</rscale>
<asrwt>0</asrwt>
<pdfrwt beam="1">  1        2 0.13153759E-02 0.75080312E+02</pdfrwt>
<pdfrwt beam="2">  1       -1 0.25358031E-01 0.75080312E+02</pdfrwt>
<totfact> 0.12358708E+05</totfact>
</mgrwt>
</event>
<event>
 8    1  0.1226832E-016  0.8453888E+02  0.7818608E-02  0.1316643E+00
         -1   -1    0    0    0  501 -0.00000000000E+00  0.00000000000E+00  0.15185796196E+02  0.15185797032E+02  0.50400000000E-02 0.  1.
          2   -1    0    0  501    0  0.00000000000E+00 -0.00000000000E+00 -0.11765635111E+03  0.11765635114E+03  0.25500000000E-02 0. -1.
         24    2    1    2    0    0  0.35527136788E-14  0.00000000000E+00 -0.10247055492E+03  0.13284214817E+03  0.84538876891E+02 0.  0.
         66    2    3    3    0    0 -0.31420801236E+02  0.25881339042E+02 -0.69013435040E+02  0.80149639261E+02  0.19999991387E+01 0.  0.
        -13    1    3    3    0    0  0.31420801236E+02 -0.25881339042E+02 -0.33457119877E+02  0.52692508912E+02  0.10566000000E+00 0.  1.
         13    1    4    4    0    0 -0.10672785047E+02  0.89416640907E+01 -0.21889588815E+02  0.25942763151E+02  0.10566000000E+00 0.  1.
        -13    1    4    4    0    0 -0.88439923800E+01  0.73099898903E+01 -0.19687251334E+02  0.22787083678E+02  0.10566000000E+00 0. -1.
        -14    1    4    4    0    0 -0.11904023809E+02  0.96296850613E+01 -0.27436594891E+02  0.31419792432E+02  0.00000000000E+00 0.  1.
<mgrwt>
<rscale>  0 0.84538877E+02</rscale>
<asrwt>0</asrwt>
<pdfrwt beam="1">  1        2 0.18100977E-01 0.84538877E+02</pdfrwt>
<pdfrwt beam="2">  1       -1 0.23362765E-02 0.84538877E+02</pdfrwt>
<totfact> 0.16026113E+05</totfact>
</mgrwt>
</event>
<event>
 8    1  0.1226832E-016  0.7997222E+02  0.7818608E-02  0.1329130E+00
          2   -1    0    0  501    0  0.00000000000E+00  0.00000000000E+00  0.29033910805E+03  0.29033910806E+03  0.25500000000E-02 0. -1.
         -1   -1    0    0    0  501 -0.00000000000E+00 -0.00000000000E+00 -0.55069694409E+01  0.55069717472E+01  0.50400000000E-02 0.  1.
         24    2    1    2    0    0  0.35527136788E-14  0.17763568394E-14  0.28483213861E+03  0.29584607981E+03  0.79972218635E+02 0.  0.
         66    2    3    3    0    0 -0.31978351184E+02 -0.83909276940E+01  0.22554391067E+03  0.22796288787E+03  0.19999980736E+01 0.  0.
        -13    1    3    3    0    0  0.31978351184E+02  0.83909276940E+01  0.59288227939E+02  0.67883191942E+02  0.10566000000E+00 0.  1.
         13    1    4    4    0    0 -0.13801060504E+02 -0.43463908914E+01  0.10055886907E+03  0.10159457513E+03  0.10566000000E+00 0.  1.
        -13    1    4    4    0    0 -0.81434794369E+01 -0.22890487637E+01  0.57159620708E+02  0.57782258567E+02  0.10566000000E+00 0. -1.
        -14    1    4    4    0    0 -0.10033811243E+02 -0.17554880388E+01  0.67825420896E+02  0.68586054166E+02  0.00000000000E+00 0.  1.
<mgrwt>
<rscale>  0 0.79972219E+02</rscale>
<asrwt>0</asrwt>
<pdfrwt beam="1">  1        2 0.44667563E-01 0.79972219E+02</pdfrwt>
<pdfrwt beam="2">  1       -1 0.84722610E-03 0.79972219E+02</pdfrwt>
<totfact> 0.25216977E+05</totfact>
</mgrwt>
</event>
<event>
 8    1  0.1226832E-016  0.7967724E+02  0.7818608E-02  0.1329970E+00
          2   -1    0    0  501    0  0.00000000000E+00  0.00000000000E+00  0.11181534707E+02  0.11181534998E+02  0.25500000000E-02 0. -1.
         -1   -1    0    0    0  501 -0.00000000000E+00 -0.00000000000E+00 -0.14194075218E+03  0.14194075227E+03  0.50400000000E-02 0.  1.
         24    2    1    2    0    0 -0.35527136788E-14  0.00000000000E+00 -0.13075921747E+03  0.15312228727E+03  0.79677235794E+02 0.  0.
         66    2    3    3    0    0  0.30704260588E+02 -0.25234532897E+01 -0.16955526723E+02  0.35222284607E+02  0.20000029399E+01 0.  0.
        -13    1    3    3    0    0 -0.30704260588E+02  0.25234532897E+01 -0.11380369075E+03  0.11790000266E+03  0.10566000000E+00 0.  1.
         13    1    4    4    0    0  0.19890770484E+02 -0.15668006299E+01 -0.11736508434E+02  0.23148529304E+02  0.10566000000E+00 0.  1.
        -13    1    4    4    0    0  0.84346494618E+01 -0.10869118310E+01 -0.40898071048E+01  0.94372864247E+01  0.10566000000E+00 0. -1.
        -14    1    4    4    0    0  0.23788406421E+01  0.13025917121E+00 -0.11292111835E+01  0.26364688788E+01  0.00000000000E+00 0.  1.
<mgrwt>
<rscale>  0 0.79677236E+02</rscale>
<asrwt>0</asrwt>
<pdfrwt beam="1">  1        2 0.17202362E-02 0.79677236E+02</pdfrwt>
<pdfrwt beam="2">  1       -1 0.21837038E-01 0.79677236E+02</pdfrwt>
<totfact> 0.11050177E+05</totfact>
</mgrwt>
</event>
<event>
 8    1  0.1226832E-016  0.7927482E+02  0.7818608E-02  0.1331122E+00
         -1   -1    0    0    0  501 -0.00000000000E+00  0.00000000000E+00  0.51183071275E+01  0.51183096090E+01  0.50400000000E-02 0.  1.
          2   -1    0    0  501    0  0.00000000000E+00 -0.00000000000E+00 -0.30696162129E+03  0.30696162130E+03  0.25500000000E-02 0. -1.
         24    2    1    2    0    0 -0.71054273576E-14  0.88817841970E-15 -0.30184331417E+03  0.31207993091E+03  0.79274819281E+02 0.  0.
         66    2    3    3    0    0 -0.38141747137E+02  0.64243797560E+01 -0.11737001955E+03  0.12359525483E+03  0.19999989959E+01 0.  0.
        -13    1    3    3    0    0  0.38141747137E+02 -0.64243797560E+01 -0.18447329461E+03  0.18848467609E+03  0.10566000000E+00 0.  1.
         13    1    4    4    0    0 -0.98087994196E+01  0.15504246478E+01 -0.29659455209E+02  0.31277960451E+02  0.10566000000E+00 0. -1.
        -13    1    4    4    0    0 -0.15346396399E+02  0.28754588189E+01 -0.50187840911E+02  0.52560543045E+02  0.10566000000E+00 0.  1.
        -14    1    4    4    0    0 -0.12986551318E+02  0.19984962893E+01 -0.37522723433E+02  0.39756751330E+02  0.00000000000E+00 0.  1.
<mgrwt>
<rscale>  0 0.79274819E+02</rscale>
<asrwt>0</asrwt>
<pdfrwt beam="1">  1        2 0.47224850E-01 0.79274819E+02</pdfrwt>
<pdfrwt beam="2">  1       -1 0.78743230E-03 0.79274819E+02</pdfrwt>
<totfact> 0.26327657E+05</totfact>
</mgrwt>
</event>
<event>
 8    1  0.1226832E-016  0.7727632E+02  0.7818608E-02  0.1336963E+00
          2   -1    0    0  501    0  0.00000000000E+00  0.00000000000E+00  0.37027340332E+03  0.37027340333E+03  0.25500000000E-02 0. -1.
         -1   -1    0    0    0  501 -0.00000000000E+00 -0.00000000000E+00 -0.40319038969E+01  0.40319070469E+01  0.50400000000E-02 0.  1.
         24    2    1    2    0    0 -0.44408920985E-15  0.00000000000E+00  0.36624149942E+03  0.37430531038E+03  0.77276318984E+02 0.  0.
         66    2    3    3    0    0  0.37572574309E+01  0.17321995577E+02  0.34940009062E+03  0.34985510120E+03  0.19999993993E+01 0.  0.
        -13    1    3    3    0    0 -0.37572574309E+01 -0.17321995577E+02  0.16841408806E+02  0.24450209177E+02  0.10566000000E+00 0.  1.
         13    1    4    4    0    0  0.19904758898E+01  0.74995052938E+01  0.14043204013E+03  0.14064627130E+03  0.10566000000E+00 0. -1.
        -13    1    4    4    0    0  0.35040651119E+00  0.47866711162E+01  0.97667161697E+02  0.97785073724E+02  0.10566000000E+00 0.  1.
        -14    1    4    4    0    0  0.14163750298E+01  0.50358191671E+01  0.11130088879E+03  0.11142375617E+03  0.00000000000E+00 0.  1.
<mgrwt>
<rscale>  0 0.77276319E+02</rscale>
<asrwt>0</asrwt>
<pdfrwt beam="1">  1        2 0.56965129E-01 0.77276319E+02</pdfrwt>
<pdfrwt beam="2">  1       -1 0.62029326E-03 0.77276319E+02</pdfrwt>
<totfact> 0.30096022E+05</totfact>
</mgrwt>
</event>
<event>
 8    1  0.1226832E-016  0.8135209E+02  0.7818608E-02  0.1325258E+00
          2   -1    0    0  501    0  0.00000000000E+00  0.00000000000E+00  0.47876599319E+03  0.47876599319E+03  0.25500000000E-02 0. -1.
         -1   -1    0    0    0  501 -0.00000000000E+00 -0.00000000000E+00 -0.34558420998E+01  0.34558457749E+01  0.50400000000E-02 0.  1.
         24    2    1    2    0    0  0.00000000000E+00  0.00000000000E+00  0.47531015109E+03  0.48222183897E+03  0.81352088184E+02 0.  0.
         66    2    3    3    0    0 -0.78123081950E+01 -0.33525771567E+02  0.36596674829E+03  0.36758763631E+03  0.20000000611E+01 0.  0.
        -13    1    3    3    0    0  0.78123081950E+01  0.33525771567E+02  0.10934340280E+03  0.11463420266E+03  0.10566000000E+00 0.  1.
         13    1    4    4    0    0 -0.25277465121E+01 -0.13457676703E+02  0.15216987170E+03  0.15278474918E+03  0.10566000000E+00 0. -1.
        -13    1    4    4    0    0 -0.41336214865E+01 -0.15156473782E+02  0.15896353744E+03  0.15973798210E+03  0.10566000000E+00 0.  1.
        -14    1    4    4    0    0 -0.11509401964E+01 -0.49116210818E+01  0.54833339146E+02  0.55064905038E+02  0.00000000000E+00 0.  1.
<mgrwt>
<rscale>  0 0.81352088E+02</rscale>
<asrwt>0</asrwt>
<pdfrwt beam="1">  1        2 0.73656338E-01 0.81352088E+02</pdfrwt>
<pdfrwt beam="2">  1       -1 0.53166808E-03 0.81352088E+02</pdfrwt>
<totfact> 0.28743224E+05</totfact>
</mgrwt>
</event>
<event>
 8    1  0.1226832E-016  0.7985081E+02  0.7818608E-02  0.1329475E+00
          2   -1    0    0  501    0  0.00000000000E+00  0.00000000000E+00  0.84499536024E+02  0.84499536063E+02  0.25500000000E-02 0. -1.
         -1   -1    0    0    0  501 -0.00000000000E+00 -0.00000000000E+00 -0.18864456750E+02  0.18864457423E+02  0.50400000000E-02 0.  1.
         24    2    1    2    0    0  0.71054273576E-14  0.35527136788E-14  0.65635079274E+02  0.10336399349E+03  0.79850807873E+02 0.  0.
         66    2    3    3    0    0  0.26629912252E+02  0.24534159254E+02  0.54535530446E+02  0.65491993999E+02  0.20000000425E+01 0.  0.
        -13    1    3    3    0    0 -0.26629912252E+02 -0.24534159254E+02  0.11099548829E+02  0.37871999486E+02  0.10566000000E+00 0.  1.
         13    1    4    4    0    0  0.64167639805E+01  0.59147221104E+01  0.12526929217E+02  0.15267413575E+02  0.10566000000E+00 0. -1.
        -13    1    4    4    0    0  0.17147458302E+02  0.15696728671E+02  0.34448324079E+02  0.41558643061E+02  0.10566000000E+00 0.  1.
         14    1    4    4    0    0  0.30656899688E+01  0.29227084731E+01  0.75602771502E+01  0.86659373637E+01  0.00000000000E+00 0. -1.
<mgrwt>
<rscale>  0 0.79850808E+02</rscale>
<asrwt>0</asrwt>
<pdfrwt beam="1">  1        2 0.12999929E-01 0.79850808E+02</pdfrwt>
<pdfrwt beam="2">  1       -1 0.29022242E-02 0.79850808E+02</pdfrwt>
<totfact> 0.17019814E+05</totfact>
</mgrwt>
</event>
<event>
 8    1  0.1226832E-016  0.8286750E+02  0.7818608E-02  0.1321105E+00
         -1   -1    0    0    0  501 -0.00000000000E+00  0.00000000000E+00  0.92583322835E+00  0.92584694649E+00  0.50400000000E-02 0.  1.
          2   -1    0    0  501    0  0.00000000000E+00 -0.00000000000E+00 -0.18542678287E+04  0.18542678287E+04  0.25500000000E-02 0. -1.
         24    2    1    2    0    0 -0.17763568394E-14 -0.35527136788E-14 -0.18533419955E+04  0.18551936756E+04  0.82867496561E+02 0.  0.
         66    2    3    3    0    0  0.15613364041E+02  0.13324188449E+02 -0.17323616355E+04  0.17324843859E+04  0.20000000368E+01 0.  0.
        -13    1    3    3    0    0 -0.15613364041E+02 -0.13324188449E+02 -0.12098035991E+03  0.12270928971E+03  0.10566000000E+00 0.  1.
         13    1    4    4    0    0  0.56402134871E+01  0.45513265874E+01 -0.59999362568E+03  0.60003740600E+03  0.10566000000E+00 0. -1.
        -13    1    4    4    0    0  0.37850093978E+01  0.31428883740E+01 -0.35908155989E+03  0.35911527657E+03  0.10566000000E+00 0. -1.
         14    1    4    4    0    0  0.61881411558E+01  0.56299734876E+01 -0.77328644998E+03  0.77333170335E+03  0.00000000000E+00 0. -1.
<mgrwt>
<rscale>  0 0.82867497E+02</rscale>
<asrwt>0</asrwt>
<pdfrwt beam="1">  1        2 0.28526900E+00 0.82867497E+02</pdfrwt>
<pdfrwt beam="2">  1       -1 0.14243842E-03 0.82867497E+02</pdfrwt>
<totfact> 0.26981113E+05</totfact>
</mgrwt>
</event>
<event>
 8    1  0.1226832E-016  0.7996710E+02  0.7818608E-02  0.1329145E+00
         -1   -1    0    0    0  501 -0.00000000000E+00  0.00000000000E+00  0.15856001500E+02  0.15856002301E+02  0.50400000000E-02 0.  1.
          2   -1    0    0  501    0  0.00000000000E+00 -0.00000000000E+00 -0.10082517703E+03  0.10082517706E+03  0.25500000000E-02 0. -1.
         24    2    1    2    0    0  0.00000000000E+00  0.71054273576E-14 -0.84969175531E+02  0.11668117937E+03  0.79967098407E+02 0.  0.
         66    2    3    3    0    0  0.15149730748E+02 -0.28865115209E+02 -0.76228009751E+02  0.82930203661E+02  0.19999977559E+01 0.  0.
        -13    1    3    3    0    0 -0.15149730748E+02  0.28865115209E+02 -0.87411657806E+01  0.33750975704E+02  0.10566000000E+00 0.  1.
         13    1    4    4    0    0  0.54548911419E+01 -0.93042074682E+01 -0.26180426232E+02  0.28315190194E+02  0.10566000000E+00 0. -1.
        -13    1    4    4    0    0  0.40354670048E+01 -0.86984420737E+01 -0.23312035780E+02  0.25207341484E+02  0.10566000000E+00 0.  1.
         14    1    4    4    0    0  0.56593726009E+01 -0.10862465667E+02 -0.26735547738E+02  0.29407671983E+02  0.00000000000E+00 0. -1.
<mgrwt>
<rscale>  0 0.79967098E+02</rscale>
<asrwt>0</asrwt>
<pdfrwt beam="1">  1        2 0.15511565E-01 0.79967098E+02</pdfrwt>
<pdfrwt beam="2">  1       -1 0.24393850E-02 0.79967098E+02</pdfrwt>
<totfact> 0.17786317E+05</totfact>
</mgrwt>
</event>
<event>
 8    1  0.1226832E-016  0.8598702E+02  0.7818608E-02  0.1312871E+00
          2   -1    0    0  501    0  0.00000000000E+00  0.00000000000E+00  0.11863989771E+04  0.11863989771E+04  0.25500000000E-02 0. -1.
         -1   -1    0    0    0  501 -0.00000000000E+00 -0.00000000000E+00 -0.15580230611E+01  0.15580312130E+01  0.50400000000E-02 0.  1.
         24    2    1    2    0    0  0.00000000000E+00  0.00000000000E+00  0.11848409540E+04  0.11879570083E+04  0.85987017847E+02 0.  0.
         66    2    3    3    0    0 -0.56954497765E+01 -0.28018261210E+02  0.10359101136E+04  0.10363065302E+04  0.20000005065E+01 0.  0.
        -13    1    3    3    0    0  0.56954497765E+01  0.28018261210E+02  0.14893084038E+03  0.15165047804E+03  0.10566000000E+00 0.  1.
         13    1    4    4    0    0 -0.29519074755E+01 -0.17644246540E+02  0.66544465872E+03  0.66568508934E+03  0.10566000000E+00 0. -1.
        -13    1    4    4    0    0 -0.94603230000E+00 -0.28408526438E+01  0.96001059628E+02  0.96047800780E+02  0.10566000000E+00 0.  1.
         14    1    4    4    0    0 -0.17975100010E+01 -0.75331620264E+01  0.27446439527E+03  0.27457364011E+03  0.00000000000E+00 0. -1.
<mgrwt>
<rscale>  0 0.85987018E+02</rscale>
<asrwt>0</asrwt>
<pdfrwt beam="1">  1        2 0.18252329E+00 0.85987018E+02</pdfrwt>
<pdfrwt beam="2">  1       -1 0.23969600E-03 0.85987018E+02</pdfrwt>
<totfact> 0.29065471E+05</totfact>
</mgrwt>
</event>
<event>
 8    1  0.1226832E-016  0.8018715E+02  0.7818608E-02  0.1328521E+00
         -1   -1    0    0    0  501 -0.00000000000E+00  0.00000000000E+00  0.63276821214E+01  0.63276841286E+01  0.50400000000E-02 0.  1.
          2   -1    0    0  501    0  0.00000000000E+00 -0.00000000000E+00 -0.25404157747E+03  0.25404157749E+03  0.25500000000E-02 0. -1.
         24    2    1    2    0    0 -0.17763568394E-14 -0.35527136788E-14 -0.24771389535E+03  0.26036926161E+03  0.80187146373E+02 0.  0.
         66    2    3    3    0    0 -0.12124451256E+02 -0.16699731531E+02 -0.23545397051E+03  0.23636508963E+03  0.20000037315E+01 0.  0.
        -13    1    3    3    0    0  0.12124451256E+02  0.16699731531E+02 -0.12259924838E+02  0.24004171982E+02  0.10566000000E+00 0.  1.
         13    1    4    4    0    0 -0.77948577016E+01 -0.10259297115E+02 -0.13750159930E+03  0.13810399689E+03  0.10566000000E+00 0.  1.
        -13    1    4    4    0    0 -0.76148456194E+00 -0.15329748481E+01 -0.22081748214E+02  0.22148242342E+02  0.10566000000E+00 0. -1.
         14    1    4    4    0    0 -0.35681089922E+01 -0.49074595680E+01 -0.75870623000E+02  0.76112850397E+02  0.00000000000E+00 0. -1.
<mgrwt>
<rscale>  0 0.80187146E+02</rscale>
<asrwt>0</asrwt>
<pdfrwt beam="1">  1        2 0.39083312E-01 0.80187146E+02</pdfrwt>
<pdfrwt beam="2">  1       -1 0.97348991E-03 0.80187146E+02</pdfrwt>
<totfact> 0.23858969E+05</totfact>
</mgrwt>
</event>
<event>
 8    1  0.1226832E-016  0.7578096E+02  0.7818608E-02  0.1341470E+00
          2   -1    0    0  501    0  0.00000000000E+00  0.00000000000E+00  0.17476239632E+03  0.17476239634E+03  0.25500000000E-02 0. -1.
         -1   -1    0    0    0  501 -0.00000000000E+00 -0.00000000000E+00 -0.82150863206E+01  0.82150878667E+01  0.50400000000E-02 0.  1.
         24    2    1    2    0    0  0.00000000000E+00  0.00000000000E+00  0.16654731000E+03  0.18297748421E+03  0.75780955775E+02 0.  0.
         66    2    3    3    0    0 -0.14778970088E+02 -0.19785251189E+02  0.15263431779E+03  0.15463217352E+03  0.20000002050E+01 0.  0.
        -13    1    3    3    0    0  0.14778970088E+02  0.19785251189E+02  0.13912992218E+02  0.28345310688E+02  0.10566000000E+00 0.  1.
         13    1    4    4    0    0 -0.77675820775E+01 -0.10783916222E+02  0.77698372761E+02  0.78826876598E+02  0.10566000000E+00 0. -1.
        -13    1    4    4    0    0 -0.10618631529E+01 -0.99960184983E+00  0.83885433166E+01  0.85150208587E+01  0.10566000000E+00 0.  1.
         14    1    4    4    0    0 -0.59495248578E+01 -0.80017331176E+01  0.66547401708E+02  0.67290276065E+02  0.00000000000E+00 0. -1.
<mgrwt>
<rscale>  0 0.75780956E+02</rscale>
<asrwt>0</asrwt>
<pdfrwt beam="1">  1        2 0.26886522E-01 0.75780956E+02</pdfrwt>
<pdfrwt beam="2">  1       -1 0.12638596E-02 0.75780956E+02</pdfrwt>
<totfact> 0.24298996E+05</totfact>
</mgrwt>
</event>
<event>
 8    1  0.1226832E-016  0.7558111E+02  0.7818608E-02  0.1342081E+00
         -1   -1    0    0    0  501 -0.00000000000E+00  0.00000000000E+00  0.55808099437E+01  0.55808122195E+01  0.50400000000E-02 0.  1.
          2   -1    0    0  501    0  0.00000000000E+00 -0.00000000000E+00 -0.25589933983E+03  0.25589933984E+03  0.25500000000E-02 0. -1.
         24    2    1    2    0    0  0.35527136788E-14  0.35527136788E-14 -0.25031852989E+03  0.26148015206E+03  0.75581105562E+02 0.  0.
         66    2    3    3    0    0  0.23844777547E+02  0.27046333529E+02 -0.16408722626E+03  0.16801397388E+03  0.20000064640E+01 0.  0.
        -13    1    3    3    0    0 -0.23844777547E+02 -0.27046333529E+02 -0.86231303631E+02  0.93466178180E+02  0.10566000000E+00 0.  1.
         13    1    4    4    0    0  0.29267420804E+01  0.28628630485E+01 -0.16744550444E+02  0.17238124539E+02  0.10566000000E+00 0. -1.
        -13    1    4    4    0    0  0.93014478991E+01  0.10306840627E+02 -0.65947354351E+02  0.67392971494E+02  0.10566000000E+00 0.  1.
         14    1    4    4    0    0  0.11616587567E+02  0.13876629854E+02 -0.81395321462E+02  0.83382877851E+02  0.00000000000E+00 0. -1.
<mgrwt>
<rscale>  0 0.75581106E+02</rscale>
<asrwt>0</asrwt>
<pdfrwt beam="1">  1        2 0.39369120E-01 0.75581106E+02</pdfrwt>
<pdfrwt beam="2">  1       -1 0.85858652E-03 0.75581106E+02</pdfrwt>
<totfact> 0.27932848E+05</totfact>
</mgrwt>
</event>
<event>
 8    1  0.1226832E-016  0.8121890E+02  0.7818608E-02  0.1325628E+00
          2   -1    0    0  501    0  0.00000000000E+00  0.00000000000E+00  0.12726326707E+02  0.12726326963E+02  0.25500000000E-02 0. -1.
         -1   -1    0    0    0  501 -0.00000000000E+00 -0.00000000000E+00 -0.12958391320E+03  0.12958391330E+03  0.50400000000E-02 0.  1.
         24    2    1    2    0    0  0.00000000000E+00  0.00000000000E+00 -0.11685758649E+03  0.14231024026E+03  0.81218895352E+02 0.  0.
         66    2    3    3    0    0 -0.35246378404E+02 -0.93371337218E+01 -0.27236288944E+02  0.45555512237E+02  0.20000007403E+01 0.  0.
        -13    1    3    3    0    0  0.35246378404E+02  0.93371337218E+01 -0.89621297548E+02  0.96754728023E+02  0.10566000000E+00 0.  1.
         13    1    4    4    0    0 -0.19874875930E+02 -0.53837852009E+01 -0.15166797062E+02  0.25574180993E+02  0.10566000000E+00 0. -1.
        -13    1    4    4    0    0 -0.13600433208E+02 -0.32166893916E+01 -0.10996107500E+02  0.17783262307E+02  0.10566000000E+00 0.  1.
        -14    1    4    4    0    0 -0.17710692661E+01 -0.73665912931E+00 -0.10733843820E+01  0.21980689365E+01  0.00000000000E+00 0.  1.
<mgrwt>
<rscale>  0 0.81218895E+02</rscale>
<asrwt>0</asrwt>
<pdfrwt beam="1">  1        2 0.19578965E-02 0.81218895E+02</pdfrwt>
<pdfrwt beam="2">  1       -1 0.19935986E-01 0.81218895E+02</pdfrwt>
<totfact> 0.10764765E+05</totfact>
</mgrwt>
</event>
<event>
 8    1  0.1226832E-016  0.8043895E+02  0.7818608E-02  0.1327810E+00
         -1   -1    0    0    0  501 -0.00000000000E+00  0.00000000000E+00  0.90270840526E+02  0.90270840667E+02  0.50400000000E-02 0.  1.
          2   -1    0    0  501    0  0.00000000000E+00 -0.00000000000E+00 -0.17919474064E+02  0.17919474246E+02  0.25500000000E-02 0. -1.
         24    2    1    2    0    0  0.00000000000E+00  0.00000000000E+00  0.72351366462E+02  0.10819031491E+03  0.80438945865E+02 0.  0.
         66    2    3    3    0    0  0.18304613310E+02 -0.35545901723E+02  0.30647350679E+02  0.50416565734E+02  0.19999997363E+01 0.  0.
        -13    1    3    3    0    0 -0.18304613310E+02  0.35545901723E+02  0.41704015782E+02  0.57773749179E+02  0.10566000000E+00 0.  1.
         13    1    4    4    0    0  0.99574883179E+00 -0.19672943682E+01  0.17218524569E+01  0.27995897532E+01  0.10566000000E+00 0. -1.
        -13    1    4    4    0    0  0.10056020557E+02 -0.18473409123E+02  0.17113052399E+02  0.27115643464E+02  0.10566000000E+00 0.  1.
        -14    1    4    4    0    0  0.72528439212E+01 -0.15105198233E+02  0.11812445824E+02  0.20501332516E+02  0.00000000000E+00 0.  1.
<mgrwt>
<rscale>  0 0.80438946E+02</rscale>
<asrwt>0</asrwt>
<pdfrwt beam="1">  1        2 0.27568421E-02 0.80438946E+02</pdfrwt>
<pdfrwt beam="2">  1       -1 0.13887822E-01 0.80438946E+02</pdfrwt>
<totfact> 0.11948561E+05</totfact>
</mgrwt>
</event>
<event>
 8    1  0.1226832E-016  0.7836686E+02  0.7818608E-02  0.1333751E+00
         -1   -1    0    0    0  501 -0.00000000000E+00  0.00000000000E+00  0.57174532084E+03  0.57174532086E+03  0.50400000000E-02 0.  1.
          2   -1    0    0  501    0  0.00000000000E+00 -0.00000000000E+00 -0.26853581143E+01  0.26853593251E+01  0.25500000000E-02 0. -1.
         24    2    1    2    0    0  0.17763568394E-14 -0.71054273576E-14  0.56905996272E+03  0.57443068018E+03  0.78366862659E+02 0.  0.
         66    2    3    3    0    0  0.13579379449E+02 -0.35377964919E+02  0.35703218792E+03  0.35904314944E+03  0.20000003283E+01 0.  0.
        -13    1    3    3    0    0 -0.13579379449E+02  0.35377964919E+02  0.21202777481E+03  0.21538753075E+03  0.10566000000E+00 0.  1.
         13    1    4    4    0    0  0.99045378844E+01 -0.24359074786E+02  0.24826617271E+03  0.24965489795E+03  0.10566000000E+00 0. -1.
        -13    1    4    4    0    0  0.78349897760E+00 -0.33702278303E+01  0.30101882283E+02  0.30300277017E+02  0.10566000000E+00 0.  1.
        -14    1    4    4    0    0  0.28913425871E+01 -0.76486623025E+01  0.78664132921E+02  0.79087974466E+02  0.00000000000E+00 0.  1.
<mgrwt>
<rscale>  0 0.78366863E+02</rscale>
<asrwt>0</asrwt>
<pdfrwt beam="1">  1        2 0.41313238E-03 0.78366863E+02</pdfrwt>
<pdfrwt beam="2">  1       -1 0.87960761E-01 0.78366863E+02</pdfrwt>
<totfact> 0.64443029E+04</totfact>
</mgrwt>
</event>
<event>
 8    1  0.1226832E-016  0.8029030E+02  0.7818608E-02  0.1328230E+00
          2   -1    0    0  501    0  0.00000000000E+00  0.00000000000E+00  0.14305398474E+03  0.14305398476E+03  0.25500000000E-02 0. -1.
         -1   -1    0    0    0  501 -0.00000000000E+00 -0.00000000000E+00 -0.11265908860E+02  0.11265909987E+02  0.50400000000E-02 0.  1.
         24    2    1    2    0    0 -0.35527136788E-14 -0.17763568394E-14  0.13178807588E+03  0.15431989475E+03  0.80290304342E+02 0.  0.
         66    2    3    3    0    0  0.27450924775E+02  0.12742585420E+02  0.11655749092E+03  0.12043909434E+03  0.20000002652E+01 0.  0.
        -13    1    3    3    0    0 -0.27450924775E+02 -0.12742585420E+02  0.15230584956E+02  0.33880800408E+02  0.10566000000E+00 0.  1.
         13    1    4    4    0    0  0.31158577434E+01  0.15666074341E+01  0.15772564163E+02  0.16153877944E+02  0.10566000000E+00 0. -1.
        -13    1    4    4    0    0  0.18244890686E+01  0.67169154778E+00  0.68708362375E+01  0.71413923386E+01  0.10566000000E+00 0.  1.
         14    1    4    4    0    0  0.22510577963E+02  0.10504286438E+02  0.93914090520E+02  0.97143824055E+02  0.00000000000E+00 0. -1.
<mgrwt>
<rscale>  0 0.80290304E+02</rscale>
<asrwt>0</asrwt>
<pdfrwt beam="1">  1        2 0.22008306E-01 0.80290304E+02</pdfrwt>
<pdfrwt beam="2">  1       -1 0.17332168E-02 0.80290304E+02</pdfrwt>
<totfact> 0.19539526E+05</totfact>
</mgrwt>
</event>
<event>
 8    1  0.1226832E-016  0.7753884E+02  0.7818608E-02  0.1336185E+00
         -1   -1    0    0    0  501 -0.00000000000E+00  0.00000000000E+00  0.58912445388E+01  0.58912466947E+01  0.50400000000E-02 0.  1.
          2   -1    0    0  501    0  0.00000000000E+00 -0.00000000000E+00 -0.25513582098E+03  0.25513582099E+03  0.25500000000E-02 0. -1.
         24    2    1    2    0    0  0.00000000000E+00  0.17763568394E-14 -0.24924457644E+03  0.26102706769E+03  0.77538836593E+02 0.  0.
         66    2    3    3    0    0 -0.16984917181E+02  0.96240551842E+01 -0.23736404029E+03  0.23817388075E+03  0.19999998891E+01 0.  0.
        -13    1    3    3    0    0  0.16984917181E+02 -0.96240551842E+01 -0.11880536150E+02  0.22853186935E+02  0.10566000000E+00 0.  1.
         13    1    4    4    0    0 -0.94404207502E+01  0.60375378022E+01 -0.14075454242E+03  0.14119994965E+03  0.10566000000E+00 0. -1.
        -13    1    4    4    0    0 -0.23916895709E+00  0.77635456262E-02 -0.34845398012E+01  0.34943445343E+01  0.10566000000E+00 0.  1.
         14    1    4    4    0    0 -0.73053274737E+01  0.35787538364E+01 -0.93124958072E+02  0.93479586566E+02  0.00000000000E+00 0. -1.
<mgrwt>
<rscale>  0 0.77538837E+02</rscale>
<asrwt>0</asrwt>
<pdfrwt beam="1">  1        2 0.39251656E-01 0.77538837E+02</pdfrwt>
<pdfrwt beam="2">  1       -1 0.90634568E-03 0.77538837E+02</pdfrwt>
<totfact> 0.26097334E+05</totfact>
</mgrwt>
</event>
<event>
 8    1  0.1226832E-016  0.8348625E+02  0.7818608E-02  0.1319439E+00
         -1   -1    0    0    0  501 -0.00000000000E+00  0.00000000000E+00  0.53909338993E+01  0.53909362552E+01  0.50400000000E-02 0.  1.
          2   -1    0    0  501    0  0.00000000000E+00 -0.00000000000E+00 -0.32322568088E+03  0.32322568089E+03  0.25500000000E-02 0. -1.
         24    2    1    2    0    0  0.00000000000E+00  0.00000000000E+00 -0.31783474698E+03  0.32861661715E+03  0.83486254412E+02 0.  0.
         66    2    3    3    0    0 -0.54130336771E+01 -0.20187734772E+02 -0.30112762176E+03  0.30185872549E+03  0.19999993931E+01 0.  0.
        -13    1    3    3    0    0  0.54130336771E+01  0.20187734772E+02 -0.16707125223E+02  0.26757891660E+02  0.10566000000E+00 0.  1.
         13    1    4    4    0    0 -0.80256119414E+00 -0.51413175640E+01 -0.69839043795E+02  0.70032709879E+02  0.10566000000E+00 0. -1.
        -13    1    4    4    0    0 -0.25521545277E+01 -0.79847889361E+01 -0.11518935951E+03  0.11549402606E+03  0.10566000000E+00 0.  1.
        -14    1    4    4    0    0 -0.20583179553E+01 -0.70616282719E+01 -0.11609921845E+03  0.11633198955E+03  0.00000000000E+00 0.  1.
<mgrwt>
<rscale>  0 0.83486254E+02</rscale>
<asrwt>0</asrwt>
<pdfrwt beam="1">  1        2 0.49727013E-01 0.83486254E+02</pdfrwt>
<pdfrwt beam="2">  1       -1 0.82937488E-03 0.83486254E+02</pdfrwt>
<totfact> 0.23416725E+05</totfact>
</mgrwt>
</event>
<event>
 8    1  0.1226832E-016  0.8165211E+02  0.7818608E-02  0.1324427E+00
          2   -1    0    0  501    0  0.00000000000E+00  0.00000000000E+00  0.60474182512E+02  0.60474182566E+02  0.25500000000E-02 0. -1.
         -1   -1    0    0    0  501 -0.00000000000E+00 -0.00000000000E+00 -0.27561622137E+02  0.27561622598E+02  0.50400000000E-02 0.  1.
         24    2    1    2    0    0  0.00000000000E+00  0.00000000000E+00  0.32912560375E+02  0.88035805164E+02  0.81652105670E+02 0.  0.
         66    2    3    3    0    0  0.75015490520E+01 -0.20684296240E+02  0.53513055091E+02  0.57894390205E+02  0.20000007366E+01 0.  0.
        -13    1    3    3    0    0 -0.75015490520E+01  0.20684296240E+02 -0.20600494716E+02  0.30141414958E+02  0.10566000000E+00 0.  1.
         13    1    4    4    0    0  0.45210657195E+01 -0.13093097614E+02  0.32232371904E+02  0.35082847703E+02  0.10566000000E+00 0. -1.
        -13    1    4    4    0    0  0.25441893901E+00 -0.17271559516E+01  0.44912986415E+01  0.48198261587E+01  0.10566000000E+00 0.  1.
        -14    1    4    4    0    0  0.27260643935E+01 -0.58640426744E+01  0.16789384546E+02  0.17991716344E+02  0.00000000000E+00 0.  1.
<mgrwt>
<rscale>  0 0.81652106E+02</rscale>
<asrwt>0</asrwt>
<pdfrwt beam="1">  1        2 0.93037203E-02 0.81652106E+02</pdfrwt>
<pdfrwt beam="2">  1       -1 0.42402497E-02 0.81652106E+02</pdfrwt>
<totfact> 0.14750045E+05</totfact>
</mgrwt>
</event>
<event>
 8    1  0.1226832E-016  0.7807534E+02  0.7818608E-02  0.1334604E+00
         -1   -1    0    0    0  501 -0.00000000000E+00  0.00000000000E+00  0.92724710223E+01  0.92724723920E+01  0.50400000000E-02 0.  1.
          2   -1    0    0  501    0  0.00000000000E+00 -0.00000000000E+00 -0.16435095161E+03  0.16435095163E+03  0.25500000000E-02 0. -1.
         24    2    1    2    0    0  0.00000000000E+00  0.00000000000E+00 -0.15507848059E+03  0.17362342402E+03  0.78075336872E+02 0.  0.
         66    2    3    3    0    0 -0.13521238341E+02 -0.29627608755E+02 -0.12535318757E+03  0.12953007650E+03  0.19999991598E+01 0.  0.
        -13    1    3    3    0    0  0.13521238341E+02  0.29627608755E+02 -0.29725293015E+02  0.44093347522E+02  0.10566000000E+00 0.  1.
         13    1    4    4    0    0 -0.26256629538E+01 -0.51434817719E+01 -0.24398940436E+02  0.25073272007E+02  0.10566000000E+00 0. -1.
        -13    1    4    4    0    0 -0.71147010134E+01 -0.14841528358E+02 -0.63068125393E+02  0.65180438316E+02  0.10566000000E+00 0.  1.
        -14    1    4    4    0    0 -0.37808743741E+01 -0.96425986254E+01 -0.37886121746E+02  0.39276366179E+02  0.00000000000E+00 0.  1.
<mgrwt>
<rscale>  0 0.78075337E+02</rscale>
<asrwt>0</asrwt>
<pdfrwt beam="1">  1        2 0.25284760E-01 0.78075337E+02</pdfrwt>
<pdfrwt beam="2">  1       -1 0.14265342E-02 0.78075337E+02</pdfrwt>
<totfact> 0.22009508E+05</totfact>
</mgrwt>
</event>
<event>
 8    1  0.1226832E-016  0.8027495E+02  0.7818608E-02  0.1328273E+00
         -1   -1    0    0    0  501 -0.00000000000E+00  0.00000000000E+00  0.10019362763E+02  0.10019364031E+02  0.50400000000E-02 0.  1.
          2   -1    0    0  501    0  0.00000000000E+00 -0.00000000000E+00 -0.16079033319E+03  0.16079033321E+03  0.25500000000E-02 0. -1.
         24    2    1    2    0    0 -0.35527136788E-14 -0.71054273576E-14 -0.15077097043E+03  0.17080969724E+03  0.80274947203E+02 0.  0.
         66    2    3    3    0    0 -0.29975219319E+02 -0.25768823377E+02 -0.89936528362E+02  0.98260496441E+02  0.19999989016E+01 0.  0.
        -13    1    3    3    0    0  0.29975219319E+02  0.25768823377E+02 -0.60834442068E+02  0.72549200803E+02  0.10566000000E+00 0.  1.
         13    1    4    4    0    0 -0.11858474340E+02 -0.97680859841E+01 -0.34355809639E+02  0.37634714526E+02  0.10566000000E+00 0. -1.
        -13    1    4    4    0    0 -0.25496204605E+00 -0.40994109346E+00 -0.14017462804E+01  0.14863088559E+01  0.10566000000E+00 0.  1.
         14    1    4    4    0    0 -0.17861782933E+02 -0.15590796299E+02 -0.54178972443E+02  0.59139473059E+02  0.00000000000E+00 0. -1.
<mgrwt>
<rscale>  0 0.80274947E+02</rscale>
<asrwt>0</asrwt>
<pdfrwt beam="1">  1        2 0.24736972E-01 0.80274947E+02</pdfrwt>
<pdfrwt beam="2">  1       -1 0.15414406E-02 0.80274947E+02</pdfrwt>
<totfact> 0.20302547E+05</totfact>
</mgrwt>
</event>
<event>
 8    1  0.1226832E-016  0.7726670E+02  0.7818608E-02  0.1336992E+00
          2   -1    0    0  501    0  0.00000000000E+00  0.00000000000E+00  0.14355333610E+03  0.14355333612E+03  0.25500000000E-02 0. -1.
         -1   -1    0    0    0  501 -0.00000000000E+00 -0.00000000000E+00 -0.10397080623E+02  0.10397081845E+02  0.50400000000E-02 0.  1.
         24    2    1    2    0    0  0.00000000000E+00  0.35527136788E-14  0.13315625548E+03  0.15395041797E+03  0.77266699293E+02 0.  0.
         66    2    3    3    0    0  0.27364619697E+02  0.17598344247E+02  0.10803532902E+03  0.11284571943E+03  0.19999868270E+01 0.  0.
        -13    1    3    3    0    0 -0.27364619697E+02 -0.17598344247E+02  0.25120926462E+02  0.41104698536E+02  0.10566000000E+00 0.  1.
         13    1    4    4    0    0  0.15037913803E+02  0.90078846299E+01  0.56656561893E+02  0.59306475250E+02  0.10566000000E+00 0. -1.
        -13    1    4    4    0    0  0.75737367997E+01  0.49885576088E+01  0.32410651906E+02  0.33655738250E+02  0.10566000000E+00 0.  1.
         14    1    4    4    0    0  0.47529690935E+01  0.36019020080E+01  0.18968115216E+02  0.19883505932E+02  0.00000000000E+00 0. -1.
<mgrwt>
<rscale>  0 0.77266699E+02</rscale>
<asrwt>0</asrwt>
<pdfrwt beam="1">  1        2 0.22085127E-01 0.77266699E+02</pdfrwt>
<pdfrwt beam="2">  1       -1 0.15995511E-02 0.77266699E+02</pdfrwt>
<totfact> 0.21656883E+05</totfact>
</mgrwt>
</event>
<event>
 8    1  0.1226832E-016  0.7878799E+02  0.7818608E-02  0.1332527E+00
          2   -1    0    0  501    0  0.00000000000E+00  0.00000000000E+00  0.68292388518E+02  0.68292388565E+02  0.25500000000E-02 0. -1.
         -1   -1    0    0    0  501 -0.00000000000E+00 -0.00000000000E+00 -0.22724154414E+02  0.22724154973E+02  0.50400000000E-02 0.  1.
         24    2    1    2    0    0 -0.22204460493E-15  0.00000000000E+00  0.45568234103E+02  0.91016543538E+02  0.78787989176E+02 0.  0.
         66    2    3    3    0    0  0.19315405909E+01  0.34729097204E+02  0.44101026182E+02  0.56202682724E+02  0.19999983427E+01 0.  0.
        -13    1    3    3    0    0 -0.19315405909E+01 -0.34729097204E+02  0.14672079212E+01  0.34813860814E+02  0.10566000000E+00 0.  1.
         13    1    4    4    0    0  0.34521209085E+00  0.23838665723E+01  0.37039520741E+01  0.44195493237E+01  0.10566000000E+00 0. -1.
        -13    1    4    4    0    0  0.92684695938E-01  0.41861320033E+01  0.48042043491E+01  0.63736830064E+01  0.10566000000E+00 0.  1.
         14    1    4    4    0    0  0.14936438041E+01  0.28159098629E+02  0.35592869759E+02  0.45409450394E+02  0.00000000000E+00 0. -1.
<mgrwt>
<rscale>  0 0.78787989E+02</rscale>
<asrwt>0</asrwt>
<pdfrwt beam="1">  1        2 0.10506521E-01 0.78787989E+02</pdfrwt>
<pdfrwt beam="2">  1       -1 0.34960239E-02 0.78787989E+02</pdfrwt>
<totfact> 0.16726842E+05</totfact>
</mgrwt>
</event>
<event>
 8    1  0.1226832E-016  0.7998314E+02  0.7818608E-02  0.1329099E+00
         -1   -1    0    0    0  501 -0.00000000000E+00  0.00000000000E+00  0.21134520975E+01  0.21134581070E+01  0.50400000000E-02 0.  1.
          2   -1    0    0  501    0  0.00000000000E+00 -0.00000000000E+00 -0.75673511535E+03  0.75673511536E+03  0.25500000000E-02 0. -1.
         24    2    1    2    0    0  0.44408920985E-15  0.71054273576E-14 -0.75462166326E+03  0.75884857346E+03  0.79983140689E+02 0.  0.
         66    2    3    3    0    0  0.24104719119E+01  0.33426113582E+02 -0.58415063503E+03  0.58511458694E+03  0.20000011368E+01 0.  0.
        -13    1    3    3    0    0 -0.24104719119E+01 -0.33426113582E+02 -0.17047102823E+03  0.17373398652E+03  0.10566000000E+00 0.  1.
         13    1    4    4    0    0  0.85194381844E+00  0.12806722471E+02 -0.23573636429E+03  0.23608554077E+03  0.10566000000E+00 0. -1.
        -13    1    4    4    0    0 -0.65355424954E-01  0.14808189433E+01 -0.28463532449E+02  0.28502297094E+02  0.10566000000E+00 0.  1.
         14    1    4    4    0    0  0.16238835184E+01  0.19138572167E+02 -0.31995073829E+03  0.32052674907E+03  0.00000000000E+00 0. -1.
<mgrwt>
<rscale>  0 0.79983141E+02</rscale>
<asrwt>0</asrwt>
<pdfrwt beam="1">  1        2 0.11642057E+00 0.79983141E+02</pdfrwt>
<pdfrwt beam="2">  1       -1 0.32514754E-03 0.79983141E+02</pdfrwt>
<totfact> 0.34032044E+05</totfact>
</mgrwt>
</event>
<event>
 8    1  0.1226832E-016  0.7986324E+02  0.7818608E-02  0.1329440E+00
          2   -1    0    0  501    0  0.00000000000E+00  0.00000000000E+00  0.27799483984E+03  0.27799483986E+03  0.25500000000E-02 0. -1.
         -1   -1    0    0    0  501 -0.00000000000E+00 -0.00000000000E+00 -0.57358398127E+01  0.57358420270E+01  0.50400000000E-02 0.  1.
         24    2    1    2    0    0  0.17763568394E-14  0.17763568394E-14  0.27225900003E+03  0.28373068188E+03  0.79863237748E+02 0.  0.
         66    2    3    3    0    0  0.78899620769E+01  0.15130259198E+02  0.26437594631E+03  0.26493360911E+03  0.20000000175E+01 0.  0.
        -13    1    3    3    0    0 -0.78899620769E+01 -0.15130259198E+02  0.78830537163E+01  0.18797072775E+02  0.10566000000E+00 0.  1.
         13    1    4    4    0    0  0.13759369354E+01  0.29565962985E+01  0.54366185753E+02  0.54464006293E+02  0.10566000000E+00 0. -1.
        -13    1    4    4    0    0  0.33706561725E+01  0.76812365998E+01  0.11977581568E+03  0.12006922963E+03  0.10566000000E+00 0.  1.
        -14    1    4    4    0    0  0.31433689690E+01  0.44924262996E+01  0.90233944883E+02  0.90400373184E+02  0.00000000000E+00 0.  1.
<mgrwt>
<rscale>  0 0.79863238E+02</rscale>
<asrwt>0</asrwt>
<pdfrwt beam="1">  1        2 0.42768433E-01 0.79863238E+02</pdfrwt>
<pdfrwt beam="2">  1       -1 0.88243716E-03 0.79863238E+02</pdfrwt>
<totfact> 0.24912138E+05</totfact>
</mgrwt>
</event>
<event>
 8    1  0.1226832E-016  0.7960375E+02  0.7818608E-02  0.1330180E+00
         -1   -1    0    0    0  501 -0.00000000000E+00  0.00000000000E+00  0.92916242178E+01  0.92916255847E+01  0.50400000000E-02 0.  1.
          2   -1    0    0  501    0  0.00000000000E+00 -0.00000000000E+00 -0.17049646145E+03  0.17049646147E+03  0.25500000000E-02 0. -1.
         24    2    1    2    0    0  0.00000000000E+00 -0.71054273576E-14 -0.16120483723E+03  0.17978808705E+03  0.79603748023E+02 0.  0.
         66    2    3    3    0    0 -0.20396808860E+01 -0.26245636359E+02 -0.14800117102E+03  0.15033742167E+03  0.20000012306E+01 0.  0.
        -13    1    3    3    0    0  0.20396808860E+01  0.26245636359E+02 -0.13203666209E+02  0.29450665381E+02  0.10566000000E+00 0.  1.
         13    1    4    4    0    0 -0.12724175862E+01 -0.19441672962E+02 -0.11236862451E+03  0.11404523941E+03  0.10566000000E+00 0. -1.
        -13    1    4    4    0    0 -0.59183049051E+00 -0.47030781926E+01 -0.26357798606E+02  0.26780849860E+02  0.10566000000E+00 0.  1.
        -14    1    4    4    0    0 -0.17543280936E+00 -0.21008852037E+01 -0.92747479037E+01  0.95113323981E+01  0.00000000000E+00 0.  1.
<mgrwt>
<rscale>  0 0.79603748E+02</rscale>
<asrwt>0</asrwt>
<pdfrwt beam="1">  1        2 0.26230222E-01 0.79603748E+02</pdfrwt>
<pdfrwt beam="2">  1       -1 0.14294809E-02 0.79603748E+02</pdfrwt>
<totfact> 0.21165916E+05</totfact>
</mgrwt>
</event>
<event>
 8    1  0.1226832E-016  0.7998353E+02  0.7818608E-02  0.1329098E+00
         -1   -1    0    0    0  501 -0.00000000000E+00  0.00000000000E+00  0.12423979220E+03  0.12423979231E+03  0.50400000000E-02 0.  1.
          2   -1    0    0  501    0  0.00000000000E+00 -0.00000000000E+00 -0.12873019473E+02  0.12873019725E+02  0.25500000000E-02 0. -1.
         24    2    1    2    0    0  0.35527136788E-14  0.71054273576E-14  0.11136677273E+03  0.13711281203E+03  0.79983530521E+02 0.  0.
         66    2    3    3    0    0  0.31430642117E+02  0.21262445283E+02  0.77222337216E+02  0.86065476313E+02  0.20000011379E+01 0.  0.
        -13    1    3    3    0    0 -0.31430642117E+02 -0.21262445283E+02  0.34144435516E+02  0.51047335719E+02  0.10566000000E+00 0.  1.
         13    1    4    4    0    0  0.78133138967E+01  0.44889078528E+01  0.17996491226E+02  0.20126674545E+02  0.10566000000E+00 0. -1.
        -13    1    4    4    0    0  0.47107734127E+01  0.38153103533E+01  0.12028028166E+02  0.13469692084E+02  0.10566000000E+00 0.  1.
         14    1    4    4    0    0  0.18906554808E+02  0.12958227077E+02  0.47197817824E+02  0.52469109683E+02  0.00000000000E+00 0. -1.
<mgrwt>
<rscale>  0 0.79983531E+02</rscale>
<asrwt>0</asrwt>
<pdfrwt beam="1">  1        2 0.19804645E-02 0.79983531E+02</pdfrwt>
<pdfrwt beam="2">  1       -1 0.19113815E-01 0.79983531E+02</pdfrwt>
<totfact> 0.11299379E+05</totfact>
</mgrwt>
</event>
<event>
 8    1  0.1226832E-016  0.8106398E+02  0.7818608E-02  0.1326059E+00
         -1   -1    0    0    0  501 -0.00000000000E+00  0.00000000000E+00  0.15551802420E+01  0.15551884087E+01  0.50400000000E-02 0.  1.
          2   -1    0    0  501    0  0.00000000000E+00 -0.00000000000E+00 -0.10563649436E+04  0.10563649436E+04  0.25500000000E-02 0. -1.
         24    2    1    2    0    0  0.00000000000E+00  0.00000000000E+00 -0.10548097633E+04  0.10579201320E+04  0.81063979920E+02 0.  0.
         66    2    3    3    0    0  0.29058840480E+02  0.39570403151E+01 -0.89238199812E+03  0.89286600616E+03  0.20000000521E+01 0.  0.
        -13    1    3    3    0    0 -0.29058840480E+02 -0.39570403151E+01 -0.16242776523E+03  0.16505412584E+03  0.10566000000E+00 0.  1.
         13    1    4    4    0    0  0.20258636175E+02  0.33356972688E+01 -0.63685297810E+03  0.63718385580E+03  0.10566000000E+00 0. -1.
        -13    1    4    4    0    0  0.76662657281E+01  0.59119193988E+00 -0.22844354141E+03  0.22857292909E+03  0.10566000000E+00 0.  1.
        -14    1    4    4    0    0  0.11339385770E+01  0.30151106371E-01 -0.27085478618E+02  0.27109221268E+02  0.00000000000E+00 0.  1.
<mgrwt>
<rscale>  0 0.81063980E+02</rscale>
<asrwt>0</asrwt>
<pdfrwt beam="1">  1        2 0.16251711E+00 0.81063980E+02</pdfrwt>
<pdfrwt beam="2">  1       -1 0.23925997E-03 0.81063980E+02</pdfrwt>
<totfact> 0.34083220E+05</totfact>
</mgrwt>
</event>
<event>
 8    1  0.1226832E-016  0.8062439E+02  0.7818608E-02  0.1327289E+00
         -1   -1    0    0    0  501 -0.00000000000E+00  0.00000000000E+00  0.11505322806E+01  0.11505433196E+01  0.50400000000E-02 0.  1.
          2   -1    0    0  501    0  0.00000000000E+00 -0.00000000000E+00 -0.14124464487E+04  0.14124464487E+04  0.25500000000E-02 0. -1.
         24    2    1    2    0    0  0.00000000000E+00  0.00000000000E+00 -0.14112959164E+04  0.14135969920E+04  0.80624389308E+02 0.  0.
         66    2    3    3    0    0 -0.18606780288E+01  0.23880702076E+02 -0.12740344171E+04  0.12742611373E+04  0.19999994711E+01 0.  0.
        -13    1    3    3    0    0  0.18606780288E+01 -0.23880702076E+02 -0.13726149930E+03  0.13933585471E+03  0.10566000000E+00 0.  1.
         13    1    4    4    0    0 -0.26273761143E+00  0.37089310271E+01 -0.21665302882E+03  0.21668495855E+03  0.10566000000E+00 0.  1.
        -13    1    4    4    0    0 -0.18738883245E+01  0.18820324380E+02 -0.97995734233E+03  0.98013984718E+03  0.10566000000E+00 0. -1.
         14    1    4    4    0    0  0.27594790715E+00  0.13514466686E+01 -0.77424045923E+02  0.77436331541E+02  0.00000000000E+00 0. -1.
<mgrwt>
<rscale>  0 0.80624389E+02</rscale>
<asrwt>0</asrwt>
<pdfrwt beam="1">  1        2 0.21729807E+00 0.80624389E+02</pdfrwt>
<pdfrwt beam="2">  1       -1 0.17700695E-03 0.80624389E+02</pdfrwt>
<totfact> 0.33248497E+05</totfact>
</mgrwt>
</event>
<event>
 8    1  0.1226832E-016  0.7992788E+02  0.7818608E-02  0.1329256E+00
         -1   -1    0    0    0  501 -0.00000000000E+00  0.00000000000E+00  0.17421141738E+01  0.17421214643E+01  0.50400000000E-02 0.  1.
          2   -1    0    0  501    0  0.00000000000E+00 -0.00000000000E+00 -0.91676725818E+03  0.91676725818E+03  0.25500000000E-02 0. -1.
         24    2    1    2    0    0  0.35527136788E-14 -0.88817841970E-15 -0.91502514400E+03  0.91850937964E+03  0.79927882103E+02 0.  0.
         66    2    3    3    0    0 -0.30090155882E+02  0.79748324638E+01 -0.74534323475E+03  0.74599567896E+03  0.19999995331E+01 0.  0.
        -13    1    3    3    0    0  0.30090155882E+02 -0.79748324638E+01 -0.16968190925E+03  0.17251370068E+03  0.10566000000E+00 0.  1.
         13    1    4    4    0    0 -0.40263298695E+01  0.14596676386E+01 -0.10744324867E+03  0.10752862322E+03  0.10566000000E+00 0. -1.
        -13    1    4    4    0    0 -0.11071710330E+02  0.32317929648E+01 -0.26110264382E+03  0.26135728233E+03  0.10566000000E+00 0.  1.
         14    1    4    4    0    0 -0.14992115683E+02  0.32833718604E+01 -0.37679734226E+03  0.37710977341E+03  0.00000000000E+00 0. -1.
<mgrwt>
<rscale>  0 0.79927882E+02</rscale>
<asrwt>0</asrwt>
<pdfrwt beam="1">  1        2 0.14104073E+00 0.79927882E+02</pdfrwt>
<pdfrwt beam="2">  1       -1 0.26801886E-03 0.79927882E+02</pdfrwt>
<totfact> 0.35096129E+05</totfact>
</mgrwt>
</event>
<event>
 8    1  0.1226832E-016  0.8020428E+02  0.7818608E-02  0.1328473E+00
         -1   -1    0    0    0  501 -0.00000000000E+00  0.00000000000E+00  0.88000829824E+01  0.88000844257E+01  0.50400000000E-02 0.  1.
          2   -1    0    0  501    0  0.00000000000E+00 -0.00000000000E+00 -0.18274619289E+03  0.18274619290E+03  0.25500000000E-02 0. -1.
         24    2    1    2    0    0 -0.71054273576E-14 -0.35527136788E-14 -0.17394610990E+03  0.19154627733E+03  0.80204284226E+02 0.  0.
         66    2    3    3    0    0 -0.25008606453E+02 -0.20072143449E+02 -0.14443675122E+03  0.14796721409E+03  0.20000003346E+01 0.  0.
        -13    1    3    3    0    0  0.25008606453E+02  0.20072143449E+02 -0.29509358682E+02  0.43579063244E+02  0.10566000000E+00 0.  1.
         13    1    4    4    0    0 -0.32015076684E+01 -0.26289385152E+01 -0.17693799545E+02  0.18172580318E+02  0.10566000000E+00 0. -1.
        -13    1    4    4    0    0 -0.17316803191E+01 -0.18941000475E+01 -0.13072691161E+02  0.13322640502E+02  0.10566000000E+00 0.  1.
        -14    1    4    4    0    0 -0.20075418466E+02 -0.15549104886E+02 -0.11367026052E+03  0.11647199326E+03  0.00000000000E+00 0.  1.
<mgrwt>
<rscale>  0 0.80204284E+02</rscale>
<asrwt>0</asrwt>
<pdfrwt beam="1">  1        2 0.28114796E-01 0.80204284E+02</pdfrwt>
<pdfrwt beam="2">  1       -1 0.13538592E-02 0.80204284E+02</pdfrwt>
<totfact> 0.21240611E+05</totfact>
</mgrwt>
</event>
<event>
 8    1  0.1226832E-016  0.7793537E+02  0.7818608E-02  0.1335015E+00
          2   -1    0    0  501    0  0.00000000000E+00  0.00000000000E+00  0.33053013653E+02  0.33053013751E+02  0.25500000000E-02 0. -1.
         -1   -1    0    0    0  501 -0.00000000000E+00 -0.00000000000E+00 -0.45940759172E+02  0.45940759448E+02  0.50400000000E-02 0.  1.
         24    2    1    2    0    0  0.00000000000E+00  0.17763568394E-14 -0.12887745519E+02  0.78993773199E+02  0.77935372070E+02 0.  0.
         66    2    3    3    0    0 -0.32843515901E+02  0.84444682559E+01  0.12955279865E+02  0.36357184383E+02  0.19999997553E+01 0.  0.
        -13    1    3    3    0    0  0.32843515901E+02 -0.84444682559E+01 -0.25843025383E+02  0.42636588816E+02  0.10566000000E+00 0.  1.
         13    1    4    4    0    0 -0.50900064271E+01  0.17814114980E+01  0.21671337029E+01  0.58128499787E+01  0.10566000000E+00 0. -1.
        -13    1    4    4    0    0 -0.78213500201E+01  0.25070293996E+01  0.32103698149E+01  0.88190901419E+01  0.10566000000E+00 0.  1.
         14    1    4    4    0    0 -0.19932159454E+02  0.41560273582E+01  0.75777763468E+01  0.21725244263E+02  0.00000000000E+00 0. -1.
<mgrwt>
<rscale>  0 0.77935372E+02</rscale>
<asrwt>0</asrwt>
<pdfrwt beam="1">  1        2 0.50850790E-02 0.77935372E+02</pdfrwt>
<pdfrwt beam="2">  1       -1 0.70678092E-02 0.77935372E+02</pdfrwt>
<totfact> 0.14751537E+05</totfact>
</mgrwt>
</event>
<event>
 8    1  0.1226832E-016  0.7954623E+02  0.7818608E-02  0.1330344E+00
          2   -1    0    0  501    0  0.00000000000E+00  0.00000000000E+00  0.14871596851E+04  0.14871596851E+04  0.25500000000E-02 0. -1.
         -1   -1    0    0    0  501 -0.00000000000E+00 -0.00000000000E+00 -0.10637001227E+01  0.10637120628E+01  0.50400000000E-02 0.  1.
         24    2    1    2    0    0  0.17763568394E-14  0.88817841970E-15  0.14860959850E+04  0.14882233972E+04  0.79546233750E+02 0.  0.
         66    2    3    3    0    0  0.11337418690E+02  0.72941781507E+01  0.14430780216E+04  0.14431423764E+04  0.20000010281E+01 0.  0.
        -13    1    3    3    0    0 -0.11337418690E+02 -0.72941781507E+01  0.43017963452E+02  0.45081020852E+02  0.10566000000E+00 0.  1.
         13    1    4    4    0    0  0.24791549443E+01  0.13881330362E+01  0.28544834655E+03  0.28546250688E+03  0.10566000000E+00 0. -1.
        -13    1    4    4    0    0  0.66478589187E+00  0.49092155028E+00  0.53151093398E+02  0.53157622574E+02  0.10566000000E+00 0.  1.
         14    1    4    4    0    0  0.81934778537E+01  0.54151235643E+01  0.11044785816E+04  0.11045222469E+04  0.00000000000E+00 0. -1.
<mgrwt>
<rscale>  0 0.79546234E+02</rscale>
<asrwt>0</asrwt>
<pdfrwt beam="1">  1        2 0.22879482E+00 0.79546234E+02</pdfrwt>
<pdfrwt beam="2">  1       -1 0.16364636E-03 0.79546234E+02</pdfrwt>
<totfact> 0.33854226E+05</totfact>
</mgrwt>
</event>
<event>
 8    1  0.1226832E-016  0.7892329E+02  0.7818608E-02  0.1332135E+00
          2   -1    0    0  501    0  0.00000000000E+00  0.00000000000E+00  0.32821555074E+03  0.32821555075E+03  0.25500000000E-02 0. -1.
         -1   -1    0    0    0  501 -0.00000000000E+00 -0.00000000000E+00 -0.47445067473E+01  0.47445094242E+01  0.50400000000E-02 0.  1.
         24    2    1    2    0    0 -0.17763568394E-14  0.00000000000E+00  0.32347104399E+03  0.33296006017E+03  0.78923287877E+02 0.  0.
         66    2    3    3    0    0  0.10539056035E+02 -0.34975782087E+02  0.22453298371E+03  0.22749381926E+03  0.19999990033E+01 0.  0.
        -13    1    3    3    0    0 -0.10539056035E+02  0.34975782087E+02  0.98938060284E+02  0.10546624091E+03  0.10566000000E+00 0.  1.
         13    1    4    4    0    0  0.78148437716E+01 -0.23474928165E+02  0.15269669564E+03  0.15468818979E+03  0.10566000000E+00 0. -1.
        -13    1    4    4    0    0  0.79039960795E+00 -0.41648595121E+01  0.24093938517E+02  0.24464256041E+02  0.10566000000E+00 0.  1.
         14    1    4    4    0    0  0.19338126549E+01 -0.73359944098E+01  0.47742349547E+02  0.48341373436E+02  0.00000000000E+00 0. -1.
<mgrwt>
<rscale>  0 0.78923288E+02</rscale>
<asrwt>0</asrwt>
<pdfrwt beam="1">  1        2 0.50494700E-01 0.78923288E+02</pdfrwt>
<pdfrwt beam="2">  1       -1 0.72992432E-03 0.78923288E+02</pdfrwt>
<totfact> 0.27286305E+05</totfact>
</mgrwt>
</event>
<event>
 8    1  0.1226832E-016  0.7475985E+02  0.7818608E-02  0.1344616E+00
         -1   -1    0    0    0  501 -0.00000000000E+00  0.00000000000E+00  0.91155717882E+01  0.91155731815E+01  0.50400000000E-02 0.  1.
          2   -1    0    0  501    0  0.00000000000E+00 -0.00000000000E+00 -0.15328259463E+03  0.15328259466E+03  0.25500000000E-02 0. -1.
         24    2    1    2    0    0  0.00000000000E+00  0.00000000000E+00 -0.14416702285E+03  0.16239816784E+03  0.74759845108E+02 0.  0.
         66    2    3    3    0    0 -0.32610217138E+02 -0.17442096476E+02 -0.60722656333E+02  0.71125902290E+02  0.19999983046E+01 0.  0.
        -13    1    3    3    0    0  0.32610217138E+02  0.17442096476E+02 -0.83444366513E+02  0.91272265547E+02  0.10566000000E+00 0.  1.
         13    1    4    4    0    0 -0.37955612724E+01 -0.23791920873E+01 -0.78508514416E+01  0.90395725980E+01  0.10566000000E+00 0. -1.
        -13    1    4    4    0    0 -0.26536086416E+02 -0.13557423324E+02 -0.48962317567E+02  0.57317425928E+02  0.10566000000E+00 0.  1.
        -14    1    4    4    0    0 -0.22785694495E+01 -0.15054810644E+01 -0.39094873242E+01  0.47689037640E+01  0.00000000000E+00 0.  1.
<mgrwt>
<rscale>  0 0.74759845E+02</rscale>
<asrwt>0</asrwt>
<pdfrwt beam="1">  1        2 0.23581936E-01 0.74759845E+02</pdfrwt>
<pdfrwt beam="2">  1       -1 0.14023959E-02 0.74759845E+02</pdfrwt>
<totfact> 0.24124119E+05</totfact>
</mgrwt>
</event>
<event>
 8    1  0.1226832E-016  0.7878163E+02  0.7818608E-02  0.1332545E+00
         -1   -1    0    0    0  501 -0.00000000000E+00  0.00000000000E+00  0.15065035560E+01  0.15065119867E+01  0.50400000000E-02 0.  1.
          2   -1    0    0  501    0  0.00000000000E+00 -0.00000000000E+00 -0.10299557706E+04  0.10299557706E+04  0.25500000000E-02 0. -1.
         24    2    1    2    0    0 -0.17763568394E-14 -0.35527136788E-14 -0.10284492670E+04  0.10314622826E+04  0.78781631882E+02 0.  0.
         66    2    3    3    0    0 -0.11131977532E+02 -0.16208434566E+02 -0.96105125476E+03  0.96125446608E+03  0.20000027636E+01 0.  0.
        -13    1    3    3    0    0  0.11131977532E+02  0.16208434566E+02 -0.67398012260E+02  0.70207816484E+02  0.10566000000E+00 0.  1.
         13    1    4    4    0    0 -0.39825613021E+01 -0.44219857496E+01 -0.28773268403E+03  0.28779423792E+03  0.10566000000E+00 0. -1.
        -13    1    4    4    0    0 -0.10615587639E+00 -0.34887437554E+00 -0.19398562973E+02  0.19402278007E+02  0.10566000000E+00 0.  1.
         14    1    4    4    0    0 -0.70432603539E+01 -0.11437574441E+02 -0.65392000775E+03  0.65405795015E+03  0.00000000000E+00 0. -1.
<mgrwt>
<rscale>  0 0.78781632E+02</rscale>
<asrwt>0</asrwt>
<pdfrwt beam="1">  1        2 0.15845417E+00 0.78781632E+02</pdfrwt>
<pdfrwt beam="2">  1       -1 0.23177125E-03 0.78781632E+02</pdfrwt>
<totfact> 0.36695889E+05</totfact>
</mgrwt>
</event>
<event>
 8    1  0.1226832E-016  0.7889325E+02  0.7818608E-02  0.1332222E+00
          2   -1    0    0  501    0  0.00000000000E+00  0.00000000000E+00  0.10307488432E+03  0.10307488435E+03  0.25500000000E-02 0. -1.
         -1   -1    0    0    0  501 -0.00000000000E+00 -0.00000000000E+00 -0.15096170496E+02  0.15096171337E+02  0.50400000000E-02 0.  1.
         24    2    1    2    0    0  0.71054273576E-14  0.00000000000E+00  0.87978713823E+02  0.11817105569E+03  0.78893246328E+02 0.  0.
         66    2    3    3    0    0  0.38791521660E+02 -0.61178181725E+01  0.49167508283E+02  0.62957554699E+02  0.19999927553E+01 0.  0.
        -13    1    3    3    0    0 -0.38791521660E+02  0.61178181725E+01  0.38811205540E+02  0.55213500988E+02  0.10566000000E+00 0.  1.
         13    1    4    4    0    0  0.13152442146E+02 -0.19473490119E+01  0.16321527159E+02  0.21051895768E+02  0.10566000000E+00 0. -1.
        -13    1    4    4    0    0  0.18671621557E+01  0.86894951896E-01  0.24708551151E+01  0.31000216586E+01  0.10566000000E+00 0.  1.
        -14    1    4    4    0    0  0.23771917358E+02 -0.42573641125E+01  0.30375126009E+02  0.38805637272E+02  0.00000000000E+00 0.  1.
<mgrwt>
<rscale>  0 0.78893246E+02</rscale>
<asrwt>0</asrwt>
<pdfrwt beam="1">  1        2 0.15857674E-01 0.78893246E+02</pdfrwt>
<pdfrwt beam="2">  1       -1 0.23224879E-02 0.78893246E+02</pdfrwt>
<totfact> 0.18556292E+05</totfact>
</mgrwt>
</event>
<event>
 8    1  0.1226832E-016  0.8027483E+02  0.7818608E-02  0.1328273E+00
         -1   -1    0    0    0  501 -0.00000000000E+00  0.00000000000E+00  0.14306366231E+01  0.14306455008E+01  0.50400000000E-02 0.  1.
          2   -1    0    0  501    0  0.00000000000E+00 -0.00000000000E+00 -0.11260769612E+04  0.11260769612E+04  0.25500000000E-02 0. -1.
         24    2    1    2    0    0  0.17763568394E-14  0.00000000000E+00 -0.11246463245E+04  0.11275076067E+04  0.80274826627E+02 0.  0.
         66    2    3    3    0    0  0.10946313823E+02 -0.24864832011E+00 -0.11046789223E+04  0.11047349931E+04  0.19999996503E+01 0.  0.
        -13    1    3    3    0    0 -0.10946313823E+02  0.24864832011E+00 -0.19967402240E+02  0.22772613564E+02  0.10566000000E+00 0.  1.
         13    1    4    4    0    0  0.62806617694E+01  0.60721695813E+00 -0.64347997409E+03  0.64351091960E+03  0.10566000000E+00 0. -1.
        -13    1    4    4    0    0  0.14519414616E+01 -0.61744925277E+00 -0.16633264509E+03  0.16634016161E+03  0.10566000000E+00 0.  1.
        -14    1    4    4    0    0  0.32137105922E+01 -0.23841602547E+00 -0.29486630311E+03  0.29488391189E+03  0.00000000000E+00 0.  1.
<mgrwt>
<rscale>  0 0.80274827E+02</rscale>
<asrwt>0</asrwt>
<pdfrwt beam="1">  1        2 0.17324190E+00 0.80274827E+02</pdfrwt>
<pdfrwt beam="2">  1       -1 0.22009953E-03 0.80274827E+02</pdfrwt>
<totfact> 0.34905378E+05</totfact>
</mgrwt>
</event>
<event>
 8    1  0.1226832E-016  0.7661396E+02  0.7818608E-02  0.1338945E+00
         -1   -1    0    0    0  501 -0.00000000000E+00  0.00000000000E+00  0.45537019309E+01  0.45537047200E+01  0.50400000000E-02 0.  1.
          2   -1    0    0  501    0  0.00000000000E+00 -0.00000000000E+00 -0.32224867550E+03  0.32224867551E+03  0.25500000000E-02 0. -1.
         24    2    1    2    0    0  0.00000000000E+00 -0.22204460493E-15 -0.31769497357E+03  0.32680238023E+03  0.76613964087E+02 0.  0.
         66    2    3    3    0    0 -0.37601795425E+02  0.17067002970E+01 -0.18869602438E+03  0.19242400436E+03  0.19999981719E+01 0.  0.
        -13    1    3    3    0    0  0.37601795425E+02 -0.17067002970E+01 -0.12899894919E+03  0.13437837587E+03  0.10566000000E+00 0.  1.
         13    1    4    4    0    0 -0.19559925876E+02  0.10232058553E+00 -0.97017788560E+02  0.98970013797E+02  0.10566000000E+00 0. -1.
        -13    1    4    4    0    0 -0.63762688067E+01  0.23886057931E+00 -0.33286003464E+02  0.33892226969E+02  0.10566000000E+00 0.  1.
         14    1    4    4    0    0 -0.11665600742E+02  0.13655191322E+01 -0.58392232358E+02  0.59561763598E+02  0.00000000000E+00 0. -1.
<mgrwt>
<rscale>  0 0.76613964E+02</rscale>
<asrwt>0</asrwt>
<pdfrwt beam="1">  1        2 0.49576702E-01 0.76613964E+02</pdfrwt>
<pdfrwt beam="2">  1       -1 0.70057000E-03 0.76613964E+02</pdfrwt>
<totfact> 0.29293031E+05</totfact>
</mgrwt>
</event>
<event>
 8    1  0.1226832E-016  0.7008079E+02  0.7818608E-02  0.1359819E+00
         -1   -1    0    0    0  501 -0.00000000000E+00  0.00000000000E+00  0.29857059105E+01  0.29857101644E+01  0.50400000000E-02 0.  1.
          2   -1    0    0  501    0  0.00000000000E+00 -0.00000000000E+00 -0.41123559140E+03  0.41123559141E+03  0.25500000000E-02 0. -1.
         24    2    1    2    0    0  0.00000000000E+00  0.00000000000E+00 -0.40824988549E+03  0.41422130158E+03  0.70080793903E+02 0.  0.
         66    2    3    3    0    0 -0.47955613862E+01  0.10132400427E+02 -0.40033839351E+03  0.40050030246E+03  0.20000001146E+01 0.  0.
        -13    1    3    3    0    0  0.47955613862E+01 -0.10132400427E+02 -0.79114919804E+01  0.13720999119E+02  0.10566000000E+00 0.  1.
         13    1    4    4    0    0 -0.33994790893E+01  0.73766873924E+01 -0.27374832912E+03  0.27386882048E+03  0.10566000000E+00 0. -1.
        -13    1    4    4    0    0 -0.54792562767E+00  0.43262728119E+00 -0.19282219576E+02  0.19295143033E+02  0.10566000000E+00 0.  1.
        -14    1    4    4    0    0 -0.84815666921E+00  0.23230857536E+01 -0.10730784482E+03  0.10733633894E+03  0.00000000000E+00 0.  1.
<mgrwt>
<rscale>  0 0.70080794E+02</rscale>
<asrwt>0</asrwt>
<pdfrwt beam="1">  1        2 0.63266969E-01 0.70080794E+02</pdfrwt>
<pdfrwt beam="2">  1       -1 0.45934003E-03 0.70080794E+02</pdfrwt>
<totfact> 0.40209395E+05</totfact>
</mgrwt>
</event>
<event>
 8    1  0.1226832E-016  0.7767318E+02  0.7818608E-02  0.1335787E+00
         -1   -1    0    0    0  501 -0.00000000000E+00  0.00000000000E+00  0.42582843635E+02  0.42582843933E+02  0.50400000000E-02 0.  1.
          2   -1    0    0  501    0  0.00000000000E+00 -0.00000000000E+00 -0.35419919208E+02  0.35419919300E+02  0.25500000000E-02 0. -1.
         24    2    1    2    0    0  0.22204460493E-15  0.00000000000E+00  0.71629244268E+01  0.78002763234E+02  0.77673184470E+02 0.  0.
         66    2    3    3    0    0  0.19612575837E+01 -0.37188735750E+02 -0.73908235363E+01  0.38019374911E+02  0.19999995270E+01 0.  0.
        -13    1    3    3    0    0 -0.19612575837E+01  0.37188735750E+02  0.14553747963E+02  0.39983388323E+02  0.10566000000E+00 0.  1.
         13    1    4    4    0    0  0.16401214402E+01 -0.15215113971E+02 -0.34654891839E+01  0.15691095271E+02  0.10566000000E+00 0. -1.
        -13    1    4    4    0    0 -0.76071827212E-01 -0.86772007040E+01 -0.15443755950E+01  0.88145254549E+01  0.10566000000E+00 0.  1.
         14    1    4    4    0    0  0.39720797068E+00 -0.13296421074E+02 -0.23809587573E+01  0.13513754185E+02  0.00000000000E+00 0. -1.
<mgrwt>
<rscale>  0 0.77673184E+02</rscale>
<asrwt>0</asrwt>
<pdfrwt beam="1">  1        2 0.54492184E-02 0.77673184E+02</pdfrwt>
<pdfrwt beam="2">  1       -1 0.65512067E-02 0.77673184E+02</pdfrwt>
<totfact> 0.15093654E+05</totfact>
</mgrwt>
</event>
<event>
 8    1  0.1226832E-016  0.8064379E+02  0.7818608E-02  0.1327234E+00
         -1   -1    0    0    0  501 -0.00000000000E+00  0.00000000000E+00  0.91726632893E+01  0.91726646740E+01  0.50400000000E-02 0.  1.
          2   -1    0    0  501    0  0.00000000000E+00 -0.00000000000E+00 -0.17725007123E+03  0.17725007125E+03  0.25500000000E-02 0. -1.
         24    2    1    2    0    0  0.00000000000E+00  0.00000000000E+00 -0.16807740794E+03  0.18642273592E+03  0.80643793367E+02 0.  0.
         66    2    3    3    0    0 -0.71327057897E+01  0.96013027763E+01 -0.17304612597E+03  0.17347052260E+03  0.19999976988E+01 0.  0.
        -13    1    3    3    0    0  0.71327057897E+01 -0.96013027763E+01  0.49687180346E+01  0.12952213318E+02  0.10566000000E+00 0.  1.
         13    1    4    4    0    0 -0.61590203572E+00  0.10493221064E+01 -0.19631130157E+02  0.19669083544E+02  0.10566000000E+00 0. -1.
        -13    1    4    4    0    0 -0.28368824520E+01  0.32095917084E+01 -0.72705231664E+02  0.72831389224E+02  0.10566000000E+00 0.  1.
         14    1    4    4    0    0 -0.36799213020E+01  0.53423889615E+01 -0.80709764154E+02  0.80970049836E+02  0.00000000000E+00 0. -1.
<mgrwt>
<rscale>  0 0.80643793E+02</rscale>
<asrwt>0</asrwt>
<pdfrwt beam="1">  1        2 0.27269239E-01 0.80643793E+02</pdfrwt>
<pdfrwt beam="2">  1       -1 0.14111792E-02 0.80643793E+02</pdfrwt>
<totfact> 0.20719617E+05</totfact>
</mgrwt>
</event>
<event>
 8    1  0.1226832E-016  0.7741618E+02  0.7818608E-02  0.1336548E+00
          2   -1    0    0  501    0  0.00000000000E+00  0.00000000000E+00  0.11834144324E+04  0.11834144324E+04  0.25500000000E-02 0. -1.
         -1   -1    0    0    0  501 -0.00000000000E+00 -0.00000000000E+00 -0.12660910327E+01  0.12661010642E+01  0.50400000000E-02 0.  1.
         24    2    1    2    0    0  0.00000000000E+00  0.88817841970E-15  0.11821483414E+04  0.11846805335E+04  0.77416182921E+02 0.  0.
         66    2    3    3    0    0 -0.21487241083E+02 -0.78298755163E+01  0.10688797666E+04  0.10691262619E+04  0.19999977855E+01 0.  0.
        -13    1    3    3    0    0  0.21487241083E+02  0.78298755163E+01  0.11326857479E+03  0.11555427158E+03  0.10566000000E+00 0.  1.
         13    1    4    4    0    0 -0.42473494973E+01 -0.97138643096E+00  0.21774694249E+03  0.21779055465E+03  0.10566000000E+00 0. -1.
        -13    1    4    4    0    0 -0.10694783150E+02 -0.44872870406E+01  0.51019015302E+03  0.51032197438E+03  0.10566000000E+00 0.  1.
         14    1    4    4    0    0 -0.65451084363E+01 -0.23712020448E+01  0.34094267107E+03  0.34101373286E+03  0.00000000000E+00 0. -1.
<mgrwt>
<rscale>  0 0.77416183E+02</rscale>
<asrwt>0</asrwt>
<pdfrwt beam="1">  1        2 0.18206308E+00 0.77416183E+02</pdfrwt>
<pdfrwt beam="2">  1       -1 0.19478474E-03 0.77416183E+02</pdfrwt>
<totfact> 0.38204960E+05</totfact>
</mgrwt>
</event>
<event>
 8    1  0.1226832E-016  0.7955616E+02  0.7818608E-02  0.1330316E+00
         -1   -1    0    0    0  501 -0.00000000000E+00  0.00000000000E+00  0.11676210387E+02  0.11676211474E+02  0.50400000000E-02 0.  1.
          2   -1    0    0  501    0  0.00000000000E+00 -0.00000000000E+00 -0.13551447848E+03  0.13551447850E+03  0.25500000000E-02 0. -1.
         24    2    1    2    0    0 -0.35527136788E-14  0.35527136788E-14 -0.12383826809E+03  0.14719068998E+03  0.79556159861E+02 0.  0.
         66    2    3    3    0    0  0.22322664244E+02 -0.26555427891E+02 -0.97871941535E+02  0.10385763829E+03  0.20000006287E+01 0.  0.
        -13    1    3    3    0    0 -0.22322664244E+02  0.26555427891E+02 -0.25966326558E+02  0.43333051685E+02  0.10566000000E+00 0.  1.
         13    1    4    4    0    0  0.14391293430E+02 -0.16209155208E+02 -0.62158272328E+02  0.65829385703E+02  0.10566000000E+00 0. -1.
        -13    1    4    4    0    0  0.52822284983E+00 -0.74759147058E+00 -0.20160008672E+01  0.22166045921E+01  0.10566000000E+00 0. -1.
        -14    1    4    4    0    0  0.74031479634E+01 -0.95986812122E+01 -0.33697668339E+02  0.35811647997E+02  0.00000000000E+00 0.  1.
<mgrwt>
<rscale>  0 0.79556160E+02</rscale>
<asrwt>0</asrwt>
<pdfrwt beam="1">  1        2 0.20848380E-01 0.79556160E+02</pdfrwt>
<pdfrwt beam="2">  1       -1 0.17963402E-02 0.79556160E+02</pdfrwt>
<totfact> 0.19683834E+05</totfact>
</mgrwt>
</event>
<event>
 8    1  0.1226832E-016  0.8043299E+02  0.7818608E-02  0.1327827E+00
          2   -1    0    0  501    0  0.00000000000E+00  0.00000000000E+00  0.41295206613E+02  0.41295206692E+02  0.25500000000E-02 0. -1.
         -1   -1    0    0    0  501 -0.00000000000E+00 -0.00000000000E+00 -0.39165962673E+02  0.39165962997E+02  0.50400000000E-02 0.  1.
         24    2    1    2    0    0  0.00000000000E+00  0.00000000000E+00  0.21292439408E+01  0.80461169689E+02  0.80432991664E+02 0.  0.
         66    2    3    3    0    0 -0.19182104014E+02 -0.13720316133E+02  0.33621439360E+02  0.41116923280E+02  0.20000015577E+01 0.  0.
        -13    1    3    3    0    0  0.19182104014E+02  0.13720316133E+02 -0.31492195419E+02  0.39344246409E+02  0.10566000000E+00 0.  1.
         13    1    4    4    0    0 -0.16427188053E+02 -0.11242729726E+02  0.27877228455E+02  0.34254963281E+02  0.10566000000E+00 0. -1.
        -13    1    4    4    0    0 -0.16168644404E+01 -0.11313937193E+01  0.33379410713E+01  0.38790871345E+01  0.10566000000E+00 0.  1.
         14    1    4    4    0    0 -0.11380515205E+01 -0.13461926872E+01  0.24062698331E+01  0.29828728642E+01  0.00000000000E+00 0. -1.
<mgrwt>
<rscale>  0 0.80432992E+02</rscale>
<asrwt>0</asrwt>
<pdfrwt beam="1">  1        2 0.63531087E-02 0.80432992E+02</pdfrwt>
<pdfrwt beam="2">  1       -1 0.60255328E-02 0.80432992E+02</pdfrwt>
<totfact> 0.14136901E+05</totfact>
</mgrwt>
</event>
<event>
 8    1  0.1226832E-016  0.7771000E+02  0.7818608E-02  0.1335679E+00
          2   -1    0    0  501    0  0.00000000000E+00  0.00000000000E+00  0.35818273094E+01  0.35818282171E+01  0.25500000000E-02 0. -1.
         -1   -1    0    0    0  501 -0.00000000000E+00 -0.00000000000E+00 -0.42149182699E+03  0.42149182702E+03  0.50400000000E-02 0.  1.
         24    2    1    2    0    0  0.00000000000E+00  0.00000000000E+00 -0.41790999968E+03  0.42507365524E+03  0.77710002855E+02 0.  0.
         66    2    3    3    0    0  0.20125795774E+02 -0.33004533215E+02 -0.22908611199E+03  0.23233336730E+03  0.19999962532E+01 0.  0.
        -13    1    3    3    0    0 -0.20125795774E+02  0.33004533215E+02 -0.18882388769E+03  0.19274028794E+03  0.10566000000E+00 0.  1.
         13    1    4    4    0    0  0.55920334800E+01 -0.79661480703E+01 -0.55043478897E+02  0.55897460467E+02  0.10566000000E+00 0.  1.
        -13    1    4    4    0    0  0.11016465741E+02 -0.18368565981E+02 -0.12971027068E+03  0.13146684836E+03  0.10566000000E+00 0. -1.
        -14    1    4    4    0    0  0.35172965531E+01 -0.66698191644E+01 -0.44332362406E+02  0.44969058465E+02  0.00000000000E+00 0.  1.
<mgrwt>
<rscale>  0 0.77710003E+02</rscale>
<asrwt>0</asrwt>
<pdfrwt beam="1">  1        2 0.55105076E-03 0.77710003E+02</pdfrwt>
<pdfrwt beam="2">  1       -1 0.64844858E-01 0.77710003E+02</pdfrwt>
<totfact> 0.79460647E+04</totfact>
</mgrwt>
</event>
<event>
 8    1  0.1226832E-016  0.7886239E+02  0.7818608E-02  0.1332311E+00
          2   -1    0    0  501    0  0.00000000000E+00  0.00000000000E+00  0.28883204226E+03  0.28883204227E+03  0.25500000000E-02 0. -1.
         -1   -1    0    0    0  501 -0.00000000000E+00 -0.00000000000E+00 -0.53831240353E+01  0.53831263947E+01  0.50400000000E-02 0.  1.
         24    2    1    2    0    0 -0.44408920985E-15  0.71054273576E-14  0.28344891823E+03  0.29421516867E+03  0.78862387933E+02 0.  0.
         66    2    3    3    0    0  0.30677082880E+01 -0.31629110936E+02  0.22875064482E+03  0.23095598933E+03  0.20000023598E+01 0.  0.
        -13    1    3    3    0    0 -0.30677082880E+01  0.31629110936E+02  0.54698273409E+02  0.63259179339E+02  0.10566000000E+00 0.  1.
         13    1    4    4    0    0  0.68803966974E+00 -0.93162420109E+01  0.66115495166E+02  0.66772266914E+02  0.10566000000E+00 0. -1.
        -13    1    4    4    0    0  0.75819424923E+00 -0.13775693858E+02  0.97388043518E+02  0.98360494021E+02  0.10566000000E+00 0.  1.
        -14    1    4    4    0    0  0.16214743690E+01 -0.85371750669E+01  0.65247106136E+02  0.65823228395E+02  0.00000000000E+00 0.  1.
<mgrwt>
<rscale>  0 0.78862388E+02</rscale>
<asrwt>0</asrwt>
<pdfrwt beam="1">  1        2 0.44435695E-01 0.78862388E+02</pdfrwt>
<pdfrwt beam="2">  1       -1 0.82817318E-03 0.78862388E+02</pdfrwt>
<totfact> 0.26108570E+05</totfact>
</mgrwt>
</event>
<event>
 8    1  0.1226832E-016  0.7898234E+02  0.7818608E-02  0.1331964E+00
         -1   -1    0    0    0  501 -0.00000000000E+00  0.00000000000E+00  0.60347683634E+01  0.60347704680E+01  0.50400000000E-02 0.  1.
          2   -1    0    0  501    0  0.00000000000E+00 -0.00000000000E+00 -0.25842786534E+03  0.25842786536E+03  0.25500000000E-02 0. -1.
         24    2    1    2    0    0  0.00000000000E+00  0.00000000000E+00 -0.25239309698E+03  0.26446263582E+03  0.78982341974E+02 0.  0.
         66    2    3    3    0    0 -0.36538600579E+02  0.27973209541E+00 -0.17621186262E+03  0.17997157585E+03  0.20000011720E+01 0.  0.
        -13    1    3    3    0    0  0.36538600579E+02 -0.27973209541E+00 -0.76181234357E+02  0.84491059968E+02  0.10566000000E+00 0.  1.
         13    1    4    4    0    0 -0.16491396047E+02 -0.75966537732E+00 -0.79335900881E+02  0.81035421685E+02  0.10566000000E+00 0. -1.
        -13    1    4    4    0    0 -0.66934856953E+01  0.14208504590E+00 -0.31229212685E+02  0.31938970363E+02  0.10566000000E+00 0.  1.
        -14    1    4    4    0    0 -0.13353718837E+02  0.89731242683E+00 -0.65646749056E+02  0.66997183807E+02  0.00000000000E+00 0.  1.
<mgrwt>
<rscale>  0 0.78982342E+02</rscale>
<asrwt>0</asrwt>
<pdfrwt beam="1">  1        2 0.39758125E-01 0.78982342E+02</pdfrwt>
<pdfrwt beam="2">  1       -1 0.92842627E-03 0.78982342E+02</pdfrwt>
<totfact> 0.24980056E+05</totfact>
</mgrwt>
</event>
<event>
 8    1  0.1226832E-016  0.7933465E+02  0.7818608E-02  0.1330950E+00
          2   -1    0    0  501    0  0.00000000000E+00  0.00000000000E+00  0.24690034084E+03  0.24690034086E+03  0.25500000000E-02 0. -1.
         -1   -1    0    0    0  501 -0.00000000000E+00 -0.00000000000E+00 -0.63730023648E+01  0.63730043577E+01  0.50400000000E-02 0.  1.
         24    2    1    2    0    0  0.17763568394E-14  0.00000000000E+00  0.24052733848E+03  0.25327334521E+03  0.79334650944E+02 0.  0.
         66    2    3    3    0    0 -0.10806442783E+02 -0.37723727423E+02  0.13829534120E+03  0.14376877340E+03  0.19999978418E+01 0.  0.
        -13    1    3    3    0    0  0.10806442783E+02  0.37723727423E+02  0.10223199728E+03  0.10950457181E+03  0.10566000000E+00 0.  1.
         13    1    4    4    0    0 -0.83972960803E+01 -0.28445958833E+02  0.10503030316E+03  0.10913781609E+03  0.10566000000E+00 0. -1.
        -13    1    4    4    0    0 -0.56228102158E+00 -0.17660281172E+01  0.77417568433E+01  0.79612171378E+01  0.10566000000E+00 0.  1.
         14    1    4    4    0    0 -0.18468656814E+01 -0.75117404730E+01  0.25523281195E+02  0.26669740170E+02  0.00000000000E+00 0. -1.
<mgrwt>
<rscale>  0 0.79334651E+02</rscale>
<asrwt>0</asrwt>
<pdfrwt beam="1">  1        2 0.37984673E-01 0.79334651E+02</pdfrwt>
<pdfrwt beam="2">  1       -1 0.98046193E-03 0.79334651E+02</pdfrwt>
<totfact> 0.24289376E+05</totfact>
</mgrwt>
</event>
<event>
 8    1  0.1226832E-016  0.8338542E+02  0.7818608E-02  0.1319710E+00
          2   -1    0    0  501    0  0.00000000000E+00  0.00000000000E+00  0.29733041251E+03  0.29733041252E+03  0.25500000000E-02 0. -1.
         -1   -1    0    0    0  501 -0.00000000000E+00 -0.00000000000E+00 -0.58462959191E+01  0.58462980915E+01  0.50400000000E-02 0.  1.
         24    2    1    2    0    0  0.00000000000E+00 -0.88817841970E-15  0.29148411659E+03  0.30317671061E+03  0.83385416189E+02 0.  0.
         66    2    3    3    0    0  0.28310390646E+02 -0.74243966344E+01  0.25366255778E+03  0.25535327118E+03  0.20000001259E+01 0.  0.
        -13    1    3    3    0    0 -0.28310390646E+02  0.74243966344E+01  0.37821558810E+02  0.47823439429E+02  0.10566000000E+00 0.  1.
         13    1    4    4    0    0  0.13036159410E+02 -0.26867533046E+01  0.11446725903E+03  0.11523855540E+03  0.10566000000E+00 0.  1.
        -13    1    4    4    0    0  0.14701220400E+02 -0.46310496575E+01  0.13547563260E+03  0.13634966335E+03  0.10566000000E+00 0. -1.
         14    1    4    4    0    0  0.57301083572E+00 -0.10659367234E+00  0.37196661447E+01  0.37650524375E+01  0.00000000000E+00 0. -1.
<mgrwt>
<rscale>  0 0.83385416E+02</rscale>
<asrwt>0</asrwt>
<pdfrwt beam="1">  1        2 0.45743149E-01 0.83385416E+02</pdfrwt>
<pdfrwt beam="2">  1       -1 0.89943015E-03 0.83385416E+02</pdfrwt>
<totfact> 0.22790041E+05</totfact>
</mgrwt>
</event>
<event>
 8    1  0.1226832E-016  0.7960955E+02  0.7818608E-02  0.1330163E+00
          2   -1    0    0  501    0  0.00000000000E+00  0.00000000000E+00  0.11342489235E+03  0.11342489238E+03  0.25500000000E-02 0. -1.
         -1   -1    0    0    0  501 -0.00000000000E+00 -0.00000000000E+00 -0.13968893192E+02  0.13968894101E+02  0.50400000000E-02 0.  1.
         24    2    1    2    0    0  0.00000000000E+00  0.00000000000E+00  0.99455999158E+02  0.12739378648E+03  0.79609553856E+02 0.  0.
         66    2    3    3    0    0 -0.16187041216E+01 -0.26789355691E+02  0.96745279596E+02  0.10041881760E+03  0.20000058033E+01 0.  0.
        -13    1    3    3    0    0  0.16187041216E+01  0.26789355691E+02  0.27107195619E+01  0.26974968877E+02  0.10566000000E+00 0.  1.
         13    1    4    4    0    0 -0.13951164397E+01 -0.15571400806E+02  0.55760208870E+02  0.57910507943E+02  0.10566000000E+00 0. -1.
        -13    1    4    4    0    0 -0.42786081601E+00 -0.41377189737E+01  0.16770552630E+02  0.17279073550E+02  0.10566000000E+00 0.  1.
        -14    1    4    4    0    0  0.20427313414E+00 -0.70802359109E+01  0.24214518095E+02  0.25229236109E+02  0.00000000000E+00 0.  1.
<mgrwt>
<rscale>  0 0.79609554E+02</rscale>
<asrwt>0</asrwt>
<pdfrwt beam="1">  1        2 0.17449984E-01 0.79609554E+02</pdfrwt>
<pdfrwt beam="2">  1       -1 0.21490606E-02 0.79609554E+02</pdfrwt>
<totfact> 0.18618928E+05</totfact>
</mgrwt>
</event>
<event>
 8    1  0.1226832E-016  0.8018457E+02  0.7818608E-02  0.1328528E+00
         -1   -1    0    0    0  501 -0.00000000000E+00  0.00000000000E+00  0.23482539375E+03  0.23482539381E+03  0.50400000000E-02 0.  1.
          2   -1    0    0  501    0  0.00000000000E+00 -0.00000000000E+00 -0.68450490520E+01  0.68450495269E+01  0.25500000000E-02 0. -1.
         24    2    1    2    0    0  0.00000000000E+00 -0.71054273576E-14  0.22798034470E+03  0.24167044334E+03  0.80184572153E+02 0.  0.
         66    2    3    3    0    0 -0.68150526909E+00 -0.34868982492E+02  0.54611149469E+02  0.64828142374E+02  0.20000019683E+01 0.  0.
        -13    1    3    3    0    0  0.68150526909E+00  0.34868982492E+02  0.17336919523E+03  0.17684230096E+03  0.10566000000E+00 0.  1.
         13    1    4    4    0    0 -0.11661811037E+00 -0.20173290708E+01  0.28378194868E+01  0.34853407063E+01  0.10566000000E+00 0. -1.
        -13    1    4    4    0    0  0.36353985584E+00 -0.13952707495E+02  0.20895132170E+02  0.25128229546E+02  0.10566000000E+00 0.  1.
         14    1    4    4    0    0 -0.92842701456E+00 -0.18898945926E+02  0.30878197813E+02  0.36214572122E+02  0.00000000000E+00 0. -1.
<mgrwt>
<rscale>  0 0.80184572E+02</rscale>
<asrwt>0</asrwt>
<pdfrwt beam="1">  1        2 0.10530844E-02 0.80184572E+02</pdfrwt>
<pdfrwt beam="2">  1       -1 0.36126988E-01 0.80184572E+02</pdfrwt>
<totfact> 0.94072505E+04</totfact>
</mgrwt>
</event>
<event>
 8    1  0.1226832E-016  0.7963258E+02  0.7818608E-02  0.1330097E+00
          2   -1    0    0  501    0  0.00000000000E+00  0.00000000000E+00  0.23927102502E+02  0.23927102638E+02  0.25500000000E-02 0. -1.
         -1   -1    0    0    0  501 -0.00000000000E+00 -0.00000000000E+00 -0.66256956792E+02  0.66256956984E+02  0.50400000000E-02 0.  1.
         24    2    1    2    0    0  0.17763568394E-14  0.35527136788E-14 -0.42329854290E+02  0.90184059622E+02  0.79632581559E+02 0.  0.
         66    2    3    3    0    0  0.10298695170E+02 -0.21019773142E+02  0.15263662857E+02  0.28015592000E+02  0.20000015338E+01 0.  0.
        -13    1    3    3    0    0 -0.10298695170E+02  0.21019773142E+02 -0.57593517147E+02  0.62168467622E+02  0.10566000000E+00 0.  1.
         13    1    4    4    0    0  0.33200024227E+01 -0.70965897547E+01  0.46165469532E+01  0.90943758467E+01  0.10566000000E+00 0. -1.
        -13    1    4    4    0    0  0.20538190510E+01 -0.40138835973E+01  0.23156728846E+01  0.50698066207E+01  0.10566000000E+00 0. -1.
         14    1    4    4    0    0  0.49248736966E+01 -0.99092997901E+01  0.83314430187E+01  0.13851409532E+02  0.00000000000E+00 0. -1.
<mgrwt>
<rscale>  0 0.79632582E+02</rscale>
<asrwt>0</asrwt>
<pdfrwt beam="1">  1        2 0.36810927E-02 0.79632582E+02</pdfrwt>
<pdfrwt beam="2">  1       -1 0.10193378E-01 0.79632582E+02</pdfrwt>
<totfact> 0.13037586E+05</totfact>
</mgrwt>
</event>
<event>
 8    1  0.1226832E-016  0.7995048E+02  0.7818608E-02  0.1329192E+00
          2   -1    0    0  501    0  0.00000000000E+00  0.00000000000E+00  0.14949728118E+03  0.14949728120E+03  0.25500000000E-02 0. -1.
         -1   -1    0    0    0  501 -0.00000000000E+00 -0.00000000000E+00 -0.10689288976E+02  0.10689290164E+02  0.50400000000E-02 0.  1.
         24    2    1    2    0    0  0.88817841970E-15 -0.35527136788E-14  0.13880799220E+03  0.16018657137E+03  0.79950478085E+02 0.  0.
         66    2    3    3    0    0 -0.54602325946E+01  0.25227897773E+02  0.13053996467E+03  0.13308246818E+03  0.19999989527E+01 0.  0.
        -13    1    3    3    0    0  0.54602325946E+01 -0.25227897773E+02  0.82680275374E+01  0.27104103185E+02  0.10566000000E+00 0.  1.
         13    1    4    4    0    0 -0.10420842606E+01  0.52048208489E+01  0.30328173555E+02  0.30789371135E+02  0.10566000000E+00 0. -1.
        -13    1    4    4    0    0 -0.27151053621E+01  0.14414776718E+02  0.71511010968E+02  0.72999955059E+02  0.10566000000E+00 0.  1.
        -14    1    4    4    0    0 -0.17030429719E+01  0.56083002065E+01  0.28700780144E+02  0.29293141987E+02  0.00000000000E+00 0.  1.
<mgrwt>
<rscale>  0 0.79950478E+02</rscale>
<asrwt>0</asrwt>
<pdfrwt beam="1">  1        2 0.22999579E-01 0.79950478E+02</pdfrwt>
<pdfrwt beam="2">  1       -1 0.16445063E-02 0.79950478E+02</pdfrwt>
<totfact> 0.20041271E+05</totfact>
</mgrwt>
</event>
<event>
 8    1  0.1226832E-016  0.7521729E+02  0.7818608E-02  0.1343199E+00
          2   -1    0    0  501    0  0.00000000000E+00  0.00000000000E+00  0.50557677409E+03  0.50557677410E+03  0.25500000000E-02 0. -1.
         -1   -1    0    0    0  501 -0.00000000000E+00 -0.00000000000E+00 -0.27976146750E+01  0.27976192149E+01  0.50400000000E-02 0.  1.
         24    2    1    2    0    0  0.00000000000E+00  0.35527136788E-14  0.50277915942E+03  0.50837439332E+03  0.75217289453E+02 0.  0.
         66    2    3    3    0    0  0.24417724291E+02 -0.24742667135E+02  0.34809636182E+03  0.34983353462E+03  0.20000002518E+01 0.  0.
        -13    1    3    3    0    0 -0.24417724291E+02  0.24742667135E+02  0.15468279760E+03  0.15854085869E+03  0.10566000000E+00 0.  1.
         13    1    4    4    0    0  0.74856441108E+01 -0.83404109252E+01  0.11303326903E+03  0.11358753626E+03  0.10566000000E+00 0. -1.
        -13    1    4    4    0    0  0.56544690423E+01 -0.52793692562E+01  0.83308274226E+02  0.83666746551E+02  0.10566000000E+00 0.  1.
         14    1    4    4    0    0  0.11277611138E+02 -0.11122886954E+02  0.15175481856E+03  0.15257925181E+03  0.00000000000E+00 0. -1.
<mgrwt>
<rscale>  0 0.75217289E+02</rscale>
<asrwt>0</asrwt>
<pdfrwt beam="1">  1        2 0.77781029E-01 0.75217289E+02</pdfrwt>
<pdfrwt beam="2">  1       -1 0.43040268E-03 0.75217289E+02</pdfrwt>
<totfact> 0.35866345E+05</totfact>
</mgrwt>
</event>
<event>
 8    1  0.1226832E-016  0.7972630E+02  0.7818608E-02  0.1329830E+00
          2   -1    0    0  501    0  0.00000000000E+00  0.00000000000E+00  0.69239038487E+02  0.69239038534E+02  0.25500000000E-02 0. -1.
         -1   -1    0    0    0  501 -0.00000000000E+00 -0.00000000000E+00 -0.22950502575E+02  0.22950503128E+02  0.50400000000E-02 0.  1.
         24    2    1    2    0    0 -0.35527136788E-14  0.00000000000E+00  0.46288535913E+02  0.92189541663E+02  0.79726300774E+02 0.  0.
         66    2    3    3    0    0 -0.31584167716E+02  0.20308201995E+02  0.38546310296E+02  0.53849798052E+02  0.19999985807E+01 0.  0.
        -13    1    3    3    0    0  0.31584167716E+02 -0.20308201995E+02  0.77422256168E+01  0.38339743610E+02  0.10566000000E+00 0.  1.
         13    1    4    4    0    0 -0.95381161277E+01  0.60062683010E+01  0.11401327024E+02  0.16032851902E+02  0.10566000000E+00 0. -1.
        -13    1    4    4    0    0 -0.11905772407E+02  0.67852980325E+01  0.14445355992E+02  0.19911483113E+02  0.10566000000E+00 0.  1.
        -14    1    4    4    0    0 -0.10140279181E+02  0.75166356610E+01  0.12699627279E+02  0.17905463037E+02  0.00000000000E+00 0.  1.
<mgrwt>
<rscale>  0 0.79726301E+02</rscale>
<asrwt>0</asrwt>
<pdfrwt beam="1">  1        2 0.10652160E-01 0.79726301E+02</pdfrwt>
<pdfrwt beam="2">  1       -1 0.35308466E-02 0.79726301E+02</pdfrwt>
<totfact> 0.16253652E+05</totfact>
</mgrwt>
</event>
<event>
 8    1  0.1226832E-016  0.7873188E+02  0.7818608E-02  0.1332689E+00
          2   -1    0    0  501    0  0.00000000000E+00  0.00000000000E+00  0.98788033191E+03  0.98788033192E+03  0.25500000000E-02 0. -1.
         -1   -1    0    0    0  501 -0.00000000000E+00 -0.00000000000E+00 -0.15686851126E+01  0.15686932090E+01  0.50400000000E-02 0.  1.
         24    2    1    2    0    0  0.17763568394E-14 -0.35527136788E-14  0.98631164680E+03  0.98944902513E+03  0.78731878596E+02 0.  0.
         66    2    3    3    0    0 -0.15270762868E+02  0.22516822150E+02  0.85058617859E+03  0.85102353122E+03  0.20000003458E+01 0.  0.
        -13    1    3    3    0    0  0.15270762868E+02 -0.22516822150E+02  0.13572546821E+03  0.13842549390E+03  0.10566000000E+00 0.  1.
         13    1    4    4    0    0 -0.73090562744E+01  0.97216964909E+01  0.36613687446E+03  0.36633885365E+03  0.10566000000E+00 0. -1.
        -13    1    4    4    0    0 -0.17670697118E+01  0.21345779271E+01  0.90457336773E+02  0.90499833692E+02  0.10566000000E+00 0.  1.
        -14    1    4    4    0    0 -0.61946368819E+01  0.10660547732E+02  0.39399196736E+03  0.39418484388E+03  0.00000000000E+00 0.  1.
<mgrwt>
<rscale>  0 0.78731879E+02</rscale>
<asrwt>0</asrwt>
<pdfrwt beam="1">  1        2 0.15198190E+00 0.78731879E+02</pdfrwt>
<pdfrwt beam="2">  1       -1 0.24133630E-03 0.78731879E+02</pdfrwt>
<totfact> 0.36701532E+05</totfact>
</mgrwt>
</event>
<event>
 8    1  0.1226832E-016  0.8022434E+02  0.7818608E-02  0.1328416E+00
          2   -1    0    0  501    0  0.00000000000E+00  0.00000000000E+00  0.81536335823E+03  0.81536335823E+03  0.25500000000E-02 0. -1.
         -1   -1    0    0    0  501 -0.00000000000E+00 -0.00000000000E+00 -0.19733332721E+01  0.19733397083E+01  0.50400000000E-02 0.  1.
         24    2    1    2    0    0 -0.17763568394E-14  0.71054273576E-14  0.81339002496E+03  0.81733669794E+03  0.80224342329E+02 0.  0.
         66    2    3    3    0    0  0.15920434019E+02 -0.26272384482E+02  0.66933523262E+03  0.67004279866E+03  0.20000015613E+01 0.  0.
        -13    1    3    3    0    0 -0.15920434019E+02  0.26272384482E+02  0.14405479234E+03  0.14729389928E+03  0.10566000000E+00 0.  1.
         13    1    4    4    0    0  0.10829418544E+01 -0.19148257285E+01  0.51871696032E+02  0.51918429617E+02  0.10566000000E+00 0. -1.
        -13    1    4    4    0    0  0.11796179314E+02 -0.20570890001E+02  0.51660728737E+03  0.51715124663E+03  0.10566000000E+00 0.  1.
         14    1    4    4    0    0  0.30413128500E+01 -0.37866687525E+01  0.10085624922E+03  0.10097312242E+03  0.00000000000E+00 0. -1.
<mgrwt>
<rscale>  0 0.80224342E+02</rscale>
<asrwt>0</asrwt>
<pdfrwt beam="1">  1        2 0.12544043E+00 0.80224342E+02</pdfrwt>
<pdfrwt beam="2">  1       -1 0.30359043E-03 0.80224342E+02</pdfrwt>
<totfact> 0.34225658E+05</totfact>
</mgrwt>
</event>
<event>
 8    1  0.1226832E-016  0.8233947E+02  0.7818608E-02  0.1322540E+00
          2   -1    0    0  501    0  0.00000000000E+00  0.00000000000E+00  0.40784740194E+03  0.40784740194E+03  0.25500000000E-02 0. -1.
         -1   -1    0    0    0  501 -0.00000000000E+00 -0.00000000000E+00 -0.41558346316E+01  0.41558376878E+01  0.50400000000E-02 0.  1.
         24    2    1    2    0    0  0.35527136788E-14  0.00000000000E+00  0.40369156730E+03  0.41200323963E+03  0.82339467781E+02 0.  0.
         66    2    3    3    0    0 -0.23948084858E+02 -0.65373414548E+01  0.36615155064E+03  0.36699755536E+03  0.20000003804E+01 0.  0.
        -13    1    3    3    0    0  0.23948084858E+02  0.65373414548E+01  0.37540016662E+02  0.45005684271E+02  0.10566000000E+00 0.  1.
         13    1    4    4    0    0 -0.72894531984E+01 -0.16748826301E+01  0.12024837542E+03  0.12048080475E+03  0.10566000000E+00 0. -1.
        -13    1    4    4    0    0 -0.35399319090E+01 -0.73745084994E+00  0.47496198368E+02  0.47633758776E+02  0.10566000000E+00 0.  1.
        -14    1    4    4    0    0 -0.13118699750E+02 -0.41250079747E+01  0.19840697686E+03  0.19888299183E+03  0.00000000000E+00 0.  1.
<mgrwt>
<rscale>  0 0.82339468E+02</rscale>
<asrwt>0</asrwt>
<pdfrwt beam="1">  1        2 0.62745777E-01 0.82339468E+02</pdfrwt>
<pdfrwt beam="2">  1       -1 0.63935918E-03 0.82339468E+02</pdfrwt>
<totfact> 0.26380096E+05</totfact>
</mgrwt>
</event>
<event>
 8    1  0.1226832E-016  0.7952155E+02  0.7818608E-02  0.1330415E+00
         -1   -1    0    0    0  501 -0.00000000000E+00  0.00000000000E+00  0.87369830187E+01  0.87369844724E+01  0.50400000000E-02 0.  1.
          2   -1    0    0  501    0  0.00000000000E+00 -0.00000000000E+00 -0.18094566790E+03  0.18094566792E+03  0.25500000000E-02 0. -1.
         24    2    1    2    0    0  0.00000000000E+00  0.00000000000E+00 -0.17220868488E+03  0.18968265239E+03  0.79521553489E+02 0.  0.
         66    2    3    3    0    0 -0.60097911878E+01 -0.22465804885E+02 -0.16301134952E+03  0.16467401146E+03  0.20000000039E+01 0.  0.
        -13    1    3    3    0    0  0.60097911878E+01  0.22465804885E+02 -0.91973353633E+01  0.25008640928E+02  0.10566000000E+00 0.  1.
         13    1    4    4    0    0 -0.71476987486E+00 -0.23934906692E+01 -0.17861705632E+02  0.18035836152E+02  0.10566000000E+00 0. -1.
        -13    1    4    4    0    0 -0.53139453720E+01 -0.20040065688E+02 -0.14511012666E+03  0.14658377220E+03  0.10566000000E+00 0.  1.
        -14    1    4    4    0    0  0.18924059155E-01 -0.32248528289E-01 -0.39517225132E-01  0.54403112722E-01  0.00000000000E+00 0.  1.
<mgrwt>
<rscale>  0 0.79521553E+02</rscale>
<asrwt>0</asrwt>
<pdfrwt beam="1">  1        2 0.27837792E-01 0.79521553E+02</pdfrwt>
<pdfrwt beam="2">  1       -1 0.13441515E-02 0.79521553E+02</pdfrwt>
<totfact> 0.21652870E+05</totfact>
</mgrwt>
</event>
<event>
 8    1  0.1226832E-016  0.7943161E+02  0.7818608E-02  0.1330672E+00
         -1   -1    0    0    0  501 -0.00000000000E+00  0.00000000000E+00  0.29085093941E+02  0.29085094377E+02  0.50400000000E-02 0.  1.
          2   -1    0    0  501    0  0.00000000000E+00 -0.00000000000E+00 -0.54232084470E+02  0.54232084530E+02  0.25500000000E-02 0. -1.
         24    2    1    2    0    0  0.00000000000E+00  0.00000000000E+00 -0.25146990529E+02  0.83317178907E+02  0.79431613155E+02 0.  0.
         66    2    3    3    0    0 -0.30308483187E+02 -0.48257159856E+01 -0.38981016184E+02  0.49652908268E+02  0.19999972313E+01 0.  0.
        -13    1    3    3    0    0  0.30308483187E+02  0.48257159856E+01  0.13834025654E+02  0.33664270639E+02  0.10566000000E+00 0.  1.
         13    1    4    4    0    0 -0.11306882399E+02 -0.18956061784E+01 -0.14260158599E+02  0.18297600927E+02  0.10566000000E+00 0. -1.
        -13    1    4    4    0    0 -0.74423893938E+01 -0.18135611709E+01 -0.92391505157E+01  0.12002134406E+02  0.10566000000E+00 0.  1.
        -14    1    4    4    0    0 -0.11559211394E+02 -0.11165486363E+01 -0.15481707069E+02  0.19353172935E+02  0.00000000000E+00 0.  1.
<mgrwt>
<rscale>  0 0.79431613E+02</rscale>
<asrwt>0</asrwt>
<pdfrwt beam="1">  1        2 0.83433976E-02 0.79431613E+02</pdfrwt>
<pdfrwt beam="2">  1       -1 0.44746299E-02 0.79431613E+02</pdfrwt>
<totfact> 0.15512013E+05</totfact>
</mgrwt>
</event>
<event>
 8    1  0.1226832E-016  0.8251751E+02  0.7818608E-02  0.1322055E+00
          2   -1    0    0  501    0  0.00000000000E+00  0.00000000000E+00  0.69143092480E+02  0.69143092527E+02  0.25500000000E-02 0. -1.
         -1   -1    0    0    0  501 -0.00000000000E+00 -0.00000000000E+00 -0.24619737505E+02  0.24619738021E+02  0.50400000000E-02 0.  1.
         24    2    1    2    0    0  0.35527136788E-14  0.00000000000E+00  0.44523354975E+02  0.93762830548E+02  0.82517508773E+02 0.  0.
         66    2    3    3    0    0 -0.23312617312E+02 -0.85295052301E+01  0.59686561589E+02  0.64673922279E+02  0.20000008133E+01 0.  0.
        -13    1    3    3    0    0  0.23312617312E+02  0.85295052301E+01 -0.15163206614E+02  0.29088908269E+02  0.10566000000E+00 0.  1.
         13    1    4    4    0    0 -0.81255852523E+01 -0.31838604155E+01  0.21565264541E+02  0.23264434264E+02  0.10566000000E+00 0. -1.
        -13    1    4    4    0    0 -0.74318465859E+01 -0.30839353855E+01  0.20586016645E+02  0.22102901313E+02  0.10566000000E+00 0.  1.
         14    1    4    4    0    0 -0.77551854738E+01 -0.22617094291E+01  0.17535280403E+02  0.19306586702E+02  0.00000000000E+00 0. -1.
<mgrwt>
<rscale>  0 0.82517509E+02</rscale>
<asrwt>0</asrwt>
<pdfrwt beam="1">  1        2 0.10637399E-01 0.82517509E+02</pdfrwt>
<pdfrwt beam="2">  1       -1 0.37876520E-02 0.82517509E+02</pdfrwt>
<totfact> 0.14800050E+05</totfact>
</mgrwt>
</event>
<event>
 8    1  0.1226832E-016  0.8185971E+02  0.7818608E-02  0.1323855E+00
         -1   -1    0    0    0  501 -0.00000000000E+00  0.00000000000E+00  0.12114087872E+01  0.12114192715E+01  0.50400000000E-02 0.  1.
          2   -1    0    0  501    0  0.00000000000E+00 -0.00000000000E+00 -0.13828904742E+04  0.13828904742E+04  0.25500000000E-02 0. -1.
         24    2    1    2    0    0  0.00000000000E+00 -0.88817841970E-15 -0.13816790654E+04  0.13841018934E+04  0.81859707535E+02 0.  0.
         66    2    3    3    0    0  0.20354707228E+02 -0.51574824881E+01 -0.12848073444E+04  0.12849804769E+04  0.19999999702E+01 0.  0.
        -13    1    3    3    0    0 -0.20354707228E+02  0.51574824881E+01 -0.96871720986E+02  0.99121416569E+02  0.10566000000E+00 0.  1.
         13    1    4    4    0    0  0.25795270453E+01 -0.62056950363E+00 -0.17024068509E+03  0.17026139048E+03  0.10566000000E+00 0. -1.
        -13    1    4    4    0    0  0.29180621007E+01 -0.11064535155E+00 -0.16424747852E+03  0.16427346924E+03  0.10566000000E+00 0.  1.
         14    1    4    4    0    0  0.14857118082E+02 -0.44262676329E+01 -0.95031918077E+03  0.95044561714E+03  0.00000000000E+00 0. -1.
<mgrwt>
<rscale>  0 0.81859708E+02</rscale>
<asrwt>0</asrwt>
<pdfrwt beam="1">  1        2 0.21275112E+00 0.81859708E+02</pdfrwt>
<pdfrwt beam="2">  1       -1 0.18637250E-03 0.81859708E+02</pdfrwt>
<totfact> 0.32148770E+05</totfact>
</mgrwt>
</event>
<event>
 8    1  0.1226832E-016  0.8258081E+02  0.7818608E-02  0.1321883E+00
         -1   -1    0    0    0  501 -0.00000000000E+00  0.00000000000E+00  0.10256833194E+02  0.10256834432E+02  0.50400000000E-02 0.  1.
          2   -1    0    0  501    0  0.00000000000E+00 -0.00000000000E+00 -0.16622066449E+03  0.16622066451E+03  0.25500000000E-02 0. -1.
         24    2    1    2    0    0  0.71054273576E-14  0.00000000000E+00 -0.15596383129E+03  0.17647749894E+03  0.82580814720E+02 0.  0.
         66    2    3    3    0    0  0.35569246034E+02 -0.14215731633E+02 -0.11083173767E+03  0.11728142366E+03  0.19999929476E+01 0.  0.
        -13    1    3    3    0    0 -0.35569246034E+02  0.14215731633E+02 -0.45132093623E+02  0.59196075276E+02  0.10566000000E+00 0.  1.
         13    1    4    4    0    0  0.17425567523E+02 -0.69909565172E+01 -0.53884618029E+02  0.57062133685E+02  0.10566000000E+00 0. -1.
        -13    1    4    4    0    0  0.63121201147E+01 -0.24387273855E+01 -0.17736126626E+02  0.18983456043E+02  0.10566000000E+00 0.  1.
        -14    1    4    4    0    0  0.11831558397E+02 -0.47860477306E+01 -0.39210993015E+02  0.41235833933E+02  0.00000000000E+00 0.  1.
<mgrwt>
<rscale>  0 0.82580815E+02</rscale>
<asrwt>0</asrwt>
<pdfrwt beam="1">  1        2 0.25572408E-01 0.82580815E+02</pdfrwt>
<pdfrwt beam="2">  1       -1 0.15779746E-02 0.82580815E+02</pdfrwt>
<totfact> 0.19040811E+05</totfact>
</mgrwt>
</event>
<event>
 8    1  0.1226832E-016  0.8588328E+02  0.7818608E-02  0.1313139E+00
         -1   -1    0    0    0  501 -0.00000000000E+00  0.00000000000E+00  0.26834071976E+02  0.26834072449E+02  0.50400000000E-02 0.  1.
          2   -1    0    0  501    0  0.00000000000E+00 -0.00000000000E+00 -0.68718019961E+02  0.68718020008E+02  0.25500000000E-02 0. -1.
         24    2    1    2    0    0  0.00000000000E+00  0.71054273576E-14 -0.41883947985E+02  0.95552092457E+02  0.85883277035E+02 0.  0.
         66    2    3    3    0    0 -0.10181287727E+02  0.39662866858E+02 -0.35252350247E+02  0.54069675945E+02  0.20000079148E+01 0.  0.
        -13    1    3    3    0    0  0.10181287727E+02 -0.39662866858E+02 -0.66315977377E+01  0.41482416513E+02  0.10566000000E+00 0.  1.
         13    1    4    4    0    0 -0.20678364409E+01  0.71195783777E+01 -0.64134266758E+01  0.98034458016E+01  0.10566000000E+00 0. -1.
        -13    1    4    4    0    0 -0.27677110751E+01  0.11375343632E+02 -0.90130421810E+01  0.14775139956E+02  0.10566000000E+00 0.  1.
        -14    1    4    4    0    0 -0.53457402114E+01  0.21167944848E+02 -0.19825881391E+02  0.29491090187E+02  0.00000000000E+00 0.  1.
<mgrwt>
<rscale>  0 0.85883277E+02</rscale>
<asrwt>0</asrwt>
<pdfrwt beam="1">  1        2 0.10572003E-01 0.85883277E+02</pdfrwt>
<pdfrwt beam="2">  1       -1 0.41283188E-02 0.85883277E+02</pdfrwt>
<totfact> 0.13251454E+05</totfact>
</mgrwt>
</event>
<event>
 8    1  0.1226832E-016  0.8196428E+02  0.7818608E-02  0.1323568E+00
          2   -1    0    0  501    0  0.00000000000E+00  0.00000000000E+00  0.73569223351E+02  0.73569223395E+02  0.25500000000E-02 0. -1.
         -1   -1    0    0    0  501 -0.00000000000E+00 -0.00000000000E+00 -0.22829323348E+02  0.22829323904E+02  0.50400000000E-02 0.  1.
         24    2    1    2    0    0  0.00000000000E+00  0.00000000000E+00  0.50739900003E+02  0.96398547299E+02  0.81964275566E+02 0.  0.
         66    2    3    3    0    0  0.25107167857E+02  0.21580678298E+02  0.53744378084E+02  0.63154997456E+02  0.19999936141E+01 0.  0.
        -13    1    3    3    0    0 -0.25107167857E+02 -0.21580678298E+02 -0.30044780811E+01  0.33243549843E+02  0.10566000000E+00 0.  1.
         13    1    4    4    0    0  0.24007598050E+02  0.20270785109E+02  0.50772409422E+02  0.59708610901E+02  0.10566000000E+00 0. -1.
        -13    1    4    4    0    0  0.56841320897E+00  0.46265696480E+00  0.11427362512E+01  0.13616736829E+01  0.10566000000E+00 0. -1.
         14    1    4    4    0    0  0.53115659774E+00  0.84723622369E+00  0.18292324107E+01  0.20847128729E+01  0.00000000000E+00 0. -1.
<mgrwt>
<rscale>  0 0.81964276E+02</rscale>
<asrwt>0</asrwt>
<pdfrwt beam="1">  1        2 0.11318342E-01 0.81964276E+02</pdfrwt>
<pdfrwt beam="2">  1       -1 0.35122037E-02 0.81964276E+02</pdfrwt>
<totfact> 0.15306869E+05</totfact>
</mgrwt>
</event>
<event>
 8    1  0.1226832E-016  0.8518014E+02  0.7818608E-02  0.1314962E+00
          2   -1    0    0  501    0  0.00000000000E+00  0.00000000000E+00  0.95669893798E+03  0.95669893799E+03  0.25500000000E-02 0. -1.
         -1   -1    0    0    0  501 -0.00000000000E+00 -0.00000000000E+00 -0.18960099939E+01  0.18960166926E+01  0.50400000000E-02 0.  1.
         24    2    1    2    0    0 -0.17763568394E-14  0.00000000000E+00  0.95480292799E+03  0.95859495468E+03  0.85180137588E+02 0.  0.
         66    2    3    3    0    0  0.15848044239E+02 -0.41138951820E+01  0.91984049770E+03  0.91998838353E+03  0.19999976547E+01 0.  0.
        -13    1    3    3    0    0 -0.15848044239E+02  0.41138951820E+01  0.34962430293E+02  0.38606571148E+02  0.10566000000E+00 0.  1.
         13    1    4    4    0    0  0.12085896759E+01 -0.69185582468E+00  0.65138443925E+02  0.65153414296E+02  0.10566000000E+00 0. -1.
        -13    1    4    4    0    0  0.16723917176E+01 -0.53965665276E+00  0.11866760610E+03  0.11868066407E+03  0.10566000000E+00 0.  1.
         14    1    4    4    0    0  0.12967062846E+02 -0.28823827045E+01  0.73603444768E+03  0.73615430517E+03  0.00000000000E+00 0. -1.
<mgrwt>
<rscale>  0 0.85180138E+02</rscale>
<asrwt>0</asrwt>
<pdfrwt beam="1">  1        2 0.14718466E+00 0.85180138E+02</pdfrwt>
<pdfrwt beam="2">  1       -1 0.29169396E-03 0.85180138E+02</pdfrwt>
<totfact> 0.29844116E+05</totfact>
</mgrwt>
</event>
<event>
 8    1  0.1226832E-016  0.8185592E+02  0.7818608E-02  0.1323866E+00
         -1   -1    0    0    0  501 -0.00000000000E+00  0.00000000000E+00  0.98969184737E+01  0.98969197570E+01  0.50400000000E-02 0.  1.
          2   -1    0    0  501    0  0.00000000000E+00 -0.00000000000E+00 -0.16925447661E+03  0.16925447663E+03  0.25500000000E-02 0. -1.
         24    2    1    2    0    0  0.00000000000E+00  0.00000000000E+00 -0.15935755813E+03  0.17915139638E+03  0.81855919101E+02 0.  0.
         66    2    3    3    0    0 -0.14530934520E+02  0.37869739593E+02 -0.68180830058E+02  0.79359251696E+02  0.20000018469E+01 0.  0.
        -13    1    3    3    0    0  0.14530934520E+02 -0.37869739593E+02 -0.91176728076E+02  0.99792144688E+02  0.10566000000E+00 0.  1.
         13    1    4    4    0    0 -0.10863529952E+02  0.28296329220E+02 -0.51079376201E+02  0.59395390120E+02  0.10566000000E+00 0. -1.
        -13    1    4    4    0    0 -0.18819419197E+00  0.17718627062E+00 -0.51886521462E+00  0.58923439728E+00  0.10566000000E+00 0.  1.
        -14    1    4    4    0    0 -0.34792103760E+01  0.93962241021E+01 -0.16582588643E+02  0.19374627179E+02  0.00000000000E+00 0.  1.
<mgrwt>
<rscale>  0 0.81855919E+02</rscale>
<asrwt>0</asrwt>
<pdfrwt beam="1">  1        2 0.26039148E-01 0.81855919E+02</pdfrwt>
<pdfrwt beam="2">  1       -1 0.15226031E-02 0.81855919E+02</pdfrwt>
<totfact> 0.19609872E+05</totfact>
</mgrwt>
</event>
<event>
 8    1  0.1226832E-016  0.7877932E+02  0.7818608E-02  0.1332552E+00
         -1   -1    0    0    0  501 -0.00000000000E+00  0.00000000000E+00  0.92672787869E+01  0.92672801574E+01  0.50400000000E-02 0.  1.
          2   -1    0    0  501    0  0.00000000000E+00 -0.00000000000E+00 -0.16742187340E+03  0.16742187342E+03  0.25500000000E-02 0. -1.
         24    2    1    2    0    0  0.35527136788E-14  0.00000000000E+00 -0.15815459461E+03  0.17668915358E+03  0.78779319586E+02 0.  0.
         66    2    3    3    0    0 -0.23880930788E+02  0.31292809083E+02 -0.79038400099E+02  0.88321047599E+02  0.20000007905E+01 0.  0.
        -13    1    3    3    0    0  0.23880930788E+02 -0.31292809083E+02 -0.79116194513E+02  0.88368105976E+02  0.10566000000E+00 0.  1.
         13    1    4    4    0    0 -0.48681681270E+01  0.59932726076E+01 -0.15223532202E+02  0.17070016819E+02  0.10566000000E+00 0. -1.
        -13    1    4    4    0    0 -0.42264901191E+00  0.73266434795E+00 -0.12592011229E+01  0.15205856561E+01  0.10566000000E+00 0.  1.
        -14    1    4    4    0    0 -0.18590113649E+02  0.24566872128E+02 -0.62555666775E+02  0.69730445124E+02  0.00000000000E+00 0.  1.
<mgrwt>
<rscale>  0 0.78779320E+02</rscale>
<asrwt>0</asrwt>
<pdfrwt beam="1">  1        2 0.25757209E-01 0.78779320E+02</pdfrwt>
<pdfrwt beam="2">  1       -1 0.14257354E-02 0.78779320E+02</pdfrwt>
<totfact> 0.21625449E+05</totfact>
</mgrwt>
</event>
<event>
 8    1  0.1226832E-016  0.7401289E+02  0.7818608E-02  0.1346955E+00
         -1   -1    0    0    0  501 -0.00000000000E+00  0.00000000000E+00  0.56610017301E+02  0.56610017525E+02  0.50400000000E-02 0.  1.
          2   -1    0    0  501    0  0.00000000000E+00 -0.00000000000E+00 -0.24191425898E+02  0.24191426032E+02  0.25500000000E-02 0. -1.
         24    2    1    2    0    0  0.00000000000E+00  0.35527136788E-14  0.32418591403E+02  0.80801443558E+02  0.74012892204E+02 0.  0.
         66    2    3    3    0    0 -0.19063245036E+02  0.26128871554E+02 -0.33492622925E+01  0.32578256583E+02  0.20000010318E+01 0.  0.
        -13    1    3    3    0    0  0.19063245036E+02 -0.26128871554E+02  0.35767853696E+02  0.48223186975E+02  0.10566000000E+00 0.  1.
         13    1    4    4    0    0 -0.12763951471E+02  0.17545104552E+02 -0.14544407092E+01  0.21745705615E+02  0.10566000000E+00 0. -1.
        -13    1    4    4    0    0 -0.32229140608E+00  0.51388337330E+00 -0.15435336176E-01  0.61591408248E+00  0.10566000000E+00 0. -1.
         14    1    4    4    0    0 -0.59770021589E+01  0.80698836283E+01 -0.18793862472E+01  0.10216636885E+02  0.00000000000E+00 0. -1.
<mgrwt>
<rscale>  0 0.74012892E+02</rscale>
<asrwt>0</asrwt>
<pdfrwt beam="1">  1        2 0.37217579E-02 0.74012892E+02</pdfrwt>
<pdfrwt beam="2">  1       -1 0.87092333E-02 0.74012892E+02</pdfrwt>
<totfact> 0.16053984E+05</totfact>
</mgrwt>
</event>
<event>
 8    1  0.1226832E-016  0.7961430E+02  0.7818608E-02  0.1330150E+00
         -1   -1    0    0    0  501 -0.00000000000E+00  0.00000000000E+00  0.55566960417E+02  0.55566960646E+02  0.50400000000E-02 0.  1.
          2   -1    0    0  501    0  0.00000000000E+00 -0.00000000000E+00 -0.28517109220E+02  0.28517109334E+02  0.25500000000E-02 0. -1.
         24    2    1    2    0    0 -0.88817841970E-15  0.00000000000E+00  0.27049851197E+02  0.84084069980E+02  0.79614297551E+02 0.  0.
         66    2    3    3    0    0 -0.50259834549E+01  0.35353341255E+02 -0.49862888092E+01  0.36110695301E+02  0.19999978732E+01 0.  0.
        -13    1    3    3    0    0  0.50259834549E+01 -0.35353341255E+02  0.32036140006E+02  0.47973374679E+02  0.10566000000E+00 0.  1.
         13    1    4    4    0    0 -0.34092656728E+01  0.19418641385E+02 -0.24964792922E+01  0.19873356499E+02  0.10566000000E+00 0. -1.
        -13    1    4    4    0    0 -0.30490444912E+00  0.10641857501E+01 -0.27646715176E+00  0.11458866242E+01  0.10566000000E+00 0. -1.
        -14    1    4    4    0    0 -0.13118133330E+01  0.14870514120E+02 -0.22133423652E+01  0.15091452178E+02  0.00000000000E+00 0.  1.
<mgrwt>
<rscale>  0 0.79614298E+02</rscale>
<asrwt>0</asrwt>
<pdfrwt beam="1">  1        2 0.43872477E-02 0.79614298E+02</pdfrwt>
<pdfrwt beam="2">  1       -1 0.85487631E-02 0.79614298E+02</pdfrwt>
<totfact> 0.13503532E+05</totfact>
</mgrwt>
</event>
<event>
 8    1  0.1226832E-016  0.8810092E+02  0.7818608E-02  0.1307517E+00
          2   -1    0    0  501    0  0.00000000000E+00  0.00000000000E+00  0.73251017167E+01  0.73251021606E+01  0.25500000000E-02 0. -1.
         -1   -1    0    0    0  501 -0.00000000000E+00 -0.00000000000E+00 -0.26490319008E+03  0.26490319013E+03  0.50400000000E-02 0.  1.
         24    2    1    2    0    0  0.00000000000E+00  0.00000000000E+00 -0.25757808836E+03  0.27222829229E+03  0.88100916667E+02 0.  0.
         66    2    3    3    0    0  0.34606894134E+02  0.20417088971E+02 -0.73240831832E+02  0.83562635760E+02  0.20000010371E+01 0.  0.
        -13    1    3    3    0    0 -0.34606894134E+02 -0.20417088971E+02 -0.18433725653E+03  0.18866565653E+03  0.10566000000E+00 0.  1.
         13    1    4    4    0    0  0.13357594886E+02  0.71008976912E+01 -0.27888271094E+02  0.31727195240E+02  0.10566000000E+00 0. -1.
        -13    1    4    4    0    0  0.18331020745E+02  0.11188029642E+02 -0.38212856106E+02  0.43834140400E+02  0.10566000000E+00 0.  1.
        -14    1    4    4    0    0  0.29182785028E+01  0.21281616387E+01 -0.71397046320E+01  0.80013001202E+01  0.00000000000E+00 0.  1.
<mgrwt>
<rscale>  0 0.88100917E+02</rscale>
<asrwt>0</asrwt>
<pdfrwt beam="1">  1        2 0.11269390E-02 0.88100917E+02</pdfrwt>
<pdfrwt beam="2">  1       -1 0.40754330E-01 0.88100917E+02</pdfrwt>
<totfact> 0.70817976E+04</totfact>
</mgrwt>
</event>
<event>
 8    1  0.1226832E-016  0.8060388E+02  0.7818608E-02  0.1327346E+00
         -1   -1    0    0    0  501 -0.00000000000E+00  0.00000000000E+00  0.35533639641E+02  0.35533639998E+02  0.50400000000E-02 0.  1.
          2   -1    0    0  501    0  0.00000000000E+00 -0.00000000000E+00 -0.45710099349E+02  0.45710099420E+02  0.25500000000E-02 0. -1.
         24    2    1    2    0    0 -0.71054273576E-14 -0.71054273576E-14 -0.10176459708E+02  0.81243739418E+02  0.80603876224E+02 0.  0.
         66    2    3    3    0    0 -0.32942277364E+02 -0.23107245584E+02 -0.68668163150E+01  0.40869201156E+02  0.20000001037E+01 0.  0.
        -13    1    3    3    0    0  0.32942277364E+02  0.23107245584E+02 -0.33096433931E+01  0.40374538262E+02  0.10566000000E+00 0.  1.
         13    1    4    4    0    0 -0.16509101580E+02 -0.11570982599E+02 -0.34738511770E+01  0.20457685092E+02  0.10566000000E+00 0. -1.
        -13    1    4    4    0    0 -0.90693393842E+01 -0.64128298970E+01 -0.11708239344E+01  0.11169570129E+02  0.10566000000E+00 0.  1.
        -14    1    4    4    0    0 -0.73638363997E+01 -0.51234330880E+01 -0.22221412036E+01  0.92419459346E+01  0.00000000000E+00 0.  1.
<mgrwt>
<rscale>  0 0.80603876E+02</rscale>
<asrwt>0</asrwt>
<pdfrwt beam="1">  1        2 0.70323230E-02 0.80603876E+02</pdfrwt>
<pdfrwt beam="2">  1       -1 0.54667138E-02 0.80603876E+02</pdfrwt>
<totfact> 0.14357685E+05</totfact>
</mgrwt>
</event>
<event>
 8    1  0.1226832E-016  0.7998553E+02  0.7818608E-02  0.1329093E+00
          2   -1    0    0  501    0  0.00000000000E+00  0.00000000000E+00  0.99344340041E+01  0.99344343314E+01  0.25500000000E-02 0. -1.
         -1   -1    0    0    0  501 -0.00000000000E+00 -0.00000000000E+00 -0.16099771520E+03  0.16099771528E+03  0.50400000000E-02 0.  1.
         24    2    1    2    0    0 -0.35527136788E-14  0.00000000000E+00 -0.15106328120E+03  0.17093214962E+03  0.79985528972E+02 0.  0.
         66    2    3    3    0    0 -0.30291521745E+02 -0.21124396014E+02 -0.10824117252E+03  0.11438517311E+03  0.20000002855E+01 0.  0.
        -13    1    3    3    0    0  0.30291521745E+02  0.21124396014E+02 -0.42822108680E+02  0.56546976510E+02  0.10566000000E+00 0.  1.
         13    1    4    4    0    0 -0.64783410745E+01 -0.46277619675E+01 -0.21637404593E+02  0.23055878328E+02  0.10566000000E+00 0. -1.
        -13    1    4    4    0    0 -0.58759486717E+01 -0.46195590577E+01 -0.21358295642E+02  0.22628633531E+02  0.10566000000E+00 0. -1.
         14    1    4    4    0    0 -0.17937231998E+02 -0.11877074989E+02 -0.65245472285E+02  0.68700661247E+02  0.00000000000E+00 0. -1.
<mgrwt>
<rscale>  0 0.79985529E+02</rscale>
<asrwt>0</asrwt>
<pdfrwt beam="1">  1        2 0.15283746E-02 0.79985529E+02</pdfrwt>
<pdfrwt beam="2">  1       -1 0.24768877E-01 0.79985529E+02</pdfrwt>
<totfact> 0.10595636E+05</totfact>
</mgrwt>
</event>
<event>
 8    1  0.1226832E-016  0.8009606E+02  0.7818608E-02  0.1328779E+00
          2   -1    0    0  501    0  0.00000000000E+00  0.00000000000E+00  0.29797971398E+03  0.29797971399E+03  0.25500000000E-02 0. -1.
         -1   -1    0    0    0  501 -0.00000000000E+00 -0.00000000000E+00 -0.53823944592E+01  0.53823968189E+01  0.50400000000E-02 0.  1.
         24    2    1    2    0    0  0.17763568394E-14  0.00000000000E+00  0.29259731952E+03  0.30336211081E+03  0.80096060353E+02 0.  0.
         66    2    3    3    0    0 -0.10523247887E+02 -0.16232914956E+02  0.27909162308E+03  0.27976844059E+03  0.20000001892E+01 0.  0.
        -13    1    3    3    0    0  0.10523247887E+02  0.16232914956E+02  0.13505696433E+02  0.23593670215E+02  0.10566000000E+00 0.  1.
         13    1    4    4    0    0 -0.65492504878E+00 -0.13056643440E+01  0.15767667224E+02  0.15835535353E+02  0.10566000000E+00 0. -1.
        -13    1    4    4    0    0 -0.21972500596E+01 -0.35193648697E+01  0.66623842603E+02  0.66752987979E+02  0.10566000000E+00 0.  1.
         14    1    4    4    0    0 -0.76710727788E+01 -0.11407885742E+02  0.19670011326E+03  0.19717991726E+03  0.00000000000E+00 0. -1.
<mgrwt>
<rscale>  0 0.80096060E+02</rscale>
<asrwt>0</asrwt>
<pdfrwt beam="1">  1        2 0.45843029E-01 0.80096060E+02</pdfrwt>
<pdfrwt beam="2">  1       -1 0.82806095E-03 0.80096060E+02</pdfrwt>
<totfact> 0.25352286E+05</totfact>
</mgrwt>
</event>
<event>
 8    1  0.1226832E-016  0.7099448E+02  0.7818608E-02  0.1356744E+00
         -1   -1    0    0    0  501 -0.00000000000E+00  0.00000000000E+00  0.32596480968E+02  0.32596481357E+02  0.50400000000E-02 0.  1.
          2   -1    0    0  501    0  0.00000000000E+00 -0.00000000000E+00 -0.38656131714E+02  0.38656131798E+02  0.25500000000E-02 0. -1.
         24    2    1    2    0    0 -0.17763568394E-14  0.00000000000E+00 -0.60596507459E+01  0.71252613155E+02  0.70994475238E+02 0.  0.
         66    2    3    3    0    0 -0.92498191863E+01 -0.32594423583E+02  0.74984719592E+01  0.34758922481E+02  0.20000016579E+01 0.  0.
        -13    1    3    3    0    0  0.92498191863E+01  0.32594423583E+02 -0.13558122705E+02  0.36493690674E+02  0.10566000000E+00 0.  1.
         13    1    4    4    0    0 -0.43615825802E+01 -0.15587991801E+02  0.41933165276E+01  0.16721362340E+02  0.10566000000E+00 0. -1.
        -13    1    4    4    0    0 -0.20644328573E+01 -0.53825911846E+01  0.12627264101E+01  0.59025259767E+01  0.10566000000E+00 0.  1.
        -14    1    4    4    0    0 -0.28238037487E+01 -0.11623840598E+02  0.20424290214E+01  0.12135034164E+02  0.00000000000E+00 0.  1.
<mgrwt>
<rscale>  0 0.70994475E+02</rscale>
<asrwt>0</asrwt>
<pdfrwt beam="1">  1        2 0.59470972E-02 0.70994475E+02</pdfrwt>
<pdfrwt beam="2">  1       -1 0.50148433E-02 0.70994475E+02</pdfrwt>
<totfact> 0.19636371E+05</totfact>
</mgrwt>
</event>
<event>
 8    1  0.1226832E-016  0.8092187E+02  0.7818608E-02  0.1326455E+00
          2   -1    0    0  501    0  0.00000000000E+00  0.00000000000E+00  0.36421796899E+03  0.36421796900E+03  0.25500000000E-02 0. -1.
         -1   -1    0    0    0  501 -0.00000000000E+00 -0.00000000000E+00 -0.44947993759E+01  0.44948022016E+01  0.50400000000E-02 0.  1.
         24    2    1    2    0    0  0.00000000000E+00  0.00000000000E+00  0.35972316961E+03  0.36871277120E+03  0.80921869041E+02 0.  0.
         66    2    3    3    0    0  0.23403271552E+02 -0.18267531263E+02  0.30505805399E+03  0.30650584354E+03  0.20000017254E+01 0.  0.
        -13    1    3    3    0    0 -0.23403271552E+02  0.18267531263E+02  0.54665115626E+02  0.62206927654E+02  0.10566000000E+00 0.  1.
         13    1    4    4    0    0  0.10627455995E+02 -0.90604011928E+01  0.14812690166E+03  0.14878381582E+03  0.10566000000E+00 0. -1.
        -13    1    4    4    0    0  0.12286652568E+02 -0.89770177656E+01  0.15274250378E+03  0.15349863942E+03  0.10566000000E+00 0.  1.
        -14    1    4    4    0    0  0.48916298928E+00 -0.23011230451E+00  0.41886485502E+01  0.42233883056E+01  0.00000000000E+00 0.  1.
<mgrwt>
<rscale>  0 0.80921869E+02</rscale>
<asrwt>0</asrwt>
<pdfrwt beam="1">  1        2 0.56033539E-01 0.80921869E+02</pdfrwt>
<pdfrwt beam="2">  1       -1 0.69150776E-03 0.80921869E+02</pdfrwt>
<totfact> 0.26526934E+05</totfact>
</mgrwt>
</event>
<event>
 8    1  0.1226832E-016  0.8076525E+02  0.7818608E-02  0.1326894E+00
         -1   -1    0    0    0  501 -0.00000000000E+00  0.00000000000E+00  0.30428247950E+01  0.30428289691E+01  0.50400000000E-02 0.  1.
          2   -1    0    0  501    0  0.00000000000E+00 -0.00000000000E+00 -0.53593465600E+03  0.53593465601E+03  0.25500000000E-02 0. -1.
         24    2    1    2    0    0 -0.44408920985E-15  0.00000000000E+00 -0.53289183121E+03  0.53897748498E+03  0.80765249614E+02 0.  0.
         66    2    3    3    0    0  0.36944114379E+01 -0.34675720923E+02 -0.40217828784E+03  0.40369224601E+03  0.19999964005E+01 0.  0.
        -13    1    3    3    0    0 -0.36944114379E+01  0.34675720923E+02 -0.13071354337E+03  0.13528523896E+03  0.10566000000E+00 0.  1.
         13    1    4    4    0    0  0.10253539886E+01 -0.97373493521E+01 -0.10381165949E+03  0.10427242748E+03  0.10566000000E+00 0. -1.
        -13    1    4    4    0    0  0.32799699936E-01 -0.17916918145E+01 -0.21174696765E+02  0.21250651343E+02  0.10566000000E+00 0.  1.
         14    1    4    4    0    0  0.26362577494E+01 -0.23146679756E+02 -0.27719193158E+03  0.27816916719E+03  0.00000000000E+00 0. -1.
<mgrwt>
<rscale>  0 0.80765250E+02</rscale>
<asrwt>0</asrwt>
<pdfrwt beam="1">  1        2 0.82451411E-01 0.80765250E+02</pdfrwt>
<pdfrwt beam="2">  1       -1 0.46812764E-03 0.80765250E+02</pdfrwt>
<totfact> 0.30355426E+05</totfact>
</mgrwt>
</event>
<event>
 8    1  0.1226832E-016  0.7884650E+02  0.7818608E-02  0.1332357E+00
          2   -1    0    0  501    0  0.00000000000E+00  0.00000000000E+00  0.56601238761E+03  0.56601238761E+03  0.25500000000E-02 0. -1.
         -1   -1    0    0    0  501 -0.00000000000E+00 -0.00000000000E+00 -0.27458610278E+01  0.27458656533E+01  0.50400000000E-02 0.  1.
         24    2    1    2    0    0  0.00000000000E+00  0.00000000000E+00  0.56326652658E+03  0.56875825326E+03  0.78846500833E+02 0.  0.
         66    2    3    3    0    0  0.72829894607E+01  0.20615437890E+02  0.51823039637E+03  0.51869526890E+03  0.20000118997E+01 0.  0.
        -13    1    3    3    0    0 -0.72829894607E+01 -0.20615437890E+02  0.45036130209E+02  0.50062984361E+02  0.10566000000E+00 0.  1.
         13    1    4    4    0    0  0.33518033354E+01  0.99360663159E+01  0.22893811681E+03  0.22917816757E+03  0.10566000000E+00 0. -1.
        -13    1    4    4    0    0  0.15301671510E+01  0.31798955444E+01  0.86791066320E+02  0.86862843059E+02  0.10566000000E+00 0.  1.
         14    1    4    4    0    0  0.24010189742E+01  0.74994760300E+01  0.20250121324E+03  0.20265425827E+03  0.00000000000E+00 0. -1.
<mgrwt>
<rscale>  0 0.78846501E+02</rscale>
<asrwt>0</asrwt>
<pdfrwt beam="1">  1        2 0.87078866E-01 0.78846501E+02</pdfrwt>
<pdfrwt beam="2">  1       -1 0.42244034E-03 0.78846501E+02</pdfrwt>
<totfact> 0.32849461E+05</totfact>
</mgrwt>
</event>
<event>
 8    1  0.1226832E-016  0.8001881E+02  0.7818608E-02  0.1328998E+00
         -1   -1    0    0    0  501 -0.00000000000E+00  0.00000000000E+00  0.10023968448E+02  0.10023969715E+02  0.50400000000E-02 0.  1.
          2   -1    0    0  501    0  0.00000000000E+00 -0.00000000000E+00 -0.15969249434E+03  0.15969249436E+03  0.25500000000E-02 0. -1.
         24    2    1    2    0    0  0.17763568394E-14 -0.88817841970E-15 -0.14966852589E+03  0.16971646408E+03  0.80018813636E+02 0.  0.
         66    2    3    3    0    0 -0.13574401761E+02 -0.76430888030E+01 -0.15298471670E+03  0.15378883164E+03  0.20000009724E+01 0.  0.
        -13    1    3    3    0    0  0.13574401761E+02  0.76430888030E+01  0.33161908040E+01  0.15927632439E+02  0.10566000000E+00 0.  1.
         13    1    4    4    0    0 -0.43444082452E+01 -0.16375315345E+01 -0.44553940539E+02  0.44795314198E+02  0.10566000000E+00 0. -1.
        -13    1    4    4    0    0 -0.21120033628E+01 -0.16751428384E+01 -0.23124346270E+02  0.23281177294E+02  0.10566000000E+00 0.  1.
         14    1    4    4    0    0 -0.71179901535E+01 -0.43304144301E+01 -0.85306429890E+02  0.85712340147E+02  0.00000000000E+00 0. -1.
<mgrwt>
<rscale>  0 0.80018814E+02</rscale>
<asrwt>0</asrwt>
<pdfrwt beam="1">  1        2 0.24568074E-01 0.80018814E+02</pdfrwt>
<pdfrwt beam="2">  1       -1 0.15421492E-02 0.80018814E+02</pdfrwt>
<totfact> 0.20429228E+05</totfact>
</mgrwt>
</event>
<event>
 8    1  0.1226832E-016  0.7939129E+02  0.7818608E-02  0.1330788E+00
         -1   -1    0    0    0  501 -0.00000000000E+00  0.00000000000E+00  0.11641893217E+02  0.11641894308E+02  0.50400000000E-02 0.  1.
          2   -1    0    0  501    0  0.00000000000E+00 -0.00000000000E+00 -0.13535119285E+03  0.13535119288E+03  0.25500000000E-02 0. -1.
         24    2    1    2    0    0 -0.22204460493E-15  0.71054273576E-14 -0.12370929964E+03  0.14699308719E+03  0.79391289597E+02 0.  0.
         66    2    3    3    0    0 -0.11398666495E+01  0.34755699876E+02 -0.97241536230E+02  0.10329169552E+03  0.20000062386E+01 0.  0.
        -13    1    3    3    0    0  0.11398666495E+01 -0.34755699876E+02 -0.26467763407E+02  0.43701391667E+02  0.10566000000E+00 0.  1.
         13    1    4    4    0    0 -0.59072142404E+00  0.98366115520E+01 -0.26887870971E+02  0.28636980427E+02  0.10566000000E+00 0. -1.
        -13    1    4    4    0    0 -0.39579733403E+00  0.10157438130E+02 -0.26497514293E+02  0.28380620723E+02  0.10566000000E+00 0.  1.
        -14    1    4    4    0    0 -0.15334789139E+00  0.14761650194E+02 -0.43856150966E+02  0.46274094368E+02  0.00000000000E+00 0.  1.
<mgrwt>
<rscale>  0 0.79391290E+02</rscale>
<asrwt>0</asrwt>
<pdfrwt beam="1">  1        2 0.20823259E-01 0.79391290E+02</pdfrwt>
<pdfrwt beam="2">  1       -1 0.17910607E-02 0.79391290E+02</pdfrwt>
<totfact> 0.19785203E+05</totfact>
</mgrwt>
</event>
<event>
 8    1  0.1226832E-016  0.7923776E+02  0.7818608E-02  0.1331229E+00
          2   -1    0    0  501    0  0.00000000000E+00  0.00000000000E+00  0.54922883867E+03  0.54922883867E+03  0.25500000000E-02 0. -1.
         -1   -1    0    0    0  501 -0.00000000000E+00 -0.00000000000E+00 -0.28579243062E+01  0.28579287503E+01  0.50400000000E-02 0.  1.
         24    2    1    2    0    0  0.00000000000E+00  0.00000000000E+00  0.54637091436E+03  0.55208676742E+03  0.79237760597E+02 0.  0.
         66    2    3    3    0    0  0.65313533440E+01  0.38267247446E+02  0.32760242900E+03  0.32990057939E+03  0.19999971445E+01 0.  0.
        -13    1    3    3    0    0 -0.65313533440E+01 -0.38267247446E+02  0.21876848536E+03  0.22218618803E+03  0.10566000000E+00 0.  1.
         13    1    4    4    0    0  0.16736164425E+01  0.11954045116E+02  0.10198301365E+03  0.10269491917E+03  0.10566000000E+00 0. -1.
        -13    1    4    4    0    0  0.47547209409E+01  0.24833387328E+02  0.21545613617E+03  0.21693469587E+03  0.10566000000E+00 0.  1.
        -14    1    4    4    0    0  0.10301596062E+00  0.14798150031E+01  0.10163279190E+02  0.10270964348E+02  0.00000000000E+00 0.  1.
<mgrwt>
<rscale>  0 0.79237761E+02</rscale>
<asrwt>0</asrwt>
<pdfrwt beam="1">  1        2 0.84496770E-01 0.79237761E+02</pdfrwt>
<pdfrwt beam="2">  1       -1 0.43968088E-03 0.79237761E+02</pdfrwt>
<totfact> 0.32140841E+05</totfact>
</mgrwt>
</event>
<event>
 8    1  0.1226832E-016  0.8358902E+02  0.7818608E-02  0.1319164E+00
         -1   -1    0    0    0  501 -0.00000000000E+00  0.00000000000E+00  0.26960022064E+02  0.26960022535E+02  0.50400000000E-02 0.  1.
          2   -1    0    0  501    0  0.00000000000E+00 -0.00000000000E+00 -0.64791523081E+02  0.64791523131E+02  0.25500000000E-02 0. -1.
         24    2    1    2    0    0  0.00000000000E+00  0.00000000000E+00 -0.37831501017E+02  0.91751545666E+02  0.83589016402E+02 0.  0.
         66    2    3    3    0    0  0.68601766046E+01  0.37606879286E+02 -0.37406128039E+02  0.53521563991E+02  0.20000011054E+01 0.  0.
        -13    1    3    3    0    0 -0.68601766046E+01 -0.37606879286E+02 -0.42537297743E+00  0.38229981676E+02  0.10566000000E+00 0.  1.
         13    1    4    4    0    0  0.13871690050E+01  0.50977779878E+01 -0.49738744949E+01  0.72568705230E+01  0.10566000000E+00 0. -1.
        -13    1    4    4    0    0  0.13060945733E+01  0.93980266960E+01 -0.10086577847E+02  0.13848429713E+02  0.10566000000E+00 0.  1.
         14    1    4    4    0    0  0.41669130264E+01  0.23111074603E+02 -0.22345675698E+02  0.32416263755E+02  0.00000000000E+00 0. -1.
<mgrwt>
<rscale>  0 0.83589016E+02</rscale>
<asrwt>0</asrwt>
<pdfrwt beam="1">  1        2 0.99679266E-02 0.83589016E+02</pdfrwt>
<pdfrwt beam="2">  1       -1 0.41476958E-02 0.83589016E+02</pdfrwt>
<totfact> 0.14064458E+05</totfact>
</mgrwt>
</event>
<event>
 8    1  0.1226832E-016  0.7979152E+02  0.7818608E-02  0.1329644E+00
         -1   -1    0    0    0  501 -0.00000000000E+00  0.00000000000E+00  0.46268878267E+01  0.46268905717E+01  0.50400000000E-02 0.  1.
          2   -1    0    0  501    0  0.00000000000E+00 -0.00000000000E+00 -0.34400473596E+03  0.34400473597E+03  0.25500000000E-02 0. -1.
         24    2    1    2    0    0  0.00000000000E+00  0.35527136788E-14 -0.33937784813E+03  0.34863162654E+03  0.79791523492E+02 0.  0.
         66    2    3    3    0    0 -0.14296336207E+02  0.30899751071E+02 -0.26044987908E+03  0.26267340816E+03  0.19999984047E+01 0.  0.
        -13    1    3    3    0    0  0.14296336207E+02 -0.30899751071E+02 -0.78927969051E+02  0.85958218384E+02  0.10566000000E+00 0.  1.
         13    1    4    4    0    0 -0.63889233552E+01  0.15007569149E+02 -0.12567159207E+03  0.12672571046E+03  0.10566000000E+00 0. -1.
        -13    1    4    4    0    0 -0.48136513682E+00  0.11549525578E+01 -0.11946104638E+02  0.12011919408E+02  0.10566000000E+00 0.  1.
        -14    1    4    4    0    0 -0.74260477150E+01  0.14737229364E+02 -0.12283218237E+03  0.12393577829E+03  0.00000000000E+00 0.  1.
<mgrwt>
<rscale>  0 0.79791523E+02</rscale>
<asrwt>0</asrwt>
<pdfrwt beam="1">  1        2 0.52923786E-01 0.79791523E+02</pdfrwt>
<pdfrwt beam="2">  1       -1 0.71182938E-03 0.79791523E+02</pdfrwt>
<totfact> 0.26967139E+05</totfact>
</mgrwt>
</event>
<event>
 8    1  0.1226832E-016  0.7940592E+02  0.7818608E-02  0.1330746E+00
         -1   -1    0    0    0  501 -0.00000000000E+00  0.00000000000E+00  0.20512642617E+01  0.20512704534E+01  0.50400000000E-02 0.  1.
          2   -1    0    0  501    0  0.00000000000E+00 -0.00000000000E+00 -0.76846393708E+03  0.76846393709E+03  0.25500000000E-02 0. -1.
         24    2    1    2    0    0  0.00000000000E+00 -0.44408920985E-15 -0.76641267282E+03  0.77051520754E+03  0.79405919113E+02 0.  0.
         66    2    3    3    0    0  0.12408024622E+02  0.31887512390E+01 -0.74783971538E+03  0.74795211552E+03  0.19999997467E+01 0.  0.
        -13    1    3    3    0    0 -0.12408024622E+02 -0.31887512390E+01 -0.18572957443E+02  0.22563092024E+02  0.10566000000E+00 0.  1.
         13    1    4    4    0    0  0.39821713127E+01  0.84503955291E+00 -0.22005815619E+03  0.22009583152E+03  0.10566000000E+00 0. -1.
        -13    1    4    4    0    0  0.28345622999E+01  0.23499546538E+00 -0.20009965313E+03  0.20011989484E+03  0.10566000000E+00 0.  1.
        -14    1    4    4    0    0  0.55912910090E+01  0.21087162208E+01 -0.32768190606E+03  0.32773638916E+03  0.00000000000E+00 0.  1.
<mgrwt>
<rscale>  0 0.79405919E+02</rscale>
<asrwt>0</asrwt>
<pdfrwt beam="1">  1        2 0.11822499E+00 0.79405919E+02</pdfrwt>
<pdfrwt beam="2">  1       -1 0.31558021E-03 0.79405919E+02</pdfrwt>
<totfact> 0.34782154E+05</totfact>
</mgrwt>
</event>
<event>
 8    1  0.1226832E-016  0.7855316E+02  0.7818608E-02  0.1333208E+00
         -1   -1    0    0    0  501 -0.00000000000E+00  0.00000000000E+00  0.95267031203E+02  0.95267031336E+02  0.50400000000E-02 0.  1.
          2   -1    0    0  501    0  0.00000000000E+00 -0.00000000000E+00 -0.16192903051E+02  0.16192903252E+02  0.25500000000E-02 0. -1.
         24    2    1    2    0    0  0.00000000000E+00  0.00000000000E+00  0.79074128152E+02  0.11145993459E+03  0.78553162097E+02 0.  0.
         66    2    3    3    0    0 -0.13573614386E+02  0.32971538702E+02  0.62846577649E+02  0.72284560547E+02  0.19999998477E+01 0.  0.
        -13    1    3    3    0    0  0.13573614386E+02 -0.32971538702E+02  0.16227550503E+02  0.39175374041E+02  0.10566000000E+00 0.  1.
         13    1    4    4    0    0 -0.95845227835E+01  0.24005079545E+02  0.45461451464E+02  0.52295904756E+02  0.10566000000E+00 0. -1.
        -13    1    4    4    0    0 -0.71323064171E+00  0.26069495876E+01  0.50803999705E+01  0.57555635690E+01  0.10566000000E+00 0.  1.
         14    1    4    4    0    0 -0.32758609611E+01  0.63595095694E+01  0.12304726214E+02  0.14233092222E+02  0.00000000000E+00 0. -1.
<mgrwt>
<rscale>  0 0.78553162E+02</rscale>
<asrwt>0</asrwt>
<pdfrwt beam="1">  1        2 0.24912159E-02 0.78553162E+02</pdfrwt>
<pdfrwt beam="2">  1       -1 0.14656466E-01 0.78553162E+02</pdfrwt>
<totfact> 0.12532141E+05</totfact>
</mgrwt>
</event>
<event>
 8    1  0.1226832E-016  0.7885351E+02  0.7818608E-02  0.1332337E+00
          2   -1    0    0  501    0  0.00000000000E+00  0.00000000000E+00  0.10779864685E+04  0.10779864685E+04  0.25500000000E-02 0. -1.
         -1   -1    0    0    0  501 -0.00000000000E+00 -0.00000000000E+00 -0.14420072553E+01  0.14420160630E+01  0.50400000000E-02 0.  1.
         24    2    1    2    0    0  0.00000000000E+00  0.17763568394E-14  0.10765444613E+04  0.10794284846E+04  0.78853511375E+02 0.  0.
         66    2    3    3    0    0 -0.19445204685E+02 -0.15578142324E+02  0.95645156465E+03  0.95677812998E+03  0.19999961782E+01 0.  0.
        -13    1    3    3    0    0  0.19445204685E+02  0.15578142324E+02  0.12009289663E+03  0.12265035462E+03  0.10566000000E+00 0.  1.
         13    1    4    4    0    0 -0.10646117830E+02 -0.79916775549E+01  0.50393972986E+03  0.50411553163E+03  0.10566000000E+00 0. -1.
        -13    1    4    4    0    0 -0.36484308803E+01 -0.23761912508E+01  0.17009849858E+03  0.17015424683E+03  0.10566000000E+00 0.  1.
         14    1    4    4    0    0 -0.51506559744E+01 -0.52102735184E+01  0.28241333621E+03  0.28250835151E+03  0.00000000000E+00 0. -1.
<mgrwt>
<rscale>  0 0.78853511E+02</rscale>
<asrwt>0</asrwt>
<pdfrwt beam="1">  1        2 0.16584421E+00 0.78853511E+02</pdfrwt>
<pdfrwt beam="2">  1       -1 0.22184776E-03 0.78853511E+02</pdfrwt>
<totfact> 0.36614200E+05</totfact>
</mgrwt>
</event>
<event>
 8    1  0.1226832E-016  0.8002381E+02  0.7818608E-02  0.1328984E+00
          2   -1    0    0  501    0  0.00000000000E+00  0.00000000000E+00  0.43255827261E+03  0.43255827261E+03  0.25500000000E-02 0. -1.
         -1   -1    0    0    0  501 -0.00000000000E+00 -0.00000000000E+00 -0.37011236472E+01  0.37011270788E+01  0.50400000000E-02 0.  1.
         24    2    1    2    0    0  0.35527136788E-14  0.00000000000E+00  0.42885714896E+03  0.43625939969E+03  0.80023806500E+02 0.  0.
         66    2    3    3    0    0  0.20072852514E+02  0.23182147657E+02  0.35446988191E+03  0.35579942181E+03  0.19999999576E+01 0.  0.
        -13    1    3    3    0    0 -0.20072852514E+02 -0.23182147657E+02  0.74387267052E+02  0.80459977887E+02  0.10566000000E+00 0.  1.
         13    1    4    4    0    0  0.83292915616E+01  0.10336166874E+02  0.15560276713E+03  0.15616800488E+03  0.10566000000E+00 0. -1.
        -13    1    4    4    0    0  0.50439877841E+01  0.61326784792E+01  0.85179465555E+02  0.85548840287E+02  0.10566000000E+00 0.  1.
        -14    1    4    4    0    0  0.66995731688E+01  0.67133023036E+01  0.11368764922E+03  0.11408257664E+03  0.00000000000E+00 0.  1.
<mgrwt>
<rscale>  0 0.80023807E+02</rscale>
<asrwt>0</asrwt>
<pdfrwt beam="1">  1        2 0.66547414E-01 0.80023807E+02</pdfrwt>
<pdfrwt beam="2">  1       -1 0.56940402E-03 0.80023807E+02</pdfrwt>
<totfact> 0.29005149E+05</totfact>
</mgrwt>
</event>
<event>
 8    1  0.1226832E-016  0.7987559E+02  0.7818608E-02  0.1329405E+00
         -1   -1    0    0    0  501 -0.00000000000E+00  0.00000000000E+00  0.44325469695E+02  0.44325469982E+02  0.50400000000E-02 0.  1.
          2   -1    0    0  501    0  0.00000000000E+00 -0.00000000000E+00 -0.35984442257E+02  0.35984442348E+02  0.25500000000E-02 0. -1.
         24    2    1    2    0    0 -0.35527136788E-14  0.00000000000E+00  0.83410274380E+01  0.80309912330E+02  0.79875586256E+02 0.  0.
         66    2    3    3    0    0 -0.31101451049E+02 -0.10794040894E+02 -0.18515280210E+02  0.37823632183E+02  0.19999935346E+01 0.  0.
        -13    1    3    3    0    0  0.31101451049E+02  0.10794040894E+02  0.26856307648E+02  0.42486280146E+02  0.10566000000E+00 0.  1.
         13    1    4    4    0    0 -0.12727863949E+02 -0.49165008082E+01 -0.70896027658E+01  0.15376739977E+02  0.10566000000E+00 0. -1.
        -13    1    4    4    0    0 -0.92901797804E+01 -0.34080210611E+01 -0.54574072074E+01  0.11301172743E+02  0.10566000000E+00 0.  1.
        -14    1    4    4    0    0 -0.90834073193E+01 -0.24695190242E+01 -0.59682702368E+01  0.11145719463E+02  0.00000000000E+00 0.  1.
<mgrwt>
<rscale>  0 0.79875586E+02</rscale>
<asrwt>0</asrwt>
<pdfrwt beam="1">  1        2 0.55360681E-02 0.79875586E+02</pdfrwt>
<pdfrwt beam="2">  1       -1 0.68193030E-02 0.79875586E+02</pdfrwt>
<totfact> 0.14012070E+05</totfact>
</mgrwt>
</event>
<event>
 8    1  0.1226832E-016  0.8249325E+02  0.7818608E-02  0.1322121E+00
          2   -1    0    0  501    0  0.00000000000E+00  0.00000000000E+00  0.51767984982E+03  0.51767984982E+03  0.25500000000E-02 0. -1.
         -1   -1    0    0    0  501 -0.00000000000E+00 -0.00000000000E+00 -0.32863615401E+01  0.32863654048E+01  0.50400000000E-02 0.  1.
         24    2    1    2    0    0  0.00000000000E+00  0.00000000000E+00  0.51439348828E+03  0.52096621523E+03  0.82493252012E+02 0.  0.
         66    2    3    3    0    0  0.31694933289E+02 -0.25488109150E+02  0.29974290706E+03  0.30249631870E+03  0.19999988933E+01 0.  0.
        -13    1    3    3    0    0 -0.31694933289E+02  0.25488109150E+02  0.21465058122E+03  0.21846989652E+03  0.10566000000E+00 0.  1.
         13    1    4    4    0    0  0.28778054963E+02 -0.22547372850E+02  0.26849310878E+03  0.27097070155E+03  0.10566000000E+00 0. -1.
        -13    1    4    4    0    0  0.16219742757E+01 -0.17549276222E+01  0.19248231102E+02  0.19396291813E+02  0.10566000000E+00 0.  1.
         14    1    4    4    0    0  0.12949040505E+01 -0.11858086777E+01  0.12001567169E+02  0.12129325341E+02  0.00000000000E+00 0. -1.
<mgrwt>
<rscale>  0 0.82493252E+02</rscale>
<asrwt>0</asrwt>
<pdfrwt beam="1">  1        2 0.79642986E-01 0.82493252E+02</pdfrwt>
<pdfrwt beam="2">  1       -1 0.50559481E-03 0.82493252E+02</pdfrwt>
<totfact> 0.28417629E+05</totfact>
</mgrwt>
</event>
<event>
 8    1  0.1226832E-016  0.8042518E+02  0.7818608E-02  0.1327849E+00
         -1   -1    0    0    0  501 -0.00000000000E+00  0.00000000000E+00  0.47454773026E+01  0.47454799790E+01  0.50400000000E-02 0.  1.
          2   -1    0    0  501    0  0.00000000000E+00 -0.00000000000E+00 -0.34075645521E+03  0.34075645522E+03  0.25500000000E-02 0. -1.
         24    2    1    2    0    0  0.00000000000E+00  0.00000000000E+00 -0.33601097791E+03  0.34550193520E+03  0.80425182323E+02 0.  0.
         66    2    3    3    0    0 -0.18722705378E+02 -0.12277309202E+02 -0.31147875695E+03  0.31228878950E+03  0.19999999651E+01 0.  0.
        -13    1    3    3    0    0  0.18722705378E+02  0.12277309202E+02 -0.24532220958E+02  0.33213145696E+02  0.10566000000E+00 0.  1.
         13    1    4    4    0    0 -0.13027122213E+01 -0.50080535803E+00 -0.19554867502E+02  0.19604894088E+02  0.10566000000E+00 0. -1.
        -13    1    4    4    0    0 -0.14212727850E+02 -0.95913259511E+01 -0.22969227375E+03  0.23033138507E+03  0.10566000000E+00 0.  1.
         14    1    4    4    0    0 -0.32072653062E+01 -0.21851778926E+01 -0.62231615705E+02  0.62352510346E+02  0.00000000000E+00 0. -1.
<mgrwt>
<rscale>  0 0.80425182E+02</rscale>
<asrwt>0</asrwt>
<pdfrwt beam="1">  1        2 0.52424051E-01 0.80425182E+02</pdfrwt>
<pdfrwt beam="2">  1       -1 0.73007391E-03 0.80425182E+02</pdfrwt>
<totfact> 0.26324906E+05</totfact>
</mgrwt>
</event>
<event>
 8    1  0.1486529E-016  0.8020801E+02  0.7818608E-02  0.1328462E+00
          2   -1    0    0  501    0  0.00000000000E+00  0.00000000000E+00  0.29854525223E+03  0.29854525224E+03  0.25500000000E-02 0. -1.
         -1   -1    0    0    0  501 -0.00000000000E+00 -0.00000000000E+00 -0.53872259362E+01  0.53872282937E+01  0.50400000000E-02 0.  1.
         24    2    1    2    0    0 -0.35527136788E-14  0.35527136788E-14  0.29315802629E+03  0.30393248053E+03  0.80208006729E+02 0.  0.
         66    2    3    3    0    0 -0.21254206049E+02  0.16260911783E+02  0.25972633004E+03  0.26110902895E+03  0.19999897562E+01 0.  0.
        -13    1    3    3    0    0  0.21254206049E+02 -0.16260911783E+02  0.33431696255E+02  0.42823451580E+02  0.10566000000E+00 0.  1.
         13    1    4    4    0    0 -0.12301952019E+02  0.96477769000E+01  0.14766669632E+03  0.14849202669E+03  0.10566000000E+00 0. -1.
        -13    1    4    4    0    0 -0.47871206565E+01  0.40455556167E+01  0.58873648152E+02  0.59206424104E+02  0.10566000000E+00 0.  1.
        -14    1    4    4    0    0 -0.41651333730E+01  0.25675792662E+01  0.53185985565E+02  0.53410578164E+02  0.00000000000E+00 0.  1.
<mgrwt>
<rscale>  0 0.80208007E+02</rscale>
<asrwt>0</asrwt>
<pdfrwt beam="1">  1        2 0.45930048E-01 0.80208007E+02</pdfrwt>
<pdfrwt beam="2">  1       -1 0.82880400E-03 0.80208007E+02</pdfrwt>
<totfact> 0.25276952E+05</totfact>
</mgrwt>
</event>
<event>
 8    1  0.1226832E-016  0.8028483E+02  0.7818608E-02  0.1328245E+00
         -1   -1    0    0    0  501 -0.00000000000E+00  0.00000000000E+00  0.17223365363E+03  0.17223365370E+03  0.50400000000E-02 0.  1.
          2   -1    0    0  501    0  0.00000000000E+00 -0.00000000000E+00 -0.93559738130E+01  0.93559741605E+01  0.25500000000E-02 0. -1.
         24    2    1    2    0    0  0.00000000000E+00  0.00000000000E+00  0.16287767981E+03  0.18158962786E+03  0.80284832722E+02 0.  0.
         66    2    3    3    0    0 -0.28156246514E+01 -0.37043678848E+02  0.47243295441E+02  0.60133940888E+02  0.19999994689E+01 0.  0.
        -13    1    3    3    0    0  0.28156246514E+01  0.37043678848E+02  0.11563438437E+03  0.12145568697E+03  0.10566000000E+00 0.  1.
         13    1    4    4    0    0  0.12417250453E+00 -0.64080906255E+01  0.78649267272E+01  0.10146293941E+02  0.10566000000E+00 0. -1.
        -13    1    4    4    0    0 -0.11180760479E+01 -0.74551716571E+01  0.97196805514E+01  0.12300936247E+02  0.10566000000E+00 0.  1.
         14    1    4    4    0    0 -0.18217211080E+01 -0.23180416565E+02  0.29658688163E+02  0.37686710701E+02  0.00000000000E+00 0. -1.
<mgrwt>
<rscale>  0 0.80284833E+02</rscale>
<asrwt>0</asrwt>
<pdfrwt beam="1">  1        2 0.14393806E-02 0.80284833E+02</pdfrwt>
<pdfrwt beam="2">  1       -1 0.26497486E-01 0.80284833E+02</pdfrwt>
<totfact> 0.10306302E+05</totfact>
</mgrwt>
</event>
<event>
 8    1  0.1226832E-016  0.7823476E+02  0.7818608E-02  0.1334137E+00
         -1   -1    0    0    0  501 -0.00000000000E+00  0.00000000000E+00  0.10504379902E+01  0.10504500811E+01  0.50400000000E-02 0.  1.
          2   -1    0    0  501    0  0.00000000000E+00 -0.00000000000E+00 -0.14566881889E+04  0.14566881889E+04  0.25500000000E-02 0. -1.
         24    2    1    2    0    0  0.11102230246E-15  0.00000000000E+00 -0.14556377509E+04  0.14577386390E+04  0.78234760249E+02 0.  0.
         66    2    3    3    0    0  0.34755530745E+00 -0.22258053960E+02 -0.13270503964E+04  0.13272385981E+04  0.20000002952E+01 0.  0.
        -13    1    3    3    0    0 -0.34755530745E+00  0.22258053960E+02 -0.12858735454E+03  0.13050004089E+03  0.10566000000E+00 0.  1.
         13    1    4    4    0    0  0.87026818843E-01 -0.17265274147E+02 -0.10429065711E+04  0.10430494832E+04  0.10566000000E+00 0. -1.
        -13    1    4    4    0    0 -0.77807999156E-01 -0.41414891788E+01 -0.22412906631E+03  0.22416736497E+03  0.10566000000E+00 0.  1.
        -14    1    4    4    0    0  0.33833648777E+00 -0.85129063433E+00 -0.60014759005E+02  0.60021749939E+02  0.00000000000E+00 0.  1.
<mgrwt>
<rscale>  0 0.78234760E+02</rscale>
<asrwt>0</asrwt>
<pdfrwt beam="1">  1        2 0.22410426E+00 0.78234760E+02</pdfrwt>
<pdfrwt beam="2">  1       -1 0.16160794E-03 0.78234760E+02</pdfrwt>
<totfact> 0.35603369E+05</totfact>
</mgrwt>
</event>
<event>
 8    1  0.1226832E-016  0.7960240E+02  0.7818608E-02  0.1330184E+00
         -1   -1    0    0    0  501 -0.00000000000E+00  0.00000000000E+00  0.68860601125E+01  0.68860619569E+01  0.50400000000E-02 0.  1.
          2   -1    0    0  501    0  0.00000000000E+00 -0.00000000000E+00 -0.23004959244E+03  0.23004959245E+03  0.25500000000E-02 0. -1.
         24    2    1    2    0    0  0.00000000000E+00  0.00000000000E+00 -0.22316353232E+03  0.23693565441E+03  0.79602400530E+02 0.  0.
         66    2    3    3    0    0 -0.13361382573E+01 -0.37512162437E+02 -0.72481708569E+02  0.81648917143E+02  0.19999993570E+01 0.  0.
        -13    1    3    3    0    0  0.13361382573E+01  0.37512162437E+02 -0.15068182375E+03  0.15528673726E+03  0.10566000000E+00 0.  1.
         13    1    4    4    0    0 -0.11753914696E+01 -0.14720849402E+02 -0.29277041565E+02  0.32790871886E+02  0.10566000000E+00 0. -1.
        -13    1    4    4    0    0 -0.22064900604E+00 -0.16472752728E+02 -0.32132761445E+02  0.36109912635E+02  0.10566000000E+00 0.  1.
         14    1    4    4    0    0  0.59902218280E-01 -0.63185603073E+01 -0.11071905560E+02  0.12748132623E+02  0.00000000000E+00 0. -1.
<mgrwt>
<rscale>  0 0.79602401E+02</rscale>
<asrwt>0</asrwt>
<pdfrwt beam="1">  1        2 0.35392239E-01 0.79602401E+02</pdfrwt>
<pdfrwt beam="2">  1       -1 0.10593942E-02 0.79602401E+02</pdfrwt>
<totfact> 0.23476526E+05</totfact>
</mgrwt>
</event>
<event>
 8    1  0.1226832E-016  0.7952130E+02  0.7818608E-02  0.1330415E+00
          2   -1    0    0  501    0  0.00000000000E+00  0.00000000000E+00  0.98210572457E+01  0.98210575767E+01  0.25500000000E-02 0. -1.
         -1   -1    0    0    0  501 -0.00000000000E+00 -0.00000000000E+00 -0.16097140391E+03  0.16097140399E+03  0.50400000000E-02 0.  1.
         24    2    1    2    0    0  0.00000000000E+00 -0.11102230246E-15 -0.15115034666E+03  0.17079246156E+03  0.79521303000E+02 0.  0.
         66    2    3    3    0    0  0.38249329383E+02  0.31243283241E+00 -0.52511175519E+02  0.64996402750E+02  0.20000008900E+01 0.  0.
        -13    1    3    3    0    0 -0.38249329383E+02 -0.31243283241E+00 -0.98639171144E+02  0.10579605881E+03  0.10566000000E+00 0.  1.
         13    1    4    4    0    0  0.12633078903E+02  0.68042062094E+00 -0.18412456506E+02  0.22340263503E+02  0.10566000000E+00 0. -1.
        -13    1    4    4    0    0  0.25146388697E+02 -0.41205672518E+00 -0.33330954813E+02  0.41754932260E+02  0.10566000000E+00 0.  1.
        -14    1    4    4    0    0  0.46986178403E+00  0.44068936652E-01 -0.76776419936E+00  0.90120698682E+00  0.00000000000E+00 0.  1.
<mgrwt>
<rscale>  0 0.79521303E+02</rscale>
<asrwt>0</asrwt>
<pdfrwt beam="1">  1        2 0.15109320E-02 0.79521303E+02</pdfrwt>
<pdfrwt beam="2">  1       -1 0.24764829E-01 0.79521303E+02</pdfrwt>
<totfact> 0.10753430E+05</totfact>
</mgrwt>
</event>
<event>
 8    1  0.1226832E-016  0.7972620E+02  0.7818608E-02  0.1329830E+00
         -1   -1    0    0    0  501 -0.00000000000E+00  0.00000000000E+00  0.31845821275E+01  0.31845861157E+01  0.50400000000E-02 0.  1.
          2   -1    0    0  501    0  0.00000000000E+00 -0.00000000000E+00 -0.49898718710E+03  0.49898718711E+03  0.25500000000E-02 0. -1.
         24    2    1    2    0    0  0.00000000000E+00  0.00000000000E+00 -0.49580260498E+03  0.50217177322E+03  0.79726198478E+02 0.  0.
         66    2    3    3    0    0 -0.88373465510E+01  0.11331735169E+02 -0.48209039303E+03  0.48230867084E+03  0.19999991006E+01 0.  0.
        -13    1    3    3    0    0  0.88373465510E+01 -0.11331735169E+02 -0.13712211944E+02  0.19863102387E+02  0.10566000000E+00 0.  1.
         13    1    4    4    0    0 -0.48881228554E+01  0.50066711865E+01 -0.24852782311E+03  0.24862632709E+03  0.10566000000E+00 0. -1.
        -13    1    4    4    0    0 -0.32710244502E+01  0.52827143465E+01 -0.20098152234E+03  0.20107757249E+03  0.10566000000E+00 0.  1.
        -14    1    4    4    0    0 -0.67819924537E+00  0.10423496360E+01 -0.32581047581E+02  0.32604771253E+02  0.00000000000E+00 0.  1.
<mgrwt>
<rscale>  0 0.79726198E+02</rscale>
<asrwt>0</asrwt>
<pdfrwt beam="1">  1        2 0.76767198E-01 0.79726198E+02</pdfrwt>
<pdfrwt beam="2">  1       -1 0.48993642E-03 0.79726198E+02</pdfrwt>
<totfact> 0.30704741E+05</totfact>
</mgrwt>
</event>
<event>
 8    1  0.1226832E-016  0.8295918E+02  0.7818608E-02  0.1320857E+00
         -1   -1    0    0    0  501 -0.00000000000E+00  0.00000000000E+00  0.94172761868E+00  0.94174110528E+00  0.50400000000E-02 0.  1.
          2   -1    0    0  501    0  0.00000000000E+00 -0.00000000000E+00 -0.18270081808E+04  0.18270081808E+04  0.25500000000E-02 0. -1.
         24    2    1    2    0    0 -0.22204460493E-15  0.00000000000E+00 -0.18260664531E+04  0.18279499219E+04  0.82959180117E+02 0.  0.
         66    2    3    3    0    0 -0.15382452756E+01  0.16293522166E+02 -0.17528090151E+04  0.17528865589E+04  0.19999996634E+01 0.  0.
        -13    1    3    3    0    0  0.15382452756E+01 -0.16293522166E+02 -0.73257438070E+02  0.75063362966E+02  0.10566000000E+00 0.  1.
         13    1    4    4    0    0 -0.38632925326E+00  0.12510968006E+01 -0.13402926753E+03  0.13403570499E+03  0.10566000000E+00 0. -1.
        -13    1    4    4    0    0 -0.47985762942E+00  0.10354160768E+02 -0.11808624377E+04  0.11809079332E+04  0.10566000000E+00 0.  1.
        -14    1    4    4    0    0 -0.67205839291E+00  0.46882645972E+01 -0.43791730986E+03  0.43794292067E+03  0.00000000000E+00 0.  1.
<mgrwt>
<rscale>  0 0.82959180E+02</rscale>
<asrwt>0</asrwt>
<pdfrwt beam="1">  1        2 0.28107534E+00 0.82959180E+02</pdfrwt>
<pdfrwt beam="2">  1       -1 0.14488367E-03 0.82959180E+02</pdfrwt>
<totfact> 0.27198916E+05</totfact>
</mgrwt>
</event>
<event>
 8    1  0.1226832E-016  0.8206394E+02  0.7818608E-02  0.1323294E+00
          2   -1    0    0  501    0  0.00000000000E+00  0.00000000000E+00  0.52129466551E+01  0.52129472788E+01  0.25500000000E-02 0. -1.
         -1   -1    0    0    0  501 -0.00000000000E+00 -0.00000000000E+00 -0.32296945071E+03  0.32296945075E+03  0.50400000000E-02 0.  1.
         24    2    1    2    0    0 -0.71054273576E-14 -0.35527136788E-14 -0.31775650405E+03  0.32818239802E+03  0.82063941572E+02 0.  0.
         66    2    3    3    0    0  0.34891784620E+02  0.21129980392E+02 -0.14214524249E+03  0.14789585095E+03  0.20000149890E+01 0.  0.
        -13    1    3    3    0    0 -0.34891784620E+02 -0.21129980392E+02 -0.17561126156E+03  0.18028654708E+03  0.10566000000E+00 0.  1.
         13    1    4    4    0    0  0.18597059642E+02  0.10546152803E+02 -0.73714508599E+02  0.76752276242E+02  0.10566000000E+00 0. -1.
        -13    1    4    4    0    0  0.99021704024E+01  0.68098843175E+01 -0.43734228619E+02  0.45355500438E+02  0.10566000000E+00 0.  1.
        -14    1    4    4    0    0  0.63925545752E+01  0.37739432717E+01 -0.24696505272E+02  0.25788074268E+02  0.00000000000E+00 0.  1.
<mgrwt>
<rscale>  0 0.82063942E+02</rscale>
<asrwt>0</asrwt>
<pdfrwt beam="1">  1        2 0.80199210E-03 0.82063942E+02</pdfrwt>
<pdfrwt beam="2">  1       -1 0.49687592E-01 0.82063942E+02</pdfrwt>
<totfact> 0.78504443E+04</totfact>
</mgrwt>
</event>
<event>
 8    1  0.1226832E-016  0.8326337E+02  0.7818608E-02  0.1320038E+00
         -1   -1    0    0    0  501 -0.00000000000E+00  0.00000000000E+00  0.62897998555E+01  0.62898018748E+01  0.50400000000E-02 0.  1.
          2   -1    0    0  501    0  0.00000000000E+00 -0.00000000000E+00 -0.27555675572E+03  0.27555675573E+03  0.25500000000E-02 0. -1.
         24    2    1    2    0    0  0.00000000000E+00  0.35527136788E-14 -0.26926695587E+03  0.28184655761E+03  0.83263368381E+02 0.  0.
         66    2    3    3    0    0  0.32357285240E+02  0.23850184852E+02 -0.98352992884E+02  0.10626916974E+03  0.20000003979E+01 0.  0.
        -13    1    3    3    0    0 -0.32357285240E+02 -0.23850184852E+02 -0.17091396298E+03  0.17557738787E+03  0.10566000000E+00 0.  1.
         13    1    4    4    0    0  0.23939959495E+02  0.17452825276E+02 -0.70900941389E+02  0.76841898888E+02  0.10566000000E+00 0. -1.
        -13    1    4    4    0    0  0.13122824748E+01  0.12626224658E+01 -0.42832199760E+01  0.46554740020E+01  0.10566000000E+00 0.  1.
         14    1    4    4    0    0  0.71050432707E+01  0.51347371100E+01 -0.23168831519E+02  0.24771796846E+02  0.00000000000E+00 0. -1.
<mgrwt>
<rscale>  0 0.83263368E+02</rscale>
<asrwt>0</asrwt>
<pdfrwt beam="1">  1        2 0.42393338E-01 0.83263368E+02</pdfrwt>
<pdfrwt beam="2">  1       -1 0.96766189E-03 0.83263368E+02</pdfrwt>
<totfact> 0.22253788E+05</totfact>
</mgrwt>
</event>
<event>
 8    1  0.1226832E-016  0.8026286E+02  0.7818608E-02  0.1328307E+00
         -1   -1    0    0    0  501 -0.00000000000E+00  0.00000000000E+00  0.17834656405E+03  0.17834656413E+03  0.50400000000E-02 0.  1.
          2   -1    0    0  501    0  0.00000000000E+00 -0.00000000000E+00 -0.90303486110E+01  0.90303489710E+01  0.25500000000E-02 0. -1.
         24    2    1    2    0    0  0.00000000000E+00 -0.88817841970E-15  0.16931621544E+03  0.18737691310E+03  0.80262860337E+02 0.  0.
         66    2    3    3    0    0  0.30840311925E+02 -0.73823706031E+01  0.27388044313E+02  0.41949126344E+02  0.19999985952E+01 0.  0.
        -13    1    3    3    0    0 -0.30840311925E+02  0.73823706031E+01  0.14192817113E+03  0.14542778675E+03  0.10566000000E+00 0.  1.
         13    1    4    4    0    0  0.12255067564E+02 -0.23092740944E+01  0.10379003763E+02  0.16225113589E+02  0.10566000000E+00 0. -1.
        -13    1    4    4    0    0  0.57614668697E+01 -0.17159636133E+01  0.46562956254E+01  0.76046883302E+01  0.10566000000E+00 0.  1.
        -14    1    4    4    0    0  0.12823777492E+02 -0.33571328954E+01  0.12352744925E+02  0.18119324425E+02  0.00000000000E+00 0.  1.
<mgrwt>
<rscale>  0 0.80262860E+02</rscale>
<asrwt>0</asrwt>
<pdfrwt beam="1">  1        2 0.13892845E-02 0.80262860E+02</pdfrwt>
<pdfrwt beam="2">  1       -1 0.27437931E-01 0.80262860E+02</pdfrwt>
<totfact> 0.10213784E+05</totfact>
</mgrwt>
</event>
<event>
 8    1  0.1226832E-016  0.8042129E+02  0.7818608E-02  0.1327860E+00
         -1   -1    0    0    0  501 -0.00000000000E+00  0.00000000000E+00  0.21605383189E+02  0.21605383777E+02  0.50400000000E-02 0.  1.
          2   -1    0    0  501    0  0.00000000000E+00 -0.00000000000E+00 -0.74837636692E+02  0.74837636735E+02  0.25500000000E-02 0. -1.
         24    2    1    2    0    0  0.00000000000E+00 -0.17763568394E-14 -0.53232253502E+02  0.96443020512E+02  0.80421286937E+02 0.  0.
         66    2    3    3    0    0 -0.38298061777E+02  0.10351767950E+02 -0.34310399555E+02  0.52489086031E+02  0.19999997980E+01 0.  0.
        -13    1    3    3    0    0  0.38298061777E+02 -0.10351767950E+02 -0.18921853947E+02  0.43953934481E+02  0.10566000000E+00 0.  1.
         13    1    4    4    0    0 -0.19759924034E+02  0.45985264292E+01 -0.18017120288E+02  0.27133537010E+02  0.10566000000E+00 0. -1.
        -13    1    4    4    0    0 -0.23130130314E+01  0.70732416168E+00 -0.17126611529E+01  0.29655874652E+01  0.10566000000E+00 0.  1.
         14    1    4    4    0    0 -0.16225124711E+02  0.50459173589E+01 -0.14580618114E+02  0.22389961556E+02  0.00000000000E+00 0. -1.
<mgrwt>
<rscale>  0 0.80421287E+02</rscale>
<asrwt>0</asrwt>
<pdfrwt beam="1">  1        2 0.11513483E-01 0.80421287E+02</pdfrwt>
<pdfrwt beam="2">  1       -1 0.33239052E-02 0.80421287E+02</pdfrwt>
<totfact> 0.16184223E+05</totfact>
</mgrwt>
</event>
<event>
 8    1  0.1226832E-016  0.8735204E+02  0.7818608E-02  0.1309394E+00
         -1   -1    0    0    0  501 -0.00000000000E+00  0.00000000000E+00  0.10570939238E+03  0.10570939250E+03  0.50400000000E-02 0.  1.
          2   -1    0    0  501    0  0.00000000000E+00 -0.00000000000E+00 -0.18045648191E+02  0.18045648371E+02  0.25500000000E-02 0. -1.
         24    2    1    2    0    0  0.00000000000E+00  0.00000000000E+00  0.87663744184E+02  0.12375504087E+03  0.87352035440E+02 0.  0.
         66    2    3    3    0    0  0.15660746266E+02  0.39276901280E+02  0.28487540622E+02  0.51024248351E+02  0.20000003497E+01 0.  0.
        -13    1    3    3    0    0 -0.15660746266E+02 -0.39276901280E+02  0.59176203563E+02  0.72730792515E+02  0.10566000000E+00 0.  1.
         13    1    4    4    0    0  0.12973883604E+02  0.33455980219E+02  0.24340518156E+02  0.43360076757E+02  0.10566000000E+00 0. -1.
        -13    1    4    4    0    0  0.15440918779E+01  0.38023019483E+01  0.23532829883E+01  0.47318944083E+01  0.10566000000E+00 0.  1.
         14    1    4    4    0    0  0.11427707839E+01  0.20186191125E+01  0.17937394770E+01  0.29322771863E+01  0.00000000000E+00 0. -1.
<mgrwt>
<rscale>  0 0.87352035E+02</rscale>
<asrwt>0</asrwt>
<pdfrwt beam="1">  1        2 0.27762536E-02 0.87352035E+02</pdfrwt>
<pdfrwt beam="2">  1       -1 0.16262984E-01 0.87352035E+02</pdfrwt>
<totfact> 0.94027175E+04</totfact>
</mgrwt>
</event>
<event>
 8    1  0.1226832E-016  0.8038637E+02  0.7818608E-02  0.1327959E+00
          2   -1    0    0  501    0  0.00000000000E+00  0.00000000000E+00  0.10778588119E+03  0.10778588122E+03  0.25500000000E-02 0. -1.
         -1   -1    0    0    0  501 -0.00000000000E+00 -0.00000000000E+00 -0.14987975454E+02  0.14987976301E+02  0.50400000000E-02 0.  1.
         24    2    1    2    0    0  0.00000000000E+00  0.00000000000E+00  0.92797905733E+02  0.12277385752E+03  0.80386371864E+02 0.  0.
         66    2    3    3    0    0 -0.33993947979E+02 -0.27429380203E+01  0.78839951625E+02  0.85923513489E+02  0.19999974584E+01 0.  0.
        -13    1    3    3    0    0  0.33993947979E+02  0.27429380203E+01  0.13957954109E+02  0.36850344030E+02  0.10566000000E+00 0.  1.
         13    1    4    4    0    0 -0.13899136329E+02 -0.32909772961E+00  0.30925952379E+02  0.33907521151E+02  0.10566000000E+00 0. -1.
        -13    1    4    4    0    0 -0.10909843989E+02 -0.14170133938E+01  0.26640790253E+02  0.28823176302E+02  0.10566000000E+00 0.  1.
         14    1    4    4    0    0 -0.91849676615E+01 -0.99682689691E+00  0.21273208992E+02  0.23192816035E+02  0.00000000000E+00 0. -1.
<mgrwt>
<rscale>  0 0.80386372E+02</rscale>
<asrwt>0</asrwt>
<pdfrwt beam="1">  1        2 0.16582443E-01 0.80386372E+02</pdfrwt>
<pdfrwt beam="2">  1       -1 0.23058425E-02 0.80386372E+02</pdfrwt>
<totfact> 0.17875283E+05</totfact>
</mgrwt>
</event>
<event>
 8    1  0.1226832E-016  0.7982285E+02  0.7818608E-02  0.1329555E+00
          2   -1    0    0  501    0  0.00000000000E+00  0.00000000000E+00  0.10172724774E+03  0.10172724777E+03  0.25500000000E-02 0. -1.
         -1   -1    0    0    0  501 -0.00000000000E+00 -0.00000000000E+00 -0.15658753120E+02  0.15658753931E+02  0.50400000000E-02 0.  1.
         24    2    1    2    0    0  0.44408920985E-15  0.00000000000E+00  0.86068494622E+02  0.11738600170E+03  0.79822851550E+02 0.  0.
         66    2    3    3    0    0  0.23131186166E+01  0.15014838172E+02  0.97295964457E+02  0.98495180494E+02  0.19999994734E+01 0.  0.
        -13    1    3    3    0    0 -0.23131186166E+01 -0.15014838172E+02 -0.11227469835E+02  0.18890821210E+02  0.10566000000E+00 0.  1.
         13    1    4    4    0    0  0.18639274835E+01  0.94524934576E+01  0.57444212519E+02  0.58246652901E+02  0.10566000000E+00 0. -1.
        -13    1    4    4    0    0  0.54446295439E-03  0.89102752869E-01  0.13603754627E+01  0.13673788913E+01  0.10566000000E+00 0. -1.
         14    1    4    4    0    0  0.44864667012E+00  0.54732419616E+01  0.38491376475E+02  0.38881148702E+02  0.00000000000E+00 0. -1.
<mgrwt>
<rscale>  0 0.79822852E+02</rscale>
<asrwt>0</asrwt>
<pdfrwt beam="1">  1        2 0.15650346E-01 0.79822852E+02</pdfrwt>
<pdfrwt beam="2">  1       -1 0.24090390E-02 0.79822852E+02</pdfrwt>
<totfact> 0.17917320E+05</totfact>
</mgrwt>
</event>
<event>
 8    1  0.1226832E-016  0.7920411E+02  0.7818608E-02  0.1331325E+00
         -1   -1    0    0    0  501 -0.00000000000E+00  0.00000000000E+00  0.90294042242E+01  0.90294056308E+01  0.50400000000E-02 0.  1.
          2   -1    0    0  501    0  0.00000000000E+00 -0.00000000000E+00 -0.17369060171E+03  0.17369060172E+03  0.25500000000E-02 0. -1.
         24    2    1    2    0    0  0.00000000000E+00  0.00000000000E+00 -0.16466119748E+03  0.18272000736E+03  0.79204110574E+02 0.  0.
         66    2    3    3    0    0  0.26912305331E+02 -0.26416452051E+02 -0.54678712115E+02  0.66451957709E+02  0.20000018972E+01 0.  0.
        -13    1    3    3    0    0 -0.26912305331E+02  0.26416452051E+02 -0.10998248537E+03  0.11626804965E+03  0.10566000000E+00 0.  1.
         13    1    4    4    0    0  0.10006411715E+02 -0.88722030656E+01 -0.18701626743E+02  0.22991439048E+02  0.10566000000E+00 0. -1.
        -13    1    4    4    0    0  0.13762508717E+02 -0.13875701472E+02 -0.28424956453E+02  0.34495377239E+02  0.10566000000E+00 0.  1.
        -14    1    4    4    0    0  0.31433848986E+01 -0.36685475135E+01 -0.75521289196E+01  0.89651414210E+01  0.00000000000E+00 0.  1.
<mgrwt>
<rscale>  0 0.79204111E+02</rscale>
<asrwt>0</asrwt>
<pdfrwt beam="1">  1        2 0.26721629E-01 0.79204111E+02</pdfrwt>
<pdfrwt beam="2">  1       -1 0.13891394E-02 0.79204111E+02</pdfrwt>
<totfact> 0.21582936E+05</totfact>
</mgrwt>
</event>
<event>
 8    1  0.1226832E-016  0.7845194E+02  0.7818608E-02  0.1333503E+00
          2   -1    0    0  501    0  0.00000000000E+00  0.00000000000E+00  0.65209565167E+03  0.65209565168E+03  0.25500000000E-02 0. -1.
         -1   -1    0    0    0  501 -0.00000000000E+00 -0.00000000000E+00 -0.23595845098E+01  0.23595898924E+01  0.50400000000E-02 0.  1.
         24    2    1    2    0    0  0.00000000000E+00  0.22204460493E-15  0.64973606716E+03  0.65445524157E+03  0.78451935899E+02 0.  0.
         66    2    3    3    0    0 -0.11613759995E+02  0.19658840338E+01  0.63698090284E+03  0.63709294039E+03  0.19999984430E+01 0.  0.
        -13    1    3    3    0    0  0.11613759995E+02 -0.19658840338E+01  0.12755164324E+02  0.17362301179E+02  0.10566000000E+00 0.  1.
         13    1    4    4    0    0 -0.82138305161E+01  0.15288430639E+01  0.46618999622E+03  0.46626486905E+03  0.10566000000E+00 0. -1.
        -13    1    4    4    0    0 -0.13673954765E+01 -0.25183312870E+00  0.58091852762E+02  0.58108585524E+02  0.10566000000E+00 0.  1.
         14    1    4    4    0    0 -0.20325340025E+01  0.68887409861E+00  0.11269905385E+03  0.11271948581E+03  0.00000000000E+00 0. -1.
<mgrwt>
<rscale>  0 0.78451936E+02</rscale>
<asrwt>0</asrwt>
<pdfrwt beam="1">  1        2 0.10032231E+00 0.78451936E+02</pdfrwt>
<pdfrwt beam="2">  1       -1 0.36301375E-03 0.78451936E+02</pdfrwt>
<totfact> 0.34596769E+05</totfact>
</mgrwt>
</event>
<event>
 8    1  0.1226832E-016  0.8220412E+02  0.7818608E-02  0.1322910E+00
          2   -1    0    0  501    0  0.00000000000E+00  0.00000000000E+00  0.36561792922E+03  0.36561792923E+03  0.25500000000E-02 0. -1.
         -1   -1    0    0    0  501 -0.00000000000E+00 -0.00000000000E+00 -0.46206128727E+01  0.46206156214E+01  0.50400000000E-02 0.  1.
         24    2    1    2    0    0  0.00000000000E+00  0.00000000000E+00  0.36099731635E+03  0.37023854485E+03  0.82204122055E+02 0.  0.
         66    2    3    3    0    0 -0.29032169292E+02  0.27109324388E+02  0.22775476615E+03  0.23120124529E+03  0.19999989776E+01 0.  0.
        -13    1    3    3    0    0  0.29032169292E+02 -0.27109324388E+02  0.13324255020E+03  0.13903729957E+03  0.10566000000E+00 0.  1.
         13    1    4    4    0    0 -0.13935865389E+02  0.12770117096E+02  0.10508316499E+03  0.10676969122E+03  0.10566000000E+00 0. -1.
        -13    1    4    4    0    0 -0.10435632397E+02  0.10539471485E+02  0.88873991036E+02  0.90103164924E+02  0.10566000000E+00 0.  1.
        -14    1    4    4    0    0 -0.46606715056E+01  0.37997358070E+01  0.33797610127E+02  0.34328389146E+02  0.00000000000E+00 0.  1.
<mgrwt>
<rscale>  0 0.82204122E+02</rscale>
<asrwt>0</asrwt>
<pdfrwt beam="1">  1        2 0.56248929E-01 0.82204122E+02</pdfrwt>
<pdfrwt beam="2">  1       -1 0.71086352E-03 0.82204122E+02</pdfrwt>
<totfact> 0.25491158E+05</totfact>
</mgrwt>
</event>
<event>
 8    1  0.1226832E-016  0.7940117E+02  0.7818608E-02  0.1330759E+00
          2   -1    0    0  501    0  0.00000000000E+00  0.00000000000E+00  0.11798918970E+03  0.11798918973E+03  0.25500000000E-02 0. -1.
         -1   -1    0    0    0  501 -0.00000000000E+00 -0.00000000000E+00 -0.13358312235E+02  0.13358313186E+02  0.50400000000E-02 0.  1.
         24    2    1    2    0    0  0.00000000000E+00 -0.35527136788E-14  0.10463087747E+03  0.13134750291E+03  0.79401171293E+02 0.  0.
         66    2    3    3    0    0  0.96389811650E+00  0.26582099701E+02  0.10104561117E+03  0.10450718953E+03  0.20000007615E+01 0.  0.
        -13    1    3    3    0    0 -0.96389811650E+00 -0.26582099701E+02  0.35852662964E+01  0.26840313384E+02  0.10566000000E+00 0.  1.
         13    1    4    4    0    0 -0.50765415737E-01  0.29224373758E+01  0.11133503050E+02  0.11511267156E+02  0.10566000000E+00 0. -1.
        -13    1    4    4    0    0  0.65255655287E+00  0.33551918576E+01  0.11598201619E+02  0.12091839698E+02  0.10566000000E+00 0.  1.
         14    1    4    4    0    0  0.36210697937E+00  0.20304470467E+02  0.78313906499E+02  0.80904082676E+02  0.00000000000E+00 0. -1.
<mgrwt>
<rscale>  0 0.79401171E+02</rscale>
<asrwt>0</asrwt>
<pdfrwt beam="1">  1        2 0.18152183E-01 0.79401171E+02</pdfrwt>
<pdfrwt beam="2">  1       -1 0.20551251E-02 0.79401171E+02</pdfrwt>
<totfact> 0.18968918E+05</totfact>
</mgrwt>
</event>
<event>
 8    1  0.1226832E-016  0.8083283E+02  0.7818608E-02  0.1326704E+00
         -1   -1    0    0    0  501 -0.00000000000E+00  0.00000000000E+00  0.19176895907E+01  0.19176962136E+01  0.50400000000E-02 0.  1.
          2   -1    0    0  501    0  0.00000000000E+00 -0.00000000000E+00 -0.85179773824E+03  0.85179773825E+03  0.25500000000E-02 0. -1.
         24    2    1    2    0    0  0.00000000000E+00  0.00000000000E+00 -0.84988004865E+03  0.85371543446E+03  0.80832827111E+02 0.  0.
         66    2    3    3    0    0 -0.14172778054E+02  0.13416724410E+02 -0.79869505938E+03  0.79893596364E+03  0.20000001640E+01 0.  0.
        -13    1    3    3    0    0  0.14172778054E+02 -0.13416724410E+02 -0.51184989276E+02  0.54779470816E+02  0.10566000000E+00 0.  1.
         13    1    4    4    0    0 -0.88087187319E+01  0.76614080273E+01 -0.45233561282E+03  0.45248625227E+03  0.10566000000E+00 0. -1.
        -13    1    4    4    0    0 -0.28260138069E+01  0.25755539132E+01 -0.17832295649E+03  0.17836397565E+03  0.10566000000E+00 0. -1.
         14    1    4    4    0    0 -0.25380455149E+01  0.31797624699E+01 -0.16803649006E+03  0.16808573573E+03  0.00000000000E+00 0. -1.
<mgrwt>
<rscale>  0 0.80832827E+02</rscale>
<asrwt>0</asrwt>
<pdfrwt beam="1">  1        2 0.13104550E+00 0.80832827E+02</pdfrwt>
<pdfrwt beam="2">  1       -1 0.29503036E-03 0.80832827E+02</pdfrwt>
<totfact> 0.33784161E+05</totfact>
</mgrwt>
</event>
<event>
 8    1  0.1226832E-016  0.8028736E+02  0.7818608E-02  0.1328238E+00
          2   -1    0    0  501    0  0.00000000000E+00  0.00000000000E+00  0.80253595606E+02  0.80253595647E+02  0.25500000000E-02 0. -1.
         -1   -1    0    0    0  501 -0.00000000000E+00 -0.00000000000E+00 -0.20080283103E+02  0.20080283736E+02  0.50400000000E-02 0.  1.
         24    2    1    2    0    0  0.00000000000E+00 -0.17763568394E-14  0.60173312503E+02  0.10033387938E+03  0.80287357749E+02 0.  0.
         66    2    3    3    0    0 -0.26162637949E+01  0.11689921595E+02  0.77953852038E+02  0.78894246612E+02  0.19999994586E+01 0.  0.
        -13    1    3    3    0    0  0.26162637949E+01 -0.11689921595E+02 -0.17780539535E+02  0.21439632770E+02  0.10566000000E+00 0.  1.
         13    1    4    4    0    0 -0.42362851872E+00  0.38989723943E+01  0.29344925109E+02  0.29606033854E+02  0.10566000000E+00 0. -1.
        -13    1    4    4    0    0 -0.16968159085E+00  0.42573337229E+00  0.43164188354E+01  0.43419668751E+01  0.10566000000E+00 0.  1.
        -14    1    4    4    0    0 -0.20229536854E+01  0.73652158282E+01  0.44292508093E+02  0.44946245883E+02  0.00000000000E+00 0.  1.
<mgrwt>
<rscale>  0 0.80287358E+02</rscale>
<asrwt>0</asrwt>
<pdfrwt beam="1">  1        2 0.12346707E-01 0.80287358E+02</pdfrwt>
<pdfrwt beam="2">  1       -1 0.30892743E-02 0.80287358E+02</pdfrwt>
<totfact> 0.16548481E+05</totfact>
</mgrwt>
</event>
<event>
 8    1  0.1226832E-016  0.7908248E+02  0.7818608E-02  0.1331676E+00
         -1   -1    0    0    0  501 -0.00000000000E+00  0.00000000000E+00  0.71033623557E+01  0.71033641437E+01  0.50400000000E-02 0.  1.
          2   -1    0    0  501    0  0.00000000000E+00 -0.00000000000E+00 -0.22010835895E+03  0.22010835897E+03  0.25500000000E-02 0. -1.
         24    2    1    2    0    0  0.00000000000E+00  0.00000000000E+00 -0.21300499660E+03  0.22721172311E+03  0.79082479374E+02 0.  0.
         66    2    3    3    0    0 -0.46515959742E+01 -0.15559635736E+02 -0.21007236828E+03  0.21070866030E+03  0.19999999986E+01 0.  0.
        -13    1    3    3    0    0  0.46515959742E+01  0.15559635736E+02 -0.29326283166E+01  0.16503062814E+02  0.10566000000E+00 0.  1.
         13    1    4    4    0    0 -0.20677928584E+01 -0.67868343629E+01 -0.90090346166E+02  0.90369345048E+02  0.10566000000E+00 0. -1.
        -13    1    4    4    0    0 -0.27118915239E+01 -0.83047205669E+01 -0.11582692043E+03  0.11615597014E+03  0.10566000000E+00 0.  1.
         14    1    4    4    0    0  0.12808840815E+00 -0.46808080662E+00 -0.41551016859E+01  0.41833451091E+01  0.00000000000E+00 0. -1.
<mgrwt>
<rscale>  0 0.79082479E+02</rscale>
<asrwt>0</asrwt>
<pdfrwt beam="1">  1        2 0.33862819E-01 0.79082479E+02</pdfrwt>
<pdfrwt beam="2">  1       -1 0.10928253E-02 0.79082479E+02</pdfrwt>
<totfact> 0.23514591E+05</totfact>
</mgrwt>
</event>
<event>
 8    1  0.1226832E-016  0.7998626E+02  0.7818608E-02  0.1329090E+00
         -1   -1    0    0    0  501 -0.00000000000E+00  0.00000000000E+00  0.14643752475E+01  0.14643839206E+01  0.50400000000E-02 0.  1.
          2   -1    0    0  501    0  0.00000000000E+00 -0.00000000000E+00 -0.10922376015E+04  0.10922376015E+04  0.25500000000E-02 0. -1.
         24    2    1    2    0    0  0.35527136788E-14 -0.35527136788E-14 -0.10907732263E+04  0.10937019855E+04  0.79986260135E+02 0.  0.
         66    2    3    3    0    0 -0.13385570035E+02  0.19780346722E+02 -0.98392518203E+03  0.98421704893E+03  0.19999910507E+01 0.  0.
        -13    1    3    3    0    0  0.13385570035E+02 -0.19780346722E+02 -0.10684804425E+03  0.10948493653E+03  0.10566000000E+00 0.  1.
         13    1    4    4    0    0 -0.87188706766E+01  0.12728772758E+02 -0.63481548031E+03  0.63500294926E+03  0.10566000000E+00 0. -1.
        -13    1    4    4    0    0 -0.17070864848E+01  0.22506841124E+01 -0.96209642601E+02  0.96251162158E+02  0.10566000000E+00 0. -1.
        -14    1    4    4    0    0 -0.29596128739E+01  0.48008898516E+01 -0.25290005911E+03  0.25296293751E+03  0.00000000000E+00 0.  1.
<mgrwt>
<rscale>  0 0.79986260E+02</rscale>
<asrwt>0</asrwt>
<pdfrwt beam="1">  1        2 0.16803590E+00 0.79986260E+02</pdfrwt>
<pdfrwt beam="2">  1       -1 0.22529004E-03 0.79986260E+02</pdfrwt>
<totfact> 0.35274787E+05</totfact>
</mgrwt>
</event>
<event>
 8    1  0.1226832E-016  0.8292530E+02  0.7818608E-02  0.1320949E+00
         -1   -1    0    0    0  501 -0.00000000000E+00  0.00000000000E+00  0.26072382277E+01  0.26072430991E+01  0.50400000000E-02 0.  1.
          2   -1    0    0  501    0  0.00000000000E+00 -0.00000000000E+00 -0.65937570082E+03  0.65937570082E+03  0.25500000000E-02 0. -1.
         24    2    1    2    0    0  0.22204460493E-15  0.35527136788E-14 -0.65676846259E+03  0.66198294392E+03  0.82925295239E+02 0.  0.
         66    2    3    3    0    0  0.15122920099E+01  0.21425502680E+02 -0.61146707099E+03  0.61184746310E+03  0.20000014249E+01 0.  0.
        -13    1    3    3    0    0 -0.15122920099E+01 -0.21425502680E+02 -0.45301391602E+02  0.50135480823E+02  0.10566000000E+00 0.  1.
         13    1    4    4    0    0  0.71776476589E+00  0.16283353607E+02 -0.47415598699E+03  0.47443605886E+03  0.10566000000E+00 0. -1.
        -13    1    4    4    0    0  0.57776791240E+00  0.37433554454E+01 -0.10744994024E+03  0.10751673054E+03  0.10566000000E+00 0.  1.
         14    1    4    4    0    0  0.21675933160E+00  0.13987936274E+01 -0.29861143767E+02  0.29894673694E+02  0.00000000000E+00 0. -1.
<mgrwt>
<rscale>  0 0.82925295E+02</rscale>
<asrwt>0</asrwt>
<pdfrwt beam="1">  1        2 0.10144228E+00 0.82925295E+02</pdfrwt>
<pdfrwt beam="2">  1       -1 0.40111447E-03 0.82925295E+02</pdfrwt>
<totfact> 0.30030901E+05</totfact>
</mgrwt>
</event>
<event>
 8    1  0.1226832E-016  0.7969655E+02  0.7818608E-02  0.1329915E+00
         -1   -1    0    0    0  501 -0.00000000000E+00  0.00000000000E+00  0.10780287427E+01  0.10780405241E+01  0.50400000000E-02 0.  1.
          2   -1    0    0  501    0  0.00000000000E+00 -0.00000000000E+00 -0.14729442534E+04  0.14729442534E+04  0.25500000000E-02 0. -1.
         24    2    1    2    0    0 -0.17763568394E-14 -0.88817841970E-15 -0.14718662247E+04  0.14740222939E+04  0.79696547635E+02 0.  0.
         66    2    3    3    0    0  0.12747500805E+02  0.46908303842E+01 -0.14287714104E+04  0.14288373756E+04  0.19999984530E+01 0.  0.
        -13    1    3    3    0    0 -0.12747500805E+02 -0.46908303842E+01 -0.43094814220E+02  0.45184918316E+02  0.10566000000E+00 0.  1.
         13    1    4    4    0    0  0.17770238313E+01  0.38138946641E+00 -0.20924525176E+03  0.20925317159E+03  0.10566000000E+00 0. -1.
        -13    1    4    4    0    0  0.16307105737E+01  0.62134411396E+00 -0.24766100679E+03  0.24766717735E+03  0.10566000000E+00 0.  1.
        -14    1    4    4    0    0  0.93397663998E+01  0.36880968038E+01 -0.97186515189E+03  0.97191702668E+03  0.00000000000E+00 0.  1.
<mgrwt>
<rscale>  0 0.79696548E+02</rscale>
<asrwt>0</asrwt>
<pdfrwt beam="1">  1        2 0.22660520E+00 0.79696548E+02</pdfrwt>
<pdfrwt beam="2">  1       -1 0.16585266E-03 0.79696548E+02</pdfrwt>
<totfact> 0.33804524E+05</totfact>
</mgrwt>
</event>
<event>
 8    1  0.1226832E-016  0.8068061E+02  0.7818608E-02  0.1327131E+00
          2   -1    0    0  501    0  0.00000000000E+00  0.00000000000E+00  0.32151849660E+02  0.32151849761E+02  0.25500000000E-02 0. -1.
         -1   -1    0    0    0  501 -0.00000000000E+00 -0.00000000000E+00 -0.50614198447E+02  0.50614198698E+02  0.50400000000E-02 0.  1.
         24    2    1    2    0    0 -0.17763568394E-14  0.00000000000E+00 -0.18462348788E+02  0.82766048459E+02  0.80680607675E+02 0.  0.
         66    2    3    3    0    0  0.11292410008E+02  0.68595222526E+01  0.29836584947E+02  0.32692405359E+02  0.19999993808E+01 0.  0.
        -13    1    3    3    0    0 -0.11292410008E+02 -0.68595222526E+01 -0.48298933735E+02  0.50073643100E+02  0.10566000000E+00 0.  1.
         13    1    4    4    0    0  0.25076129070E+01  0.19589163104E+01  0.72038490432E+01  0.78760447354E+01  0.10566000000E+00 0. -1.
        -13    1    4    4    0    0  0.47200821438E+01  0.33239073691E+01  0.11725130045E+02  0.13069712096E+02  0.10566000000E+00 0.  1.
        -14    1    4    4    0    0  0.40647149574E+01  0.15766985731E+01  0.10907605859E+02  0.11746648528E+02  0.00000000000E+00 0.  1.
<mgrwt>
<rscale>  0 0.80680608E+02</rscale>
<asrwt>0</asrwt>
<pdfrwt beam="1">  1        2 0.49464384E-02 0.80680608E+02</pdfrwt>
<pdfrwt beam="2">  1       -1 0.77867998E-02 0.80680608E+02</pdfrwt>
<totfact> 0.13321785E+05</totfact>
</mgrwt>
</event>
<event>
 8    1  0.1226832E-016  0.7707186E+02  0.7818608E-02  0.1337573E+00
         -1   -1    0    0    0  501 -0.00000000000E+00  0.00000000000E+00  0.59285590954E+01  0.59285612377E+01  0.50400000000E-02 0.  1.
          2   -1    0    0  501    0  0.00000000000E+00 -0.00000000000E+00 -0.25048544334E+03  0.25048544335E+03  0.25500000000E-02 0. -1.
         24    2    1    2    0    0  0.00000000000E+00  0.00000000000E+00 -0.24455688425E+03  0.25641400459E+03  0.77071863341E+02 0.  0.
         66    2    3    3    0    0  0.17107277946E+02  0.10019557752E+02 -0.23219831806E+03  0.23305173119E+03  0.20000010955E+01 0.  0.
        -13    1    3    3    0    0 -0.17107277946E+02 -0.10019557752E+02 -0.12358566184E+02  0.23362273400E+02  0.10566000000E+00 0.  1.
         13    1    4    4    0    0  0.11800577197E+02  0.74935125092E+01 -0.16015474017E+03  0.16076367224E+03  0.10566000000E+00 0. -1.
        -13    1    4    4    0    0  0.51747702905E+01  0.22748365716E+01 -0.68096630663E+02  0.68330925653E+02  0.10566000000E+00 0.  1.
        -14    1    4    4    0    0  0.13193045780E+00  0.25120867145E+00 -0.39469472335E+01  0.39571332940E+01  0.00000000000E+00 0.  1.
<mgrwt>
<rscale>  0 0.77071863E+02</rscale>
<asrwt>0</asrwt>
<pdfrwt beam="1">  1        2 0.38536214E-01 0.77071863E+02</pdfrwt>
<pdfrwt beam="2">  1       -1 0.91208638E-03 0.77071863E+02</pdfrwt>
<totfact> 0.26339953E+05</totfact>
</mgrwt>
</event>
<event>
 8    1  0.1226832E-016  0.7814036E+02  0.7818608E-02  0.1334413E+00
         -1   -1    0    0    0  501 -0.00000000000E+00  0.00000000000E+00  0.49267730170E+02  0.49267730427E+02  0.50400000000E-02 0.  1.
          2   -1    0    0  501    0  0.00000000000E+00 -0.00000000000E+00 -0.30983342128E+02  0.30983342233E+02  0.25500000000E-02 0. -1.
         24    2    1    2    0    0  0.00000000000E+00  0.00000000000E+00  0.18284388041E+02  0.80251072661E+02  0.78140359720E+02 0.  0.
         66    2    3    3    0    0  0.62735547492E+00  0.14964198271E+02 -0.27883453220E+02  0.31714472702E+02  0.20000026264E+01 0.  0.
        -13    1    3    3    0    0 -0.62735547492E+00 -0.14964198271E+02  0.46167841261E+02  0.48536599959E+02  0.10566000000E+00 0.  1.
         13    1    4    4    0    0  0.11390566090E+01  0.11523297901E+02 -0.21395256854E+02  0.24328009050E+02  0.10566000000E+00 0. -1.
        -13    1    4    4    0    0 -0.43887049741E+00  0.20148529147E+01 -0.32942711103E+01  0.38878819124E+01  0.10566000000E+00 0.  1.
         14    1    4    4    0    0 -0.72830636681E-01  0.14260474561E+01 -0.31939252557E+01  0.34985817395E+01  0.00000000000E+00 0. -1.
<mgrwt>
<rscale>  0 0.78140360E+02</rscale>
<asrwt>0</asrwt>
<pdfrwt beam="1">  1        2 0.47666680E-02 0.78140360E+02</pdfrwt>
<pdfrwt beam="2">  1       -1 0.75796508E-02 0.78140360E+02</pdfrwt>
<totfact> 0.14460558E+05</totfact>
</mgrwt>
</event>
<event>
 8    1  0.1226832E-016  0.7944640E+02  0.7818608E-02  0.1330630E+00
          2   -1    0    0  501    0  0.00000000000E+00  0.00000000000E+00  0.25102143919E+02  0.25102144049E+02  0.25500000000E-02 0. -1.
         -1   -1    0    0    0  501 -0.00000000000E+00 -0.00000000000E+00 -0.62860466320E+02  0.62860466522E+02  0.50400000000E-02 0.  1.
         24    2    1    2    0    0  0.00000000000E+00  0.00000000000E+00 -0.37758322401E+02  0.87962610571E+02  0.79446396696E+02 0.  0.
         66    2    3    3    0    0 -0.95770098493E+01  0.38132715255E+02 -0.12816191047E+02  0.41401423184E+02  0.19999995966E+01 0.  0.
        -13    1    3    3    0    0  0.95770098493E+01 -0.38132715255E+02 -0.24942131354E+02  0.46561187387E+02  0.10566000000E+00 0.  1.
         13    1    4    4    0    0 -0.90886926942E+01  0.35440008743E+02 -0.11895253040E+02  0.38472155691E+02  0.10566000000E+00 0. -1.
        -13    1    4    4    0    0 -0.47582402602E+00  0.22263308671E+01 -0.58081787186E+00  0.23519079636E+01  0.10566000000E+00 0.  1.
         14    1    4    4    0    0 -0.12493129034E-01  0.46637564494E+00 -0.34012013535E+00  0.57735953005E+00  0.00000000000E+00 0. -1.
<mgrwt>
<rscale>  0 0.79446397E+02</rscale>
<asrwt>0</asrwt>
<pdfrwt beam="1">  1        2 0.38618683E-02 0.79446397E+02</pdfrwt>
<pdfrwt beam="2">  1       -1 0.96708410E-02 0.79446397E+02</pdfrwt>
<totfact> 0.13248575E+05</totfact>
</mgrwt>
</event>
<event>
 8    1  0.1226832E-016  0.8430368E+02  0.7818608E-02  0.1317264E+00
          2   -1    0    0  501    0  0.00000000000E+00  0.00000000000E+00  0.13847794190E+02  0.13847794425E+02  0.25500000000E-02 0. -1.
         -1   -1    0    0    0  501 -0.00000000000E+00 -0.00000000000E+00 -0.12830763873E+03  0.12830763882E+03  0.50400000000E-02 0.  1.
         24    2    1    2    0    0  0.00000000000E+00  0.00000000000E+00 -0.11445984454E+03  0.14215543325E+03  0.84303684329E+02 0.  0.
         66    2    3    3    0    0 -0.22464464704E+02  0.24887196015E+02 -0.14246702806E+02  0.36482780027E+02  0.19999994420E+01 0.  0.
        -13    1    3    3    0    0  0.22464464704E+02 -0.24887196015E+02 -0.10021314173E+03  0.10567265322E+03  0.10566000000E+00 0.  1.
         13    1    4    4    0    0 -0.26006111646E+01  0.33192221093E+01 -0.19361073042E+01  0.46411301824E+01  0.10566000000E+00 0.  1.
        -13    1    4    4    0    0 -0.57096806771E+01  0.52914747563E+01 -0.36391094836E+01  0.85938606225E+01  0.10566000000E+00 0.  1.
         14    1    4    4    0    0 -0.14154172862E+02  0.16276499149E+02 -0.86714860186E+01  0.23247789222E+02  0.00000000000E+00 0. -1.
<mgrwt>
<rscale>  0 0.84303684E+02</rscale>
<asrwt>0</asrwt>
<pdfrwt beam="1">  1        2 0.21304300E-02 0.84303684E+02</pdfrwt>
<pdfrwt beam="2">  1       -1 0.19739636E-01 0.84303684E+02</pdfrwt>
<totfact> 0.98240005E+04</totfact>
</mgrwt>
</event>
<event>
 8    1  0.1226832E-016  0.7918410E+02  0.7818608E-02  0.1331383E+00
          2   -1    0    0  501    0  0.00000000000E+00  0.00000000000E+00  0.98898074598E+01  0.98898077885E+01  0.25500000000E-02 0. -1.
         -1   -1    0    0    0  501 -0.00000000000E+00 -0.00000000000E+00 -0.15849959974E+03  0.15849959982E+03  0.50400000000E-02 0.  1.
         24    2    1    2    0    0  0.00000000000E+00 -0.71054273576E-14 -0.14860979229E+03  0.16838940761E+03  0.79184103414E+02 0.  0.
         66    2    3    3    0    0  0.20583328951E+02  0.33275767193E+02 -0.61847820647E+02  0.73212724547E+02  0.20000009533E+01 0.  0.
        -13    1    3    3    0    0 -0.20583328951E+02 -0.33275767193E+02 -0.86761971638E+02  0.95176683067E+02  0.10566000000E+00 0.  1.
         13    1    4    4    0    0  0.54124047987E+01  0.75437681159E+01 -0.15288262247E+02  0.17886997782E+02  0.10566000000E+00 0. -1.
        -13    1    4    4    0    0  0.92607278589E+01  0.14845388815E+02 -0.27446730565E+02  0.32549667161E+02  0.10566000000E+00 0.  1.
        -14    1    4    4    0    0  0.59101962938E+01  0.10886610262E+02 -0.19112827834E+02  0.22776059603E+02  0.00000000000E+00 0.  1.
<mgrwt>
<rscale>  0 0.79184103E+02</rscale>
<asrwt>0</asrwt>
<pdfrwt beam="1">  1        2 0.15215090E-02 0.79184103E+02</pdfrwt>
<pdfrwt beam="2">  1       -1 0.24384552E-01 0.79184103E+02</pdfrwt>
<totfact> 0.10914076E+05</totfact>
</mgrwt>
</event>
<event>
 8    1  0.1226832E-016  0.7795602E+02  0.7818608E-02  0.1334954E+00
         -1   -1    0    0    0  501 -0.00000000000E+00  0.00000000000E+00  0.20475867131E+01  0.20475929159E+01  0.50400000000E-02 0.  1.
          2   -1    0    0  501    0  0.00000000000E+00 -0.00000000000E+00 -0.74198703676E+03  0.74198703676E+03  0.25500000000E-02 0. -1.
         24    2    1    2    0    0 -0.17763568394E-14  0.00000000000E+00 -0.73993945005E+03  0.74403462968E+03  0.77956015982E+02 0.  0.
         66    2    3    3    0    0  0.97839246291E+01  0.24226057607E+02 -0.64595050069E+03  0.64648176804E+03  0.20000055920E+01 0.  0.
        -13    1    3    3    0    0 -0.97839246291E+01 -0.24226057607E+02 -0.93988949356E+02  0.97552861636E+02  0.10566000000E+00 0.  1.
         13    1    4    4    0    0  0.18574260155E+01  0.50063863769E+01 -0.13403824284E+03  0.13414460721E+03  0.10566000000E+00 0. -1.
        -13    1    4    4    0    0  0.95603609849E+00  0.16254903623E+01 -0.37376448649E+02  0.37424140626E+02  0.10566000000E+00 0.  1.
        -14    1    4    4    0    0  0.69704625151E+01  0.17594180868E+02 -0.47453580920E+03  0.47491302021E+03  0.00000000000E+00 0.  1.
<mgrwt>
<rscale>  0 0.77956016E+02</rscale>
<asrwt>0</asrwt>
<pdfrwt beam="1">  1        2 0.11415164E+00 0.77956016E+02</pdfrwt>
<pdfrwt beam="2">  1       -1 0.31501441E-03 0.77956016E+02</pdfrwt>
<totfact> 0.36232329E+05</totfact>
</mgrwt>
</event>
<event>
 8    1  0.1226832E-016  0.8010182E+02  0.7818608E-02  0.1328763E+00
          2   -1    0    0  501    0  0.00000000000E+00  0.00000000000E+00  0.14303324977E+03  0.14303324979E+03  0.25500000000E-02 0. -1.
         -1   -1    0    0    0  501 -0.00000000000E+00 -0.00000000000E+00 -0.11214702606E+02  0.11214703738E+02  0.50400000000E-02 0.  1.
         24    2    1    2    0    0  0.00000000000E+00  0.17763568394E-14  0.13181854716E+03  0.15424795353E+03  0.80101821402E+02 0.  0.
         66    2    3    3    0    0 -0.15449738897E+02 -0.12807475167E+02  0.13263845094E+03  0.13416290291E+03  0.19999991551E+01 0.  0.
        -13    1    3    3    0    0  0.15449738897E+02  0.12807475167E+02 -0.81990377974E+00  0.20085050620E+02  0.10566000000E+00 0.  1.
         13    1    4    4    0    0 -0.13852104781E+02 -0.11676054575E+02  0.12101386938E+03  0.12236248937E+03  0.10566000000E+00 0. -1.
        -13    1    4    4    0    0 -0.68660946048E-01 -0.39288797689E-01  0.12598172964E+01  0.12667129079E+01  0.10566000000E+00 0.  1.
        -14    1    4    4    0    0 -0.15289731705E+01 -0.10921317942E+01  0.10364764265E+02  0.10533700636E+02  0.00000000000E+00 0.  1.
<mgrwt>
<rscale>  0 0.80101821E+02</rscale>
<asrwt>0</asrwt>
<pdfrwt beam="1">  1        2 0.22005116E-01 0.80101821E+02</pdfrwt>
<pdfrwt beam="2">  1       -1 0.17253389E-02 0.80101821E+02</pdfrwt>
<totfact> 0.19661011E+05</totfact>
</mgrwt>
</event>
<event>
 8    1  0.1226832E-016  0.7436431E+02  0.7818608E-02  0.1345851E+00
         -1   -1    0    0    0  501 -0.00000000000E+00  0.00000000000E+00  0.50393209786E+01  0.50393234990E+01  0.50400000000E-02 0.  1.
          2   -1    0    0  501    0  0.00000000000E+00 -0.00000000000E+00 -0.27434495874E+03  0.27434495875E+03  0.25500000000E-02 0. -1.
         24    2    1    2    0    0  0.00000000000E+00  0.00000000000E+00 -0.26930563776E+03  0.27938428225E+03  0.74364310248E+02 0.  0.
         66    2    3    3    0    0  0.32460634642E+02 -0.90257958458E+01 -0.19359777396E+03  0.19651782585E+03  0.20000000354E+01 0.  0.
        -13    1    3    3    0    0 -0.32460634642E+02  0.90257958458E+01 -0.75707863797E+02  0.82866456403E+02  0.10566000000E+00 0.  1.
         13    1    4    4    0    0  0.13486643577E+02 -0.28796611756E+01 -0.80569793784E+02  0.81741573498E+02  0.10566000000E+00 0.  1.
        -13    1    4    4    0    0  0.16865678063E+01 -0.66121123868E+00 -0.95482877070E+01  0.97191909868E+01  0.10566000000E+00 0. -1.
         14    1    4    4    0    0  0.17287423258E+02 -0.54849234315E+01 -0.10347969247E+03  0.10505706136E+03  0.00000000000E+00 0. -1.
<mgrwt>
<rscale>  0 0.74364310E+02</rscale>
<asrwt>0</asrwt>
<pdfrwt beam="1">  1        2 0.42206905E-01 0.74364310E+02</pdfrwt>
<pdfrwt beam="2">  1       -1 0.77528056E-03 0.74364310E+02</pdfrwt>
<totfact> 0.29877012E+05</totfact>
</mgrwt>
</event>
<event>
 8    1  0.1226832E-016  0.8013980E+02  0.7818608E-02  0.1328655E+00
          2   -1    0    0  501    0  0.00000000000E+00  0.00000000000E+00  0.64166374975E+02  0.64166375026E+02  0.25500000000E-02 0. -1.
         -1   -1    0    0    0  501 -0.00000000000E+00 -0.00000000000E+00 -0.25022399423E+02  0.25022399930E+02  0.50400000000E-02 0.  1.
         24    2    1    2    0    0  0.00000000000E+00  0.00000000000E+00  0.39143975552E+02  0.89188774956E+02  0.80139795084E+02 0.  0.
         66    2    3    3    0    0  0.20333644752E+02 -0.66102449829E+01  0.57266452003E+02  0.61160436361E+02  0.20000007771E+01 0.  0.
        -13    1    3    3    0    0 -0.20333644752E+02  0.66102449829E+01 -0.18122476451E+02  0.28028338595E+02  0.10566000000E+00 0.  1.
         13    1    4    4    0    0  0.13187352076E+01 -0.62365872702E+00  0.52902528955E+01  0.54887113688E+01  0.10566000000E+00 0. -1.
        -13    1    4    4    0    0  0.18043719679E+01 -0.62272196121E+00  0.45765563227E+01  0.49597956258E+01  0.10566000000E+00 0. -1.
         14    1    4    4    0    0  0.17210537577E+02 -0.53638642947E+01  0.47399642785E+02  0.50711929366E+02  0.00000000000E+00 0. -1.
<mgrwt>
<rscale>  0 0.80139795E+02</rscale>
<asrwt>0</asrwt>
<pdfrwt beam="1">  1        2 0.98717500E-02 0.80139795E+02</pdfrwt>
<pdfrwt beam="2">  1       -1 0.38496000E-02 0.80139795E+02</pdfrwt>
<totfact> 0.15737582E+05</totfact>
</mgrwt>
</event>
<event>
 8    1  0.1226832E-016  0.8026685E+02  0.7818608E-02  0.1328296E+00
          2   -1    0    0  501    0  0.00000000000E+00  0.00000000000E+00  0.63635248502E+01  0.63635253612E+01  0.25500000000E-02 0. -1.
         -1   -1    0    0    0  501 -0.00000000000E+00 -0.00000000000E+00 -0.25311312443E+03  0.25311312448E+03  0.50400000000E-02 0.  1.
         24    2    1    2    0    0  0.71054273576E-14  0.00000000000E+00 -0.24674959958E+03  0.25947664984E+03  0.80266848201E+02 0.  0.
         66    2    3    3    0    0 -0.31358063049E+02 -0.10105862975E+02 -0.49506243234E+02  0.59500627850E+02  0.20000027152E+01 0.  0.
        -13    1    3    3    0    0  0.31358063049E+02  0.10105862975E+02 -0.19724335635E+03  0.19997602199E+03  0.10566000000E+00 0.  1.
         13    1    4    4    0    0 -0.25092934246E+02 -0.88143556849E+01 -0.39959062478E+02  0.48000896381E+02  0.10566000000E+00 0. -1.
        -13    1    4    4    0    0 -0.26089909448E+01 -0.72460346547E+00 -0.41325907064E+01  0.49417966282E+01  0.10566000000E+00 0.  1.
         14    1    4    4    0    0 -0.36561378580E+01 -0.56690382423E+00 -0.54145900493E+01  0.65579348414E+01  0.00000000000E+00 0. -1.
<mgrwt>
<rscale>  0 0.80266848E+02</rscale>
<asrwt>0</asrwt>
<pdfrwt beam="1">  1        2 0.97900406E-03 0.80266848E+02</pdfrwt>
<pdfrwt beam="2">  1       -1 0.38940473E-01 0.80266848E+02</pdfrwt>
<totfact> 0.91420802E+04</totfact>
</mgrwt>
</event>
<event>
 8    1  0.1226832E-016  0.8002341E+02  0.7818608E-02  0.1328985E+00
          2   -1    0    0  501    0  0.00000000000E+00  0.00000000000E+00  0.11705806319E+03  0.11705806321E+03  0.25500000000E-02 0. -1.
         -1   -1    0    0    0  501 -0.00000000000E+00 -0.00000000000E+00 -0.13676430901E+02  0.13676431830E+02  0.50400000000E-02 0.  1.
         24    2    1    2    0    0  0.00000000000E+00  0.00000000000E+00  0.10338163228E+03  0.13073449504E+03  0.80023410952E+02 0.  0.
         66    2    3    3    0    0  0.64146032163E+01  0.35834406379E+02  0.78749806285E+02  0.86780088767E+02  0.20000003679E+01 0.  0.
        -13    1    3    3    0    0 -0.64146032163E+01 -0.35834406379E+02  0.24631825999E+02  0.43954406276E+02  0.10566000000E+00 0.  1.
         13    1    4    4    0    0  0.24855686507E+01  0.11988517296E+02  0.26826669615E+02  0.29488709113E+02  0.10566000000E+00 0. -1.
        -13    1    4    4    0    0  0.34297662928E+01  0.22767488605E+02  0.49299035447E+02  0.54410733263E+02  0.10566000000E+00 0.  1.
        -14    1    4    4    0    0  0.49926827279E+00  0.10784004778E+01  0.26241012238E+01  0.28806463913E+01  0.00000000000E+00 0.  1.
<mgrwt>
<rscale>  0 0.80023411E+02</rscale>
<asrwt>0</asrwt>
<pdfrwt beam="1">  1        2 0.18008932E-01 0.80023411E+02</pdfrwt>
<pdfrwt beam="2">  1       -1 0.21040664E-02 0.80023411E+02</pdfrwt>
<totfact> 0.18534461E+05</totfact>
</mgrwt>
</event>
<event>
 8    1  0.1226832E-016  0.8004395E+02  0.7818608E-02  0.1328927E+00
          2   -1    0    0  501    0  0.00000000000E+00  0.00000000000E+00  0.72765899658E+02  0.72765899703E+02  0.25500000000E-02 0. -1.
         -1   -1    0    0    0  501 -0.00000000000E+00 -0.00000000000E+00 -0.22012486573E+02  0.22012487150E+02  0.50400000000E-02 0.  1.
         24    2    1    2    0    0  0.00000000000E+00 -0.35527136788E-14  0.50753413085E+02  0.94778386853E+02  0.80043948395E+02 0.  0.
         66    2    3    3    0    0 -0.11156020187E+02 -0.28147786345E+02  0.56337526047E+02  0.63989620328E+02  0.20000015084E+01 0.  0.
        -13    1    3    3    0    0  0.11156020187E+02  0.28147786345E+02 -0.55841129620E+01  0.30788766525E+02  0.10566000000E+00 0.  1.
         13    1    4    4    0    0 -0.27232975997E+01 -0.69104797368E+01  0.13319898340E+02  0.15251292923E+02  0.10566000000E+00 0. -1.
        -13    1    4    4    0    0 -0.80253950268E+01 -0.19964944970E+02  0.39594772436E+02  0.45063989629E+02  0.10566000000E+00 0.  1.
        -14    1    4    4    0    0 -0.40732756040E+00 -0.12723616380E+01  0.34228552712E+01  0.36743377753E+01  0.00000000000E+00 0.  1.
<mgrwt>
<rscale>  0 0.80043948E+02</rscale>
<asrwt>0</asrwt>
<pdfrwt beam="1">  1        2 0.11194754E-01 0.80043948E+02</pdfrwt>
<pdfrwt beam="2">  1       -1 0.33865365E-02 0.80043948E+02</pdfrwt>
<totfact> 0.16276973E+05</totfact>
</mgrwt>
</event>
<event>
 8    1  0.1226832E-016  0.7933940E+02  0.7818608E-02  0.1330937E+00
         -1   -1    0    0    0  501 -0.00000000000E+00  0.00000000000E+00  0.84355750654E+01  0.84355765710E+01  0.50400000000E-02 0.  1.
          2   -1    0    0  501    0  0.00000000000E+00 -0.00000000000E+00 -0.18655335690E+03  0.18655335692E+03  0.25500000000E-02 0. -1.
         24    2    1    2    0    0 -0.35527136788E-14  0.00000000000E+00 -0.17811778183E+03  0.19498893349E+03  0.79339397384E+02 0.  0.
         66    2    3    3    0    0  0.16826159356E+02  0.30817598287E+02 -0.13435462444E+03  0.13888127704E+03  0.20000002564E+01 0.  0.
        -13    1    3    3    0    0 -0.16826159356E+02 -0.30817598287E+02 -0.43763157392E+02  0.56107656445E+02  0.10566000000E+00 0.  1.
         13    1    4    4    0    0  0.13942034285E+00  0.16290271977E+00 -0.12810110456E+01  0.13031226583E+01  0.10566000000E+00 0. -1.
        -13    1    4    4    0    0  0.26080845608E+01  0.53216416506E+01 -0.21584586550E+02  0.22383643928E+02  0.10566000000E+00 0.  1.
         14    1    4    4    0    0  0.14078654453E+02  0.25333053917E+02 -0.11148902685E+03  0.11519451046E+03  0.00000000000E+00 0. -1.
<mgrwt>
<rscale>  0 0.79339397E+02</rscale>
<asrwt>0</asrwt>
<pdfrwt beam="1">  1        2 0.28700513E-01 0.79339397E+02</pdfrwt>
<pdfrwt beam="2">  1       -1 0.12977810E-02 0.79339397E+02</pdfrwt>
<totfact> 0.22012171E+05</totfact>
</mgrwt>
</event>
<event>
 8    1  0.1226832E-016  0.8063072E+02  0.7818608E-02  0.1327271E+00
         -1   -1    0    0    0  501 -0.00000000000E+00  0.00000000000E+00  0.62742244151E+01  0.62742264394E+01  0.50400000000E-02 0.  1.
          2   -1    0    0  501    0  0.00000000000E+00 -0.00000000000E+00 -0.25904841677E+03  0.25904841679E+03  0.25500000000E-02 0. -1.
         24    2    1    2    0    0  0.00000000000E+00  0.00000000000E+00 -0.25277419236E+03  0.26532264323E+03  0.80630718003E+02 0.  0.
         66    2    3    3    0    0  0.20145832688E+02  0.33137369862E+02 -0.16241851267E+03  0.16699614694E+03  0.19999945880E+01 0.  0.
        -13    1    3    3    0    0 -0.20145832688E+02 -0.33137369862E+02 -0.90355679687E+02  0.98326496286E+02  0.10566000000E+00 0.  1.
         13    1    4    4    0    0  0.10820864411E+02  0.18595139855E+02 -0.89874352616E+02  0.92413639442E+02  0.10566000000E+00 0. -1.
        -13    1    4    4    0    0  0.55960849557E+01  0.86748814709E+01 -0.45853628259E+02  0.47001448104E+02  0.10566000000E+00 0.  1.
        -14    1    4    4    0    0  0.37288833218E+01  0.58673485357E+01 -0.26690531797E+02  0.27581059394E+02  0.00000000000E+00 0.  1.
<mgrwt>
<rscale>  0 0.80630718E+02</rscale>
<asrwt>0</asrwt>
<pdfrwt beam="1">  1        2 0.39853594E-01 0.80630718E+02</pdfrwt>
<pdfrwt beam="2">  1       -1 0.96526566E-03 0.80630718E+02</pdfrwt>
<totfact> 0.23681310E+05</totfact>
</mgrwt>
</event>
<event>
 8    1  0.1226832E-016  0.7933662E+02  0.7818608E-02  0.1330945E+00
          2   -1    0    0  501    0  0.00000000000E+00  0.00000000000E+00  0.34496115199E+03  0.34496115200E+03  0.25500000000E-02 0. -1.
         -1   -1    0    0    0  501 -0.00000000000E+00 -0.00000000000E+00 -0.45615992122E+01  0.45616019965E+01  0.50400000000E-02 0.  1.
         24    2    1    2    0    0  0.00000000000E+00  0.00000000000E+00  0.34039955278E+03  0.34952275400E+03  0.79336624768E+02 0.  0.
         66    2    3    3    0    0 -0.27080062672E+02 -0.22917570921E+02  0.24825319642E+03  0.25078316211E+03  0.20000037626E+01 0.  0.
        -13    1    3    3    0    0  0.27080062672E+02  0.22917570921E+02  0.92146356358E+02  0.98739591884E+02  0.10566000000E+00 0.  1.
         13    1    4    4    0    0 -0.57588539819E+01 -0.46294411587E+01  0.48269799220E+02  0.48832169780E+02  0.10566000000E+00 0. -1.
        -13    1    4    4    0    0 -0.10363506263E+02 -0.87161315136E+01  0.10109392724E+03  0.10199689455E+03  0.10566000000E+00 0.  1.
        -14    1    4    4    0    0 -0.10957702428E+02 -0.95719982489E+01  0.98889469964E+02  0.99954097779E+02  0.00000000000E+00 0.  1.
<mgrwt>
<rscale>  0 0.79336625E+02</rscale>
<asrwt>0</asrwt>
<pdfrwt beam="1">  1        2 0.53070938E-01 0.79336625E+02</pdfrwt>
<pdfrwt beam="2">  1       -1 0.70178482E-03 0.79336625E+02</pdfrwt>
<totfact> 0.27400648E+05</totfact>
</mgrwt>
</event>
<event>
 8    1  0.1226832E-016  0.7817787E+02  0.7818608E-02  0.1334303E+00
          2   -1    0    0  501    0  0.00000000000E+00  0.00000000000E+00  0.56610319560E+02  0.56610319617E+02  0.25500000000E-02 0. -1.
         -1   -1    0    0    0  501 -0.00000000000E+00 -0.00000000000E+00 -0.26990573049E+02  0.26990573519E+02  0.50400000000E-02 0.  1.
         24    2    1    2    0    0  0.17763568394E-14  0.00000000000E+00  0.29619746512E+02  0.83600893137E+02  0.78177873787E+02 0.  0.
         66    2    3    3    0    0 -0.10248354542E+02 -0.10099256912E+02  0.53655645019E+02  0.55587336738E+02  0.20000005602E+01 0.  0.
        -13    1    3    3    0    0  0.10248354542E+02  0.10099256912E+02 -0.24035898507E+02  0.28013556398E+02  0.10566000000E+00 0.  1.
         13    1    4    4    0    0 -0.51299134400E+01 -0.49144153874E+01  0.28204128542E+02  0.29085245768E+02  0.10566000000E+00 0. -1.
        -13    1    4    4    0    0 -0.36645529739E+01 -0.34995793577E+01  0.15615743227E+02  0.16417630911E+02  0.10566000000E+00 0.  1.
        -14    1    4    4    0    0 -0.14538881279E+01 -0.16852621672E+01  0.98357732502E+01  0.10084460059E+02  0.00000000000E+00 0.  1.
<mgrwt>
<rscale>  0 0.78177874E+02</rscale>
<asrwt>0</asrwt>
<pdfrwt beam="1">  1        2 0.87092799E-02 0.78177874E+02</pdfrwt>
<pdfrwt beam="2">  1       -1 0.41523959E-02 0.78177874E+02</pdfrwt>
<totfact> 0.16354808E+05</totfact>
</mgrwt>
</event>
<event>
 8    1  0.1226832E-016  0.8054480E+02  0.7818608E-02  0.1327512E+00
         -1   -1    0    0    0  501 -0.00000000000E+00  0.00000000000E+00  0.20604794680E+01  0.20604856320E+01  0.50400000000E-02 0.  1.
          2   -1    0    0  501    0  0.00000000000E+00 -0.00000000000E+00 -0.78712934613E+03  0.78712934613E+03  0.25500000000E-02 0. -1.
         24    2    1    2    0    0  0.88817841970E-15  0.88817841970E-15 -0.78506886666E+03  0.78918983176E+03  0.80544802198E+02 0.  0.
         66    2    3    3    0    0 -0.72916705002E+01 -0.74794809257E+01 -0.77361380186E+03  0.77368690406E+03  0.20000003875E+01 0.  0.
        -13    1    3    3    0    0  0.72916705002E+01  0.74794809257E+01 -0.11455064800E+02  0.15502927698E+02  0.10566000000E+00 0.  1.
         13    1    4    4    0    0 -0.19616593135E+01 -0.22496863122E+01 -0.24293730906E+03  0.24295566775E+03  0.10566000000E+00 0. -1.
        -13    1    4    4    0    0 -0.36119413444E+01 -0.44499777223E+01 -0.39211080889E+03  0.39215270754E+03  0.10566000000E+00 0.  1.
        -14    1    4    4    0    0 -0.17180698423E+01 -0.77981689134E+00 -0.13856568391E+03  0.13857852877E+03  0.00000000000E+00 0.  1.
<mgrwt>
<rscale>  0 0.80544802E+02</rscale>
<asrwt>0</asrwt>
<pdfrwt beam="1">  1        2 0.12109658E+00 0.80544802E+02</pdfrwt>
<pdfrwt beam="2">  1       -1 0.31699794E-03 0.80544802E+02</pdfrwt>
<totfact> 0.33668422E+05</totfact>
</mgrwt>
</event>
<event>
 8    1  0.1226832E-016  0.7955713E+02  0.7818608E-02  0.1330313E+00
         -1   -1    0    0    0  501 -0.00000000000E+00  0.00000000000E+00  0.20646401131E+02  0.20646401747E+02  0.50400000000E-02 0.  1.
          2   -1    0    0  501    0  0.00000000000E+00 -0.00000000000E+00 -0.76639712301E+02  0.76639712343E+02  0.25500000000E-02 0. -1.
         24    2    1    2    0    0  0.00000000000E+00  0.00000000000E+00 -0.55993311169E+02  0.97286114090E+02  0.79557131038E+02 0.  0.
         66    2    3    3    0    0 -0.24223324059E+02 -0.27826784551E+01 -0.66408869247E+02  0.70771820926E+02  0.19999986882E+01 0.  0.
        -13    1    3    3    0    0  0.24223324059E+02  0.27826784551E+01  0.10415558078E+02  0.26514293163E+02  0.10566000000E+00 0.  1.
         13    1    4    4    0    0 -0.78571620269E+01 -0.17845838072E+01 -0.21182198724E+02  0.22663107494E+02  0.10566000000E+00 0. -1.
        -13    1    4    4    0    0 -0.76727945868E+01 -0.40150839888E+00 -0.20713510151E+02  0.22092841659E+02  0.10566000000E+00 0.  1.
         14    1    4    4    0    0 -0.86933674451E+01 -0.59658624903E+00 -0.24513160371E+02  0.26015871772E+02  0.00000000000E+00 0. -1.
<mgrwt>
<rscale>  0 0.79557131E+02</rscale>
<asrwt>0</asrwt>
<pdfrwt beam="1">  1        2 0.11790725E-01 0.79557131E+02</pdfrwt>
<pdfrwt beam="2">  1       -1 0.31763695E-02 0.79557131E+02</pdfrwt>
<totfact> 0.16763345E+05</totfact>
</mgrwt>
</event>
<event>
 8    1  0.1226832E-016  0.7918306E+02  0.7818608E-02  0.1331386E+00
          2   -1    0    0  501    0  0.00000000000E+00  0.00000000000E+00  0.95647854815E+02  0.95647854849E+02  0.25500000000E-02 0. -1.
         -1   -1    0    0    0  501 -0.00000000000E+00 -0.00000000000E+00 -0.16388125295E+02  0.16388126070E+02  0.50400000000E-02 0.  1.
         24    2    1    2    0    0 -0.71054273576E-14  0.00000000000E+00  0.79259729520E+02  0.11203598092E+03  0.79183055617E+02 0.  0.
         66    2    3    3    0    0 -0.36201176586E+02  0.15870299647E+02  0.37166895002E+02  0.54293366855E+02  0.20000008141E+01 0.  0.
        -13    1    3    3    0    0  0.36201176586E+02 -0.15870299647E+02  0.42092834518E+02  0.57742614063E+02  0.10566000000E+00 0.  1.
         13    1    4    4    0    0 -0.11175741271E+02  0.56759930483E+01  0.12494035424E+02  0.17698196949E+02  0.10566000000E+00 0. -1.
        -13    1    4    4    0    0 -0.60388022669E+01  0.24868973489E+01  0.56994429242E+01  0.86687141448E+01  0.10566000000E+00 0.  1.
         14    1    4    4    0    0 -0.18986633048E+02  0.77074092500E+01  0.18973416654E+02  0.27926455762E+02  0.00000000000E+00 0. -1.
<mgrwt>
<rscale>  0 0.79183056E+02</rscale>
<asrwt>0</asrwt>
<pdfrwt beam="1">  1        2 0.14715055E-01 0.79183056E+02</pdfrwt>
<pdfrwt beam="2">  1       -1 0.25212501E-02 0.79183056E+02</pdfrwt>
<totfact> 0.17996638E+05</totfact>
</mgrwt>
</event>
<event>
 8    1  0.1226832E-016  0.7798622E+02  0.7818608E-02  0.1334865E+00
          2   -1    0    0  501    0  0.00000000000E+00  0.00000000000E+00  0.94236195363E+02  0.94236195397E+02  0.25500000000E-02 0. -1.
         -1   -1    0    0    0  501 -0.00000000000E+00 -0.00000000000E+00 -0.16134593686E+02  0.16134594474E+02  0.50400000000E-02 0.  1.
         24    2    1    2    0    0 -0.35527136788E-14  0.00000000000E+00  0.78101601676E+02  0.11037078987E+03  0.77986223606E+02 0.  0.
         66    2    3    3    0    0 -0.30325637258E+02 -0.16085299237E+02  0.12977362261E+02  0.36753136756E+02  0.20000008676E+01 0.  0.
        -13    1    3    3    0    0  0.30325637258E+02  0.16085299237E+02  0.65124239415E+02  0.73617653115E+02  0.10566000000E+00 0.  1.
         13    1    4    4    0    0 -0.19752612000E+02 -0.11091137969E+02  0.79772518051E+01  0.24017217422E+02  0.10566000000E+00 0. -1.
        -13    1    4    4    0    0 -0.91799714642E+01 -0.44573684149E+01  0.41419015865E+01  0.11013924008E+02  0.10566000000E+00 0. -1.
         14    1    4    4    0    0 -0.13930537936E+01 -0.53679285376E+00  0.85820886912E+00  0.17219953260E+01  0.00000000000E+00 0. -1.
<mgrwt>
<rscale>  0 0.77986224E+02</rscale>
<asrwt>0</asrwt>
<pdfrwt beam="1">  1        2 0.14497876E-01 0.77986224E+02</pdfrwt>
<pdfrwt beam="2">  1       -1 0.24822453E-02 0.77986224E+02</pdfrwt>
<totfact> 0.18669487E+05</totfact>
</mgrwt>
</event>
<event>
 8    1  0.1226832E-016  0.7024401E+02  0.7818608E-02  0.1359265E+00
          2   -1    0    0  501    0  0.00000000000E+00  0.00000000000E+00  0.32019915280E+03  0.32019915281E+03  0.25500000000E-02 0. -1.
         -1   -1    0    0    0  501 -0.00000000000E+00 -0.00000000000E+00 -0.38524610725E+01  0.38524643693E+01  0.50400000000E-02 0.  1.
         24    2    1    2    0    0  0.00000000000E+00  0.00000000000E+00  0.31634669173E+03  0.32405161718E+03  0.70244012056E+02 0.  0.
         66    2    3    3    0    0  0.75912704222E+01  0.27160992231E+02  0.25465072795E+03  0.25621541743E+03  0.19999998109E+01 0.  0.
        -13    1    3    3    0    0 -0.75912704222E+01 -0.27160992231E+02  0.61695963780E+02  0.67836199749E+02  0.10566000000E+00 0.  1.
         13    1    4    4    0    0  0.33977449864E+01  0.95113002862E+01  0.86077908898E+02  0.86668489478E+02  0.10566000000E+00 0. -1.
        -13    1    4    4    0    0  0.23583977671E+01  0.89700753593E+01  0.87216429093E+02  0.87708271901E+02  0.10566000000E+00 0.  1.
         14    1    4    4    0    0  0.18351276688E+01  0.86796165858E+01  0.81356389954E+02  0.81838656050E+02  0.00000000000E+00 0. -1.
<mgrwt>
<rscale>  0 0.70244012E+02</rscale>
<asrwt>0</asrwt>
<pdfrwt beam="1">  1        2 0.49261404E-01 0.70244012E+02</pdfrwt>
<pdfrwt beam="2">  1       -1 0.59268663E-03 0.70244012E+02</pdfrwt>
<totfact> 0.36607095E+05</totfact>
</mgrwt>
</event>
<event>
 8    1  0.1226832E-016  0.8174513E+02  0.7818608E-02  0.1324171E+00
         -1   -1    0    0    0  501 -0.00000000000E+00  0.00000000000E+00  0.97570171699E+00  0.97571473400E+00  0.50400000000E-02 0.  1.
          2   -1    0    0  501    0  0.00000000000E+00 -0.00000000000E+00 -0.17121577111E+04  0.17121577111E+04  0.25500000000E-02 0. -1.
         24    2    1    2    0    0  0.00000000000E+00  0.88817841970E-15 -0.17111820093E+04  0.17131334258E+04  0.81745125115E+02 0.  0.
         66    2    3    3    0    0  0.19513352998E+02 -0.60636593760E+01 -0.15973469108E+04  0.15974788551E+04  0.19999939783E+01 0.  0.
        -13    1    3    3    0    0 -0.19513352998E+02  0.60636593760E+01 -0.11383509852E+03  0.11565457072E+03  0.10566000000E+00 0.  1.
         13    1    4    4    0    0  0.17631740593E+01  0.33668332958E-02 -0.13769428375E+03  0.13770561258E+03  0.10566000000E+00 0. -1.
        -13    1    4    4    0    0  0.25545815251E+01 -0.97311439228E+00 -0.22173149980E+03  0.22174837543E+03  0.10566000000E+00 0.  1.
         14    1    4    4    0    0  0.15195597413E+02 -0.50939118170E+01 -0.12379211273E+04  0.12380248671E+04  0.00000000000E+00 0. -1.
<mgrwt>
<rscale>  0 0.81745125E+02</rscale>
<asrwt>0</asrwt>
<pdfrwt beam="1">  1        2 0.26340647E+00 0.81745125E+02</pdfrwt>
<pdfrwt beam="2">  1       -1 0.15011033E-03 0.81745125E+02</pdfrwt>
<totfact> 0.29498069E+05</totfact>
</mgrwt>
</event>
<event>
 8    1  0.1226832E-016  0.8147107E+02  0.7818608E-02  0.1324928E+00
          2   -1    0    0  501    0  0.00000000000E+00  0.00000000000E+00  0.13663965703E+03  0.13663965705E+03  0.25500000000E-02 0. -1.
         -1   -1    0    0    0  501 -0.00000000000E+00 -0.00000000000E+00 -0.12144233617E+02  0.12144234663E+02  0.50400000000E-02 0.  1.
         24    2    1    2    0    0  0.00000000000E+00  0.00000000000E+00  0.12449542341E+03  0.14878389172E+03  0.81471074522E+02 0.  0.
         66    2    3    3    0    0 -0.39669113957E+02 -0.84319461455E+01  0.68778524349E+02  0.79870030098E+02  0.19999945948E+01 0.  0.
        -13    1    3    3    0    0  0.39669113957E+02  0.84319461455E+01  0.55716899063E+02  0.68913861618E+02  0.10566000000E+00 0.  1.
         13    1    4    4    0    0 -0.28330514237E+02 -0.64778350144E+01  0.48596283640E+02  0.56623231373E+02  0.10566000000E+00 0. -1.
        -13    1    4    4    0    0 -0.71278926635E+01 -0.10602346850E+01  0.13362821345E+02  0.15182460596E+02  0.10566000000E+00 0.  1.
        -14    1    4    4    0    0 -0.42107070559E+01 -0.89387644615E+00  0.68194193634E+01  0.80643381295E+01  0.00000000000E+00 0.  1.
<mgrwt>
<rscale>  0 0.81471075E+02</rscale>
<asrwt>0</asrwt>
<pdfrwt beam="1">  1        2 0.21021485E-01 0.81471075E+02</pdfrwt>
<pdfrwt beam="2">  1       -1 0.18683437E-02 0.81471075E+02</pdfrwt>
<totfact> 0.18524599E+05</totfact>
</mgrwt>
</event>
<event>
 8    1  0.1226832E-016  0.7612500E+02  0.7818608E-02  0.1340422E+00
          2   -1    0    0  501    0  0.00000000000E+00  0.00000000000E+00  0.18304722909E+03  0.18304722911E+03  0.25500000000E-02 0. -1.
         -1   -1    0    0    0  501 -0.00000000000E+00 -0.00000000000E+00 -0.79146451487E+01  0.79146467535E+01  0.50400000000E-02 0.  1.
         24    2    1    2    0    0  0.00000000000E+00  0.00000000000E+00  0.17513258394E+03  0.19096187586E+03  0.76125002952E+02 0.  0.
         66    2    3    3    0    0 -0.66044198961E+00 -0.13266712878E+02  0.17703402250E+03  0.17754291588E+03  0.20000011139E+01 0.  0.
        -13    1    3    3    0    0  0.66044198961E+00  0.13266712878E+02 -0.19014385582E+01  0.13418959976E+02  0.10566000000E+00 0.  1.
         13    1    4    4    0    0 -0.81054644114E+00 -0.69935091695E+01  0.98034352460E+02  0.98286884081E+02  0.10566000000E+00 0. -1.
        -13    1    4    4    0    0  0.30380375456E+00 -0.47064704704E+01  0.53382909212E+02  0.53590944393E+02  0.10566000000E+00 0.  1.
         14    1    4    4    0    0 -0.15369930303E+00 -0.15667332382E+01  0.25616760825E+02  0.25665087409E+02  0.00000000000E+00 0. -1.
<mgrwt>
<rscale>  0 0.76125003E+02</rscale>
<asrwt>0</asrwt>
<pdfrwt beam="1">  1        2 0.28161110E-01 0.76125003E+02</pdfrwt>
<pdfrwt beam="2">  1       -1 0.12176379E-02 0.76125003E+02</pdfrwt>
<totfact> 0.24388073E+05</totfact>
</mgrwt>
</event>
<event>
 8    1  0.1226832E-016  0.8015222E+02  0.7818608E-02  0.1328620E+00
         -1   -1    0    0    0  501 -0.00000000000E+00  0.00000000000E+00  0.34864983060E+02  0.34864983424E+02  0.50400000000E-02 0.  1.
          2   -1    0    0  501    0  0.00000000000E+00 -0.00000000000E+00 -0.46066121123E+02  0.46066121194E+02  0.25500000000E-02 0. -1.
         24    2    1    2    0    0 -0.71054273576E-14  0.00000000000E+00 -0.11201138063E+02  0.80931104618E+02  0.80152218939E+02 0.  0.
         66    2    3    3    0    0 -0.34620492077E+02  0.27185163145E+01 -0.25750905357E+02  0.43279070212E+02  0.19999972699E+01 0.  0.
        -13    1    3    3    0    0  0.34620492077E+02 -0.27185163145E+01  0.14549767294E+02  0.37652034407E+02  0.10566000000E+00 0.  1.
         13    1    4    4    0    0 -0.19725668626E+01  0.15762377000E-01 -0.10632421949E+01  0.22434162522E+01  0.10566000000E+00 0. -1.
        -13    1    4    4    0    0 -0.10898831553E+01  0.23446023091E+00 -0.72331074841E+00  0.13331014089E+01  0.10566000000E+00 0.  1.
         14    1    4    4    0    0 -0.31558042059E+02  0.24682937066E+01 -0.23964352414E+02  0.39702552551E+02  0.00000000000E+00 0. -1.
<mgrwt>
<rscale>  0 0.80152219E+02</rscale>
<asrwt>0</asrwt>
<pdfrwt beam="1">  1        2 0.70870956E-02 0.80152219E+02</pdfrwt>
<pdfrwt beam="2">  1       -1 0.53638436E-02 0.80152219E+02</pdfrwt>
<totfact> 0.14605412E+05</totfact>
</mgrwt>
</event>
<event>
 8    1  0.1226832E-016  0.7967926E+02  0.7818608E-02  0.1329964E+00
          2   -1    0    0  501    0  0.00000000000E+00  0.00000000000E+00  0.96332524621E+01  0.96332527996E+01  0.25500000000E-02 0. -1.
         -1   -1    0    0    0  501 -0.00000000000E+00 -0.00000000000E+00 -0.16476222073E+03  0.16476222081E+03  0.50400000000E-02 0.  1.
         24    2    1    2    0    0  0.00000000000E+00  0.00000000000E+00 -0.15512896827E+03  0.17439547361E+03  0.79679259652E+02 0.  0.
         66    2    3    3    0    0 -0.33557411056E+02 -0.20994201188E+02 -0.68241300731E+02  0.78915977094E+02  0.19999987428E+01 0.  0.
        -13    1    3    3    0    0  0.33557411056E+02  0.20994201188E+02 -0.86887667538E+02  0.95479496514E+02  0.10566000000E+00 0.  1.
         13    1    4    4    0    0 -0.52383973366E+01 -0.36370360639E+01 -0.11739648228E+02  0.13360364611E+02  0.10566000000E+00 0. -1.
        -13    1    4    4    0    0 -0.21096616011E+02 -0.13085200920E+02 -0.43341914077E+02  0.49948196866E+02  0.10566000000E+00 0.  1.
        -14    1    4    4    0    0 -0.72223977082E+01 -0.42719642044E+01 -0.13159738426E+02  0.15607415617E+02  0.00000000000E+00 0.  1.
<mgrwt>
<rscale>  0 0.79679260E+02</rscale>
<asrwt>0</asrwt>
<pdfrwt beam="1">  1        2 0.14820390E-02 0.79679260E+02</pdfrwt>
<pdfrwt beam="2">  1       -1 0.25348032E-01 0.79679260E+02</pdfrwt>
<totfact> 0.10633424E+05</totfact>
</mgrwt>
</event>
<event>
 8    1  0.1226832E-016  0.7937142E+02  0.7818608E-02  0.1330845E+00
         -1   -1    0    0    0  501 -0.00000000000E+00  0.00000000000E+00  0.16834095945E+01  0.16834171391E+01  0.50400000000E-02 0.  1.
          2   -1    0    0  501    0  0.00000000000E+00 -0.00000000000E+00 -0.93557274660E+03  0.93557274660E+03  0.25500000000E-02 0. -1.
         24    2    1    2    0    0 -0.35527136788E-14 -0.17763568394E-14 -0.93388933700E+03  0.93725616374E+03  0.79371422444E+02 0.  0.
         66    2    3    3    0    0  0.24842085370E+02  0.14369030012E+02 -0.79048934484E+03  0.79101264373E+03  0.20000009293E+01 0.  0.
        -13    1    3    3    0    0 -0.24842085370E+02 -0.14369030012E+02 -0.14339999217E+03  0.14624352002E+03  0.10566000000E+00 0.  1.
         13    1    4    4    0    0  0.15917414644E+02  0.96015340147E+01 -0.52204537902E+03  0.52237624608E+03  0.10566000000E+00 0. -1.
        -13    1    4    4    0    0  0.29984649540E+00  0.35912985269E+00 -0.12159518500E+02  0.12168974335E+02  0.10566000000E+00 0.  1.
        -14    1    4    4    0    0  0.86248242303E+01  0.44083661448E+01 -0.25628444731E+03  0.25646742331E+03  0.00000000000E+00 0.  1.
<mgrwt>
<rscale>  0 0.79371422E+02</rscale>
<asrwt>0</asrwt>
<pdfrwt beam="1">  1        2 0.14393385E+00 0.79371422E+02</pdfrwt>
<pdfrwt beam="2">  1       -1 0.25898742E-03 0.79371422E+02</pdfrwt>
<totfact> 0.35805619E+05</totfact>
</mgrwt>
</event>
<event>
 8    1  0.1226832E-016  0.7979683E+02  0.7818608E-02  0.1329629E+00
          2   -1    0    0  501    0  0.00000000000E+00  0.00000000000E+00  0.10153736252E+04  0.10153736252E+04  0.25500000000E-02 0. -1.
         -1   -1    0    0    0  501 -0.00000000000E+00 -0.00000000000E+00 -0.15677768196E+01  0.15677849208E+01  0.50400000000E-02 0.  1.
         24    2    1    2    0    0  0.00000000000E+00  0.00000000000E+00  0.10138058483E+04  0.10169414101E+04  0.79796825842E+02 0.  0.
         66    2    3    3    0    0  0.11548682447E+01 -0.27192194087E+02  0.87858225655E+03  0.87900599012E+03  0.20000006561E+01 0.  0.
        -13    1    3    3    0    0 -0.11548682447E+01  0.27192194087E+02  0.13522359180E+03  0.13793541997E+03  0.10566000000E+00 0.  1.
         13    1    4    4    0    0  0.13036082961E+01 -0.10773365928E+02  0.33529940899E+03  0.33547499108E+03  0.10566000000E+00 0. -1.
        -13    1    4    4    0    0 -0.13597403668E+00 -0.96329085407E+01  0.31457824183E+03  0.31472574221E+03  0.10566000000E+00 0.  1.
         14    1    4    4    0    0 -0.12766014786E-01 -0.67859196186E+01  0.22870460573E+03  0.22880525682E+03  0.00000000000E+00 0. -1.
<mgrwt>
<rscale>  0 0.79796826E+02</rscale>
<asrwt>0</asrwt>
<pdfrwt beam="1">  1        2 0.15621120E+00 0.79796826E+02</pdfrwt>
<pdfrwt beam="2">  1       -1 0.24119726E-03 0.79796826E+02</pdfrwt>
<totfact> 0.35484220E+05</totfact>
</mgrwt>
</event>
<event>
 8    1  0.1226832E-016  0.7813157E+02  0.7818608E-02  0.1334439E+00
         -1   -1    0    0    0  501 -0.00000000000E+00  0.00000000000E+00  0.37007267402E+01  0.37007301722E+01  0.50400000000E-02 0.  1.
          2   -1    0    0  501    0  0.00000000000E+00 -0.00000000000E+00 -0.41238784622E+03  0.41238784622E+03  0.25500000000E-02 0. -1.
         24    2    1    2    0    0  0.00000000000E+00  0.00000000000E+00 -0.40868711948E+03  0.41608857640E+03  0.78131567128E+02 0.  0.
         66    2    3    3    0    0 -0.15614249977E+02 -0.34355706828E+02 -0.25773490418E+03  0.26049069126E+03  0.20000008251E+01 0.  0.
        -13    1    3    3    0    0  0.15614249977E+02  0.34355706828E+02 -0.15095221529E+03  0.15559788514E+03  0.10566000000E+00 0.  1.
         13    1    4    4    0    0 -0.24562140762E+00 -0.80913201016E+00 -0.69390377458E+01  0.69911682399E+01  0.10566000000E+00 0. -1.
        -13    1    4    4    0    0 -0.65943603868E+01 -0.15268438356E+02 -0.11694700591E+03  0.11812376625E+03  0.10566000000E+00 0.  1.
         14    1    4    4    0    0 -0.87742681829E+01 -0.18278136461E+02 -0.13384886053E+03  0.13537575676E+03  0.00000000000E+00 0. -1.
<mgrwt>
<rscale>  0 0.78131567E+02</rscale>
<asrwt>0</asrwt>
<pdfrwt beam="1">  1        2 0.63444248E-01 0.78131567E+02</pdfrwt>
<pdfrwt beam="2">  1       -1 0.56934317E-03 0.78131567E+02</pdfrwt>
<totfact> 0.30370620E+05</totfact>
</mgrwt>
</event>
<event>
 8    1  0.1226832E-016  0.7985433E+02  0.7818608E-02  0.1329465E+00
          2   -1    0    0  501    0  0.00000000000E+00  0.00000000000E+00  0.54821067441E+03  0.54821067441E+03  0.25500000000E-02 0. -1.
         -1   -1    0    0    0  501 -0.00000000000E+00 -0.00000000000E+00 -0.29079646932E+01  0.29079690608E+01  0.50400000000E-02 0.  1.
         24    2    1    2    0    0  0.00000000000E+00  0.00000000000E+00  0.54530270971E+03  0.55111864347E+03  0.79854329645E+02 0.  0.
         66    2    3    3    0    0  0.35748927936E+02 -0.54210363881E+01  0.38929260223E+03  0.39097327736E+03  0.19999951426E+01 0.  0.
        -13    1    3    3    0    0 -0.35748927936E+02  0.54210363881E+01  0.15601010749E+03  0.16014536611E+03  0.10566000000E+00 0.  1.
         13    1    4    4    0    0  0.24503021416E+02 -0.41071657755E+01  0.26777497398E+03  0.26892510988E+03  0.10566000000E+00 0. -1.
        -13    1    4    4    0    0  0.64284310785E+01 -0.25572685491E+00  0.68046077454E+02  0.68349615531E+02  0.10566000000E+00 0.  1.
        -14    1    4    4    0    0  0.48174754415E+01 -0.10581437577E+01  0.53471550793E+02  0.53698551955E+02  0.00000000000E+00 0.  1.
<mgrwt>
<rscale>  0 0.79854330E+02</rscale>
<asrwt>0</asrwt>
<pdfrwt beam="1">  1        2 0.84340080E-01 0.79854330E+02</pdfrwt>
<pdfrwt beam="2">  1       -1 0.44737965E-03 0.79854330E+02</pdfrwt>
<totfact> 0.31481401E+05</totfact>
</mgrwt>
</event>
<event>
 8    1  0.1226832E-016  0.7858890E+02  0.7818608E-02  0.1333104E+00
         -1   -1    0    0    0  501 -0.00000000000E+00  0.00000000000E+00  0.12534617343E+03  0.12534617353E+03  0.50400000000E-02 0.  1.
          2   -1    0    0  501    0  0.00000000000E+00 -0.00000000000E+00 -0.12318315696E+02  0.12318315960E+02  0.25500000000E-02 0. -1.
         24    2    1    2    0    0  0.35527136788E-14  0.00000000000E+00  0.11302785773E+03  0.13766448949E+03  0.78588898981E+02 0.  0.
         66    2    3    3    0    0  0.20764800531E+02  0.16579899762E+02  0.59028877342E+01  0.27293114676E+02  0.20000019785E+01 0.  0.
        -13    1    3    3    0    0 -0.20764800531E+02 -0.16579899762E+02  0.10712497000E+03  0.11037137482E+03  0.10566000000E+00 0.  1.
         13    1    4    4    0    0  0.10691498304E+02  0.92729928767E+01  0.25615487205E+01  0.14382949237E+02  0.10566000000E+00 0. -1.
        -13    1    4    4    0    0  0.32247877400E+01  0.20464745053E+01  0.74586019977E+00  0.38929147617E+01  0.10566000000E+00 0.  1.
         14    1    4    4    0    0  0.68485144869E+01  0.52604323799E+01  0.25954788139E+01  0.90172506772E+01  0.00000000000E+00 0. -1.
<mgrwt>
<rscale>  0 0.78588899E+02</rscale>
<asrwt>0</asrwt>
<pdfrwt beam="1">  1        2 0.18951256E-02 0.78588899E+02</pdfrwt>
<pdfrwt beam="2">  1       -1 0.19284025E-01 0.78588899E+02</pdfrwt>
<totfact> 0.11785682E+05</totfact>
</mgrwt>
</event>
<event>
 8    1  0.1226832E-016  0.7796681E+02  0.7818608E-02  0.1334922E+00
         -1   -1    0    0    0  501 -0.00000000000E+00  0.00000000000E+00  0.29914853746E+02  0.29914854171E+02  0.50400000000E-02 0.  1.
          2   -1    0    0  501    0  0.00000000000E+00 -0.00000000000E+00 -0.50801044329E+02  0.50801044393E+02  0.25500000000E-02 0. -1.
         24    2    1    2    0    0  0.71054273576E-14 -0.17763568394E-14 -0.20886190583E+02  0.80715898563E+02  0.77966809117E+02 0.  0.
         66    2    3    3    0    0  0.37314706874E+02 -0.10698935659E+02 -0.70404463985E+01  0.39502182771E+02  0.19999962105E+01 0.  0.
        -13    1    3    3    0    0 -0.37314706874E+02  0.10698935659E+02 -0.13845744184E+02  0.41213715792E+02  0.10566000000E+00 0.  1.
         13    1    4    4    0    0  0.13583907783E+02 -0.40627300747E+01 -0.26626173362E+01  0.14426677422E+02  0.10566000000E+00 0. -1.
        -13    1    4    4    0    0  0.20921238993E+02 -0.62945480922E+01 -0.36223683647E+01  0.22146157529E+02  0.10566000000E+00 0.  1.
        -14    1    4    4    0    0  0.28095600976E+01 -0.34165749195E+00 -0.75546069753E+00  0.29293478198E+01  0.00000000000E+00 0.  1.
<mgrwt>
<rscale>  0 0.77966809E+02</rscale>
<asrwt>0</asrwt>
<pdfrwt beam="1">  1        2 0.78155453E-02 0.77966809E+02</pdfrwt>
<pdfrwt beam="2">  1       -1 0.46022853E-02 0.77966809E+02</pdfrwt>
<totfact> 0.16087744E+05</totfact>
</mgrwt>
</event>
<event>
 8    1  0.1226832E-016  0.7964068E+02  0.7818608E-02  0.1330074E+00
         -1   -1    0    0    0  501 -0.00000000000E+00  0.00000000000E+00  0.15953080928E+02  0.15953081725E+02  0.50400000000E-02 0.  1.
          2   -1    0    0  501    0  0.00000000000E+00 -0.00000000000E+00 -0.99395185839E+02  0.99395185872E+02  0.25500000000E-02 0. -1.
         24    2    1    2    0    0  0.71054273576E-14 -0.17763568394E-14 -0.83442104911E+02  0.11534826760E+03  0.79640680343E+02 0.  0.
         66    2    3    3    0    0 -0.33358404603E+02  0.83504754397E+01 -0.70755746101E+02  0.78694912203E+02  0.20000006137E+01 0.  0.
        -13    1    3    3    0    0  0.33358404603E+02 -0.83504754397E+01 -0.12686358810E+02  0.36653355394E+02  0.10566000000E+00 0.  1.
         13    1    4    4    0    0 -0.15987052027E+02  0.38247189418E+01 -0.32353442916E+02  0.36290091486E+02  0.10566000000E+00 0. -1.
        -13    1    4    4    0    0 -0.15942637340E+02  0.38506079408E+01 -0.35227300815E+02  0.38858316402E+02  0.10566000000E+00 0.  1.
         14    1    4    4    0    0 -0.14287152361E+01  0.67514855703E+00 -0.31750023708E+01  0.35465043148E+01  0.00000000000E+00 0. -1.
<mgrwt>
<rscale>  0 0.79640680E+02</rscale>
<asrwt>0</asrwt>
<pdfrwt beam="1">  1        2 0.15291567E-01 0.79640680E+02</pdfrwt>
<pdfrwt beam="2">  1       -1 0.24543203E-02 0.79640680E+02</pdfrwt>
<totfact> 0.17910478E+05</totfact>
</mgrwt>
</event>
<event>
 8    1  0.1226832E-016  0.8029855E+02  0.7818608E-02  0.1328206E+00
         -1   -1    0    0    0  501 -0.00000000000E+00  0.00000000000E+00  0.33600494550E+02  0.33600494928E+02  0.50400000000E-02 0.  1.
          2   -1    0    0  501    0  0.00000000000E+00 -0.00000000000E+00 -0.47974424686E+02  0.47974424754E+02  0.25500000000E-02 0. -1.
         24    2    1    2    0    0  0.17763568394E-14 -0.35527136788E-14 -0.14373930136E+02  0.81574919682E+02  0.80298553247E+02 0.  0.
         66    2    3    3    0    0 -0.93460262463E+01  0.29259640736E+02 -0.33418133356E+02  0.45433978591E+02  0.19999977507E+01 0.  0.
        -13    1    3    3    0    0  0.93460262463E+01 -0.29259640736E+02  0.19044203220E+02  0.36140941090E+02  0.10566000000E+00 0.  1.
         13    1    4    4    0    0 -0.61679006031E+00  0.27416505828E+01 -0.24274716068E+01  0.37149509195E+01  0.10566000000E+00 0. -1.
        -13    1    4    4    0    0 -0.59596269667E+00  0.23653859134E+01 -0.25500805849E+01  0.35304811400E+01  0.10566000000E+00 0.  1.
        -14    1    4    4    0    0 -0.81332734893E+01  0.24152604240E+02 -0.28440581165E+02  0.38188546532E+02  0.00000000000E+00 0.  1.
<mgrwt>
<rscale>  0 0.80298553E+02</rscale>
<asrwt>0</asrwt>
<pdfrwt beam="1">  1        2 0.73806807E-02 0.80298553E+02</pdfrwt>
<pdfrwt beam="2">  1       -1 0.51693069E-02 0.80298553E+02</pdfrwt>
<totfact> 0.14659271E+05</totfact>
</mgrwt>
</event>
<event>
 8    1  0.1226832E-016  0.8052499E+02  0.7818608E-02  0.1327568E+00
         -1   -1    0    0    0  501 -0.00000000000E+00  0.00000000000E+00  0.52729605979E+01  0.52729630066E+01  0.50400000000E-02 0.  1.
          2   -1    0    0  501    0  0.00000000000E+00 -0.00000000000E+00 -0.30743036105E+03  0.30743036106E+03  0.25500000000E-02 0. -1.
         24    2    1    2    0    0  0.17763568394E-14  0.00000000000E+00 -0.30215740046E+03  0.31270332407E+03  0.80524991368E+02 0.  0.
         66    2    3    3    0    0 -0.11656400944E+02 -0.84773530795E+01 -0.29705828388E+03  0.29741446041E+03  0.20000102702E+01 0.  0.
        -13    1    3    3    0    0  0.11656400944E+02  0.84773530795E+01 -0.50991165784E+01  0.15288863663E+02  0.10566000000E+00 0.  1.
         13    1    4    4    0    0 -0.28961587855E+01 -0.15219310916E+01 -0.79525526145E+02  0.79592867033E+02  0.10566000000E+00 0. -1.
        -13    1    4    4    0    0 -0.36933146764E+00 -0.20824522656E+00 -0.69082710429E+01  0.69220766137E+01  0.10566000000E+00 0. -1.
        -14    1    4    4    0    0 -0.83909106909E+01 -0.67471767614E+01 -0.21062448669E+03  0.21089951676E+03  0.00000000000E+00 0.  1.
<mgrwt>
<rscale>  0 0.80524991E+02</rscale>
<asrwt>0</asrwt>
<pdfrwt beam="1">  1        2 0.47296965E-01 0.80524991E+02</pdfrwt>
<pdfrwt beam="2">  1       -1 0.81122514E-03 0.80524991E+02</pdfrwt>
<totfact> 0.25283878E+05</totfact>
</mgrwt>
</event>
<event>
 8    1  0.1226832E-016  0.7828253E+02  0.7818608E-02  0.1333997E+00
          2   -1    0    0  501    0  0.00000000000E+00  0.00000000000E+00  0.21660876545E+03  0.21660876547E+03  0.25500000000E-02 0. -1.
         -1   -1    0    0    0  501 -0.00000000000E+00 -0.00000000000E+00 -0.70728372428E+01  0.70728390385E+01  0.50400000000E-02 0.  1.
         24    2    1    2    0    0  0.00000000000E+00  0.00000000000E+00  0.20953592821E+03  0.22368160451E+03  0.78282533069E+02 0.  0.
         66    2    3    3    0    0  0.24426805780E+02 -0.43297676467E+01  0.19125039315E+03  0.19286297889E+03  0.20000044012E+01 0.  0.
        -13    1    3    3    0    0 -0.24426805780E+02  0.43297676467E+01  0.18285535062E+02  0.30818625618E+02  0.10566000000E+00 0.  1.
         13    1    4    4    0    0  0.19161497311E+02 -0.36076078487E+01  0.15232950229E+03  0.15357234857E+03  0.10566000000E+00 0. -1.
        -13    1    4    4    0    0  0.29549068486E+01 -0.61264146455E+00  0.19483586730E+02  0.19716189285E+02  0.10566000000E+00 0.  1.
         14    1    4    4    0    0  0.23104016207E+01 -0.10951833344E+00  0.19437304129E+02  0.19574441032E+02  0.00000000000E+00 0. -1.
<mgrwt>
<rscale>  0 0.78282533E+02</rscale>
<asrwt>0</asrwt>
<pdfrwt beam="1">  1        2 0.33324424E-01 0.78282533E+02</pdfrwt>
<pdfrwt beam="2">  1       -1 0.10881290E-02 0.78282533E+02</pdfrwt>
<totfact> 0.24016105E+05</totfact>
</mgrwt>
</event>
<event>
 8    1  0.1226832E-016  0.7823028E+02  0.7818608E-02  0.1334150E+00
          2   -1    0    0  501    0  0.00000000000E+00  0.00000000000E+00  0.94983169356E+03  0.94983169357E+03  0.25500000000E-02 0. -1.
         -1   -1    0    0    0  501 -0.00000000000E+00 -0.00000000000E+00 -0.16108016486E+01  0.16108095333E+01  0.50400000000E-02 0.  1.
         24    2    1    2    0    0  0.00000000000E+00  0.00000000000E+00  0.94822089192E+03  0.95144250310E+03  0.78230280849E+02 0.  0.
         66    2    3    3    0    0  0.24292584309E+02 -0.16077530524E+02  0.79142122776E+03  0.79195970627E+03  0.19999934008E+01 0.  0.
        -13    1    3    3    0    0 -0.24292584309E+02  0.16077530524E+02  0.15679966416E+03  0.15948279683E+03  0.10566000000E+00 0.  1.
         13    1    4    4    0    0  0.12799191182E+02 -0.88616940582E+01  0.43017113702E+03  0.43045274677E+03  0.10566000000E+00 0. -1.
        -13    1    4    4    0    0  0.93699855077E+00 -0.99485781033E+00  0.34674936786E+02  0.34702018868E+02  0.10566000000E+00 0.  1.
        -14    1    4    4    0    0  0.10556394576E+02 -0.62209786556E+01  0.32657515396E+03  0.32680494064E+03  0.00000000000E+00 0.  1.
<mgrwt>
<rscale>  0 0.78230281E+02</rscale>
<asrwt>0</asrwt>
<pdfrwt beam="1">  1        2 0.14612835E+00 0.78230281E+02</pdfrwt>
<pdfrwt beam="2">  1       -1 0.24781557E-03 0.78230281E+02</pdfrwt>
<totfact> 0.37221247E+05</totfact>
</mgrwt>
</event>
<event>
 8    1  0.1226832E-016  0.8052381E+02  0.7818608E-02  0.1327571E+00
         -1   -1    0    0    0  501 -0.00000000000E+00  0.00000000000E+00  0.41640086217E+01  0.41640116718E+01  0.50400000000E-02 0.  1.
          2   -1    0    0  501    0  0.00000000000E+00 -0.00000000000E+00 -0.38929323769E+03  0.38929323770E+03  0.25500000000E-02 0. -1.
         24    2    1    2    0    0  0.00000000000E+00  0.00000000000E+00 -0.38512922907E+03  0.39345724937E+03  0.80523810138E+02 0.  0.
         66    2    3    3    0    0 -0.13489171399E+02  0.21600401228E+02 -0.34490133173E+03  0.34584601156E+03  0.19999997095E+01 0.  0.
        -13    1    3    3    0    0  0.13489171399E+02 -0.21600401228E+02 -0.40227897335E+02  0.47611237815E+02  0.10566000000E+00 0.  1.
         13    1    4    4    0    0 -0.45031482372E+01  0.66861253653E+01 -0.10781573425E+03  0.10811672550E+03  0.10566000000E+00 0. -1.
        -13    1    4    4    0    0 -0.40030345511E+01  0.61501712426E+01 -0.10987039305E+03  0.11011522749E+03  0.10566000000E+00 0.  1.
         14    1    4    4    0    0 -0.49829886111E+01  0.87641046202E+01 -0.12721520443E+03  0.12761405857E+03  0.00000000000E+00 0. -1.
<mgrwt>
<rscale>  0 0.80523810E+02</rscale>
<asrwt>0</asrwt>
<pdfrwt beam="1">  1        2 0.59891239E-01 0.80523810E+02</pdfrwt>
<pdfrwt beam="2">  1       -1 0.64061725E-03 0.80523810E+02</pdfrwt>
<totfact> 0.27512628E+05</totfact>
</mgrwt>
</event>
<event>
 8    1  0.1226832E-016  0.8120938E+02  0.7818608E-02  0.1325654E+00
         -1   -1    0    0    0  501 -0.00000000000E+00  0.00000000000E+00  0.42455891634E+01  0.42455921549E+01  0.50400000000E-02 0.  1.
          2   -1    0    0  501    0  0.00000000000E+00 -0.00000000000E+00 -0.38834193051E+03  0.38834193052E+03  0.25500000000E-02 0. -1.
         24    2    1    2    0    0  0.00000000000E+00  0.00000000000E+00 -0.38409634134E+03  0.39258752267E+03  0.81209380756E+02 0.  0.
         66    2    3    3    0    0 -0.26278995155E+02  0.15687307433E+02 -0.32098258490E+03  0.32244456424E+03  0.19999994944E+01 0.  0.
        -13    1    3    3    0    0  0.26278995155E+02 -0.15687307433E+02 -0.63113756439E+02  0.70142958426E+02  0.10566000000E+00 0.  1.
         13    1    4    4    0    0 -0.17187808298E+02  0.11220591935E+02 -0.21249488361E+03  0.21348397870E+03  0.10566000000E+00 0. -1.
        -13    1    4    4    0    0 -0.13917946149E+01  0.74543045790E+00 -0.18404884519E+02  0.18472782601E+02  0.10566000000E+00 0. -1.
         14    1    4    4    0    0 -0.76993922416E+01  0.37212850406E+01 -0.90082816777E+02  0.90487802944E+02  0.00000000000E+00 0. -1.
<mgrwt>
<rscale>  0 0.81209381E+02</rscale>
<asrwt>0</asrwt>
<pdfrwt beam="1">  1        2 0.59744885E-01 0.81209381E+02</pdfrwt>
<pdfrwt beam="2">  1       -1 0.65316810E-03 0.81209381E+02</pdfrwt>
<totfact> 0.26886019E+05</totfact>
</mgrwt>
</event>
<event>
 8    1  0.1226832E-016  0.8017210E+02  0.7818608E-02  0.1328564E+00
          2   -1    0    0  501    0  0.00000000000E+00  0.00000000000E+00  0.43024430148E+02  0.43024430223E+02  0.25500000000E-02 0. -1.
         -1   -1    0    0    0  501 -0.00000000000E+00 -0.00000000000E+00 -0.37348349240E+02  0.37348349580E+02  0.50400000000E-02 0.  1.
         24    2    1    2    0    0  0.00000000000E+00  0.00000000000E+00  0.56760809078E+01  0.80372779803E+02  0.80172101375E+02 0.  0.
         66    2    3    3    0    0  0.36238883378E+02  0.13773169202E+02  0.12961093946E+02  0.40926114072E+02  0.19999996176E+01 0.  0.
        -13    1    3    3    0    0 -0.36238883378E+02 -0.13773169202E+02 -0.72850130379E+01  0.39446665731E+02  0.10566000000E+00 0.  1.
         13    1    4    4    0    0  0.46995526428E+01  0.22940112459E+01  0.20791050458E+01  0.56286876326E+01  0.10566000000E+00 0. -1.
        -13    1    4    4    0    0  0.44832326948E+01  0.18403511200E+01  0.12867505986E+01  0.50152924919E+01  0.10566000000E+00 0.  1.
         14    1    4    4    0    0  0.27056098040E+02  0.96388068358E+01  0.95952383013E+01  0.30282133948E+02  0.00000000000E+00 0. -1.
<mgrwt>
<rscale>  0 0.80172101E+02</rscale>
<asrwt>0</asrwt>
<pdfrwt beam="1">  1        2 0.66191431E-02 0.80172101E+02</pdfrwt>
<pdfrwt beam="2">  1       -1 0.57458999E-02 0.80172101E+02</pdfrwt>
<totfact> 0.14386635E+05</totfact>
</mgrwt>
</event>
<event>
 8    1  0.1226832E-016  0.7992996E+02  0.7818608E-02  0.1329250E+00
          2   -1    0    0  501    0  0.00000000000E+00  0.00000000000E+00  0.13250820966E+03  0.13250820969E+03  0.25500000000E-02 0. -1.
         -1   -1    0    0    0  501 -0.00000000000E+00 -0.00000000000E+00 -0.12053588171E+02  0.12053589225E+02  0.50400000000E-02 0.  1.
         24    2    1    2    0    0 -0.35527136788E-14 -0.35527136788E-14  0.12045462149E+03  0.14456179891E+03  0.79929955999E+02 0.  0.
         66    2    3    3    0    0  0.16050661424E+02  0.27094505483E+02  0.10469403157E+03  0.10934613027E+03  0.19999994255E+01 0.  0.
        -13    1    3    3    0    0 -0.16050661424E+02 -0.27094505483E+02  0.15760589917E+02  0.35215668644E+02  0.10566000000E+00 0.  1.
         13    1    4    4    0    0  0.26345437524E+01  0.49080461708E+01  0.16507821768E+02  0.17422660002E+02  0.10566000000E+00 0.  1.
        -13    1    4    4    0    0  0.36637732637E+01  0.55386479218E+01  0.21546809798E+02  0.22547195654E+02  0.10566000000E+00 0. -1.
         14    1    4    4    0    0  0.97523444079E+01  0.16647811390E+02  0.66639400008E+02  0.69376274612E+02  0.00000000000E+00 0. -1.
<mgrwt>
<rscale>  0 0.79929956E+02</rscale>
<asrwt>0</asrwt>
<pdfrwt beam="1">  1        2 0.20385879E-01 0.79929956E+02</pdfrwt>
<pdfrwt beam="2">  1       -1 0.18543982E-02 0.79929956E+02</pdfrwt>
<totfact> 0.19304881E+05</totfact>
</mgrwt>
</event>
<event>
 8    1  0.1226832E-016  0.8451364E+02  0.7818608E-02  0.1316709E+00
          2   -1    0    0  501    0  0.00000000000E+00  0.00000000000E+00  0.32430716334E+03  0.32430716335E+03  0.25500000000E-02 0. -1.
         -1   -1    0    0    0  501 -0.00000000000E+00 -0.00000000000E+00 -0.55060097591E+01  0.55060120659E+01  0.50400000000E-02 0.  1.
         24    2    1    2    0    0 -0.17763568394E-14  0.00000000000E+00  0.31880115358E+03  0.32981317541E+03  0.84513638860E+02 0.  0.
         66    2    3    3    0    0 -0.15925371449E+02 -0.24385497599E+02  0.27884208520E+03  0.28036615064E+03  0.19999997047E+01 0.  0.
        -13    1    3    3    0    0  0.15925371449E+02  0.24385497599E+02  0.39959068380E+02  0.49447024772E+02  0.10566000000E+00 0.  1.
         13    1    4    4    0    0 -0.39638652140E+01 -0.54188573197E+01  0.62742820239E+02  0.63101100606E+02  0.10566000000E+00 0. -1.
        -13    1    4    4    0    0 -0.52285554457E+01 -0.97173684399E+01  0.10493791216E+03  0.10551654663E+03  0.10566000000E+00 0.  1.
        -14    1    4    4    0    0 -0.67329507896E+01 -0.92492718396E+01  0.11116135280E+03  0.11174850340E+03  0.00000000000E+00 0.  1.
<mgrwt>
<rscale>  0 0.84513639E+02</rscale>
<asrwt>0</asrwt>
<pdfrwt beam="1">  1        2 0.49893428E-01 0.84513639E+02</pdfrwt>
<pdfrwt beam="2">  1       -1 0.84707829E-03 0.84513639E+02</pdfrwt>
<totfact> 0.22702423E+05</totfact>
</mgrwt>
</event>
<event>
 8    1  0.1226832E-016  0.7607517E+02  0.7818608E-02  0.1340574E+00
         -1   -1    0    0    0  501 -0.00000000000E+00  0.00000000000E+00  0.42115953357E+01  0.42115983514E+01  0.50400000000E-02 0.  1.
          2   -1    0    0  501    0  0.00000000000E+00 -0.00000000000E+00 -0.34354142545E+03  0.34354142545E+03  0.25500000000E-02 0. -1.
         24    2    1    2    0    0  0.00000000000E+00 -0.35527136788E-14 -0.33932983011E+03  0.34775302381E+03  0.76075173112E+02 0.  0.
         66    2    3    3    0    0 -0.89065803211E+01  0.26869837502E+02 -0.28574366108E+03  0.28714936043E+03  0.20000004791E+01 0.  0.
        -13    1    3    3    0    0  0.89065803211E+01 -0.26869837502E+02 -0.53586169025E+02  0.60603663381E+02  0.10566000000E+00 0.  1.
         13    1    4    4    0    0 -0.40385506724E+01  0.11276369731E+02 -0.12051050462E+03  0.12110433227E+03  0.10566000000E+00 0. -1.
        -13    1    4    4    0    0 -0.42427562610E+01  0.14351564470E+02 -0.15421359176E+03  0.15493808903E+03  0.10566000000E+00 0.  1.
         14    1    4    4    0    0 -0.62527338769E+00  0.12419033006E+01 -0.11019564702E+02  0.11106939130E+02  0.00000000000E+00 0. -1.
<mgrwt>
<rscale>  0 0.76075173E+02</rscale>
<asrwt>0</asrwt>
<pdfrwt beam="1">  1        2 0.52852505E-01 0.76075173E+02</pdfrwt>
<pdfrwt beam="2">  1       -1 0.64793825E-03 0.76075173E+02</pdfrwt>
<totfact> 0.30527628E+05</totfact>
</mgrwt>
</event>
<event>
 8    1  0.1226832E-016  0.7679801E+02  0.7818608E-02  0.1338392E+00
          2   -1    0    0  501    0  0.00000000000E+00  0.00000000000E+00  0.25894719973E+02  0.25894720099E+02  0.25500000000E-02 0. -1.
         -1   -1    0    0    0  501 -0.00000000000E+00 -0.00000000000E+00 -0.56941478398E+02  0.56941478621E+02  0.50400000000E-02 0.  1.
         24    2    1    2    0    0 -0.71054273576E-14  0.00000000000E+00 -0.31046758425E+02  0.82836198720E+02  0.76798011756E+02 0.  0.
         66    2    3    3    0    0 -0.37892005414E+02 -0.71028462917E+00 -0.90468548044E+01  0.39014794111E+02  0.19999997832E+01 0.  0.
        -13    1    3    3    0    0  0.37892005414E+02  0.71028462917E+00 -0.21999903621E+02  0.43821404609E+02  0.10566000000E+00 0.  1.
         13    1    4    4    0    0 -0.18135367667E+02 -0.56882470447E+00 -0.39110262358E+01  0.18561314937E+02  0.10566000000E+00 0. -1.
        -13    1    4    4    0    0 -0.26311646034E+01  0.37308118260E+00 -0.52817380099E+00  0.27115214067E+01  0.10566000000E+00 0.  1.
         14    1    4    4    0    0 -0.17125473144E+02 -0.51454110729E+00 -0.46076547676E+01  0.17741957767E+02  0.00000000000E+00 0. -1.
<mgrwt>
<rscale>  0 0.76798012E+02</rscale>
<asrwt>0</asrwt>
<pdfrwt beam="1">  1        2 0.39838031E-02 0.76798012E+02</pdfrwt>
<pdfrwt beam="2">  1       -1 0.87602275E-02 0.76798012E+02</pdfrwt>
<totfact> 0.14663769E+05</totfact>
</mgrwt>
</event>
<event>
 8    1  0.1226832E-016  0.8065775E+02  0.7818608E-02  0.1327195E+00
         -1   -1    0    0    0  501 -0.00000000000E+00  0.00000000000E+00  0.46772309701E+02  0.46772309973E+02  0.50400000000E-02 0.  1.
          2   -1    0    0  501    0  0.00000000000E+00 -0.00000000000E+00 -0.34773102293E+02  0.34773102387E+02  0.25500000000E-02 0. -1.
         24    2    1    2    0    0  0.35527136788E-14  0.00000000000E+00  0.11999207408E+02  0.81545412359E+02  0.80657754112E+02 0.  0.
         66    2    3    3    0    0  0.24475052042E+02  0.31808420639E+02  0.97329959256E+01  0.41346523389E+02  0.19999976645E+01 0.  0.
        -13    1    3    3    0    0 -0.24475052042E+02 -0.31808420639E+02  0.22662114826E+01  0.40198888971E+02  0.10566000000E+00 0.  1.
         13    1    4    4    0    0  0.21109349472E+02  0.26550910495E+02  0.83709119912E+01  0.34937641804E+02  0.10566000000E+00 0. -1.
        -13    1    4    4    0    0  0.27397876754E+01  0.45828462264E+01  0.12153091898E+01  0.54769568652E+01  0.10566000000E+00 0.  1.
         14    1    4    4    0    0  0.62591489475E+00  0.67466391707E+00  0.14677474462E+00  0.93192471913E+00  0.00000000000E+00 0. -1.
<mgrwt>
<rscale>  0 0.80657754E+02</rscale>
<asrwt>0</asrwt>
<pdfrwt beam="1">  1        2 0.53497080E-02 0.80657754E+02</pdfrwt>
<pdfrwt beam="2">  1       -1 0.71957400E-02 0.80657754E+02</pdfrwt>
<totfact> 0.13543602E+05</totfact>
</mgrwt>
</event>
<event>
 8    1  0.1226832E-016  0.8033997E+02  0.7818608E-02  0.1328089E+00
          2   -1    0    0  501    0  0.00000000000E+00  0.00000000000E+00  0.53456438155E+02  0.53456438216E+02  0.25500000000E-02 0. -1.
         -1   -1    0    0    0  501 -0.00000000000E+00 -0.00000000000E+00 -0.30185844217E+02  0.30185844638E+02  0.50400000000E-02 0.  1.
         24    2    1    2    0    0  0.00000000000E+00 -0.27755575616E-16  0.23270593938E+02  0.83642282854E+02  0.80339970990E+02 0.  0.
         66    2    3    3    0    0  0.39682410428E+02 -0.21756553178E+00  0.17965148613E+02  0.43606049936E+02  0.19999985434E+01 0.  0.
        -13    1    3    3    0    0 -0.39682410428E+02  0.21756553178E+00  0.53054453251E+01  0.40036232918E+02  0.10566000000E+00 0.  1.
         13    1    4    4    0    0  0.11529870196E+02 -0.53202024122E+00  0.47992312031E+01  0.12500589444E+02  0.10566000000E+00 0. -1.
        -13    1    4    4    0    0  0.18171223495E+02 -0.38640553258E+00  0.84396005623E+01  0.20039478392E+02  0.10566000000E+00 0.  1.
        -14    1    4    4    0    0  0.99813167373E+01  0.70086024202E+00  0.47263168475E+01  0.11065982100E+02  0.00000000000E+00 0.  1.
<mgrwt>
<rscale>  0 0.80339971E+02</rscale>
<asrwt>0</asrwt>
<pdfrwt beam="1">  1        2 0.82240674E-02 0.80339971E+02</pdfrwt>
<pdfrwt beam="2">  1       -1 0.46439761E-02 0.80339971E+02</pdfrwt>
<totfact> 0.14989542E+05</totfact>
</mgrwt>
</event>
<event>
 8    1  0.1226832E-016  0.8129939E+02  0.7818608E-02  0.1325404E+00
          2   -1    0    0  501    0  0.00000000000E+00  0.00000000000E+00  0.18102393132E+03  0.18102393134E+03  0.25500000000E-02 0. -1.
         -1   -1    0    0    0  501 -0.00000000000E+00 -0.00000000000E+00 -0.91280610823E+01  0.91280624737E+01  0.50400000000E-02 0.  1.
         24    2    1    2    0    0  0.00000000000E+00  0.00000000000E+00  0.17189587024E+03  0.19015199381E+03  0.81299388349E+02 0.  0.
         66    2    3    3    0    0 -0.15568524621E+01 -0.39721248889E+02  0.10559524759E+03  0.11284749763E+03  0.20000010579E+01 0.  0.
        -13    1    3    3    0    0  0.15568524621E+01  0.39721248889E+02  0.66300622652E+02  0.77304496188E+02  0.10566000000E+00 0.  1.
         13    1    4    4    0    0 -0.13825279570E-01 -0.37430924942E+01  0.11018497106E+02  0.11637412731E+02  0.10566000000E+00 0. -1.
        -13    1    4    4    0    0  0.23272938491E+00 -0.47631352286E+01  0.12908777482E+02  0.13761879242E+02  0.10566000000E+00 0.  1.
        -14    1    4    4    0    0 -0.17757565674E+01 -0.31215021166E+02  0.81667973000E+02  0.87448205652E+02  0.00000000000E+00 0.  1.
<mgrwt>
<rscale>  0 0.81299388E+02</rscale>
<asrwt>0</asrwt>
<pdfrwt beam="1">  1        2 0.27849835E-01 0.81299388E+02</pdfrwt>
<pdfrwt beam="2">  1       -1 0.14043173E-02 0.81299388E+02</pdfrwt>
<totfact> 0.20425922E+05</totfact>
</mgrwt>
</event>
<event>
 8    1  0.1226832E-016  0.8960753E+02  0.7818608E-02  0.1303805E+00
         -1   -1    0    0    0  501 -0.00000000000E+00  0.00000000000E+00  0.84338467274E+01  0.84338482333E+01  0.50400000000E-02 0.  1.
          2   -1    0    0  501    0  0.00000000000E+00 -0.00000000000E+00 -0.23801440903E+03  0.23801440904E+03  0.25500000000E-02 0. -1.
         24    2    1    2    0    0  0.00000000000E+00 -0.17763568394E-14 -0.22958056230E+03  0.24644825727E+03  0.89607527182E+02 0.  0.
         66    2    3    3    0    0  0.41670498966E+02 -0.14002221020E+02 -0.13832653498E+03  0.14515757980E+03  0.20000038562E+01 0.  0.
        -13    1    3    3    0    0 -0.41670498966E+02  0.14002221020E+02 -0.91254027317E+02  0.10129067747E+03  0.10566000000E+00 0.  1.
         13    1    4    4    0    0  0.11323305350E+02 -0.40068333053E+01 -0.37029545892E+02  0.38929043017E+02  0.10566000000E+00 0. -1.
        -13    1    4    4    0    0  0.28946880163E+02 -0.92734144898E+01 -0.95449928360E+02  0.10017294083E+03  0.10566000000E+00 0.  1.
        -14    1    4    4    0    0  0.14003134531E+01 -0.72197322534E+00 -0.58470607305E+01  0.60555959485E+01  0.00000000000E+00 0.  1.
<mgrwt>
<rscale>  0 0.89607527E+02</rscale>
<asrwt>0</asrwt>
<pdfrwt beam="1">  1        2 0.36617596E-01 0.89607527E+02</pdfrwt>
<pdfrwt beam="2">  1       -1 0.12975152E-02 0.89607527E+02</pdfrwt>
<totfact> 0.17372454E+05</totfact>
</mgrwt>
</event>
<event>
 8    1  0.1226832E-016  0.8129631E+02  0.7818608E-02  0.1325412E+00
         -1   -1    0    0    0  501 -0.00000000000E+00  0.00000000000E+00  0.35891137883E+01  0.35891173270E+01  0.50400000000E-02 0.  1.
          2   -1    0    0  501    0  0.00000000000E+00 -0.00000000000E+00 -0.46035642877E+03  0.46035642878E+03  0.25500000000E-02 0. -1.
         24    2    1    2    0    0  0.00000000000E+00  0.00000000000E+00 -0.45676731498E+03  0.46394554610E+03  0.81296308121E+02 0.  0.
         66    2    3    3    0    0 -0.34774866010E+02  0.20165748137E+02 -0.26195346127E+03  0.26502747889E+03  0.19999972848E+01 0.  0.
        -13    1    3    3    0    0  0.34774866010E+02 -0.20165748137E+02 -0.19481385371E+03  0.19891806721E+03  0.10566000000E+00 0.  1.
         13    1    4    4    0    0 -0.21617874719E+02  0.12089127171E+02 -0.16535189907E+03  0.16719671407E+03  0.10566000000E+00 0. -1.
        -13    1    4    4    0    0 -0.82177304935E+01  0.45908965099E+01 -0.58481805855E+02  0.59234619989E+02  0.10566000000E+00 0.  1.
        -14    1    4    4    0    0 -0.49392607968E+01  0.34857244561E+01 -0.38119756345E+02  0.38596144834E+02  0.00000000000E+00 0.  1.
<mgrwt>
<rscale>  0 0.81296308E+02</rscale>
<asrwt>0</asrwt>
<pdfrwt beam="1">  1        2 0.70824019E-01 0.81296308E+02</pdfrwt>
<pdfrwt beam="2">  1       -1 0.55217199E-03 0.81296308E+02</pdfrwt>
<totfact> 0.28424864E+05</totfact>
</mgrwt>
</event>
<event>
 8    1  0.1226832E-016  0.7826354E+02  0.7818608E-02  0.1334053E+00
          2   -1    0    0  501    0  0.00000000000E+00  0.00000000000E+00  0.83602072531E+03  0.83602072532E+03  0.25500000000E-02 0. -1.
         -1   -1    0    0    0  501 -0.00000000000E+00 -0.00000000000E+00 -0.18316442183E+01  0.18316511524E+01  0.50400000000E-02 0.  1.
         24    2    1    2    0    0  0.00000000000E+00  0.00000000000E+00  0.83418908110E+03  0.83785237647E+03  0.78263540283E+02 0.  0.
         66    2    3    3    0    0 -0.18783277833E+02  0.21695761637E+02  0.70177330793E+03  0.70236265085E+03  0.19999998184E+01 0.  0.
        -13    1    3    3    0    0  0.18783277833E+02 -0.21695761637E+02  0.13241577317E+03  0.13548972562E+03  0.10566000000E+00 0.  1.
         13    1    4    4    0    0 -0.74880536667E+01  0.89325989017E+01  0.30057575393E+03  0.30080169096E+03  0.10566000000E+00 0. -1.
        -13    1    4    4    0    0 -0.11119865730E+02  0.12461693366E+02  0.38894117500E+03  0.38929961981E+03  0.10566000000E+00 0.  1.
         14    1    4    4    0    0 -0.17535843633E+00  0.30146936985E+00  0.12256378999E+02  0.12261340079E+02  0.00000000000E+00 0. -1.
<mgrwt>
<rscale>  0 0.78263540E+02</rscale>
<asrwt>0</asrwt>
<pdfrwt beam="1">  1        2 0.12861851E+00 0.78263540E+02</pdfrwt>
<pdfrwt beam="2">  1       -1 0.28179208E-03 0.78263540E+02</pdfrwt>
<totfact> 0.36638864E+05</totfact>
</mgrwt>
</event>
<event>
 8    1  0.1226832E-016  0.7941942E+02  0.7818608E-02  0.1330707E+00
          2   -1    0    0  501    0  0.00000000000E+00  0.00000000000E+00  0.18518240976E+03  0.18518240978E+03  0.25500000000E-02 0. -1.
         -1   -1    0    0    0  501 -0.00000000000E+00 -0.00000000000E+00 -0.85151755906E+01  0.85151770821E+01  0.50400000000E-02 0.  1.
         24    2    1    2    0    0  0.00000000000E+00  0.00000000000E+00  0.17666723417E+03  0.19369758686E+03  0.79419415298E+02 0.  0.
         66    2    3    3    0    0  0.12337307812E+02  0.32717313840E+02  0.13416223798E+03  0.13865834946E+03  0.19999961884E+01 0.  0.
        -13    1    3    3    0    0 -0.12337307812E+02 -0.32717313840E+02  0.42504996186E+02  0.55039237401E+02  0.10566000000E+00 0.  1.
         13    1    4    4    0    0  0.75513985715E+01  0.18786184249E+02  0.74343966275E+02  0.77051806109E+02  0.10566000000E+00 0. -1.
        -13    1    4    4    0    0  0.70420026927E+00  0.21108427255E+01  0.86230347135E+01  0.89061465706E+01  0.10566000000E+00 0.  1.
         14    1    4    4    0    0  0.40817089717E+01  0.11820286865E+02  0.51195236996E+02  0.52700396780E+02  0.00000000000E+00 0. -1.
<mgrwt>
<rscale>  0 0.79419415E+02</rscale>
<asrwt>0</asrwt>
<pdfrwt beam="1">  1        2 0.28489603E-01 0.79419415E+02</pdfrwt>
<pdfrwt beam="2">  1       -1 0.13100271E-02 0.79419415E+02</pdfrwt>
<totfact> 0.21898413E+05</totfact>
</mgrwt>
</event>
<event>
 8    1  0.1226832E-016  0.8005342E+02  0.7818608E-02  0.1328900E+00
          2   -1    0    0  501    0  0.00000000000E+00  0.00000000000E+00  0.15066123635E+03  0.15066123637E+03  0.25500000000E-02 0. -1.
         -1   -1    0    0    0  501 -0.00000000000E+00 -0.00000000000E+00 -0.10634039831E+02  0.10634041026E+02  0.50400000000E-02 0.  1.
         24    2    1    2    0    0  0.35527136788E-14  0.00000000000E+00  0.14002719652E+03  0.16129527740E+03  0.80053424322E+02 0.  0.
         66    2    3    3    0    0 -0.21883846956E+02  0.31001877747E+02  0.95552220750E+02  0.10283115323E+03  0.20000005471E+01 0.  0.
        -13    1    3    3    0    0  0.21883846956E+02 -0.31001877747E+02  0.44474975770E+02  0.58464124172E+02  0.10566000000E+00 0.  1.
         13    1    4    4    0    0 -0.24475573588E+01  0.40035975190E+01  0.11220706003E+02  0.12162842487E+02  0.10566000000E+00 0. -1.
        -13    1    4    4    0    0 -0.78135333272E+01  0.11949306787E+02  0.37179343928E+02  0.39826524010E+02  0.10566000000E+00 0.  1.
         14    1    4    4    0    0 -0.11622756270E+02  0.15048973441E+02  0.47152170818E+02  0.50841786729E+02  0.00000000000E+00 0. -1.
<mgrwt>
<rscale>  0 0.80053424E+02</rscale>
<asrwt>0</asrwt>
<pdfrwt beam="1">  1        2 0.23178653E-01 0.80053424E+02</pdfrwt>
<pdfrwt beam="2">  1       -1 0.16360062E-02 0.80053424E+02</pdfrwt>
<totfact> 0.20022940E+05</totfact>
</mgrwt>
</event>
<event>
 8    1  0.1226832E-016  0.8023569E+02  0.7818608E-02  0.1328384E+00
         -1   -1    0    0    0  501 -0.00000000000E+00  0.00000000000E+00  0.27447933945E+01  0.27447980217E+01  0.50400000000E-02 0.  1.
          2   -1    0    0  501    0  0.00000000000E+00 -0.00000000000E+00 -0.58636116144E+03  0.58636116145E+03  0.25500000000E-02 0. -1.
         24    2    1    2    0    0  0.00000000000E+00  0.00000000000E+00 -0.58361636805E+03  0.58910595947E+03  0.80235692988E+02 0.  0.
         66    2    3    3    0    0  0.22509769697E+02 -0.15858467385E+02 -0.50595515201E+03  0.50670780197E+03  0.20000017257E+01 0.  0.
        -13    1    3    3    0    0 -0.22509769697E+02  0.15858467385E+02 -0.77661216031E+02  0.82398157498E+02  0.10566000000E+00 0.  1.
         13    1    4    4    0    0  0.16144211739E+02 -0.10312012750E+02 -0.35392664721E+03  0.35444471494E+03  0.10566000000E+00 0. -1.
        -13    1    4    4    0    0  0.40669969978E+01 -0.33719736892E+01 -0.95892337141E+02  0.96037816289E+02  0.10566000000E+00 0.  1.
         14    1    4    4    0    0  0.22985609595E+01 -0.21744809457E+01 -0.56136167669E+02  0.56225270746E+02  0.00000000000E+00 0. -1.
<mgrwt>
<rscale>  0 0.80235693E+02</rscale>
<asrwt>0</asrwt>
<pdfrwt beam="1">  1        2 0.90209310E-01 0.80235693E+02</pdfrwt>
<pdfrwt beam="2">  1       -1 0.42227673E-03 0.80235693E+02</pdfrwt>
<totfact> 0.31712283E+05</totfact>
</mgrwt>
</event>
<event>
 8    1  0.1226832E-016  0.7991678E+02  0.7818608E-02  0.1329288E+00
          2   -1    0    0  501    0  0.00000000000E+00  0.00000000000E+00  0.16631641736E+02  0.16631641931E+02  0.25500000000E-02 0. -1.
         -1   -1    0    0    0  501 -0.00000000000E+00 -0.00000000000E+00 -0.96002120515E+02  0.96002120648E+02  0.50400000000E-02 0.  1.
         24    2    1    2    0    0  0.35527136788E-14  0.88817841970E-15 -0.79370478780E+02  0.11263376258E+03  0.79916779033E+02 0.  0.
         66    2    3    3    0    0 -0.29078577301E+02 -0.76726812850E+01 -0.26821431781E+01  0.30259338894E+02  0.20000005776E+01 0.  0.
        -13    1    3    3    0    0  0.29078577301E+02  0.76726812850E+01 -0.76688335602E+02  0.82374423685E+02  0.10566000000E+00 0.  1.
         13    1    4    4    0    0 -0.18589707415E+02 -0.50071072522E+01 -0.80386635833E+00  0.19269294485E+02  0.10566000000E+00 0. -1.
        -13    1    4    4    0    0 -0.41964108311E+01 -0.10828350012E+01 -0.91172697971E+00  0.44299893481E+01  0.10566000000E+00 0.  1.
         14    1    4    4    0    0 -0.62924590555E+01 -0.15827390316E+01 -0.96654984005E+00  0.65600550608E+01  0.00000000000E+00 0. -1.
<mgrwt>
<rscale>  0 0.79916779E+02</rscale>
<asrwt>0</asrwt>
<pdfrwt beam="1">  1        2 0.25587142E-02 0.79916779E+02</pdfrwt>
<pdfrwt beam="2">  1       -1 0.14769557E-01 0.79916779E+02</pdfrwt>
<totfact> 0.11987440E+05</totfact>
</mgrwt>
</event>
<event>
 8    1  0.1226832E-016  0.7742456E+02  0.7818608E-02  0.1336523E+00
         -1   -1    0    0    0  501 -0.00000000000E+00  0.00000000000E+00  0.32455621976E+01  0.32455661109E+01  0.50400000000E-02 0.  1.
          2   -1    0    0  501    0  0.00000000000E+00 -0.00000000000E+00 -0.46175040078E+03  0.46175040078E+03  0.25500000000E-02 0. -1.
         24    2    1    2    0    0  0.00000000000E+00 -0.22204460493E-15 -0.45850483858E+03  0.46499596689E+03  0.77424558299E+02 0.  0.
         66    2    3    3    0    0 -0.27489685429E+02  0.58686023904E+00 -0.39284738280E+03  0.39381352613E+03  0.19999948738E+01 0.  0.
        -13    1    3    3    0    0  0.27489685429E+02 -0.58686023904E+00 -0.65657455781E+02  0.71182440767E+02  0.10566000000E+00 0.  1.
         13    1    4    4    0    0 -0.10874212305E+02 -0.27637007119E-01 -0.15818396256E+03  0.15855732853E+03  0.10566000000E+00 0. -1.
        -13    1    4    4    0    0 -0.11007641806E+01 -0.30685788919E+00 -0.15730537331E+02  0.15772343273E+02  0.10566000000E+00 0.  1.
        -14    1    4    4    0    0 -0.15514708943E+02  0.92135513535E+00 -0.21893288291E+03  0.21948385432E+03  0.00000000000E+00 0.  1.
<mgrwt>
<rscale>  0 0.77424558E+02</rscale>
<asrwt>0</asrwt>
<pdfrwt beam="1">  1        2 0.71038471E-01 0.77424558E+02</pdfrwt>
<pdfrwt beam="2">  1       -1 0.49931793E-03 0.77424558E+02</pdfrwt>
<totfact> 0.32311965E+05</totfact>
</mgrwt>
</event>
<event>
 8    1  0.1226832E-016  0.8206598E+02  0.7818608E-02  0.1323289E+00
         -1   -1    0    0    0  501 -0.00000000000E+00  0.00000000000E+00  0.73695041265E+02  0.73695041437E+02  0.50400000000E-02 0.  1.
          2   -1    0    0  501    0  0.00000000000E+00 -0.00000000000E+00 -0.22846942406E+02  0.22846942549E+02  0.25500000000E-02 0. -1.
         24    2    1    2    0    0  0.00000000000E+00  0.17763568394E-14  0.50848098858E+02  0.96541983986E+02  0.82065982687E+02 0.  0.
         66    2    3    3    0    0  0.12767813768E+01 -0.12271032564E+02 -0.20568196513E+02  0.24067803621E+02  0.20000131164E+01 0.  0.
        -13    1    3    3    0    0 -0.12767813768E+01  0.12271032564E+02  0.71416295372E+02  0.72474180365E+02  0.10566000000E+00 0.  1.
         13    1    4    4    0    0  0.46117695778E+00 -0.12730153453E+01 -0.16591031072E+01  0.21440707571E+01  0.10566000000E+00 0. -1.
        -13    1    4    4    0    0  0.10410939709E+01 -0.84756312056E+01 -0.13977650229E+02  0.16380051006E+02  0.10566000000E+00 0.  1.
        -14    1    4    4    0    0 -0.22548955192E+00 -0.25223860134E+01 -0.49314431773E+01  0.55436818586E+01  0.00000000000E+00 0.  1.
<mgrwt>
<rscale>  0 0.82065983E+02</rscale>
<asrwt>0</asrwt>
<pdfrwt beam="1">  1        2 0.35149142E-02 0.82065983E+02</pdfrwt>
<pdfrwt beam="2">  1       -1 0.11337699E-01 0.82065983E+02</pdfrwt>
<totfact> 0.11856103E+05</totfact>
</mgrwt>
</event>
<event>
 8    1  0.1226832E-016  0.8031977E+02  0.7818608E-02  0.1328146E+00
         -1   -1    0    0    0  501 -0.00000000000E+00  0.00000000000E+00  0.46430897042E+01  0.46430924396E+01  0.50400000000E-02 0.  1.
          2   -1    0    0  501    0  0.00000000000E+00 -0.00000000000E+00 -0.34735831420E+03  0.34735831421E+03  0.25500000000E-02 0. -1.
         24    2    1    2    0    0 -0.35527136788E-14  0.35527136788E-14 -0.34271522450E+03  0.35200140665E+03  0.80319768311E+02 0.  0.
         66    2    3    3    0    0 -0.24217030934E+02 -0.28842451932E+02 -0.23226192238E+03  0.23530395709E+03  0.20000037199E+01 0.  0.
        -13    1    3    3    0    0  0.24217030934E+02  0.28842451932E+02 -0.11045330211E+03  0.11669744955E+03  0.10566000000E+00 0.  1.
         13    1    4    4    0    0 -0.21030155448E+01 -0.27102424463E+01 -0.21645345637E+02  0.21915753245E+02  0.10566000000E+00 0.  1.
        -13    1    4    4    0    0 -0.22707322959E+01 -0.33149743106E+01 -0.27318318729E+02  0.27612442523E+02  0.10566000000E+00 0.  1.
         14    1    4    4    0    0 -0.19843283094E+02 -0.22817235175E+02 -0.18329825802E+03  0.18577576133E+03  0.00000000000E+00 0. -1.
<mgrwt>
<rscale>  0 0.80319768E+02</rscale>
<asrwt>0</asrwt>
<pdfrwt beam="1">  1        2 0.53439720E-01 0.80319768E+02</pdfrwt>
<pdfrwt beam="2">  1       -1 0.71432198E-03 0.80319768E+02</pdfrwt>
<totfact> 0.26597589E+05</totfact>
</mgrwt>
</event>
<event>
 8    1  0.1226832E-016  0.8013623E+02  0.7818608E-02  0.1328665E+00
          2   -1    0    0  501    0  0.00000000000E+00  0.00000000000E+00  0.24886076250E+02  0.24886076381E+02  0.25500000000E-02 0. -1.
         -1   -1    0    0    0  501 -0.00000000000E+00 -0.00000000000E+00 -0.64512138607E+02  0.64512138804E+02  0.50400000000E-02 0.  1.
         24    2    1    2    0    0  0.00000000000E+00  0.00000000000E+00 -0.39626062357E+02  0.89398215184E+02  0.80136234378E+02 0.  0.
         66    2    3    3    0    0 -0.33639735935E+02  0.14530081628E+02 -0.18131946459E+01  0.36742928323E+02  0.20000002533E+01 0.  0.
        -13    1    3    3    0    0  0.33639735935E+02 -0.14530081628E+02 -0.37812867711E+02  0.52655286861E+02  0.10566000000E+00 0.  1.
         13    1    4    4    0    0 -0.14429381583E+02  0.66675626196E+01 -0.20233652293E+00  0.15897029542E+02  0.10566000000E+00 0. -1.
        -13    1    4    4    0    0 -0.19366055853E+01  0.10177901152E+01  0.54311067190E-01  0.21909932997E+01  0.10566000000E+00 0.  1.
        -14    1    4    4    0    0 -0.17273748767E+02  0.68447288931E+01 -0.16651691902E+01  0.18654905481E+02  0.00000000000E+00 0.  1.
<mgrwt>
<rscale>  0 0.80136234E+02</rscale>
<asrwt>0</asrwt>
<pdfrwt beam="1">  1        2 0.38286271E-02 0.80136234E+02</pdfrwt>
<pdfrwt beam="2">  1       -1 0.99249444E-02 0.80136234E+02</pdfrwt>
<totfact> 0.12906325E+05</totfact>
</mgrwt>
</event>
<event>
 8    1  0.1226832E-016  0.7809968E+02  0.7818608E-02  0.1334532E+00
          2   -1    0    0  501    0  0.00000000000E+00  0.00000000000E+00  0.32411789660E+03  0.32411789661E+03  0.25500000000E-02 0. -1.
         -1   -1    0    0    0  501 -0.00000000000E+00 -0.00000000000E+00 -0.47047375869E+01  0.47047402865E+01  0.50400000000E-02 0.  1.
         24    2    1    2    0    0  0.00000000000E+00  0.17763568394E-14  0.31941315901E+03  0.32882263690E+03  0.78099682361E+02 0.  0.
         66    2    3    3    0    0  0.64032432755E+01 -0.15867351037E+02  0.30747839644E+03  0.30796061219E+03  0.20000063313E+01 0.  0.
        -13    1    3    3    0    0 -0.64032432755E+01  0.15867351037E+02  0.11934762570E+02  0.20862024711E+02  0.10566000000E+00 0.  1.
         13    1    4    4    0    0  0.49531275092E+01 -0.13595747924E+02  0.25670595764E+03  0.25711347240E+03  0.10566000000E+00 0. -1.
        -13    1    4    4    0    0  0.25269681439E+00 -0.79047979656E+00  0.13236352028E+02  0.13262763401E+02  0.10566000000E+00 0.  1.
        -14    1    4    4    0    0  0.11974189519E+01 -0.14811233171E+01  0.37536086773E+02  0.37584376390E+02  0.00000000000E+00 0.  1.
<mgrwt>
<rscale>  0 0.78099682E+02</rscale>
<asrwt>0</asrwt>
<pdfrwt beam="1">  1        2 0.49864272E-01 0.78099682E+02</pdfrwt>
<pdfrwt beam="2">  1       -1 0.72380628E-03 0.78099682E+02</pdfrwt>
<totfact> 0.27918517E+05</totfact>
</mgrwt>
</event>
<event>
 8    1  0.1226832E-016  0.8133762E+02  0.7818608E-02  0.1325298E+00
          2   -1    0    0  501    0  0.00000000000E+00  0.00000000000E+00  0.16672313849E+03  0.16672313850E+03  0.25500000000E-02 0. -1.
         -1   -1    0    0    0  501 -0.00000000000E+00 -0.00000000000E+00 -0.99203512996E+01  0.99203525799E+01  0.50400000000E-02 0.  1.
         24    2    1    2    0    0  0.00000000000E+00 -0.88817841970E-15  0.15680278719E+03  0.17664349108E+03  0.81337622742E+02 0.  0.
         66    2    3    3    0    0  0.39992323847E+02 -0.51794053919E+01  0.89465794630E+02  0.98154676994E+02  0.20000000420E+01 0.  0.
        -13    1    3    3    0    0 -0.39992323847E+02  0.51794053919E+01  0.67336992556E+02  0.78488814090E+02  0.10566000000E+00 0.  1.
         13    1    4    4    0    0  0.11422240207E+02 -0.14488012148E+01  0.25557797715E+02  0.28031746010E+02  0.10566000000E+00 0. -1.
        -13    1    4    4    0    0  0.14636342993E+02 -0.27222577377E+01  0.32407095881E+02  0.35663205841E+02  0.10566000000E+00 0.  1.
        -14    1    4    4    0    0  0.13933740647E+02 -0.10083464394E+01  0.31500901034E+02  0.34459725143E+02  0.00000000000E+00 0.  1.
<mgrwt>
<rscale>  0 0.81337623E+02</rscale>
<asrwt>0</asrwt>
<pdfrwt beam="1">  1        2 0.25649713E-01 0.81337623E+02</pdfrwt>
<pdfrwt beam="2">  1       -1 0.15262081E-02 0.81337623E+02</pdfrwt>
<totfact> 0.19843159E+05</totfact>
</mgrwt>
</event>
<event>
 8    1  0.1347213E-016  0.7948630E+02  0.7818608E-02  0.1330516E+00
          2   -1    0    0  501    0  0.00000000000E+00  0.00000000000E+00  0.10555942299E+04  0.10555942299E+04  0.25500000000E-02 0. -1.
         -1   -1    0    0    0  501 -0.00000000000E+00 -0.00000000000E+00 -0.14963265509E+01  0.14963350389E+01  0.50400000000E-02 0.  1.
         24    2    1    2    0    0  0.17763568394E-14  0.17763568394E-14  0.10540979034E+04  0.10570905650E+04  0.79486304760E+02 0.  0.
         66    2    3    3    0    0  0.11372467077E+02  0.14131649260E+02  0.99728674298E+03  0.99745370030E+03  0.19999986512E+01 0.  0.
        -13    1    3    3    0    0 -0.11372467077E+02 -0.14131649260E+02  0.56811160387E+02  0.59636864663E+02  0.10566000000E+00 0.  1.
         13    1    4    4    0    0  0.42298262195E+01  0.50076439979E+01  0.36480980030E+03  0.36486870171E+03  0.10566000000E+00 0. -1.
        -13    1    4    4    0    0  0.41637477403E+01  0.43817076682E+01  0.35625409677E+03  0.35630538697E+03  0.10566000000E+00 0.  1.
        -14    1    4    4    0    0  0.29788931175E+01  0.47422975942E+01  0.27622284591E+03  0.27627961162E+03  0.00000000000E+00 0.  1.
<mgrwt>
<rscale>  0 0.79486305E+02</rscale>
<asrwt>0</asrwt>
<pdfrwt beam="1">  1        2 0.16239894E+00 0.79486305E+02</pdfrwt>
<pdfrwt beam="2">  1       -1 0.23020499E-03 0.79486305E+02</pdfrwt>
<totfact> 0.35868024E+05</totfact>
</mgrwt>
</event>
<event>
 8    1  0.1226832E-016  0.7793323E+02  0.7818608E-02  0.1335021E+00
          2   -1    0    0  501    0  0.00000000000E+00  0.00000000000E+00  0.96995049800E+02  0.96995049834E+02  0.25500000000E-02 0. -1.
         -1   -1    0    0    0  501 -0.00000000000E+00 -0.00000000000E+00 -0.15654377913E+02  0.15654378725E+02  0.50400000000E-02 0.  1.
         24    2    1    2    0    0  0.17763568394E-14  0.00000000000E+00  0.81340671887E+02  0.11264942856E+03  0.77933233293E+02 0.  0.
         66    2    3    3    0    0  0.10864970383E+02  0.43325154525E+00  0.94745623794E+02  0.95388513519E+02  0.19999987639E+01 0.  0.
        -13    1    3    3    0    0 -0.10864970383E+02 -0.43325154525E+00 -0.13404951906E+02  0.17260915039E+02  0.10566000000E+00 0.  1.
         13    1    4    4    0    0  0.42328719945E+01  0.33051084830E+00  0.36273631523E+02  0.36521417697E+02  0.10566000000E+00 0. -1.
        -13    1    4    4    0    0  0.50487736839E+01 -0.39002480115E+00  0.47711127136E+02  0.47979214788E+02  0.10566000000E+00 0.  1.
        -14    1    4    4    0    0  0.15833247049E+01  0.49276549810E+00  0.10760865135E+02  0.10887881034E+02  0.00000000000E+00 0.  1.
<mgrwt>
<rscale>  0 0.77933233E+02</rscale>
<asrwt>0</asrwt>
<pdfrwt beam="1">  1        2 0.14922315E-01 0.77933233E+02</pdfrwt>
<pdfrwt beam="2">  1       -1 0.24083659E-02 0.77933233E+02</pdfrwt>
<totfact> 0.18851582E+05</totfact>
</mgrwt>
</event>
<event>
 8    1  0.1226832E-016  0.8066582E+02  0.7818608E-02  0.1327172E+00
         -1   -1    0    0    0  501 -0.00000000000E+00  0.00000000000E+00  0.26378071063E+02  0.26378071544E+02  0.50400000000E-02 0.  1.
          2   -1    0    0  501    0  0.00000000000E+00 -0.00000000000E+00 -0.61670297885E+02  0.61670297938E+02  0.25500000000E-02 0. -1.
         24    2    1    2    0    0  0.00000000000E+00 -0.71054273576E-14 -0.35292226822E+02  0.88048369482E+02  0.80665817385E+02 0.  0.
         66    2    3    3    0    0  0.82473019630E+01 -0.33116035416E+02 -0.41068671734E+02  0.53435246664E+02  0.19999991782E+01 0.  0.
        -13    1    3    3    0    0 -0.82473019630E+01  0.33116035416E+02  0.57764449123E+01  0.34613122818E+02  0.10566000000E+00 0.  1.
         13    1    4    4    0    0  0.95957067796E+00 -0.35021288194E+01 -0.37289127946E+01  0.52059232437E+01  0.10566000000E+00 0. -1.
        -13    1    4    4    0    0  0.37831005392E+01 -0.17269260505E+02 -0.22353323950E+02  0.28499499359E+02  0.10566000000E+00 0.  1.
         14    1    4    4    0    0  0.35046307458E+01 -0.12344646092E+02 -0.14986434989E+02  0.19729824061E+02  0.00000000000E+00 0. -1.
<mgrwt>
<rscale>  0 0.80665817E+02</rscale>
<asrwt>0</asrwt>
<pdfrwt beam="1">  1        2 0.94877381E-02 0.80665817E+02</pdfrwt>
<pdfrwt beam="2">  1       -1 0.40581649E-02 0.80665817E+02</pdfrwt>
<totfact> 0.15316527E+05</totfact>
</mgrwt>
</event>
<event>
 8    1  0.1226832E-016  0.8094754E+02  0.7818608E-02  0.1326384E+00
          2   -1    0    0  501    0  0.00000000000E+00  0.00000000000E+00  0.62276429314E+02  0.62276429366E+02  0.25500000000E-02 0. -1.
         -1   -1    0    0    0  501 -0.00000000000E+00 -0.00000000000E+00 -0.26304106647E+02  0.26304107130E+02  0.50400000000E-02 0.  1.
         24    2    1    2    0    0  0.22204460493E-15  0.17763568394E-14  0.35972322667E+02  0.88580536496E+02  0.80947535156E+02 0.  0.
         66    2    3    3    0    0  0.17197833291E+01  0.11161963612E+02  0.60499951146E+02  0.61577521679E+02  0.20000002897E+01 0.  0.
        -13    1    3    3    0    0 -0.17197833291E+01 -0.11161963612E+02 -0.24527628478E+02  0.27003014817E+02  0.10566000000E+00 0.  1.
         13    1    4    4    0    0  0.12672284892E+01  0.59761675382E+01  0.33312795677E+02  0.33868480425E+02  0.10566000000E+00 0. -1.
        -13    1    4    4    0    0 -0.41156447715E+00  0.13191138018E+01  0.65529398437E+01  0.66978825887E+01  0.10566000000E+00 0.  1.
        -14    1    4    4    0    0  0.86411931700E+00  0.38666822719E+01  0.20634215625E+02  0.21011158665E+02  0.00000000000E+00 0.  1.
<mgrwt>
<rscale>  0 0.80947535E+02</rscale>
<asrwt>0</asrwt>
<pdfrwt beam="1">  1        2 0.95809891E-02 0.80947535E+02</pdfrwt>
<pdfrwt beam="2">  1       -1 0.40467857E-02 0.80947535E+02</pdfrwt>
<totfact> 0.15206740E+05</totfact>
</mgrwt>
</event>
<event>
 8    1  0.1226832E-016  0.7948412E+02  0.7818608E-02  0.1330522E+00
          2   -1    0    0  501    0  0.00000000000E+00  0.00000000000E+00  0.21868069197E+03  0.21868069199E+03  0.25500000000E-02 0. -1.
         -1   -1    0    0    0  501 -0.00000000000E+00 -0.00000000000E+00 -0.72225451844E+01  0.72225469429E+01  0.50400000000E-02 0.  1.
         24    2    1    2    0    0  0.00000000000E+00  0.00000000000E+00  0.21145814679E+03  0.22590323893E+03  0.79484121157E+02 0.  0.
         66    2    3    3    0    0 -0.27332333982E+02 -0.23740690117E+02  0.15221463251E+03  0.15647354790E+03  0.19999986837E+01 0.  0.
        -13    1    3    3    0    0  0.27332333982E+02  0.23740690117E+02  0.59243514273E+02  0.69429691024E+02  0.10566000000E+00 0.  1.
         13    1    4    4    0    0 -0.26529926603E+01 -0.22159914512E+01  0.15263698456E+02  0.15650579630E+02  0.10566000000E+00 0. -1.
        -13    1    4    4    0    0 -0.10770039716E+02 -0.90275687092E+01  0.62365246506E+02  0.63929069194E+02  0.10566000000E+00 0.  1.
         14    1    4    4    0    0 -0.13909301606E+02 -0.12497129956E+02  0.74585687551E+02  0.76893899080E+02  0.00000000000E+00 0. -1.
<mgrwt>
<rscale>  0 0.79484121E+02</rscale>
<asrwt>0</asrwt>
<pdfrwt beam="1">  1        2 0.33643180E-01 0.79484121E+02</pdfrwt>
<pdfrwt beam="2">  1       -1 0.11111611E-02 0.79484121E+02</pdfrwt>
<totfact> 0.23149992E+05</totfact>
</mgrwt>
</event>
<event>
 8    1  0.1299739E-016  0.8305827E+02  0.7818608E-02  0.1320590E+00
         -1   -1    0    0    0  501 -0.00000000000E+00  0.00000000000E+00  0.44554375649E+01  0.44554404156E+01  0.50400000000E-02 0.  1.
          2   -1    0    0  501    0  0.00000000000E+00 -0.00000000000E+00 -0.38709291857E+03  0.38709291858E+03  0.25500000000E-02 0. -1.
         24    2    1    2    0    0  0.00000000000E+00  0.17763568394E-14 -0.38263748101E+03  0.39154835900E+03  0.83058266061E+02 0.  0.
         66    2    3    3    0    0  0.38352556641E+02 -0.80296774349E+01 -0.25594071325E+03  0.25893057570E+03  0.20000040101E+01 0.  0.
        -13    1    3    3    0    0 -0.38352556641E+02  0.80296774349E+01 -0.12669676776E+03  0.13261778330E+03  0.10566000000E+00 0.  1.
         13    1    4    4    0    0  0.25524044850E+02 -0.56806569455E+01 -0.16824302323E+03  0.17026295180E+03  0.10566000000E+00 0. -1.
        -13    1    4    4    0    0  0.10602635897E+02 -0.21898411282E+01 -0.70745417578E+02  0.71569103421E+02  0.10566000000E+00 0.  1.
        -14    1    4    4    0    0  0.22258758948E+01 -0.15917936120E+00 -0.16952272442E+02  0.17098520478E+02  0.00000000000E+00 0.  1.
<mgrwt>
<rscale>  0 0.83058266E+02</rscale>
<asrwt>0</asrwt>
<pdfrwt beam="1">  1        2 0.59552730E-01 0.83058266E+02</pdfrwt>
<pdfrwt beam="2">  1       -1 0.68545246E-03 0.83058266E+02</pdfrwt>
<totfact> 0.25317311E+05</totfact>
</mgrwt>
</event>
<event>
 8    1  0.1226832E-016  0.7441702E+02  0.7818608E-02  0.1345686E+00
          2   -1    0    0  501    0  0.00000000000E+00  0.00000000000E+00  0.12702125304E+03  0.12702125306E+03  0.25500000000E-02 0. -1.
         -1   -1    0    0    0  501 -0.00000000000E+00 -0.00000000000E+00 -0.10899540034E+02  0.10899541199E+02  0.50400000000E-02 0.  1.
         24    2    1    2    0    0 -0.35527136788E-14 -0.35527136788E-14  0.11612171300E+03  0.13792079426E+03  0.74417022641E+02 0.  0.
         66    2    3    3    0    0 -0.23193711114E+02 -0.21419229354E+02  0.94502813107E+02  0.99656978219E+02  0.20000002879E+01 0.  0.
        -13    1    3    3    0    0  0.23193711114E+02  0.21419229354E+02  0.21618899896E+02  0.38263816042E+02  0.10566000000E+00 0.  1.
         13    1    4    4    0    0 -0.72780377808E+01 -0.71493754839E+01  0.29790804382E+02  0.31489467977E+02  0.10566000000E+00 0. -1.
        -13    1    4    4    0    0 -0.93984327920E+01 -0.89342932858E+01  0.41179708980E+02  0.43173275660E+02  0.10566000000E+00 0.  1.
        -14    1    4    4    0    0 -0.65172405417E+01 -0.53355605842E+01  0.23532299745E+02  0.24994234581E+02  0.00000000000E+00 0.  1.
<mgrwt>
<rscale>  0 0.74417023E+02</rscale>
<asrwt>0</asrwt>
<pdfrwt beam="1">  1        2 0.19541730E-01 0.74417023E+02</pdfrwt>
<pdfrwt beam="2">  1       -1 0.16768525E-02 0.74417023E+02</pdfrwt>
<totfact> 0.23030281E+05</totfact>
</mgrwt>
</event>
<event>
 8    1  0.1226832E-016  0.7878230E+02  0.7818608E-02  0.1332543E+00
         -1   -1    0    0    0  501 -0.00000000000E+00  0.00000000000E+00  0.12373893537E+03  0.12373893548E+03  0.50400000000E-02 0.  1.
          2   -1    0    0  501    0  0.00000000000E+00 -0.00000000000E+00 -0.12539807922E+02  0.12539808181E+02  0.25500000000E-02 0. -1.
         24    2    1    2    0    0 -0.35527136788E-14  0.00000000000E+00  0.11119912745E+03  0.13627874366E+03  0.78782295134E+02 0.  0.
         66    2    3    3    0    0  0.30076511824E+02 -0.24284701566E+02  0.42770050009E+02  0.57685530863E+02  0.19999998705E+01 0.  0.
        -13    1    3    3    0    0 -0.30076511824E+02  0.24284701566E+02  0.68429077442E+02  0.78593212794E+02  0.10566000000E+00 0.  1.
         13    1    4    4    0    0  0.27655750382E+00 -0.38535523741E+00  0.61707267303E+00  0.78544600789E+00  0.10566000000E+00 0. -1.
        -13    1    4    4    0    0  0.77682570003E+00 -0.56852018959E+00  0.84588285820E+00  0.12858286121E+01  0.10566000000E+00 0. -1.
         14    1    4    4    0    0  0.29023128620E+02 -0.23330826139E+02  0.41307094478E+02  0.55614256243E+02  0.00000000000E+00 0. -1.
<mgrwt>
<rscale>  0 0.78782295E+02</rscale>
<asrwt>0</asrwt>
<pdfrwt beam="1">  1        2 0.19292012E-02 0.78782295E+02</pdfrwt>
<pdfrwt beam="2">  1       -1 0.19036760E-01 0.78782295E+02</pdfrwt>
<totfact> 0.11748218E+05</totfact>
</mgrwt>
</event>
<event>
 8    1  0.1226832E-016  0.8206989E+02  0.7818608E-02  0.1323278E+00
          2   -1    0    0  501    0  0.00000000000E+00  0.00000000000E+00  0.51505972199E+03  0.51505972199E+03  0.25500000000E-02 0. -1.
         -1   -1    0    0    0  501 -0.00000000000E+00 -0.00000000000E+00 -0.32692633253E+01  0.32692672102E+01  0.50400000000E-02 0.  1.
         24    2    1    2    0    0 -0.35527136788E-14  0.11102230246E-15  0.51179045866E+03  0.51832898920E+03  0.82069893820E+02 0.  0.
         66    2    3    3    0    0  0.24620540665E+02 -0.72388580704E+00  0.46313697944E+03  0.46379581363E+03  0.19999964954E+01 0.  0.
        -13    1    3    3    0    0 -0.24620540665E+02  0.72388580704E+00  0.48653479220E+02  0.54533175568E+02  0.10566000000E+00 0.  1.
         13    1    4    4    0    0  0.69185684897E+01 -0.53967859265E-01  0.13712822777E+03  0.13730270033E+03  0.10566000000E+00 0. -1.
        -13    1    4    4    0    0  0.54058951030E+01 -0.85714123255E+00  0.96627142069E+02  0.96782096182E+02  0.10566000000E+00 0.  1.
        -14    1    4    4    0    0  0.12296077073E+02  0.18722328478E+00  0.22938160960E+03  0.22971101712E+03  0.00000000000E+00 0.  1.
<mgrwt>
<rscale>  0 0.82069894E+02</rscale>
<asrwt>0</asrwt>
<pdfrwt beam="1">  1        2 0.79239932E-01 0.82069894E+02</pdfrwt>
<pdfrwt beam="2">  1       -1 0.50296405E-03 0.82069894E+02</pdfrwt>
<totfact> 0.28756483E+05</totfact>
</mgrwt>
</event>
<event>
 8    1  0.1659516E-016  0.7769382E+02  0.7818608E-02  0.1335726E+00
          2   -1    0    0  501    0  0.00000000000E+00  0.00000000000E+00  0.22778951717E+03  0.22778951718E+03  0.25500000000E-02 0. -1.
         -1   -1    0    0    0  501 -0.00000000000E+00 -0.00000000000E+00 -0.66248982656E+01  0.66249001828E+01  0.50400000000E-02 0.  1.
         24    2    1    2    0    0  0.35527136788E-14  0.00000000000E+00  0.22116461890E+03  0.23441441737E+03  0.77693824815E+02 0.  0.
         66    2    3    3    0    0 -0.27554673191E+02  0.19742375980E+02  0.16774714528E+03  0.17114942644E+03  0.19999996452E+01 0.  0.
        -13    1    3    3    0    0  0.27554673191E+02 -0.19742375980E+02  0.53417473625E+02  0.63264990923E+02  0.10566000000E+00 0.  1.
         13    1    4    4    0    0 -0.16167440516E+02  0.11883030881E+02  0.10117291768E+03  0.10314340983E+03  0.10566000000E+00 0. -1.
        -13    1    4    4    0    0 -0.65423371600E+01  0.43949437201E+01  0.40540519747E+02  0.41299668415E+02  0.10566000000E+00 0.  1.
        -14    1    4    4    0    0 -0.48448955149E+01  0.34644013789E+01  0.26033707857E+02  0.26706348202E+02  0.00000000000E+00 0.  1.
<mgrwt>
<rscale>  0 0.77693825E+02</rscale>
<asrwt>0</asrwt>
<pdfrwt beam="1">  1        2 0.35044541E-01 0.77693825E+02</pdfrwt>
<pdfrwt beam="2">  1       -1 0.10192153E-02 0.77693825E+02</pdfrwt>
<totfact> 0.24935306E+05</totfact>
</mgrwt>
</event>
<event>
 8    1  0.1226832E-016  0.7813135E+02  0.7818608E-02  0.1334440E+00
         -1   -1    0    0    0  501 -0.00000000000E+00  0.00000000000E+00  0.27694826560E+02  0.27694827019E+02  0.50400000000E-02 0.  1.
          2   -1    0    0  501    0  0.00000000000E+00 -0.00000000000E+00 -0.55105132859E+02  0.55105132918E+02  0.25500000000E-02 0. -1.
         24    2    1    2    0    0  0.00000000000E+00  0.00000000000E+00 -0.27410306299E+02  0.82799959937E+02  0.78131353976E+02 0.  0.
         66    2    3    3    0    0 -0.20408071786E+02 -0.29582953840E+02  0.24443194690E+01  0.36077905234E+02  0.19999991243E+01 0.  0.
        -13    1    3    3    0    0  0.20408071786E+02  0.29582953840E+02 -0.29854625768E+02  0.46722054703E+02  0.10566000000E+00 0.  1.
         13    1    4    4    0    0 -0.78005722223E+01 -0.11978212297E+02  0.22212074660E+00  0.14296398095E+02  0.10566000000E+00 0. -1.
        -13    1    4    4    0    0 -0.68256817723E+01 -0.10189269918E+02  0.12329252563E+01  0.12326492682E+02  0.10566000000E+00 0.  1.
         14    1    4    4    0    0 -0.57818177910E+01 -0.74154716248E+01  0.98927346606E+00  0.94550144567E+01  0.00000000000E+00 0. -1.
<mgrwt>
<rscale>  0 0.78131354E+02</rscale>
<asrwt>0</asrwt>
<pdfrwt beam="1">  1        2 0.84777128E-02 0.78131354E+02</pdfrwt>
<pdfrwt beam="2">  1       -1 0.42607426E-02 0.78131354E+02</pdfrwt>
<totfact> 0.16283145E+05</totfact>
</mgrwt>
</event>
<event>
 8    1  0.1226832E-016  0.8118311E+02  0.7818608E-02  0.1325727E+00
          2   -1    0    0  501    0  0.00000000000E+00  0.00000000000E+00  0.60458396165E+02  0.60458396219E+02  0.25500000000E-02 0. -1.
         -1   -1    0    0    0  501 -0.00000000000E+00 -0.00000000000E+00 -0.27253027937E+02  0.27253028403E+02  0.50400000000E-02 0.  1.
         24    2    1    2    0    0  0.00000000000E+00  0.88817841970E-15  0.33205368228E+02  0.87711424621E+02  0.81183111113E+02 0.  0.
         66    2    3    3    0    0 -0.21720051591E+02  0.74274936255E+01  0.52749996656E+02  0.57562926034E+02  0.20000009131E+01 0.  0.
        -13    1    3    3    0    0  0.21720051591E+02 -0.74274936255E+01 -0.19544628428E+02  0.30148498588E+02  0.10566000000E+00 0.  1.
         13    1    4    4    0    0 -0.36084516673E+01  0.18773362042E+01  0.10282036185E+02  0.11057881660E+02  0.10566000000E+00 0. -1.
        -13    1    4    4    0    0 -0.48103824141E+01  0.13253187207E+01  0.11688193370E+02  0.12709102130E+02  0.10566000000E+00 0.  1.
         14    1    4    4    0    0 -0.13301217510E+02  0.42248387005E+01  0.30779767102E+02  0.33795942243E+02  0.00000000000E+00 0. -1.
<mgrwt>
<rscale>  0 0.81183111E+02</rscale>
<asrwt>0</asrwt>
<pdfrwt beam="1">  1        2 0.93012915E-02 0.81183111E+02</pdfrwt>
<pdfrwt beam="2">  1       -1 0.41927737E-02 0.81183111E+02</pdfrwt>
<totfact> 0.14982625E+05</totfact>
</mgrwt>
</event>
<event>
 8    1  0.1226832E-016  0.8257749E+02  0.7818608E-02  0.1321892E+00
         -1   -1    0    0    0  501 -0.00000000000E+00  0.00000000000E+00  0.11061873121E+03  0.11061873132E+03  0.50400000000E-02 0.  1.
          2   -1    0    0  501    0  0.00000000000E+00 -0.00000000000E+00 -0.15411135597E+02  0.15411135808E+02  0.25500000000E-02 0. -1.
         24    2    1    2    0    0  0.00000000000E+00 -0.17763568394E-14  0.95207595609E+02  0.12602986713E+03  0.82577485715E+02 0.  0.
         66    2    3    3    0    0  0.11784641437E+02  0.13539833077E+02 -0.90755243640E+01  0.20213114539E+02  0.20000008264E+01 0.  0.
        -13    1    3    3    0    0 -0.11784641437E+02 -0.13539833077E+02  0.10428311997E+03  0.10581675259E+03  0.10566000000E+00 0.  1.
         13    1    4    4    0    0  0.26496644363E+01  0.36578519496E+01 -0.19656250052E+01  0.49270120973E+01  0.10566000000E+00 0. -1.
        -13    1    4    4    0    0  0.13265403316E+01  0.22093572845E+01 -0.11845125530E+01  0.28381689318E+01  0.10566000000E+00 0.  1.
        -14    1    4    4    0    0  0.78084366695E+01  0.76726238429E+01 -0.59253868059E+01  0.12447933509E+02  0.00000000000E+00 0.  1.
<mgrwt>
<rscale>  0 0.82577486E+02</rscale>
<asrwt>0</asrwt>
<pdfrwt beam="1">  1        2 0.23709441E-02 0.82577486E+02</pdfrwt>
<pdfrwt beam="2">  1       -1 0.17018266E-01 0.82577486E+02</pdfrwt>
<totfact> 0.10710579E+05</totfact>
</mgrwt>
</event>
<event>
 8    1  0.1226832E-016  0.7877294E+02  0.7818608E-02  0.1332570E+00
          2   -1    0    0  501    0  0.00000000000E+00  0.00000000000E+00  0.45595518484E+02  0.45595518556E+02  0.25500000000E-02 0. -1.
         -1   -1    0    0    0  501 -0.00000000000E+00 -0.00000000000E+00 -0.34022949335E+02  0.34022949708E+02  0.50400000000E-02 0.  1.
         24    2    1    2    0    0  0.35527136788E-14  0.00000000000E+00  0.11572569149E+02  0.79618468264E+02  0.78772940354E+02 0.  0.
         66    2    3    3    0    0  0.30491284458E+02 -0.17738442068E+02  0.23439346661E+02  0.42400161916E+02  0.20000009158E+01 0.  0.
        -13    1    3    3    0    0 -0.30491284458E+02  0.17738442068E+02 -0.11866777512E+02  0.37218306349E+02  0.10566000000E+00 0.  1.
         13    1    4    4    0    0  0.67049281203E+01 -0.40810914885E+01  0.45267679410E+01  0.90616864249E+01  0.10566000000E+00 0.  1.
        -13    1    4    4    0    0  0.13863602860E+01 -0.10234744374E+01  0.96524424999E+00  0.19779674579E+01  0.10566000000E+00 0.  1.
         14    1    4    4    0    0  0.22399996052E+02 -0.12633876142E+02  0.17947334470E+02  0.31360508033E+02  0.00000000000E+00 0. -1.
<mgrwt>
<rscale>  0 0.78772940E+02</rscale>
<asrwt>0</asrwt>
<pdfrwt beam="1">  1        2 0.70146951E-02 0.78772940E+02</pdfrwt>
<pdfrwt beam="2">  1       -1 0.52343000E-02 0.78772940E+02</pdfrwt>
<totfact> 0.15285166E+05</totfact>
</mgrwt>
</event>
<event>
 8    1  0.1226832E-016  0.8447068E+02  0.7818608E-02  0.1316823E+00
         -1   -1    0    0    0  501 -0.00000000000E+00  0.00000000000E+00  0.17719306453E+01  0.17719378131E+01  0.50400000000E-02 0.  1.
          2   -1    0    0  501    0  0.00000000000E+00 -0.00000000000E+00 -0.10067101106E+04  0.10067101106E+04  0.25500000000E-02 0. -1.
         24    2    1    2    0    0  0.00000000000E+00  0.17763568394E-14 -0.10049381800E+04  0.10084820484E+04  0.84470683952E+02 0.  0.
         66    2    3    3    0    0  0.13981877407E+02 -0.94299424902E+01 -0.96473875615E+03  0.96488822375E+03  0.19999987413E+01 0.  0.
        -13    1    3    3    0    0 -0.13981877407E+02  0.94299424902E+01 -0.40199423819E+02  0.43593824685E+02  0.10566000000E+00 0.  1.
         13    1    4    4    0    0  0.61073522794E+01 -0.38251034157E+01 -0.38665075174E+03  0.38671791548E+03  0.10566000000E+00 0. -1.
        -13    1    4    4    0    0  0.55612882961E+01 -0.32086724124E+01 -0.38766085513E+03  0.38771403543E+03  0.10566000000E+00 0.  1.
         14    1    4    4    0    0  0.23132368320E+01 -0.23961666621E+01 -0.19042714928E+03  0.19045627284E+03  0.00000000000E+00 0. -1.
<mgrwt>
<rscale>  0 0.84470684E+02</rscale>
<asrwt>0</asrwt>
<pdfrwt beam="1">  1        2 0.15487802E+00 0.84470684E+02</pdfrwt>
<pdfrwt beam="2">  1       -1 0.27260607E-03 0.84470684E+02</pdfrwt>
<totfact> 0.30588691E+05</totfact>
</mgrwt>
</event>
<event>
 8    1  0.1277348E-016  0.8088609E+02  0.7818608E-02  0.1326555E+00
          2   -1    0    0  501    0  0.00000000000E+00  0.00000000000E+00  0.20604735308E+03  0.20604735310E+03  0.25500000000E-02 0. -1.
         -1   -1    0    0    0  501 -0.00000000000E+00 -0.00000000000E+00 -0.79381732079E+01  0.79381748078E+01  0.50400000000E-02 0.  1.
         24    2    1    2    0    0  0.00000000000E+00  0.35527136788E-14  0.19810917987E+03  0.21398552790E+03  0.80886086582E+02 0.  0.
         66    2    3    3    0    0 -0.11811548451E+02  0.16927015427E+02  0.19104806222E+03  0.19217023339E+03  0.19999988445E+01 0.  0.
        -13    1    3    3    0    0  0.11811548451E+02 -0.16927015427E+02  0.70611176496E+01  0.21815294510E+02  0.10566000000E+00 0.  1.
         13    1    4    4    0    0 -0.82186372122E+01  0.12534199503E+02  0.13776422364E+03  0.13857721542E+03  0.10566000000E+00 0. -1.
        -13    1    4    4    0    0 -0.32550178413E+01  0.39921730625E+01  0.45309599252E+02  0.45601573825E+02  0.10566000000E+00 0.  1.
        -14    1    4    4    0    0 -0.33789339767E+00  0.40064286153E+00  0.79742393307E+01  0.79914441469E+01  0.00000000000E+00 0.  1.
<mgrwt>
<rscale>  0 0.80886087E+02</rscale>
<asrwt>0</asrwt>
<pdfrwt beam="1">  1        2 0.31699589E-01 0.80886087E+02</pdfrwt>
<pdfrwt beam="2">  1       -1 0.12212577E-02 0.80886087E+02</pdfrwt>
<totfact> 0.21650034E+05</totfact>
</mgrwt>
</event>
<event>
 8    1  0.1226832E-016  0.7973070E+02  0.7818608E-02  0.1329817E+00
         -1   -1    0    0    0  501 -0.00000000000E+00  0.00000000000E+00  0.39880410917E+03  0.39880410920E+03  0.50400000000E-02 0.  1.
          2   -1    0    0  501    0  0.00000000000E+00 -0.00000000000E+00 -0.39850285720E+01  0.39850293879E+01  0.25500000000E-02 0. -1.
         24    2    1    2    0    0  0.00000000000E+00  0.35527136788E-14  0.39481908059E+03  0.40278913859E+03  0.79730695228E+02 0.  0.
         66    2    3    3    0    0  0.27621086583E+02 -0.28083800337E+02  0.16738397360E+03  0.17196807515E+03  0.19999973412E+01 0.  0.
        -13    1    3    3    0    0 -0.27621086583E+02  0.28083800337E+02  0.22743510700E+03  0.23082106343E+03  0.10566000000E+00 0.  1.
         13    1    4    4    0    0  0.12845881550E+02 -0.13940135230E+02  0.81875348228E+02  0.84041227112E+02  0.10566000000E+00 0. -1.
        -13    1    4    4    0    0  0.70949697116E+01 -0.66176341883E+01  0.38454130978E+02  0.39659337246E+02  0.10566000000E+00 0. -1.
        -14    1    4    4    0    0  0.76802353212E+01 -0.75260309187E+01  0.47054494391E+02  0.48267510796E+02  0.00000000000E+00 0.  1.
<mgrwt>
<rscale>  0 0.79730695E+02</rscale>
<asrwt>0</asrwt>
<pdfrwt beam="1">  1        2 0.61308127E-03 0.79730695E+02</pdfrwt>
<pdfrwt beam="2">  1       -1 0.61354489E-01 0.79730695E+02</pdfrwt>
<totfact> 0.76576495E+04</totfact>
</mgrwt>
</event>
<event>
 8    1  0.1226832E-016  0.8131843E+02  0.7818608E-02  0.1325351E+00
          2   -1    0    0  501    0  0.00000000000E+00  0.00000000000E+00  0.47016609463E+03  0.47016609464E+03  0.25500000000E-02 0. -1.
         -1   -1    0    0    0  501 -0.00000000000E+00 -0.00000000000E+00 -0.35161425349E+01  0.35161461471E+01  0.50400000000E-02 0.  1.
         24    2    1    2    0    0  0.00000000000E+00 -0.35527136788E-14  0.46664995210E+03  0.47368224079E+03  0.81318432374E+02 0.  0.
         66    2    3    3    0    0  0.82663505719E+01  0.28384631280E+02  0.39585213835E+03  0.39695961413E+03  0.19999935713E+01 0.  0.
        -13    1    3    3    0    0 -0.82663505719E+01 -0.28384631280E+02  0.70797813749E+02  0.76722626651E+02  0.10566000000E+00 0.  1.
         13    1    4    4    0    0  0.84662331666E+00  0.32918533098E+01  0.48878913272E+02  0.48997065177E+02  0.10566000000E+00 0. -1.
        -13    1    4    4    0    0  0.19557628948E+01  0.43802918005E+01  0.64811392764E+02  0.64988766420E+02  0.10566000000E+00 0.  1.
        -14    1    4    4    0    0  0.54639643605E+01  0.20712486169E+02  0.28216183231E+03  0.28297378254E+03  0.00000000000E+00 0.  1.
<mgrwt>
<rscale>  0 0.81318432E+02</rscale>
<asrwt>0</asrwt>
<pdfrwt beam="1">  1        2 0.72333212E-01 0.81318432E+02</pdfrwt>
<pdfrwt beam="2">  1       -1 0.54094554E-03 0.81318432E+02</pdfrwt>
<totfact> 0.28603695E+05</totfact>
</mgrwt>
</event>
<event>
 8    1  0.1226832E-016  0.7364425E+02  0.7818608E-02  0.1348121E+00
         -1   -1    0    0    0  501 -0.00000000000E+00  0.00000000000E+00  0.26296994779E+01  0.26297043077E+01  0.50400000000E-02 0.  1.
          2   -1    0    0  501    0  0.00000000000E+00 -0.00000000000E+00 -0.51559794572E+03  0.51559794572E+03  0.25500000000E-02 0. -1.
         24    2    1    2    0    0 -0.35527136788E-14  0.35527136788E-14 -0.51296824624E+03  0.51822765003E+03  0.73644250333E+02 0.  0.
         66    2    3    3    0    0  0.17858409159E+02 -0.28450091460E+02 -0.36235142896E+03  0.36391055023E+03  0.20000031658E+01 0.  0.
        -13    1    3    3    0    0 -0.17858409159E+02  0.28450091460E+02 -0.15061681728E+03  0.15431709980E+03  0.10566000000E+00 0.  1.
         13    1    4    4    0    0  0.11269250096E+01 -0.14530430082E+01 -0.21364106696E+02  0.21443355915E+02  0.10566000000E+00 0. -1.
        -13    1    4    4    0    0  0.39026038155E+00 -0.31276059257E+00 -0.58978293882E+01  0.59199390100E+01  0.10566000000E+00 0. -1.
         14    1    4    4    0    0  0.16341223767E+02 -0.26684287859E+02 -0.33508949288E+03  0.33654725530E+03  0.00000000000E+00 0. -1.
<mgrwt>
<rscale>  0 0.73644250E+02</rscale>
<asrwt>0</asrwt>
<pdfrwt beam="1">  1        2 0.79322681E-01 0.73644250E+02</pdfrwt>
<pdfrwt beam="2">  1       -1 0.40456993E-03 0.73644250E+02</pdfrwt>
<totfact> 0.38113758E+05</totfact>
</mgrwt>
</event>
<event>
 8    1  0.1226832E-016  0.7980972E+02  0.7818608E-02  0.1329592E+00
         -1   -1    0    0    0  501 -0.00000000000E+00  0.00000000000E+00  0.34974725060E+02  0.34974725423E+02  0.50400000000E-02 0.  1.
          2   -1    0    0  501    0  0.00000000000E+00 -0.00000000000E+00 -0.45529959075E+02  0.45529959146E+02  0.25500000000E-02 0. -1.
         24    2    1    2    0    0  0.00000000000E+00  0.00000000000E+00 -0.10555234015E+02  0.80504684569E+02  0.79809719160E+02 0.  0.
         66    2    3    3    0    0  0.16020030879E+02  0.34511784314E+02  0.67683116322E+01  0.38697734863E+02  0.19999988196E+01 0.  0.
        -13    1    3    3    0    0 -0.16020030879E+02 -0.34511784314E+02 -0.17323545647E+02  0.41806949706E+02  0.10566000000E+00 0.  1.
         13    1    4    4    0    0  0.96525838635E+01  0.19304975101E+02  0.35508829681E+01  0.21874057072E+02  0.10566000000E+00 0. -1.
        -13    1    4    4    0    0  0.34276470539E+01  0.92474827908E+01  0.17129916406E+01  0.10010504817E+02  0.10566000000E+00 0.  1.
         14    1    4    4    0    0  0.29397999617E+01  0.59593264219E+01  0.15044370236E+01  0.68131729741E+01  0.00000000000E+00 0. -1.
<mgrwt>
<rscale>  0 0.79809719E+02</rscale>
<asrwt>0</asrwt>
<pdfrwt beam="1">  1        2 0.70046091E-02 0.79809719E+02</pdfrwt>
<pdfrwt beam="2">  1       -1 0.53807270E-02 0.79809719E+02</pdfrwt>
<totfact> 0.14741659E+05</totfact>
</mgrwt>
</event>
<event>
 8    1  0.1226832E-016  0.7980650E+02  0.7818608E-02  0.1329601E+00
         -1   -1    0    0    0  501 -0.00000000000E+00  0.00000000000E+00  0.17293130814E+02  0.17293131549E+02  0.50400000000E-02 0.  1.
          2   -1    0    0  501    0  0.00000000000E+00 -0.00000000000E+00 -0.92075251408E+02  0.92075251443E+02  0.25500000000E-02 0. -1.
         24    2    1    2    0    0 -0.17763568394E-14  0.71054273576E-14 -0.74782120593E+02  0.10936838299E+03  0.79806501225E+02 0.  0.
         66    2    3    3    0    0  0.15525889714E+02 -0.32495811816E+02 -0.60881622213E+02  0.70764418736E+02  0.19999996824E+01 0.  0.
        -13    1    3    3    0    0 -0.15525889714E+02  0.32495811816E+02 -0.13900498380E+02  0.38603964255E+02  0.10566000000E+00 0.  1.
         13    1    4    4    0    0  0.31995224555E+01 -0.63947220299E+01 -0.11676205455E+02  0.13692127360E+02  0.10566000000E+00 0. -1.
        -13    1    4    4    0    0  0.10631077745E+02 -0.21185045278E+02 -0.39716485033E+02  0.46251878933E+02  0.10566000000E+00 0.  1.
        -14    1    4    4    0    0  0.16952895140E+01 -0.49160445078E+01 -0.94889317255E+01  0.10820412443E+02  0.00000000000E+00 0.  1.
<mgrwt>
<rscale>  0 0.79806501E+02</rscale>
<asrwt>0</asrwt>
<pdfrwt beam="1">  1        2 0.14165423E-01 0.79806501E+02</pdfrwt>
<pdfrwt beam="2">  1       -1 0.26604818E-02 0.79806501E+02</pdfrwt>
<totfact> 0.17440082E+05</totfact>
</mgrwt>
</event>
<event>
 8    1  0.1226832E-016  0.7767121E+02  0.7818608E-02  0.1335793E+00
         -1   -1    0    0    0  501 -0.00000000000E+00  0.00000000000E+00  0.93903311111E+01  0.93903324637E+01  0.50400000000E-02 0.  1.
          2   -1    0    0  501    0  0.00000000000E+00 -0.00000000000E+00 -0.16061246945E+03  0.16061246947E+03  0.25500000000E-02 0. -1.
         24    2    1    2    0    0  0.00000000000E+00 -0.35527136788E-14 -0.15122213834E+03  0.17000280193E+03  0.77671214369E+02 0.  0.
         66    2    3    3    0    0 -0.33802649164E+02 -0.19002989701E+02 -0.79098684371E+02  0.88115461738E+02  0.20000049959E+01 0.  0.
        -13    1    3    3    0    0  0.33802649164E+02  0.19002989701E+02 -0.72123453967E+02  0.81887340195E+02  0.10566000000E+00 0.  1.
         13    1    4    4    0    0 -0.12123139592E+02 -0.72305206908E+01 -0.28001336539E+02  0.31358203951E+02  0.10566000000E+00 0. -1.
        -13    1    4    4    0    0 -0.90885207981E+01 -0.50192561285E+01 -0.23041190016E+02  0.25272549214E+02  0.10566000000E+00 0.  1.
         14    1    4    4    0    0 -0.12590988774E+02 -0.67532128814E+01 -0.28056157815E+02  0.31484708572E+02  0.00000000000E+00 0. -1.
<mgrwt>
<rscale>  0 0.77671214E+02</rscale>
<asrwt>0</asrwt>
<pdfrwt beam="1">  1        2 0.24709609E-01 0.77671214E+02</pdfrwt>
<pdfrwt beam="2">  1       -1 0.14446665E-02 0.77671214E+02</pdfrwt>
<totfact> 0.22145449E+05</totfact>
</mgrwt>
</event>
<event>
 8    1  0.1226832E-016  0.8041431E+02  0.7818608E-02  0.1327880E+00
          2   -1    0    0  501    0  0.00000000000E+00  0.00000000000E+00  0.45430332255E+02  0.45430332326E+02  0.25500000000E-02 0. -1.
         -1   -1    0    0    0  501 -0.00000000000E+00 -0.00000000000E+00 -0.35584490663E+02  0.35584491020E+02  0.50400000000E-02 0.  1.
         24    2    1    2    0    0  0.00000000000E+00  0.17763568394E-14  0.98458415915E+01  0.81014823347E+02  0.80414308461E+02 0.  0.
         66    2    3    3    0    0  0.20665248138E+02 -0.14475005359E+02  0.36433004109E+02  0.44361492863E+02  0.19999999831E+01 0.  0.
        -13    1    3    3    0    0 -0.20665248138E+02  0.14475005359E+02 -0.26587162517E+02  0.36653330483E+02  0.10566000000E+00 0.  1.
         13    1    4    4    0    0  0.33637402104E+01 -0.18686196198E+01  0.55525992418E+01  0.67564050990E+01  0.10566000000E+00 0. -1.
        -13    1    4    4    0    0  0.56067418000E+01 -0.32351165466E+01  0.93203473124E+01  0.11348196806E+02  0.10566000000E+00 0.  1.
        -14    1    4    4    0    0  0.11694766128E+02 -0.93712691923E+01  0.21560057555E+02  0.26256890959E+02  0.00000000000E+00 0.  1.
<mgrwt>
<rscale>  0 0.80414308E+02</rscale>
<asrwt>0</asrwt>
<pdfrwt beam="1">  1        2 0.69892819E-02 0.80414308E+02</pdfrwt>
<pdfrwt beam="2">  1       -1 0.54745371E-02 0.80414308E+02</pdfrwt>
<totfact> 0.14432158E+05</totfact>
</mgrwt>
</event>
<event>
 8    1  0.1226832E-016  0.7889806E+02  0.7818608E-02  0.1332208E+00
         -1   -1    0    0    0  501 -0.00000000000E+00  0.00000000000E+00  0.79763356302E+01  0.79763372226E+01  0.50400000000E-02 0.  1.
          2   -1    0    0  501    0  0.00000000000E+00 -0.00000000000E+00 -0.19510537581E+03  0.19510537582E+03  0.25500000000E-02 0. -1.
         24    2    1    2    0    0  0.35527136788E-14  0.35527136788E-14 -0.18712904018E+03  0.20308171305E+03  0.78898063958E+02 0.  0.
         66    2    3    3    0    0 -0.16598284441E+02 -0.26373451435E+02 -0.15578261866E+03  0.15888135905E+03  0.19999979978E+01 0.  0.
        -13    1    3    3    0    0  0.16598284441E+02  0.26373451435E+02 -0.31346421521E+02  0.44200353994E+02  0.10566000000E+00 0.  1.
         13    1    4    4    0    0 -0.27769731920E+01 -0.51281110158E+01 -0.30370546443E+02  0.30925561563E+02  0.10566000000E+00 0. -1.
        -13    1    4    4    0    0 -0.65105775653E+01 -0.95163261922E+01 -0.60416268648E+02  0.61506786339E+02  0.10566000000E+00 0.  1.
        -14    1    4    4    0    0 -0.73107336839E+01 -0.11729014227E+02 -0.64995803565E+02  0.66449011150E+02  0.00000000000E+00 0.  1.
<mgrwt>
<rscale>  0 0.78898064E+02</rscale>
<asrwt>0</asrwt>
<pdfrwt beam="1">  1        2 0.30016208E-01 0.78898064E+02</pdfrwt>
<pdfrwt beam="2">  1       -1 0.12271288E-02 0.78898064E+02</pdfrwt>
<totfact> 0.22685016E+05</totfact>
</mgrwt>
</event>
<event>
 8    1  0.1546138E-016  0.8227933E+02  0.7818608E-02  0.1322705E+00
         -1   -1    0    0    0  501 -0.00000000000E+00  0.00000000000E+00  0.30765588267E+01  0.30765629549E+01  0.50400000000E-02 0.  1.
          2   -1    0    0  501    0  0.00000000000E+00 -0.00000000000E+00 -0.55011820190E+03  0.55011820190E+03  0.25500000000E-02 0. -1.
         24    2    1    2    0    0  0.17763568394E-14  0.00000000000E+00 -0.54704164307E+03  0.55319476486E+03  0.82279332843E+02 0.  0.
         66    2    3    3    0    0  0.98364649432E+01  0.23259632964E+02 -0.49182420311E+03  0.49247620585E+03  0.19999989301E+01 0.  0.
        -13    1    3    3    0    0 -0.98364649432E+01 -0.23259632964E+02 -0.55217439963E+02  0.60718559010E+02  0.10566000000E+00 0.  1.
         13    1    4    4    0    0  0.70960606809E+01  0.16962416079E+02 -0.35482134540E+03  0.35529744715E+03  0.10566000000E+00 0. -1.
        -13    1    4    4    0    0  0.18647402987E+01  0.49508444912E+01 -0.11137104315E+03  0.11149667499E+03  0.10566000000E+00 0.  1.
        -14    1    4    4    0    0  0.87566396354E+00  0.13463723930E+01 -0.25631814556E+02  0.25682083705E+02  0.00000000000E+00 0.  1.
<mgrwt>
<rscale>  0 0.82279333E+02</rscale>
<asrwt>0</asrwt>
<pdfrwt beam="1">  1        2 0.84633492E-01 0.82279333E+02</pdfrwt>
<pdfrwt beam="2">  1       -1 0.47331750E-03 0.82279333E+02</pdfrwt>
<totfact> 0.29149548E+05</totfact>
</mgrwt>
</event>
<event>
 8    1  0.1226832E-016  0.8354395E+02  0.7818608E-02  0.1319285E+00
          2   -1    0    0  501    0  0.00000000000E+00  0.00000000000E+00  0.14355528394E+04  0.14355528394E+04  0.25500000000E-02 0. -1.
         -1   -1    0    0    0  501 -0.00000000000E+00 -0.00000000000E+00 -0.12154833174E+01  0.12154937666E+01  0.50400000000E-02 0.  1.
         24    2    1    2    0    0  0.00000000000E+00  0.17763568394E-14  0.14343373560E+04  0.14367683331E+04  0.83543953357E+02 0.  0.
         66    2    3    3    0    0  0.19221172016E+02 -0.14219514273E+02  0.13061451177E+04  0.13063654606E+04  0.20000003162E+01 0.  0.
        -13    1    3    3    0    0 -0.19221172016E+02  0.14219514273E+02  0.12819223830E+03  0.13040287253E+03  0.10566000000E+00 0.  1.
         13    1    4    4    0    0  0.13570058218E+02 -0.99800563050E+01  0.91730146426E+03  0.91745612184E+03  0.10566000000E+00 0. -1.
        -13    1    4    4    0    0  0.43544400935E+01 -0.28797064736E+01  0.26506779290E+03  0.26511921819E+03  0.10566000000E+00 0.  1.
         14    1    4    4    0    0  0.12966737039E+01 -0.13597514948E+01  0.12377586059E+03  0.12379012058E+03  0.00000000000E+00 0. -1.
<mgrwt>
<rscale>  0 0.83543953E+02</rscale>
<asrwt>0</asrwt>
<pdfrwt beam="1">  1        2 0.22085431E+00 0.83543953E+02</pdfrwt>
<pdfrwt beam="2">  1       -1 0.18699821E-03 0.83543953E+02</pdfrwt>
<totfact> 0.30156036E+05</totfact>
</mgrwt>
</event>
<event>
 8    1  0.1226832E-016  0.6983987E+02  0.7818608E-02  0.1360638E+00
         -1   -1    0    0    0  501 -0.00000000000E+00  0.00000000000E+00  0.10120332671E+02  0.10120333926E+02  0.50400000000E-02 0.  1.
          2   -1    0    0  501    0  0.00000000000E+00 -0.00000000000E+00 -0.12049029381E+03  0.12049029383E+03  0.25500000000E-02 0. -1.
         24    2    1    2    0    0  0.00000000000E+00  0.00000000000E+00 -0.11036996113E+03  0.13061062776E+03  0.69839872299E+02 0.  0.
         66    2    3    3    0    0 -0.26725541150E+02 -0.59880961737E+01 -0.95656610984E+02  0.99520344997E+02  0.19999994575E+01 0.  0.
        -13    1    3    3    0    0  0.26725541150E+02  0.59880961737E+01 -0.14713350150E+02  0.31090282762E+02  0.10566000000E+00 0.  1.
         13    1    4    4    0    0 -0.23705404857E+02 -0.58759363475E+01 -0.84875428969E+02  0.88319434181E+02  0.10566000000E+00 0. -1.
        -13    1    4    4    0    0 -0.15720090201E+01 -0.98692364903E-01 -0.60901815883E+01  0.62914567753E+01  0.10566000000E+00 0.  1.
         14    1    4    4    0    0 -0.14481272730E+01 -0.13467461381E-01 -0.46910004265E+01  0.49094540402E+01  0.00000000000E+00 0. -1.
<mgrwt>
<rscale>  0 0.69839872E+02</rscale>
<asrwt>0</asrwt>
<pdfrwt beam="1">  1        2 0.18536967E-01 0.69839872E+02</pdfrwt>
<pdfrwt beam="2">  1       -1 0.15569745E-02 0.69839872E+02</pdfrwt>
<totfact> 0.26789453E+05</totfact>
</mgrwt>
</event>
<event>
 8    1  0.1226832E-016  0.8084504E+02  0.7818608E-02  0.1326670E+00
          2   -1    0    0  501    0  0.00000000000E+00  0.00000000000E+00  0.38959823196E+02  0.38959823279E+02  0.25500000000E-02 0. -1.
         -1   -1    0    0    0  501 -0.00000000000E+00 -0.00000000000E+00 -0.41940130891E+02  0.41940131194E+02  0.50400000000E-02 0.  1.
         24    2    1    2    0    0  0.00000000000E+00 -0.17763568394E-14 -0.29803076955E+01  0.80899954473E+02  0.80845039426E+02 0.  0.
         66    2    3    3    0    0 -0.92174536661E+01  0.12422768804E+02  0.35853027803E+02  0.39098928807E+02  0.19999985929E+01 0.  0.
        -13    1    3    3    0    0  0.92174536661E+01 -0.12422768804E+02 -0.38833335498E+02  0.41801025667E+02  0.10566000000E+00 0.  1.
         13    1    4    4    0    0 -0.32615336845E+01  0.35339657588E+01  0.10716207913E+02  0.11746267153E+02  0.10566000000E+00 0. -1.
        -13    1    4    4    0    0 -0.22818659111E+01  0.35526997381E+01  0.11609588457E+02  0.12354039649E+02  0.10566000000E+00 0.  1.
        -14    1    4    4    0    0 -0.36740540705E+01  0.53361033068E+01  0.13527231432E+02  0.14998622005E+02  0.00000000000E+00 0.  1.
<mgrwt>
<rscale>  0 0.80845039E+02</rscale>
<asrwt>0</asrwt>
<pdfrwt beam="1">  1        2 0.59938189E-02 0.80845039E+02</pdfrwt>
<pdfrwt beam="2">  1       -1 0.64523279E-02 0.80845039E+02</pdfrwt>
<totfact> 0.13771686E+05</totfact>
</mgrwt>
</event>
<event>
 8    1  0.1226832E-016  0.7910365E+02  0.7818608E-02  0.1331615E+00
         -1   -1    0    0    0  501 -0.00000000000E+00  0.00000000000E+00  0.58970425504E+01  0.58970447042E+01  0.50400000000E-02 0.  1.
          2   -1    0    0  501    0  0.00000000000E+00 -0.00000000000E+00 -0.26527645987E+03  0.26527645988E+03  0.25500000000E-02 0. -1.
         24    2    1    2    0    0  0.17763568394E-14 -0.71054273576E-14 -0.25937941732E+03  0.27117350459E+03  0.79103650110E+02 0.  0.
         66    2    3    3    0    0 -0.11549727718E+02  0.36058657085E+02 -0.90879329908E+02  0.98471699203E+02  0.19999945539E+01 0.  0.
        -13    1    3    3    0    0  0.11549727718E+02 -0.36058657085E+02 -0.16850008741E+03  0.17270180538E+03  0.10566000000E+00 0.  1.
         13    1    4    4    0    0 -0.71466923140E+01  0.20858251420E+02 -0.53198325084E+02  0.57586585409E+02  0.10566000000E+00 0. -1.
        -13    1    4    4    0    0 -0.41216108313E+01  0.13850132961E+02 -0.35108036505E+02  0.37965764185E+02  0.10566000000E+00 0.  1.
        -14    1    4    4    0    0 -0.28142457286E+00  0.13502727039E+01 -0.25729683192E+01  0.29193496085E+01  0.00000000000E+00 0.  1.
<mgrwt>
<rscale>  0 0.79103650E+02</rscale>
<asrwt>0</asrwt>
<pdfrwt beam="1">  1        2 0.40811754E-01 0.79103650E+02</pdfrwt>
<pdfrwt beam="2">  1       -1 0.90723769E-03 0.79103650E+02</pdfrwt>
<totfact> 0.25115622E+05</totfact>
</mgrwt>
</event>
<event>
 8    1  0.1226832E-016  0.8065708E+02  0.7818608E-02  0.1327197E+00
          2   -1    0    0  501    0  0.00000000000E+00  0.00000000000E+00  0.10685718352E+04  0.10685718352E+04  0.25500000000E-02 0. -1.
         -1   -1    0    0    0  501 -0.00000000000E+00 -0.00000000000E+00 -0.15220190700E+01  0.15220274147E+01  0.50400000000E-02 0.  1.
         24    2    1    2    0    0  0.35527136788E-14  0.35527136788E-14  0.10670498161E+04  0.10700938626E+04  0.80657080958E+02 0.  0.
         66    2    3    3    0    0  0.19788998638E+02  0.22307474110E+02  0.89357636851E+03  0.89407603380E+03  0.19999969581E+01 0.  0.
        -13    1    3    3    0    0 -0.19788998638E+02 -0.22307474110E+02  0.17347344757E+03  0.17601782877E+03  0.10566000000E+00 0.  1.
         13    1    4    4    0    0  0.81890094429E+01  0.84357579738E+01  0.34345287471E+03  0.34365405599E+03  0.10566000000E+00 0. -1.
        -13    1    4    4    0    0  0.78902959457E+01  0.92355091266E+01  0.38609758186E+03  0.38628862950E+03  0.10566000000E+00 0.  1.
         14    1    4    4    0    0  0.37096932493E+01  0.46362070092E+01  0.16402591194E+03  0.16413334831E+03  0.00000000000E+00 0. -1.
<mgrwt>
<rscale>  0 0.80657081E+02</rscale>
<asrwt>0</asrwt>
<pdfrwt beam="1">  1        2 0.16439521E+00 0.80657081E+02</pdfrwt>
<pdfrwt beam="2">  1       -1 0.23415807E-03 0.80657081E+02</pdfrwt>
<totfact> 0.34530555E+05</totfact>
</mgrwt>
</event>
<event>
 8    1  0.1226832E-016  0.8133425E+02  0.7818608E-02  0.1325307E+00
          2   -1    0    0  501    0  0.00000000000E+00  0.00000000000E+00  0.22349865332E+02  0.22349865477E+02  0.25500000000E-02 0. -1.
         -1   -1    0    0    0  501 -0.00000000000E+00 -0.00000000000E+00 -0.73996652528E+02  0.73996652700E+02  0.50400000000E-02 0.  1.
         24    2    1    2    0    0  0.00000000000E+00 -0.88817841970E-15 -0.51646787196E+02  0.96346518177E+02  0.81334254389E+02 0.  0.
         66    2    3    3    0    0 -0.39745311319E+02  0.78413018800E+01 -0.29701925568E+02  0.50273056152E+02  0.20000013351E+01 0.  0.
        -13    1    3    3    0    0  0.39745311319E+02 -0.78413018800E+01 -0.21944861628E+02  0.46073462025E+02  0.10566000000E+00 0.  1.
         13    1    4    4    0    0 -0.15233944688E+02  0.34175554833E+01 -0.11607659805E+02  0.19455119800E+02  0.10566000000E+00 0. -1.
        -13    1    4    4    0    0 -0.50366950216E+01  0.10170078254E+01 -0.30697899518E+01  0.59864326640E+01  0.10566000000E+00 0.  1.
         14    1    4    4    0    0 -0.19474671609E+02  0.34067385714E+01 -0.15024475811E+02  0.24831503688E+02  0.00000000000E+00 0. -1.
<mgrwt>
<rscale>  0 0.81334254E+02</rscale>
<asrwt>0</asrwt>
<pdfrwt beam="1">  1        2 0.34384409E-02 0.81334254E+02</pdfrwt>
<pdfrwt beam="2">  1       -1 0.11384100E-01 0.81334254E+02</pdfrwt>
<totfact> 0.12109707E+05</totfact>
</mgrwt>
</event>
<event>
 8    1  0.1226832E-016  0.8105792E+02  0.7818608E-02  0.1326076E+00
          2   -1    0    0  501    0  0.00000000000E+00  0.00000000000E+00  0.12153990707E+02  0.12153990975E+02  0.25500000000E-02 0. -1.
         -1   -1    0    0    0  501 -0.00000000000E+00 -0.00000000000E+00 -0.13514875105E+03  0.13514875114E+03  0.50400000000E-02 0.  1.
         24    2    1    2    0    0  0.35527136788E-14  0.00000000000E+00 -0.12299476034E+03  0.14730274212E+03  0.81057922277E+02 0.  0.
         66    2    3    3    0    0  0.23666924161E+02 -0.30898966978E+02 -0.81910832774E+02  0.90709723749E+02  0.19999993644E+01 0.  0.
        -13    1    3    3    0    0 -0.23666924161E+02  0.30898966978E+02 -0.41083927568E+02  0.56593018368E+02  0.10566000000E+00 0.  1.
         13    1    4    4    0    0  0.19503241575E+02 -0.26178413531E+02 -0.67521374446E+02  0.74998886246E+02  0.10566000000E+00 0. -1.
        -13    1    4    4    0    0  0.10501322582E+01 -0.10474510671E+01 -0.36528493075E+01  0.39439071485E+01  0.10566000000E+00 0.  1.
         14    1    4    4    0    0  0.31135503278E+01 -0.36731023798E+01 -0.10736609020E+02  0.11766930355E+02  0.00000000000E+00 0. -1.
<mgrwt>
<rscale>  0 0.81057922E+02</rscale>
<asrwt>0</asrwt>
<pdfrwt beam="1">  1        2 0.18698448E-02 0.81057922E+02</pdfrwt>
<pdfrwt beam="2">  1       -1 0.20792115E-01 0.81057922E+02</pdfrwt>
<totfact> 0.10709698E+05</totfact>
</mgrwt>
</event>
<event>
 8    1  0.1226832E-016  0.8054456E+02  0.7818608E-02  0.1327513E+00
         -1   -1    0    0    0  501 -0.00000000000E+00  0.00000000000E+00  0.33241820057E+02  0.33241820439E+02  0.50400000000E-02 0.  1.
          2   -1    0    0  501    0  0.00000000000E+00 -0.00000000000E+00 -0.48789642288E+02  0.48789642355E+02  0.25500000000E-02 0. -1.
         24    2    1    2    0    0  0.00000000000E+00  0.00000000000E+00 -0.15547822231E+02  0.82031462793E+02  0.80544559791E+02 0.  0.
         66    2    3    3    0    0 -0.47153312039E+01 -0.12412119010E+02 -0.46474251260E+02  0.48375107923E+02  0.19999974207E+01 0.  0.
        -13    1    3    3    0    0  0.47153312039E+01  0.12412119010E+02  0.30926429029E+02  0.33656354871E+02  0.10566000000E+00 0.  1.
         13    1    4    4    0    0 -0.26698244544E+00 -0.82774241432E+00 -0.23598496757E+01  0.25172388957E+01  0.10566000000E+00 0. -1.
        -13    1    4    4    0    0 -0.21500159498E+01 -0.57534640391E+01 -0.18752998115E+02  0.19733499927E+02  0.10566000000E+00 0.  1.
         14    1    4    4    0    0 -0.22983328087E+01 -0.58309125567E+01 -0.25361403469E+02  0.26124369100E+02  0.00000000000E+00 0. -1.
<mgrwt>
<rscale>  0 0.80544560E+02</rscale>
<asrwt>0</asrwt>
<pdfrwt beam="1">  1        2 0.75060989E-02 0.80544560E+02</pdfrwt>
<pdfrwt beam="2">  1       -1 0.51141262E-02 0.80544560E+02</pdfrwt>
<totfact> 0.14589739E+05</totfact>
</mgrwt>
</event>
<event>
 8    1  0.1226832E-016  0.7607131E+02  0.7818608E-02  0.1340585E+00
          2   -1    0    0  501    0  0.00000000000E+00  0.00000000000E+00  0.10189980766E+03  0.10189980770E+03  0.25500000000E-02 0. -1.
         -1   -1    0    0    0  501 -0.00000000000E+00 -0.00000000000E+00 -0.14197387312E+02  0.14197388207E+02  0.50400000000E-02 0.  1.
         24    2    1    2    0    0  0.00000000000E+00  0.00000000000E+00  0.87702420352E+02  0.11609719590E+03  0.76071311023E+02 0.  0.
         66    2    3    3    0    0  0.91261723799E+01 -0.36153678985E+02  0.32632192123E+02  0.49590679472E+02  0.20000003176E+01 0.  0.
        -13    1    3    3    0    0 -0.91261723799E+01  0.36153678985E+02  0.55070228230E+02  0.66506516431E+02  0.10566000000E+00 0.  1.
         13    1    4    4    0    0  0.41961088623E+01 -0.18627992799E+02  0.17203655708E+02  0.25701875010E+02  0.10566000000E+00 0. -1.
        -13    1    4    4    0    0  0.16651607506E+01 -0.54378310524E+01  0.42020873249E+01  0.70718787321E+01  0.10566000000E+00 0.  1.
        -14    1    4    4    0    0  0.32649027670E+01 -0.12087855134E+02  0.11226449090E+02  0.16816925729E+02  0.00000000000E+00 0.  1.
<mgrwt>
<rscale>  0 0.76071311E+02</rscale>
<asrwt>0</asrwt>
<pdfrwt beam="1">  1        2 0.15676894E-01 0.76071311E+02</pdfrwt>
<pdfrwt beam="2">  1       -1 0.21842135E-02 0.76071311E+02</pdfrwt>
<totfact> 0.20383854E+05</totfact>
</mgrwt>
</event>
<event>
 8    1  0.1226832E-016  0.8024590E+02  0.7818608E-02  0.1328355E+00
          2   -1    0    0  501    0  0.00000000000E+00  0.00000000000E+00  0.96345365913E+02  0.96345365947E+02  0.25500000000E-02 0. -1.
         -1   -1    0    0    0  501 -0.00000000000E+00 -0.00000000000E+00 -0.16709170599E+02  0.16709171360E+02  0.50400000000E-02 0.  1.
         24    2    1    2    0    0  0.00000000000E+00  0.88817841970E-15  0.79636195314E+02  0.11305453731E+03  0.80245902086E+02 0.  0.
         66    2    3    3    0    0  0.85216948913E+01 -0.74539878154E+01  0.94036217256E+02  0.94736431124E+02  0.20000020231E+01 0.  0.
        -13    1    3    3    0    0 -0.85216948913E+01  0.74539878154E+01 -0.14400021942E+02  0.18318106183E+02  0.10566000000E+00 0.  1.
         13    1    4    4    0    0  0.84521877267E+01 -0.71080469730E+01  0.89538880158E+02  0.90217437523E+02  0.10566000000E+00 0. -1.
        -13    1    4    4    0    0  0.19233121010E-01 -0.15404402532E+00  0.32996648497E+01  0.33050040288E+01  0.10566000000E+00 0.  1.
         14    1    4    4    0    0  0.50274043628E-01 -0.19189681703E+00  0.11976722476E+01  0.12139895718E+01  0.00000000000E+00 0. -1.
<mgrwt>
<rscale>  0 0.80245902E+02</rscale>
<asrwt>0</asrwt>
<pdfrwt beam="1">  1        2 0.14822364E-01 0.80245902E+02</pdfrwt>
<pdfrwt beam="2">  1       -1 0.25706416E-02 0.80245902E+02</pdfrwt>
<totfact> 0.17399557E+05</totfact>
</mgrwt>
</event>
<event>
 8    1  0.1226832E-016  0.7897351E+02  0.7818608E-02  0.1331990E+00
          2   -1    0    0  501    0  0.00000000000E+00  0.00000000000E+00  0.68602770201E+02  0.68602770248E+02  0.25500000000E-02 0. -1.
         -1   -1    0    0    0  501 -0.00000000000E+00 -0.00000000000E+00 -0.22728002340E+02  0.22728002899E+02  0.50400000000E-02 0.  1.
         24    2    1    2    0    0  0.00000000000E+00  0.00000000000E+00  0.45874767861E+02  0.91330773147E+02  0.78973513264E+02 0.  0.
         66    2    3    3    0    0  0.99683860557E+01  0.37911719028E+02  0.28192275531E+02  0.48326716836E+02  0.20000000743E+01 0.  0.
        -13    1    3    3    0    0 -0.99683860557E+01 -0.37911719028E+02  0.17682492330E+02  0.43004056311E+02  0.10566000000E+00 0.  1.
         13    1    4    4    0    0  0.65427608589E+01  0.23708885919E+02  0.16640677711E+02  0.29695829840E+02  0.10566000000E+00 0. -1.
        -13    1    4    4    0    0  0.20427475549E+01  0.79017222176E+01  0.62294426464E+01  0.10267772460E+02  0.10566000000E+00 0.  1.
        -14    1    4    4    0    0  0.13828776419E+01  0.63011108912E+01  0.53221551740E+01  0.83631145354E+01  0.00000000000E+00 0.  1.
<mgrwt>
<rscale>  0 0.78973513E+02</rscale>
<asrwt>0</asrwt>
<pdfrwt beam="1">  1        2 0.10554272E-01 0.78973513E+02</pdfrwt>
<pdfrwt beam="2">  1       -1 0.34966159E-02 0.78973513E+02</pdfrwt>
<totfact> 0.16638980E+05</totfact>
</mgrwt>
</event>
<event>
 8    1  0.1226832E-016  0.7933841E+02  0.7818608E-02  0.1330939E+00
         -1   -1    0    0    0  501 -0.00000000000E+00  0.00000000000E+00  0.40043482098E+01  0.40043513815E+01  0.50400000000E-02 0.  1.
          2   -1    0    0  501    0  0.00000000000E+00 -0.00000000000E+00 -0.39298414690E+03  0.39298414690E+03  0.25500000000E-02 0. -1.
         24    2    1    2    0    0  0.00000000000E+00  0.00000000000E+00 -0.38897979869E+03  0.39698849828E+03  0.79338414310E+02 0.  0.
         66    2    3    3    0    0  0.10876363514E+01  0.12418874828E+02 -0.38291788450E+03  0.38312598147E+03  0.20000005896E+01 0.  0.
        -13    1    3    3    0    0 -0.10876363514E+01 -0.12418874828E+02 -0.60619141859E+01  0.13862516816E+02  0.10566000000E+00 0.  1.
         13    1    4    4    0    0  0.29350440431E+00  0.42826007343E+01 -0.15323229026E+03  0.15329244194E+03  0.10566000000E+00 0. -1.
        -13    1    4    4    0    0  0.96923210508E+00  0.49522160017E+01 -0.14595041702E+03  0.14603766379E+03  0.10566000000E+00 0.  1.
        -14    1    4    4    0    0 -0.17510015804E+00  0.31840580924E+01 -0.83735177217E+02  0.83795875731E+02  0.00000000000E+00 0.  1.
<mgrwt>
<rscale>  0 0.79338414E+02</rscale>
<asrwt>0</asrwt>
<pdfrwt beam="1">  1        2 0.60459069E-01 0.79338414E+02</pdfrwt>
<pdfrwt beam="2">  1       -1 0.61605413E-03 0.79338414E+02</pdfrwt>
<totfact> 0.28694609E+05</totfact>
</mgrwt>
</event>
<event>
 8    1  0.1226832E-016  0.7970043E+02  0.7818608E-02  0.1329904E+00
         -1   -1    0    0    0  501 -0.00000000000E+00  0.00000000000E+00  0.40096522124E+01  0.40096553799E+01  0.50400000000E-02 0.  1.
          2   -1    0    0  501    0  0.00000000000E+00 -0.00000000000E+00 -0.39605408590E+03  0.39605408591E+03  0.25500000000E-02 0. -1.
         24    2    1    2    0    0  0.00000000000E+00 -0.17763568394E-14 -0.39204443369E+03  0.40006374129E+03  0.79700433550E+02 0.  0.
         66    2    3    3    0    0 -0.18932916014E+02 -0.14040809448E+02 -0.35727621441E+03  0.35805850501E+03  0.19999975289E+01 0.  0.
        -13    1    3    3    0    0  0.18932916014E+02  0.14040809448E+02 -0.34768219276E+02  0.42005236274E+02  0.10566000000E+00 0.  1.
         13    1    4    4    0    0 -0.65149825464E+01 -0.52811748375E+01 -0.12425000947E+03  0.12453277409E+03  0.10566000000E+00 0. -1.
        -13    1    4    4    0    0 -0.34808107311E+01 -0.17069988582E+01 -0.57174666950E+02  0.57306051978E+02  0.10566000000E+00 0.  1.
        -14    1    4    4    0    0 -0.89371227363E+01 -0.70526357526E+01 -0.17585153799E+03  0.17621967894E+03  0.00000000000E+00 0.  1.
<mgrwt>
<rscale>  0 0.79700434E+02</rscale>
<asrwt>0</asrwt>
<pdfrwt beam="1">  1        2 0.60931367E-01 0.79700434E+02</pdfrwt>
<pdfrwt beam="2">  1       -1 0.61687013E-03 0.79700434E+02</pdfrwt>
<totfact> 0.28433006E+05</totfact>
</mgrwt>
</event>
<event>
 8    1  0.1226832E-016  0.8060939E+02  0.7818608E-02  0.1327331E+00
         -1   -1    0    0    0  501 -0.00000000000E+00  0.00000000000E+00  0.29887251486E+02  0.29887251911E+02  0.50400000000E-02 0.  1.
          2   -1    0    0  501    0  0.00000000000E+00 -0.00000000000E+00 -0.54353219508E+02  0.54353219568E+02  0.25500000000E-02 0. -1.
         24    2    1    2    0    0  0.00000000000E+00  0.00000000000E+00 -0.24465968022E+02  0.84240471479E+02  0.80609388062E+02 0.  0.
         66    2    3    3    0    0  0.20051594115E+02  0.11959065260E+02 -0.46542471130E+02  0.52108418604E+02  0.20000005333E+01 0.  0.
        -13    1    3    3    0    0 -0.20051594115E+02 -0.11959065260E+02  0.22076503107E+02  0.32132052874E+02  0.10566000000E+00 0.  1.
         13    1    4    4    0    0  0.31403933195E+00  0.14792086014E+00 -0.77202860882E+00  0.85304952453E+00  0.10566000000E+00 0. -1.
        -13    1    4    4    0    0  0.94990296097E+01  0.54139109756E+01 -0.23636960251E+02  0.26043407026E+02  0.10566000000E+00 0.  1.
         14    1    4    4    0    0  0.10238525173E+02  0.63972334241E+01 -0.22133482270E+02  0.25211962054E+02  0.00000000000E+00 0. -1.
<mgrwt>
<rscale>  0 0.80609388E+02</rscale>
<asrwt>0</asrwt>
<pdfrwt beam="1">  1        2 0.83620338E-02 0.80609388E+02</pdfrwt>
<pdfrwt beam="2">  1       -1 0.45980387E-02 0.80609388E+02</pdfrwt>
<totfact> 0.14908290E+05</totfact>
</mgrwt>
</event>
<event>
 8    1  0.1226832E-016  0.7912879E+02  0.7818608E-02  0.1331542E+00
          2   -1    0    0  501    0  0.00000000000E+00  0.00000000000E+00  0.37375752015E+03  0.37375752016E+03  0.25500000000E-02 0. -1.
         -1   -1    0    0    0  501 -0.00000000000E+00 -0.00000000000E+00 -0.41881180485E+01  0.41881210811E+01  0.50400000000E-02 0.  1.
         24    2    1    2    0    0  0.17763568394E-14  0.00000000000E+00  0.36956940210E+03  0.37794564124E+03  0.79128785929E+02 0.  0.
         66    2    3    3    0    0 -0.13498275423E+02  0.31373770143E+01  0.36177456340E+03  0.36204541331E+03  0.20000001730E+01 0.  0.
        -13    1    3    3    0    0  0.13498275423E+02 -0.31373770143E+01  0.77948387059E+01  0.15900227936E+02  0.10566000000E+00 0.  1.
         13    1    4    4    0    0 -0.97165729160E+01  0.24014298060E+01  0.26634797007E+03  0.26653598440E+03  0.10566000000E+00 0. -1.
        -13    1    4    4    0    0 -0.82552566545E+00  0.37584231253E+00  0.31904506442E+02  0.31917572674E+02  0.10566000000E+00 0.  1.
        -14    1    4    4    0    0 -0.29561768412E+01  0.36010489574E+00  0.63522086882E+02  0.63591856231E+02  0.00000000000E+00 0.  1.
<mgrwt>
<rscale>  0 0.79128786E+02</rscale>
<asrwt>0</asrwt>
<pdfrwt beam="1">  1        2 0.57501143E-01 0.79128786E+02</pdfrwt>
<pdfrwt beam="2">  1       -1 0.64432625E-03 0.79128786E+02</pdfrwt>
<totfact> 0.28386458E+05</totfact>
</mgrwt>
</event>
<event>
 8    1  0.1226832E-016  0.7950561E+02  0.7818608E-02  0.1330460E+00
         -1   -1    0    0    0  501 -0.00000000000E+00  0.00000000000E+00  0.10975640114E+01  0.10975755831E+01  0.50400000000E-02 0.  1.
          2   -1    0    0  501    0  0.00000000000E+00 -0.00000000000E+00 -0.14398041893E+04  0.14398041893E+04  0.25500000000E-02 0. -1.
         24    2    1    2    0    0  0.00000000000E+00  0.35527136788E-14 -0.14387066253E+04  0.14409017649E+04  0.79505612383E+02 0.  0.
         66    2    3    3    0    0  0.63751766540E+01  0.19926859232E+02 -0.13318690587E+04  0.13320348765E+04  0.19999988812E+01 0.  0.
        -13    1    3    3    0    0 -0.63751766540E+01 -0.19926859232E+02 -0.10683756661E+03  0.10886688844E+03  0.10566000000E+00 0.  1.
         13    1    4    4    0    0  0.18013794118E+01  0.73817920400E+01 -0.47693655521E+03  0.47699709085E+03  0.10566000000E+00 0. -1.
        -13    1    4    4    0    0  0.17411983910E+01  0.46775658289E+01 -0.28045194099E+03  0.28049637032E+03  0.10566000000E+00 0.  1.
         14    1    4    4    0    0  0.28325988513E+01  0.78675013626E+01 -0.57448056249E+03  0.57454141528E+03  0.00000000000E+00 0. -1.
<mgrwt>
<rscale>  0 0.79505612E+02</rscale>
<asrwt>0</asrwt>
<pdfrwt beam="1">  1        2 0.22150683E+00 0.79505612E+02</pdfrwt>
<pdfrwt beam="2">  1       -1 0.16885804E-03 0.79505612E+02</pdfrwt>
<totfact> 0.34275851E+05</totfact>
</mgrwt>
</event>
<event>
 8    1  0.1226832E-016  0.8323574E+02  0.7818608E-02  0.1320112E+00
          2   -1    0    0  501    0  0.00000000000E+00  0.00000000000E+00  0.49549124467E+03  0.49549124468E+03  0.25500000000E-02 0. -1.
         -1   -1    0    0    0  501 -0.00000000000E+00 -0.00000000000E+00 -0.34956139258E+01  0.34956175592E+01  0.50400000000E-02 0.  1.
         24    2    1    2    0    0  0.00000000000E+00  0.00000000000E+00  0.49199563075E+03  0.49898686224E+03  0.83235737593E+02 0.  0.
         66    2    3    3    0    0  0.23272237079E+02  0.30040483155E+02  0.34752432521E+03  0.34960146491E+03  0.20000022893E+01 0.  0.
        -13    1    3    3    0    0 -0.23272237079E+02 -0.30040483155E+02  0.14447130554E+03  0.14938539733E+03  0.10566000000E+00 0.  1.
         13    1    4    4    0    0  0.10924619524E+01  0.16111815467E+01  0.18204162250E+02  0.18308251319E+02  0.10566000000E+00 0. -1.
        -13    1    4    4    0    0  0.18612124600E+02  0.23556776004E+02  0.26797973399E+03  0.26965622906E+03  0.10566000000E+00 0.  1.
        -14    1    4    4    0    0  0.35676505262E+01  0.48725256038E+01  0.61340428969E+02  0.61636984532E+02  0.00000000000E+00 0.  1.
<mgrwt>
<rscale>  0 0.83235738E+02</rscale>
<asrwt>0</asrwt>
<pdfrwt beam="1">  1        2 0.76229373E-01 0.83235738E+02</pdfrwt>
<pdfrwt beam="2">  1       -1 0.53778739E-03 0.83235738E+02</pdfrwt>
<totfact> 0.27376615E+05</totfact>
</mgrwt>
</event>
<event>
 8    1  0.1226832E-016  0.8068085E+02  0.7818608E-02  0.1327130E+00
          2   -1    0    0  501    0  0.00000000000E+00  0.00000000000E+00  0.16755339158E+04  0.16755339158E+04  0.25500000000E-02 0. -1.
         -1   -1    0    0    0  501 -0.00000000000E+00 -0.00000000000E+00 -0.97123611871E+00  0.97124919557E+00  0.50400000000E-02 0.  1.
         24    2    1    2    0    0  0.00000000000E+00  0.00000000000E+00  0.16745626797E+04  0.16765051650E+04  0.80680853256E+02 0.  0.
         66    2    3    3    0    0  0.10434565006E+02 -0.10248059307E+02  0.16184616581E+04  0.16185289746E+04  0.20000037114E+01 0.  0.
        -13    1    3    3    0    0 -0.10434565006E+02  0.10248059307E+02  0.56101021570E+02  0.57976190385E+02  0.10566000000E+00 0.  1.
         13    1    4    4    0    0  0.35639975699E+01 -0.29776092519E+01  0.48984562352E+03  0.48986764976E+03  0.10566000000E+00 0.  1.
        -13    1    4    4    0    0  0.66557216057E+01 -0.64733935523E+01  0.10339385558E+04  0.10339802473E+04  0.10566000000E+00 0. -1.
         14    1    4    4    0    0  0.21484583009E+00 -0.79705650274E+00  0.94677478833E+02  0.94681077603E+02  0.00000000000E+00 0. -1.
<mgrwt>
<rscale>  0 0.80680853E+02</rscale>
<asrwt>0</asrwt>
<pdfrwt beam="1">  1        2 0.25777427E+00 0.80680853E+02</pdfrwt>
<pdfrwt beam="2">  1       -1 0.14942205E-03 0.80680853E+02</pdfrwt>
<totfact> 0.30904140E+05</totfact>
</mgrwt>
</event>
<event>
 8    1  0.1226832E-016  0.7479035E+02  0.7818608E-02  0.1344521E+00
         -1   -1    0    0    0  501 -0.00000000000E+00  0.00000000000E+00  0.10590587894E+03  0.10590587906E+03  0.50400000000E-02 0.  1.
          2   -1    0    0  501    0  0.00000000000E+00 -0.00000000000E+00 -0.13204170027E+02  0.13204170273E+02  0.25500000000E-02 0. -1.
         24    2    1    2    0    0  0.71054273576E-14  0.35527136788E-14  0.92701708916E+02  0.11911004934E+03  0.74790353769E+02 0.  0.
         66    2    3    3    0    0 -0.31832312618E+02 -0.19348898280E+02  0.41681492014E+02  0.55937668599E+02  0.20000001218E+01 0.  0.
        -13    1    3    3    0    0  0.31832312618E+02  0.19348898280E+02  0.51020216902E+02  0.63172380737E+02  0.10566000000E+00 0.  1.
         13    1    4    4    0    0 -0.11861191661E+02 -0.69024977199E+01  0.15037955919E+02  0.20358870908E+02  0.10566000000E+00 0. -1.
        -13    1    4    4    0    0 -0.32044137726E+01 -0.17023766279E+01  0.34321583318E+01  0.49957210349E+01  0.10566000000E+00 0.  1.
        -14    1    4    4    0    0 -0.16766707185E+02 -0.10744023932E+02  0.23211377764E+02  0.30583076656E+02  0.00000000000E+00 0.  1.
<mgrwt>
<rscale>  0 0.74790354E+02</rscale>
<asrwt>0</asrwt>
<pdfrwt beam="1">  1        2 0.20314108E-02 0.74790354E+02</pdfrwt>
<pdfrwt beam="2">  1       -1 0.16293212E-01 0.74790354E+02</pdfrwt>
<totfact> 0.13850767E+05</totfact>
</mgrwt>
</event>
<event>
 8    1  0.1818883E-016  0.7750769E+02  0.7818608E-02  0.1336277E+00
          2   -1    0    0  501    0  0.00000000000E+00  0.00000000000E+00  0.16917927390E+03  0.16917927392E+03  0.25500000000E-02 0. -1.
         -1   -1    0    0    0  501 -0.00000000000E+00 -0.00000000000E+00 -0.88773315761E+01  0.88773330068E+01  0.50400000000E-02 0.  1.
         24    2    1    2    0    0 -0.35527136788E-14 -0.44408920985E-15  0.16030194232E+03  0.17805660692E+03  0.77507693535E+02 0.  0.
         66    2    3    3    0    0  0.24799295176E+02  0.21377908482E+01  0.14836328693E+03  0.15045012494E+03  0.19999986055E+01 0.  0.
        -13    1    3    3    0    0 -0.24799295176E+02 -0.21377908482E+01  0.11938655389E+02  0.27606481982E+02  0.10566000000E+00 0.  1.
         13    1    4    4    0    0  0.10893088647E+02  0.96131643961E+00  0.65139566506E+02  0.66051175600E+02  0.10566000000E+00 0. -1.
        -13    1    4    4    0    0  0.13766573454E+02  0.99154948960E+00  0.81706525949E+02  0.82864161503E+02  0.10566000000E+00 0.  1.
        -14    1    4    4    0    0  0.13963307512E+00  0.18492491897E+00  0.15171944778E+01  0.15347878371E+01  0.00000000000E+00 0.  1.
<mgrwt>
<rscale>  0 0.77507694E+02</rscale>
<asrwt>0</asrwt>
<pdfrwt beam="1">  1        2 0.26027579E-01 0.77507694E+02</pdfrwt>
<pdfrwt beam="2">  1       -1 0.13657435E-02 0.77507694E+02</pdfrwt>
<totfact> 0.22653261E+05</totfact>
</mgrwt>
</event>
<event>
 8    1  0.1226832E-016  0.8034208E+02  0.7818608E-02  0.1328083E+00
          2   -1    0    0  501    0  0.00000000000E+00  0.00000000000E+00  0.74175329164E+02  0.74175329208E+02  0.25500000000E-02 0. -1.
         -1   -1    0    0    0  501 -0.00000000000E+00 -0.00000000000E+00 -0.21755381857E+02  0.21755382441E+02  0.50400000000E-02 0.  1.
         24    2    1    2    0    0  0.00000000000E+00  0.00000000000E+00  0.52419947306E+02  0.95930711649E+02  0.80342084625E+02 0.  0.
         66    2    3    3    0    0 -0.33546431783E+02 -0.70009614790E+01  0.51196240760E+02  0.61639529564E+02  0.19999974779E+01 0.  0.
        -13    1    3    3    0    0  0.33546431783E+02  0.70009614790E+01  0.12237065461E+01  0.34291182085E+02  0.10566000000E+00 0.  1.
         13    1    4    4    0    0 -0.23281138735E+02 -0.45547221285E+01  0.34632951342E+02  0.41978677887E+02  0.10566000000E+00 0.  1.
        -13    1    4    4    0    0 -0.13350931033E+01 -0.40711669425E-01  0.22886073505E+01  0.26519839130E+01  0.10566000000E+00 0. -1.
        -14    1    4    4    0    0 -0.89301999449E+01 -0.24055276811E+01  0.14274682068E+02  0.17008867764E+02  0.00000000000E+00 0.  1.
<mgrwt>
<rscale>  0 0.80342085E+02</rscale>
<asrwt>0</asrwt>
<pdfrwt beam="1">  1        2 0.11411589E-01 0.80342085E+02</pdfrwt>
<pdfrwt beam="2">  1       -1 0.33469819E-02 0.80342085E+02</pdfrwt>
<totfact> 0.16191309E+05</totfact>
</mgrwt>
</event>
<event>
 8    1  0.1226832E-016  0.8149216E+02  0.7818608E-02  0.1324869E+00
         -1   -1    0    0    0  501 -0.00000000000E+00  0.00000000000E+00  0.25034308455E+01  0.25034359189E+01  0.50400000000E-02 0.  1.
          2   -1    0    0  501    0  0.00000000000E+00 -0.00000000000E+00 -0.66318649206E+03  0.66318649206E+03  0.25500000000E-02 0. -1.
         24    2    1    2    0    0 -0.71054273576E-14  0.00000000000E+00 -0.66068306121E+03  0.66568992798E+03  0.81492164306E+02 0.  0.
         66    2    3    3    0    0  0.32682433475E+02  0.17749731049E+02 -0.46601429859E+03  0.46750028972E+03  0.19999964424E+01 0.  0.
        -13    1    3    3    0    0 -0.32682433475E+02 -0.17749731049E+02 -0.19466876262E+03  0.19818963826E+03  0.10566000000E+00 0.  1.
         13    1    4    4    0    0  0.11629124284E+02  0.67162724230E+01 -0.16139677550E+03  0.16195454656E+03  0.10566000000E+00 0. -1.
        -13    1    4    4    0    0  0.46057586740E+01  0.21055085032E+01 -0.69983186668E+02  0.70166257983E+02  0.10566000000E+00 0.  1.
         14    1    4    4    0    0  0.16447550517E+02  0.89279501225E+01 -0.23463433643E+03  0.23537948518E+03  0.00000000000E+00 0. -1.
<mgrwt>
<rscale>  0 0.81492164E+02</rscale>
<asrwt>0</asrwt>
<pdfrwt beam="1">  1        2 0.10202855E+00 0.81492164E+02</pdfrwt>
<pdfrwt beam="2">  1       -1 0.38514413E-03 0.81492164E+02</pdfrwt>
<totfact> 0.31472647E+05</totfact>
</mgrwt>
</event>
<event>
 8    1  0.1226832E-016  0.8031515E+02  0.7818608E-02  0.1328159E+00
         -1   -1    0    0    0  501 -0.00000000000E+00  0.00000000000E+00  0.16399708032E+02  0.16399708807E+02  0.50400000000E-02 0.  1.
          2   -1    0    0  501    0  0.00000000000E+00 -0.00000000000E+00 -0.98332886639E+02  0.98332886672E+02  0.25500000000E-02 0. -1.
         24    2    1    2    0    0  0.00000000000E+00 -0.88817841970E-15 -0.81933178606E+02  0.11473259548E+03  0.80315146197E+02 0.  0.
         66    2    3    3    0    0 -0.37277868026E+02 -0.57571336617E+01 -0.21413154689E+02  0.43420124678E+02  0.20000001877E+01 0.  0.
        -13    1    3    3    0    0  0.37277868026E+02  0.57571336617E+01 -0.60520023918E+02  0.71312470800E+02  0.10566000000E+00 0.  1.
         13    1    4    4    0    0 -0.24897509134E+02 -0.35795185458E+01 -0.14256277113E+02  0.28912826137E+02  0.10566000000E+00 0. -1.
        -13    1    4    4    0    0 -0.78947009150E+01 -0.12989851322E+01 -0.39482497082E+01  0.89226400075E+01  0.10566000000E+00 0.  1.
        -14    1    4    4    0    0 -0.44856579772E+01 -0.87862998370E+00 -0.32086278681E+01  0.55846585332E+01  0.00000000000E+00 0.  1.
<mgrwt>
<rscale>  0 0.80315146E+02</rscale>
<asrwt>0</asrwt>
<pdfrwt beam="1">  1        2 0.15128136E-01 0.80315146E+02</pdfrwt>
<pdfrwt beam="2">  1       -1 0.25230321E-02 0.80315146E+02</pdfrwt>
<totfact> 0.17457932E+05</totfact>
</mgrwt>
</event>
<event>
 8    1  0.1226832E-016  0.8115223E+02  0.7818608E-02  0.1325813E+00
         -1   -1    0    0    0  501 -0.00000000000E+00  0.00000000000E+00  0.86523341835E+02  0.86523341982E+02  0.50400000000E-02 0.  1.
          2   -1    0    0  501    0  0.00000000000E+00 -0.00000000000E+00 -0.19028633716E+02  0.19028633887E+02  0.25500000000E-02 0. -1.
         24    2    1    2    0    0  0.00000000000E+00  0.00000000000E+00  0.67494708119E+02  0.10555197587E+03  0.81152227237E+02 0.  0.
         66    2    3    3    0    0 -0.19070293080E+02  0.32002345787E+02  0.54602416531E+02  0.66130553260E+02  0.19999923565E+01 0.  0.
        -13    1    3    3    0    0  0.19070293080E+02 -0.32002345787E+02  0.12892291588E+02  0.39421422608E+02  0.10566000000E+00 0.  1.
         13    1    4    4    0    0 -0.64548275797E+01  0.10020436095E+02  0.18251024154E+02  0.21798738159E+02  0.10566000000E+00 0. -1.
        -13    1    4    4    0    0 -0.51061522251E+01  0.87151713960E+01  0.15532881979E+02  0.18528588441E+02  0.10566000000E+00 0.  1.
         14    1    4    4    0    0 -0.75093132749E+01  0.13266738296E+02  0.20818510398E+02  0.25803226660E+02  0.00000000000E+00 0. -1.
<mgrwt>
<rscale>  0 0.81152227E+02</rscale>
<asrwt>0</asrwt>
<pdfrwt beam="1">  1        2 0.29274822E-02 0.81152227E+02</pdfrwt>
<pdfrwt beam="2">  1       -1 0.13311283E-01 0.81152227E+02</pdfrwt>
<totfact> 0.11793596E+05</totfact>
</mgrwt>
</event>
<event>
 8    1  0.1226832E-016  0.8079371E+02  0.7818608E-02  0.1326814E+00
          2   -1    0    0  501    0  0.00000000000E+00  0.00000000000E+00  0.16157071384E+02  0.16157071586E+02  0.25500000000E-02 0. -1.
         -1   -1    0    0    0  501 -0.00000000000E+00 -0.00000000000E+00 -0.10100258351E+03  0.10100258364E+03  0.50400000000E-02 0.  1.
         24    2    1    2    0    0  0.00000000000E+00 -0.71054273576E-14 -0.84845512127E+02  0.11715965522E+03  0.80793711908E+02 0.  0.
         66    2    3    3    0    0 -0.18605603359E+02  0.35409191172E+02 -0.34516479287E+02  0.52871226976E+02  0.20000009445E+01 0.  0.
        -13    1    3    3    0    0  0.18605603359E+02 -0.35409191172E+02 -0.50329032840E+02  0.64288428247E+02  0.10566000000E+00 0.  1.
         13    1    4    4    0    0 -0.93196269659E+01  0.18570010928E+02 -0.18779190870E+02  0.28006605050E+02  0.10566000000E+00 0. -1.
        -13    1    4    4    0    0 -0.89595600008E+01  0.16180902404E+02 -0.14903924552E+02  0.23753598656E+02  0.10566000000E+00 0.  1.
         14    1    4    4    0    0 -0.32641639238E+00  0.65827783945E+00 -0.83336386487E+00  0.11110232700E+01  0.00000000000E+00 0. -1.
<mgrwt>
<rscale>  0 0.80793712E+02</rscale>
<asrwt>0</asrwt>
<pdfrwt beam="1">  1        2 0.24857034E-02 0.80793712E+02</pdfrwt>
<pdfrwt beam="2">  1       -1 0.15538859E-01 0.80793712E+02</pdfrwt>
<totfact> 0.11540038E+05</totfact>
</mgrwt>
</event>
<event>
 8    1  0.1226832E-016  0.7928277E+02  0.7818608E-02  0.1331099E+00
          2   -1    0    0  501    0  0.00000000000E+00  0.00000000000E+00  0.75335284879E+03  0.75335284880E+03  0.25500000000E-02 0. -1.
         -1   -1    0    0    0  501 -0.00000000000E+00 -0.00000000000E+00 -0.20859242213E+01  0.20859303101E+01  0.50400000000E-02 0.  1.
         24    2    1    2    0    0  0.35527136788E-14  0.17763568394E-14  0.75126692457E+03  0.75543877911E+03  0.79282766248E+02 0.  0.
         66    2    3    3    0    0  0.15466332304E+02  0.11764000436E+02  0.70482083839E+03  0.70509149292E+03  0.20000030546E+01 0.  0.
        -13    1    3    3    0    0 -0.15466332304E+02 -0.11764000436E+02  0.46446086180E+02  0.50347286190E+02  0.10566000000E+00 0.  1.
         13    1    4    4    0    0  0.36403151455E+01  0.21286417148E+01  0.14689545928E+03  0.14695601427E+03  0.10566000000E+00 0. -1.
        -13    1    4    4    0    0  0.11213235953E+01  0.11975439328E+01  0.48839073228E+02  0.48866734246E+02  0.10566000000E+00 0.  1.
         14    1    4    4    0    0  0.10704693564E+02  0.84378147886E+01  0.50908630589E+03  0.50926874440E+03  0.00000000000E+00 0. -1.
<mgrwt>
<rscale>  0 0.79282766E+02</rscale>
<asrwt>0</asrwt>
<pdfrwt beam="1">  1        2 0.11590037E+00 0.79282766E+02</pdfrwt>
<pdfrwt beam="2">  1       -1 0.32091209E-03 0.79282766E+02</pdfrwt>
<totfact> 0.34787424E+05</totfact>
</mgrwt>
</event>
<event>
 8    1  0.1226832E-016  0.8006094E+02  0.7818608E-02  0.1328879E+00
         -1   -1    0    0    0  501 -0.00000000000E+00  0.00000000000E+00  0.11497760409E+02  0.11497761513E+02  0.50400000000E-02 0.  1.
          2   -1    0    0  501    0  0.00000000000E+00 -0.00000000000E+00 -0.13936961379E+03  0.13936961381E+03  0.25500000000E-02 0. -1.
         24    2    1    2    0    0 -0.17763568394E-14 -0.88817841970E-15 -0.12787185338E+03  0.15086737532E+03  0.80060939606E+02 0.  0.
         66    2    3    3    0    0 -0.12514641736E+02  0.78494426678E+01 -0.13403418521E+03  0.13486064219E+03  0.19999998050E+01 0.  0.
        -13    1    3    3    0    0  0.12514641736E+02 -0.78494426678E+01  0.61623318308E+01  0.16006733134E+02  0.10566000000E+00 0.  1.
         13    1    4    4    0    0 -0.13945990071E+01  0.23826018103E+00 -0.13527227336E+02  0.13601423372E+02  0.10566000000E+00 0.  1.
        -13    1    4    4    0    0 -0.46961354056E+01  0.29119071212E+01 -0.49239295383E+02  0.49548483980E+02  0.10566000000E+00 0. -1.
        -14    1    4    4    0    0 -0.64239073236E+01  0.46992753656E+01 -0.71267662488E+02  0.71710734836E+02  0.00000000000E+00 0.  1.
<mgrwt>
<rscale>  0 0.80060940E+02</rscale>
<asrwt>0</asrwt>
<pdfrwt beam="1">  1        2 0.21441478E-01 0.80060940E+02</pdfrwt>
<pdfrwt beam="2">  1       -1 0.17688864E-02 0.80060940E+02</pdfrwt>
<totfact> 0.19526717E+05</totfact>
</mgrwt>
</event>
<event>
 8    1  0.1226832E-016  0.7888123E+02  0.7818608E-02  0.1332257E+00
         -1   -1    0    0    0  501 -0.00000000000E+00  0.00000000000E+00  0.18734315496E+02  0.18734316174E+02  0.50400000000E-02 0.  1.
          2   -1    0    0  501    0  0.00000000000E+00 -0.00000000000E+00 -0.83032772438E+02  0.83032772477E+02  0.25500000000E-02 0. -1.
         24    2    1    2    0    0 -0.17763568394E-14  0.00000000000E+00 -0.64298456942E+02  0.10176708865E+03  0.78881232035E+02 0.  0.
         66    2    3    3    0    0 -0.91617711066E+01  0.30700187628E+02 -0.61790001914E+02  0.69630768375E+02  0.19999994351E+01 0.  0.
        -13    1    3    3    0    0  0.91617711066E+01 -0.30700187628E+02 -0.25084550279E+01  0.32136320276E+02  0.10566000000E+00 0.  1.
         13    1    4    4    0    0 -0.10312310030E+00  0.48245421679E+00 -0.63749640450E+00  0.81299578502E+00  0.10566000000E+00 0. -1.
        -13    1    4    4    0    0 -0.35131059414E+01  0.10600593099E+02 -0.22459590024E+02  0.25083038800E+02  0.10566000000E+00 0.  1.
         14    1    4    4    0    0 -0.55455420649E+01  0.19617140313E+02 -0.38692915486E+02  0.43734733790E+02  0.00000000000E+00 0. -1.
<mgrwt>
<rscale>  0 0.78881232E+02</rscale>
<asrwt>0</asrwt>
<pdfrwt beam="1">  1        2 0.12774273E-01 0.78881232E+02</pdfrwt>
<pdfrwt beam="2">  1       -1 0.28822025E-02 0.78881232E+02</pdfrwt>
<totfact> 0.17508118E+05</totfact>
</mgrwt>
</event>
<event>
 8    1  0.1226832E-016  0.7942772E+02  0.7818608E-02  0.1330683E+00
          2   -1    0    0  501    0  0.00000000000E+00  0.00000000000E+00  0.15071567793E+02  0.15071568009E+02  0.25500000000E-02 0. -1.
         -1   -1    0    0    0  501 -0.00000000000E+00 -0.00000000000E+00 -0.10464676224E+03  0.10464676236E+03  0.50400000000E-02 0.  1.
         24    2    1    2    0    0  0.00000000000E+00  0.88817841970E-15 -0.89575194442E+02  0.11971833037E+03  0.79427722906E+02 0.  0.
         66    2    3    3    0    0 -0.32864572209E+02  0.71148982978E+01 -0.13038645877E+02  0.36120744787E+02  0.20000083508E+01 0.  0.
        -13    1    3    3    0    0  0.32864572209E+02 -0.71148982978E+01 -0.76536548565E+02  0.83597585578E+02  0.10566000000E+00 0.  1.
         13    1    4    4    0    0 -0.16660957904E+02  0.29012923539E+01 -0.65341328758E+01  0.18130390842E+02  0.10566000000E+00 0. -1.
        -13    1    4    4    0    0 -0.51927339515E+00  0.57777276346E-01 -0.79339410597E-01  0.53892657222E+00  0.10566000000E+00 0. -1.
         14    1    4    4    0    0 -0.15684340910E+02  0.41558286675E+01 -0.64251735908E+01  0.17451427373E+02  0.00000000000E+00 0. -1.
<mgrwt>
<rscale>  0 0.79427723E+02</rscale>
<asrwt>0</asrwt>
<pdfrwt beam="1">  1        2 0.23187028E-02 0.79427723E+02</pdfrwt>
<pdfrwt beam="2">  1       -1 0.16099501E-01 0.79427723E+02</pdfrwt>
<totfact> 0.11949682E+05</totfact>
</mgrwt>
</event>
<event>
 8    1  0.1226832E-016  0.7090081E+02  0.7818608E-02  0.1357056E+00
         -1   -1    0    0    0  501 -0.00000000000E+00  0.00000000000E+00  0.29511305819E+02  0.29511306249E+02  0.50400000000E-02 0.  1.
          2   -1    0    0  501    0  0.00000000000E+00 -0.00000000000E+00 -0.42584742897E+02  0.42584742973E+02  0.25500000000E-02 0. -1.
         24    2    1    2    0    0  0.00000000000E+00  0.00000000000E+00 -0.13073437078E+02  0.72096049223E+02  0.70900814921E+02 0.  0.
         66    2    3    3    0    0 -0.24567692005E+02  0.82750488509E+01 -0.31087570340E+02  0.40527582596E+02  0.19999993784E+01 0.  0.
        -13    1    3    3    0    0  0.24567692005E+02 -0.82750488509E+01  0.18014133262E+02  0.31568466626E+02  0.10566000000E+00 0.  1.
         13    1    4    4    0    0 -0.17327495712E+02  0.59268504750E+01 -0.21544607841E+02  0.28276332069E+02  0.10566000000E+00 0. -1.
        -13    1    4    4    0    0 -0.16827272106E+01  0.10080462748E+01 -0.23325623838E+01  0.30495474200E+01  0.10566000000E+00 0.  1.
         14    1    4    4    0    0 -0.55574690820E+01  0.13401521010E+01 -0.72104001155E+01  0.92017031074E+01  0.00000000000E+00 0. -1.
<mgrwt>
<rscale>  0 0.70900815E+02</rscale>
<asrwt>0</asrwt>
<pdfrwt beam="1">  1        2 0.65514989E-02 0.70900815E+02</pdfrwt>
<pdfrwt beam="2">  1       -1 0.45402009E-02 0.70900815E+02</pdfrwt>
<totfact> 0.20078060E+05</totfact>
</mgrwt>
</event>
<event>
 8    1  0.1226832E-016  0.7876375E+02  0.7818608E-02  0.1332597E+00
         -1   -1    0    0    0  501 -0.00000000000E+00  0.00000000000E+00  0.85725268147E+02  0.85725268295E+02  0.50400000000E-02 0.  1.
          2   -1    0    0  501    0  0.00000000000E+00 -0.00000000000E+00 -0.18091888057E+02  0.18091888237E+02  0.25500000000E-02 0. -1.
         24    2    1    2    0    0  0.00000000000E+00  0.00000000000E+00  0.67633380089E+02  0.10381715653E+03  0.78763747296E+02 0.  0.
         66    2    3    3    0    0 -0.16144756859E+02  0.35710279674E+02  0.29076926336E+02  0.48839992741E+02  0.19999993349E+01 0.  0.
        -13    1    3    3    0    0  0.16144756859E+02 -0.35710279674E+02  0.38556453753E+02  0.54977163791E+02  0.10566000000E+00 0.  1.
         13    1    4    4    0    0 -0.10276690413E+02  0.21977196341E+02  0.18196650784E+02  0.30327162555E+02  0.10566000000E+00 0. -1.
        -13    1    4    4    0    0 -0.35453331578E+01  0.79663500021E+01  0.70209914928E+01  0.11195427867E+02  0.10566000000E+00 0.  1.
        -14    1    4    4    0    0 -0.23227332886E+01  0.57667333312E+01  0.38592840591E+01  0.73174023186E+01  0.00000000000E+00 0.  1.
<mgrwt>
<rscale>  0 0.78763747E+02</rscale>
<asrwt>0</asrwt>
<pdfrwt beam="1">  1        2 0.27833674E-02 0.78763747E+02</pdfrwt>
<pdfrwt beam="2">  1       -1 0.13188503E-01 0.78763747E+02</pdfrwt>
<totfact> 0.12723299E+05</totfact>
</mgrwt>
</event>
<event>
 8    1  0.1226832E-016  0.7972413E+02  0.7818608E-02  0.1329836E+00
         -1   -1    0    0    0  501 -0.00000000000E+00  0.00000000000E+00  0.13275791027E+03  0.13275791037E+03  0.50400000000E-02 0.  1.
          2   -1    0    0  501    0  0.00000000000E+00 -0.00000000000E+00 -0.11969035874E+02  0.11969036145E+02  0.25500000000E-02 0. -1.
         24    2    1    2    0    0  0.44408920985E-15  0.71054273576E-14  0.12078887440E+03  0.14472694651E+03  0.79724129777E+02 0.  0.
         66    2    3    3    0    0  0.30446397958E+01  0.25674080049E+02  0.11545115773E+03  0.11832750332E+03  0.20000004584E+01 0.  0.
        -13    1    3    3    0    0 -0.30446397958E+01 -0.25674080049E+02  0.53377166675E+01  0.26399443197E+02  0.10566000000E+00 0.  1.
         13    1    4    4    0    0  0.89178422649E+00  0.35314807316E+01  0.15056838746E+02  0.15491487738E+02  0.10566000000E+00 0. -1.
        -13    1    4    4    0    0  0.20985536451E+00  0.62655575657E+01  0.26858699427E+02  0.27580829390E+02  0.10566000000E+00 0.  1.
         14    1    4    4    0    0  0.19430002048E+01  0.15877041752E+02  0.73535619559E+02  0.75255186190E+02  0.00000000000E+00 0. -1.
<mgrwt>
<rscale>  0 0.79724130E+02</rscale>
<asrwt>0</asrwt>
<pdfrwt beam="1">  1        2 0.18413901E-02 0.79724130E+02</pdfrwt>
<pdfrwt beam="2">  1       -1 0.20424295E-01 0.79724130E+02</pdfrwt>
<totfact> 0.11215006E+05</totfact>
</mgrwt>
</event>
<event>
 8    1  0.1226832E-016  0.7926990E+02  0.7818608E-02  0.1331136E+00
         -1   -1    0    0    0  501 -0.00000000000E+00  0.00000000000E+00  0.19384637030E+03  0.19384637037E+03  0.50400000000E-02 0.  1.
          2   -1    0    0  501    0  0.00000000000E+00 -0.00000000000E+00 -0.81039914392E+01  0.81039918404E+01  0.25500000000E-02 0. -1.
         24    2    1    2    0    0 -0.35527136788E-14  0.00000000000E+00  0.18574237887E+03  0.20195036221E+03  0.79269902803E+02 0.  0.
         66    2    3    3    0    0 -0.23097585916E+02 -0.32123934510E+02  0.88178431886E+02  0.96668927201E+02  0.19999981826E+01 0.  0.
        -13    1    3    3    0    0  0.23097585916E+02  0.32123934510E+02  0.97563946979E+02  0.10528143501E+03  0.10566000000E+00 0.  1.
         13    1    4    4    0    0 -0.16946465253E+02 -0.22949250559E+02  0.62869087131E+02  0.69039003951E+02  0.10566000000E+00 0. -1.
        -13    1    4    4    0    0 -0.84061968839E+00 -0.79778868967E+00  0.25136341699E+01  0.27699510880E+01  0.10566000000E+00 0.  1.
         14    1    4    4    0    0 -0.53105009740E+01 -0.83768952609E+01  0.22795710585E+02  0.24859972162E+02  0.00000000000E+00 0. -1.
<mgrwt>
<rscale>  0 0.79269903E+02</rscale>
<asrwt>0</asrwt>
<pdfrwt beam="1">  1        2 0.12467680E-02 0.79269903E+02</pdfrwt>
<pdfrwt beam="2">  1       -1 0.29822517E-01 0.79269903E+02</pdfrwt>
<totfact> 0.10291255E+05</totfact>
</mgrwt>
</event>
<event>
 8    1  0.1226832E-016  0.8318117E+02  0.7818608E-02  0.1320259E+00
          2   -1    0    0  501    0  0.00000000000E+00  0.00000000000E+00  0.16636979066E+04  0.16636979066E+04  0.25500000000E-02 0. -1.
         -1   -1    0    0    0  501 -0.00000000000E+00 -0.00000000000E+00 -0.10397119951E+01  0.10397242107E+01  0.50400000000E-02 0.  1.
         24    2    1    2    0    0  0.00000000000E+00  0.00000000000E+00  0.16626581946E+04  0.16647376308E+04  0.83181171890E+02 0.  0.
         66    2    3    3    0    0  0.20353813104E+01 -0.11308825003E+02  0.16312776053E+04  0.16313192997E+04  0.19999972356E+01 0.  0.
        -13    1    3    3    0    0 -0.20353813104E+01  0.11308825003E+02  0.31380589384E+02  0.33418331110E+02  0.10566000000E+00 0.  1.
         13    1    4    4    0    0  0.30919776951E+00 -0.55032647259E+01  0.69775945847E+03  0.69778123690E+03  0.10566000000E+00 0. -1.
        -13    1    4    4    0    0  0.59060557222E+00 -0.21121212470E+01  0.28971425394E+03  0.28972257415E+03  0.10566000000E+00 0. -1.
         14    1    4    4    0    0  0.11355779687E+01 -0.36934390296E+01  0.64380389284E+03  0.64381548868E+03  0.00000000000E+00 0. -1.
<mgrwt>
<rscale>  0 0.83181172E+02</rscale>
<asrwt>0</asrwt>
<pdfrwt beam="1">  1        2 0.25595297E+00 0.83181172E+02</pdfrwt>
<pdfrwt beam="2">  1       -1 0.15995698E-03 0.83181172E+02</pdfrwt>
<totfact> 0.28650438E+05</totfact>
</mgrwt>
</event>
<event>
 8    1  0.1226832E-016  0.7950489E+02  0.7818608E-02  0.1330462E+00
          2   -1    0    0  501    0  0.00000000000E+00  0.00000000000E+00  0.59060291804E+02  0.59060291859E+02  0.25500000000E-02 0. -1.
         -1   -1    0    0    0  501 -0.00000000000E+00 -0.00000000000E+00 -0.26756674920E+02  0.26756675395E+02  0.50400000000E-02 0.  1.
         24    2    1    2    0    0  0.00000000000E+00 -0.71054273576E-14  0.32303616884E+02  0.85816967253E+02  0.79504894219E+02 0.  0.
         66    2    3    3    0    0 -0.17560643164E+02  0.33149326710E+02  0.30276805743E+02  0.48248720327E+02  0.19999993871E+01 0.  0.
        -13    1    3    3    0    0  0.17560643164E+02 -0.33149326710E+02  0.20268111404E+01  0.37568246926E+02  0.10566000000E+00 0.  1.
         13    1    4    4    0    0 -0.74029357507E+01  0.14176554699E+02  0.12059990219E+02  0.20030793519E+02  0.10566000000E+00 0. -1.
        -13    1    4    4    0    0 -0.42239506628E+00  0.13175466281E+01  0.11117683221E+01  0.17780718621E+01  0.10566000000E+00 0.  1.
         14    1    4    4    0    0 -0.97353123470E+01  0.17655225383E+02  0.17105047202E+02  0.26439854947E+02  0.00000000000E+00 0. -1.
<mgrwt>
<rscale>  0 0.79504894E+02</rscale>
<asrwt>0</asrwt>
<pdfrwt beam="1">  1        2 0.90861986E-02 0.79504894E+02</pdfrwt>
<pdfrwt beam="2">  1       -1 0.41164117E-02 0.79504894E+02</pdfrwt>
<totfact> 0.15773922E+05</totfact>
</mgrwt>
</event>
<event>
 8    1  0.1226832E-016  0.8040495E+02  0.7818608E-02  0.1327906E+00
          2   -1    0    0  501    0  0.00000000000E+00  0.00000000000E+00  0.10883924931E+02  0.10883925229E+02  0.25500000000E-02 0. -1.
         -1   -1    0    0    0  501 -0.00000000000E+00 -0.00000000000E+00 -0.14849779829E+03  0.14849779838E+03  0.50400000000E-02 0.  1.
         24    2    1    2    0    0  0.00000000000E+00  0.44408920985E-15 -0.13761387336E+03  0.15938172361E+03  0.80404948096E+02 0.  0.
         66    2    3    3    0    0 -0.32095996366E+02  0.22318862914E+01 -0.21147850425E+02  0.38553415823E+02  0.19999987163E+01 0.  0.
        -13    1    3    3    0    0  0.32095996366E+02 -0.22318862914E+01 -0.11646602294E+03  0.12082830778E+03  0.10566000000E+00 0.  1.
         13    1    4    4    0    0 -0.25228494787E+02  0.15900172535E+01 -0.16834812638E+02  0.30371486376E+02  0.10566000000E+00 0. -1.
        -13    1    4    4    0    0 -0.51804444653E+01  0.18726478353E+00 -0.34936424943E+01  0.62521016363E+01  0.10566000000E+00 0.  1.
        -14    1    4    4    0    0 -0.16870571145E+01  0.45460425435E+00 -0.81939529242E+00  0.19298278112E+01  0.00000000000E+00 0.  1.
<mgrwt>
<rscale>  0 0.80404948E+02</rscale>
<asrwt>0</asrwt>
<pdfrwt beam="1">  1        2 0.16744501E-02 0.80404948E+02</pdfrwt>
<pdfrwt beam="2">  1       -1 0.22845814E-01 0.80404948E+02</pdfrwt>
<totfact> 0.10677797E+05</totfact>
</mgrwt>
</event>
<event>
 8    1  0.1226832E-016  0.8082680E+02  0.7818608E-02  0.1326721E+00
          2   -1    0    0  501    0  0.00000000000E+00  0.00000000000E+00  0.31118849814E+02  0.31118849918E+02  0.25500000000E-02 0. -1.
         -1   -1    0    0    0  501 -0.00000000000E+00 -0.00000000000E+00 -0.52484037910E+02  0.52484038152E+02  0.50400000000E-02 0.  1.
         24    2    1    2    0    0  0.35527136788E-14  0.00000000000E+00 -0.21365188097E+02  0.83602888071E+02  0.80826800205E+02 0.  0.
         66    2    3    3    0    0 -0.27172538190E+02 -0.40836002005E+01  0.19928495217E+02  0.34002464001E+02  0.20000035542E+01 0.  0.
        -13    1    3    3    0    0  0.27172538190E+02  0.40836002005E+01 -0.41293683313E+02  0.49600424070E+02  0.10566000000E+00 0.  1.
         13    1    4    4    0    0 -0.16365367180E+02 -0.18477027044E+01  0.12347603143E+02  0.20584307510E+02  0.10566000000E+00 0. -1.
        -13    1    4    4    0    0 -0.20752430127E+01 -0.68780351375E+00  0.17808991910E+01  0.28217854630E+01  0.10566000000E+00 0.  1.
         14    1    4    4    0    0 -0.87319279974E+01 -0.15480939824E+01  0.57999928821E+01  0.10596371028E+02  0.00000000000E+00 0. -1.
<mgrwt>
<rscale>  0 0.80826800E+02</rscale>
<asrwt>0</asrwt>
<pdfrwt beam="1">  1        2 0.47875154E-02 0.80826800E+02</pdfrwt>
<pdfrwt beam="2">  1       -1 0.80744674E-02 0.80826800E+02</pdfrwt>
<totfact> 0.13168338E+05</totfact>
</mgrwt>
</event>
<event>
 8    1  0.1226832E-016  0.8071311E+02  0.7818608E-02  0.1327040E+00
          2   -1    0    0  501    0  0.00000000000E+00  0.00000000000E+00  0.39540539297E+03  0.39540539297E+03  0.25500000000E-02 0. -1.
         -1   -1    0    0    0  501 -0.00000000000E+00 -0.00000000000E+00 -0.41189391510E+01  0.41189422345E+01  0.50400000000E-02 0.  1.
         24    2    1    2    0    0  0.00000000000E+00  0.00000000000E+00  0.39128645382E+03  0.39952433521E+03  0.80713106029E+02 0.  0.
         66    2    3    3    0    0  0.33188983467E+02  0.30101706561E+01  0.30821219487E+03  0.31001504287E+03  0.19999976553E+01 0.  0.
        -13    1    3    3    0    0 -0.33188983467E+02 -0.30101706561E+01  0.83074258945E+02  0.89509292334E+02  0.10566000000E+00 0.  1.
         13    1    4    4    0    0  0.62182882779E+01  0.10777287788E+01  0.56802993806E+02  0.57152601671E+02  0.10566000000E+00 0. -1.
        -13    1    4    4    0    0  0.92114266672E+01  0.11125662875E+01  0.90067378506E+02  0.90544088818E+02  0.10566000000E+00 0.  1.
        -14    1    4    4    0    0  0.17759268522E+02  0.81987558980E+00  0.16134182256E+03  0.16231835239E+03  0.00000000000E+00 0.  1.
<mgrwt>
<rscale>  0 0.80713106E+02</rscale>
<asrwt>0</asrwt>
<pdfrwt beam="1">  1        2 0.60831605E-01 0.80713106E+02</pdfrwt>
<pdfrwt beam="2">  1       -1 0.63368312E-03 0.80713106E+02</pdfrwt>
<totfact> 0.27494398E+05</totfact>
</mgrwt>
</event>
<event>
 8    1  0.1226832E-016  0.8093223E+02  0.7818608E-02  0.1326427E+00
          2   -1    0    0  501    0  0.00000000000E+00  0.00000000000E+00  0.15623847528E+04  0.15623847528E+04  0.25500000000E-02 0. -1.
         -1   -1    0    0    0  501 -0.00000000000E+00 -0.00000000000E+00 -0.10480753778E+01  0.10480874960E+01  0.50400000000E-02 0.  1.
         24    2    1    2    0    0 -0.17763568394E-14  0.00000000000E+00  0.15613366774E+04  0.15634328403E+04  0.80932230037E+02 0.  0.
         66    2    3    3    0    0  0.10849677106E+02  0.17650162200E+02  0.14520746364E+04  0.14522238097E+04  0.19999999373E+01 0.  0.
        -13    1    3    3    0    0 -0.10849677106E+02 -0.17650162200E+02  0.10926204098E+03  0.11120903058E+03  0.10566000000E+00 0.  1.
         13    1    4    4    0    0  0.97831552380E+00  0.17897863209E+01  0.17143046602E+03  0.17144263262E+03  0.10566000000E+00 0.  1.
        -13    1    4    4    0    0  0.12296886586E+01  0.26768399200E+01  0.18008328141E+03  0.18010740410E+03  0.10566000000E+00 0. -1.
         14    1    4    4    0    0  0.86416729232E+01  0.13183535959E+02  0.11005608890E+04  0.11006737730E+04  0.00000000000E+00 0. -1.
<mgrwt>
<rscale>  0 0.80932230E+02</rscale>
<asrwt>0</asrwt>
<pdfrwt beam="1">  1        2 0.24036574E+00 0.80932230E+02</pdfrwt>
<pdfrwt beam="2">  1       -1 0.16124407E-03 0.80932230E+02</pdfrwt>
<totfact> 0.31734125E+05</totfact>
</mgrwt>
</event>
<event>
 8    1  0.1226832E-016  0.7974310E+02  0.7818608E-02  0.1329782E+00
          2   -1    0    0  501    0  0.00000000000E+00  0.00000000000E+00  0.40341793139E+03  0.40341793139E+03  0.25500000000E-02 0. -1.
         -1   -1    0    0    0  501 -0.00000000000E+00 -0.00000000000E+00 -0.39406770619E+01  0.39406802849E+01  0.50400000000E-02 0.  1.
         24    2    1    2    0    0  0.00000000000E+00  0.35527136788E-14  0.39947725432E+03  0.40735861168E+03  0.79743098677E+02 0.  0.
         66    2    3    3    0    0  0.13053590437E+02  0.31809043850E+02  0.30273470824E+03  0.30468756960E+03  0.20000009417E+01 0.  0.
        -13    1    3    3    0    0 -0.13053590437E+02 -0.31809043850E+02  0.96742546085E+02  0.10267104208E+03  0.10566000000E+00 0.  1.
         13    1    4    4    0    0  0.63674009603E+00  0.22369752991E+01  0.19934572332E+02  0.20070073107E+02  0.10566000000E+00 0. -1.
        -13    1    4    4    0    0  0.44527666507E+01  0.89637909017E+01  0.91384954380E+02  0.91931483884E+02  0.10566000000E+00 0.  1.
         14    1    4    4    0    0  0.79640836907E+01  0.20608277650E+02  0.19141518153E+03  0.19268601261E+03  0.00000000000E+00 0. -1.
<mgrwt>
<rscale>  0 0.79743099E+02</rscale>
<asrwt>0</asrwt>
<pdfrwt beam="1">  1        2 0.62064266E-01 0.79743099E+02</pdfrwt>
<pdfrwt beam="2">  1       -1 0.60625857E-03 0.79743099E+02</pdfrwt>
<totfact> 0.28576697E+05</totfact>
</mgrwt>
</event>
<event>
 8    1  0.1226832E-016  0.8031164E+02  0.7818608E-02  0.1328169E+00
          2   -1    0    0  501    0  0.00000000000E+00  0.00000000000E+00  0.89649251183E+03  0.89649251183E+03  0.25500000000E-02 0. -1.
         -1   -1    0    0    0  501 -0.00000000000E+00 -0.00000000000E+00 -0.17986615839E+01  0.17986686451E+01  0.50400000000E-02 0.  1.
         24    2    1    2    0    0  0.00000000000E+00  0.00000000000E+00  0.89469385024E+03  0.89829118048E+03  0.80311638370E+02 0.  0.
         66    2    3    3    0    0 -0.30258875211E+02  0.45809482505E+01  0.73798335344E+03  0.73862034535E+03  0.20000004035E+01 0.  0.
        -13    1    3    3    0    0  0.30258875211E+02 -0.45809482505E+01  0.15671049681E+03  0.15967083513E+03  0.10566000000E+00 0.  1.
         13    1    4    4    0    0 -0.19995608471E+02  0.37466443677E+01  0.49247099952E+03  0.49289102065E+03  0.10566000000E+00 0. -1.
        -13    1    4    4    0    0 -0.97459473620E+01  0.81876713378E+00  0.23644493769E+03  0.23664714998E+03  0.10566000000E+00 0.  1.
        -14    1    4    4    0    0 -0.51731937808E+00  0.15536749020E-01  0.90674162241E+01  0.90821747236E+01  0.00000000000E+00 0.  1.
<mgrwt>
<rscale>  0 0.80311638E+02</rscale>
<asrwt>0</asrwt>
<pdfrwt beam="1">  1        2 0.13792199E+00 0.80311638E+02</pdfrwt>
<pdfrwt beam="2">  1       -1 0.27671759E-03 0.80311638E+02</pdfrwt>
<totfact> 0.34580456E+05</totfact>
</mgrwt>
</event>
<event>
 8    1  0.1226832E-016  0.7941960E+02  0.7818608E-02  0.1330707E+00
         -1   -1    0    0    0  501 -0.00000000000E+00  0.00000000000E+00  0.16395061551E+01  0.16395139018E+01  0.50400000000E-02 0.  1.
          2   -1    0    0  501    0  0.00000000000E+00 -0.00000000000E+00 -0.96179231692E+03  0.96179231692E+03  0.25500000000E-02 0. -1.
         24    2    1    2    0    0  0.00000000000E+00  0.00000000000E+00 -0.96015281076E+03  0.96343183082E+03  0.79419598509E+02 0.  0.
         66    2    3    3    0    0 -0.16601593483E+02 -0.19392040642E+02 -0.84896782519E+03  0.84935389112E+03  0.20000009052E+01 0.  0.
        -13    1    3    3    0    0  0.16601593483E+02  0.19392040642E+02 -0.11118498557E+03  0.11407793971E+03  0.10566000000E+00 0.  1.
         13    1    4    4    0    0 -0.11947682124E+02 -0.14121401432E+02 -0.61788876749E+03  0.61816559370E+03  0.10566000000E+00 0. -1.
        -13    1    4    4    0    0 -0.42601218741E+01 -0.42796071635E+01 -0.19720950771E+03  0.19730196342E+03  0.10566000000E+00 0.  1.
         14    1    4    4    0    0 -0.39378948550E+00 -0.99103204650E+00 -0.33869549993E+02  0.33886333992E+02  0.00000000000E+00 0. -1.
<mgrwt>
<rscale>  0 0.79419599E+02</rscale>
<asrwt>0</asrwt>
<pdfrwt beam="1">  1        2 0.14796760E+00 0.79419599E+02</pdfrwt>
<pdfrwt beam="2">  1       -1 0.25223308E-03 0.79419599E+02</pdfrwt>
<totfact> 0.35825966E+05</totfact>
</mgrwt>
</event>
<event>
 8    1  0.1226832E-016  0.8259408E+02  0.7818608E-02  0.1321847E+00
          2   -1    0    0  501    0  0.00000000000E+00  0.00000000000E+00  0.70125582375E+02  0.70125582422E+02  0.25500000000E-02 0. -1.
         -1   -1    0    0    0  501 -0.00000000000E+00 -0.00000000000E+00 -0.24319878738E+02  0.24319879261E+02  0.50400000000E-02 0.  1.
         24    2    1    2    0    0 -0.35527136788E-14  0.00000000000E+00  0.45805703637E+02  0.94445461682E+02  0.82594084211E+02 0.  0.
         66    2    3    3    0    0  0.21941704445E+02 -0.33074666437E+02  0.35856822702E+02  0.53526476483E+02  0.19999991429E+01 0.  0.
        -13    1    3    3    0    0 -0.21941704445E+02  0.33074666437E+02  0.99488809348E+01  0.40918985199E+02  0.10566000000E+00 0.  1.
         13    1    4    4    0    0  0.41819964554E+01 -0.63268899548E+01  0.59914387700E+01  0.96657712276E+01  0.10566000000E+00 0. -1.
        -13    1    4    4    0    0  0.37130397593E+01 -0.59055146669E+01  0.69798493696E+01  0.98686994580E+01  0.10566000000E+00 0.  1.
         14    1    4    4    0    0  0.14046668230E+02 -0.20842261815E+02  0.22885534563E+02  0.33992005798E+02  0.00000000000E+00 0. -1.
<mgrwt>
<rscale>  0 0.82594084E+02</rscale>
<asrwt>0</asrwt>
<pdfrwt beam="1">  1        2 0.10788551E-01 0.82594084E+02</pdfrwt>
<pdfrwt beam="2">  1       -1 0.37415199E-02 0.82594084E+02</pdfrwt>
<totfact> 0.14814208E+05</totfact>
</mgrwt>
</event>
<event>
 8    1  0.1226832E-016  0.7932846E+02  0.7818608E-02  0.1330968E+00
         -1   -1    0    0    0  501 -0.00000000000E+00  0.00000000000E+00  0.88228112258E+02  0.88228112402E+02  0.50400000000E-02 0.  1.
          2   -1    0    0  501    0  0.00000000000E+00 -0.00000000000E+00 -0.17831631297E+02  0.17831631479E+02  0.25500000000E-02 0. -1.
         24    2    1    2    0    0 -0.35527136788E-14  0.00000000000E+00  0.70396480962E+02  0.10605974388E+03  0.79328461099E+02 0.  0.
         66    2    3    3    0    0 -0.18419583066E+02 -0.34887500029E+02  0.30072342953E+02  0.49646394674E+02  0.19999987293E+01 0.  0.
        -13    1    3    3    0    0  0.18419583066E+02  0.34887500029E+02  0.40324138008E+02  0.56413349207E+02  0.10566000000E+00 0.  1.
         13    1    4    4    0    0 -0.34451158047E+01 -0.63241491053E+01  0.58146583568E+01  0.92566246903E+01  0.10566000000E+00 0. -1.
        -13    1    4    4    0    0 -0.14771550924E+02 -0.28296212901E+02  0.23771660949E+02  0.39799213680E+02  0.10566000000E+00 0.  1.
        -14    1    4    4    0    0 -0.20291633689E+00 -0.26713802241E+00  0.48602364681E+00  0.59055630388E+00  0.00000000000E+00 0.  1.
<mgrwt>
<rscale>  0 0.79328461E+02</rscale>
<asrwt>0</asrwt>
<pdfrwt beam="1">  1        2 0.27433278E-02 0.79328461E+02</pdfrwt>
<pdfrwt beam="2">  1       -1 0.13573556E-01 0.79328461E+02</pdfrwt>
<totfact> 0.12426574E+05</totfact>
</mgrwt>
</event>
<event>
 8    1  0.1226832E-016  0.7915750E+02  0.7818608E-02  0.1331459E+00
         -1   -1    0    0    0  501 -0.00000000000E+00  0.00000000000E+00  0.36229168445E+01  0.36229203502E+01  0.50400000000E-02 0.  1.
          2   -1    0    0  501    0  0.00000000000E+00 -0.00000000000E+00 -0.43238001686E+03  0.43238001687E+03  0.25500000000E-02 0. -1.
         24    2    1    2    0    0  0.00000000000E+00  0.00000000000E+00 -0.42875710002E+03  0.43600293722E+03  0.79157504058E+02 0.  0.
         66    2    3    3    0    0  0.38093023670E+02 -0.28342705580E+01 -0.27105264127E+03  0.27373827990E+03  0.20000004382E+01 0.  0.
        -13    1    3    3    0    0 -0.38093023670E+02  0.28342705580E+01 -0.15770445875E+03  0.16226465732E+03  0.10566000000E+00 0.  1.
         13    1    4    4    0    0  0.21724062688E+02 -0.17134798687E+01 -0.15910742055E+03  0.16059281849E+03  0.10566000000E+00 0. -1.
        -13    1    4    4    0    0  0.58747997572E+01 -0.51213267302E+00 -0.43386841876E+02  0.43785896863E+02  0.10566000000E+00 0. -1.
         14    1    4    4    0    0  0.10494161225E+02 -0.60865801622E+00 -0.68558378839E+02  0.69359564541E+02  0.00000000000E+00 0. -1.
<mgrwt>
<rscale>  0 0.79157504E+02</rscale>
<asrwt>0</asrwt>
<pdfrwt beam="1">  1        2 0.66519962E-01 0.79157504E+02</pdfrwt>
<pdfrwt beam="2">  1       -1 0.55737244E-03 0.79157504E+02</pdfrwt>
<totfact> 0.29836336E+05</totfact>
</mgrwt>
</event>
<event>
 8    1  0.1226832E-016  0.8035175E+02  0.7818608E-02  0.1328056E+00
         -1   -1    0    0    0  501 -0.00000000000E+00  0.00000000000E+00  0.57501241866E+02  0.57501242087E+02  0.50400000000E-02 0.  1.
          2   -1    0    0  501    0  0.00000000000E+00 -0.00000000000E+00 -0.28070716080E+02  0.28070716196E+02  0.25500000000E-02 0. -1.
         24    2    1    2    0    0  0.71054273576E-14  0.00000000000E+00  0.29430525786E+02  0.85571958283E+02  0.80351752914E+02 0.  0.
         66    2    3    3    0    0  0.38332777628E+02 -0.57469757845E+01  0.25876877309E+02  0.46648069052E+02  0.19999989009E+01 0.  0.
        -13    1    3    3    0    0 -0.38332777628E+02  0.57469757845E+01  0.35536484769E+01  0.38923889232E+02  0.10566000000E+00 0.  1.
         13    1    4    4    0    0  0.13820783132E+02 -0.20366816662E+01  0.85515999977E+01  0.16379961696E+02  0.10566000000E+00 0. -1.
        -13    1    4    4    0    0  0.95914501244E+01 -0.18129707881E+01  0.62797942076E+01  0.11607314844E+02  0.10566000000E+00 0.  1.
        -14    1    4    4    0    0  0.14920544372E+02 -0.18973233302E+01  0.11045483104E+02  0.18660792512E+02  0.00000000000E+00 0.  1.
<mgrwt>
<rscale>  0 0.80351753E+02</rscale>
<asrwt>0</asrwt>
<pdfrwt beam="1">  1        2 0.43185717E-02 0.80351753E+02</pdfrwt>
<pdfrwt beam="2">  1       -1 0.88463449E-02 0.80351753E+02</pdfrwt>
<totfact> 0.13117189E+05</totfact>
</mgrwt>
</event>
<event>
 8    1  0.1226832E-016  0.7992982E+02  0.7818608E-02  0.1329251E+00
          2   -1    0    0  501    0  0.00000000000E+00  0.00000000000E+00  0.29713443631E+03  0.29713443633E+03  0.25500000000E-02 0. -1.
         -1   -1    0    0    0  501 -0.00000000000E+00 -0.00000000000E+00 -0.53753232072E+01  0.53753255700E+01  0.50400000000E-02 0.  1.
         24    2    1    2    0    0 -0.44408920985E-15  0.00000000000E+00  0.29175911311E+03  0.30250976190E+03  0.79929818972E+02 0.  0.
         66    2    3    3    0    0 -0.28881666130E+01  0.12800636556E+02  0.28873889959E+03  0.28904385471E+03  0.20000011391E+01 0.  0.
        -13    1    3    3    0    0  0.28881666130E+01 -0.12800636556E+02  0.30202135133E+01  0.13465907185E+02  0.10566000000E+00 0.  1.
         13    1    4    4    0    0 -0.14725812369E+01  0.64193482513E+01  0.16099868948E+03  0.16113337862E+03  0.10566000000E+00 0. -1.
        -13    1    4    4    0    0 -0.25520798489E-01  0.16922714723E+01  0.36243128785E+02  0.36282778039E+02  0.10566000000E+00 0.  1.
         14    1    4    4    0    0 -0.13900645776E+01  0.46890168319E+01  0.91497081330E+02  0.91627698052E+02  0.00000000000E+00 0. -1.
<mgrwt>
<rscale>  0 0.79929819E+02</rscale>
<asrwt>0</asrwt>
<pdfrwt beam="1">  1        2 0.45713000E-01 0.79929819E+02</pdfrwt>
<pdfrwt beam="2">  1       -1 0.82697280E-03 0.79929819E+02</pdfrwt>
<totfact> 0.25464574E+05</totfact>
</mgrwt>
</event>
<event>
 8    1  0.1226832E-016  0.7872670E+02  0.7818608E-02  0.1332704E+00
          2   -1    0    0  501    0  0.00000000000E+00  0.00000000000E+00  0.53038821113E+02  0.53038821174E+02  0.25500000000E-02 0. -1.
         -1   -1    0    0    0  501 -0.00000000000E+00 -0.00000000000E+00 -0.29213948697E+02  0.29213949132E+02  0.50400000000E-02 0.  1.
         24    2    1    2    0    0  0.71054273576E-14 -0.35527136788E-14  0.23824872415E+02  0.82252770306E+02  0.78726702442E+02 0.  0.
         66    2    3    3    0    0  0.28273667020E+02  0.26817390532E+02  0.63038609603E+01  0.39526084404E+02  0.20000009103E+01 0.  0.
        -13    1    3    3    0    0 -0.28273667020E+02 -0.26817390532E+02  0.17521011455E+02  0.42726685901E+02  0.10566000000E+00 0.  1.
         13    1    4    4    0    0  0.22681596854E+02  0.20821509535E+02  0.47131024081E+01  0.31148267905E+02  0.10566000000E+00 0. -1.
        -13    1    4    4    0    0  0.36362556976E+01  0.35252822606E+01  0.79320843647E+00  0.51274081342E+01  0.10566000000E+00 0.  1.
        -14    1    4    4    0    0  0.19558144683E+01  0.24705987369E+01  0.79755011571E+00  0.32504083651E+01  0.00000000000E+00 0.  1.
<mgrwt>
<rscale>  0 0.78726702E+02</rscale>
<asrwt>0</asrwt>
<pdfrwt beam="1">  1        2 0.81598186E-02 0.78726702E+02</pdfrwt>
<pdfrwt beam="2">  1       -1 0.44944537E-02 0.78726702E+02</pdfrwt>
<totfact> 0.15815733E+05</totfact>
</mgrwt>
</event>
<event>
 8    1  0.1226832E-016  0.8357113E+02  0.7818608E-02  0.1319212E+00
          2   -1    0    0  501    0  0.00000000000E+00  0.00000000000E+00  0.94059467264E+02  0.94059467298E+02  0.25500000000E-02 0. -1.
         -1   -1    0    0    0  501 -0.00000000000E+00 -0.00000000000E+00 -0.18563078083E+02  0.18563078767E+02  0.50400000000E-02 0.  1.
         24    2    1    2    0    0  0.35527136788E-14 -0.35527136788E-14  0.75496389181E+02  0.11262254607E+03  0.83571126012E+02 0.  0.
         66    2    3    3    0    0  0.18248594240E+02 -0.26719017394E+02  0.73350914419E+02  0.80195222583E+02  0.19999991790E+01 0.  0.
        -13    1    3    3    0    0 -0.18248594240E+02  0.26719017394E+02  0.21454747619E+01  0.32427323483E+02  0.10566000000E+00 0.  1.
         13    1    4    4    0    0  0.71569450962E+01 -0.93049605806E+01  0.25685173748E+02  0.28240812117E+02  0.10566000000E+00 0. -1.
        -13    1    4    4    0    0  0.48608548518E+00 -0.69920930214E+00  0.24248506979E+01  0.25722048305E+01  0.10566000000E+00 0.  1.
         14    1    4    4    0    0  0.10605563659E+02 -0.16714847512E+02  0.45240889973E+02  0.49382205636E+02  0.00000000000E+00 0. -1.
<mgrwt>
<rscale>  0 0.83571126E+02</rscale>
<asrwt>0</asrwt>
<pdfrwt beam="1">  1        2 0.14470688E-01 0.83571126E+02</pdfrwt>
<pdfrwt beam="2">  1       -1 0.28558582E-02 0.83571126E+02</pdfrwt>
<totfact> 0.15496144E+05</totfact>
</mgrwt>
</event>
<event>
 8    1  0.1226832E-016  0.8317471E+02  0.7818608E-02  0.1320276E+00
          2   -1    0    0  501    0  0.00000000000E+00  0.00000000000E+00  0.34160639494E+03  0.34160639495E+03  0.25500000000E-02 0. -1.
         -1   -1    0    0    0  501 -0.00000000000E+00 -0.00000000000E+00 -0.50628662351E+01  0.50628687438E+01  0.50400000000E-02 0.  1.
         24    2    1    2    0    0  0.00000000000E+00  0.88817841970E-15  0.33654352871E+03  0.34666926370E+03  0.83174705750E+02 0.  0.
         66    2    3    3    0    0 -0.35449929606E+02  0.73361421040E+01  0.25347965580E+03  0.25605947042E+03  0.20000000850E+01 0.  0.
        -13    1    3    3    0    0  0.35449929606E+02 -0.73361421040E+01  0.83063872912E+02  0.90609793275E+02  0.10566000000E+00 0.  1.
         13    1    4    4    0    0 -0.13538729407E+02  0.27310580616E+01  0.99384170624E+02  0.10033932632E+03  0.10566000000E+00 0. -1.
        -13    1    4    4    0    0 -0.13014194508E+02  0.24336513148E+01  0.95437357305E+02  0.96351399839E+02  0.10566000000E+00 0.  1.
        -14    1    4    4    0    0 -0.88970056908E+01  0.21714327275E+01  0.58658127867E+02  0.59368744262E+02  0.00000000000E+00 0.  1.
<mgrwt>
<rscale>  0 0.83174706E+02</rscale>
<asrwt>0</asrwt>
<pdfrwt beam="1">  1        2 0.52554833E-01 0.83174706E+02</pdfrwt>
<pdfrwt beam="2">  1       -1 0.77890265E-03 0.83174706E+02</pdfrwt>
<totfact> 0.24124644E+05</totfact>
</mgrwt>
</event>
<event>
 8    1  0.1226832E-016  0.7628595E+02  0.7818608E-02  0.1339934E+00
          2   -1    0    0  501    0  0.00000000000E+00  0.00000000000E+00  0.46161550414E+02  0.46161550485E+02  0.25500000000E-02 0. -1.
         -1   -1    0    0    0  501 -0.00000000000E+00 -0.00000000000E+00 -0.31517276407E+02  0.31517276809E+02  0.50400000000E-02 0.  1.
         24    2    1    2    0    0  0.00000000000E+00  0.00000000000E+00  0.14644274008E+02  0.77678827294E+02  0.76285945289E+02 0.  0.
         66    2    3    3    0    0  0.40747225680E+01  0.16509624118E+02  0.42063218233E+02  0.45414594481E+02  0.20000028040E+01 0.  0.
        -13    1    3    3    0    0 -0.40747225680E+01 -0.16509624118E+02 -0.27418944226E+02  0.32264232813E+02  0.10566000000E+00 0.  1.
         13    1    4    4    0    0  0.33617506987E+01  0.99528661842E+01  0.24971828257E+02  0.27091775201E+02  0.10566000000E+00 0. -1.
        -13    1    4    4    0    0  0.50440049284E+00  0.48515815108E+01  0.13002989517E+02  0.13888166310E+02  0.10566000000E+00 0.  1.
         14    1    4    4    0    0  0.20857137651E+00  0.17051764231E+01  0.40884004590E+01  0.44346529702E+01  0.00000000000E+00 0. -1.
<mgrwt>
<rscale>  0 0.76285945E+02</rscale>
<asrwt>0</asrwt>
<pdfrwt beam="1">  1        2 0.71017770E-02 0.76285945E+02</pdfrwt>
<pdfrwt beam="2">  1       -1 0.48488118E-02 0.76285945E+02</pdfrwt>
<totfact> 0.16730483E+05</totfact>
</mgrwt>
</event>
<event>
 8    1  0.1226832E-016  0.8078208E+02  0.7818608E-02  0.1326847E+00
          2   -1    0    0  501    0  0.00000000000E+00  0.00000000000E+00  0.30601164074E+03  0.30601164075E+03  0.25500000000E-02 0. -1.
         -1   -1    0    0    0  501 -0.00000000000E+00 -0.00000000000E+00 -0.53312865577E+01  0.53312889400E+01  0.50400000000E-02 0.  1.
         24    2    1    2    0    0  0.88817841970E-15  0.00000000000E+00  0.30068035418E+03  0.31134292969E+03  0.80782080174E+02 0.  0.
         66    2    3    3    0    0 -0.72529443236E+01  0.33420869340E+02  0.23308194556E+03  0.23558597806E+03  0.20000003403E+01 0.  0.
        -13    1    3    3    0    0  0.72529443236E+01 -0.33420869340E+02  0.67598408619E+02  0.75756951632E+02  0.10566000000E+00 0.  1.
         13    1    4    4    0    0 -0.10148410247E+01  0.61505920519E+01  0.45903011070E+02  0.46324478132E+02  0.10566000000E+00 0. -1.
        -13    1    4    4    0    0 -0.31409860813E-01  0.75385327313E+00  0.56623038892E+01  0.57133292139E+01  0.10566000000E+00 0.  1.
         14    1    4    4    0    0 -0.62066934381E+01  0.26516424014E+02  0.18151663061E+03  0.18354817071E+03  0.00000000000E+00 0. -1.
<mgrwt>
<rscale>  0 0.80782080E+02</rscale>
<asrwt>0</asrwt>
<pdfrwt beam="1">  1        2 0.47078726E-01 0.80782080E+02</pdfrwt>
<pdfrwt beam="2">  1       -1 0.82019792E-03 0.80782080E+02</pdfrwt>
<totfact> 0.25031408E+05</totfact>
</mgrwt>
</event>
<event>
 8    1  0.1226832E-016  0.8018195E+02  0.7818608E-02  0.1328536E+00
         -1   -1    0    0    0  501 -0.00000000000E+00  0.00000000000E+00  0.16069003391E+02  0.16069004181E+02  0.50400000000E-02 0.  1.
          2   -1    0    0  501    0  0.00000000000E+00 -0.00000000000E+00 -0.10002401537E+03  0.10002401541E+03  0.25500000000E-02 0. -1.
         24    2    1    2    0    0  0.55511151231E-16 -0.35527136788E-14 -0.83955011984E+02  0.11609301959E+03  0.80181950337E+02 0.  0.
         66    2    3    3    0    0 -0.23792526182E+00  0.23925926781E+02 -0.88533469039E+02  0.91731574356E+02  0.20000032541E+01 0.  0.
        -13    1    3    3    0    0  0.23792526182E+00 -0.23925926781E+02  0.45784570549E+01  0.24361445232E+02  0.10566000000E+00 0.  1.
         13    1    4    4    0    0 -0.37375223660E+00  0.60788010149E+01 -0.21461620657E+02  0.22309276944E+02  0.10566000000E+00 0. -1.
        -13    1    4    4    0    0  0.39542831218E+00  0.35481351018E+01 -0.15311357234E+02  0.15722418727E+02  0.10566000000E+00 0.  1.
        -14    1    4    4    0    0 -0.25960133740E+00  0.14298990664E+02 -0.51760491148E+02  0.53699878685E+02  0.00000000000E+00 0.  1.
<mgrwt>
<rscale>  0 0.80181950E+02</rscale>
<asrwt>0</asrwt>
<pdfrwt beam="1">  1        2 0.15388310E-01 0.80181950E+02</pdfrwt>
<pdfrwt beam="2">  1       -1 0.24721545E-02 0.80181950E+02</pdfrwt>
<totfact> 0.17619472E+05</totfact>
</mgrwt>
</event>
<event>
 8    1  0.1226832E-016  0.8106100E+02  0.7818608E-02  0.1326067E+00
         -1   -1    0    0    0  501 -0.00000000000E+00  0.00000000000E+00  0.98500822465E+01  0.98500835359E+01  0.50400000000E-02 0.  1.
          2   -1    0    0  501    0  0.00000000000E+00 -0.00000000000E+00 -0.16677232637E+03  0.16677232639E+03  0.25500000000E-02 0. -1.
         24    2    1    2    0    0 -0.17763568394E-14  0.00000000000E+00 -0.15692224412E+03  0.17662240993E+03  0.81060995473E+02 0.  0.
         66    2    3    3    0    0  0.12946437080E+02 -0.11397683190E+02 -0.15836410396E+03  0.15931323493E+03  0.19999964060E+01 0.  0.
        -13    1    3    3    0    0 -0.12946437080E+02  0.11397683190E+02  0.14418598378E+01  0.17309174994E+02  0.10566000000E+00 0.  1.
         13    1    4    4    0    0  0.39866425654E+01 -0.29391309262E+01 -0.49932356304E+02  0.50177516675E+02  0.10566000000E+00 0. -1.
        -13    1    4    4    0    0  0.82410549765E-01 -0.23311535990E+00 -0.19581241923E+01  0.19764990913E+01  0.10566000000E+00 0. -1.
        -14    1    4    4    0    0  0.88773839645E+01 -0.82254369037E+01 -0.10647362347E+03  0.10715921917E+03  0.00000000000E+00 0.  1.
<mgrwt>
<rscale>  0 0.81060995E+02</rscale>
<asrwt>0</asrwt>
<pdfrwt beam="1">  1        2 0.25657279E-01 0.81060995E+02</pdfrwt>
<pdfrwt beam="2">  1       -1 0.15153975E-02 0.81060995E+02</pdfrwt>
<totfact> 0.20025218E+05</totfact>
</mgrwt>
</event>
<event>
 8    1  0.1226832E-016  0.7677641E+02  0.7818608E-02  0.1338457E+00
         -1   -1    0    0    0  501 -0.00000000000E+00  0.00000000000E+00  0.30703380759E+02  0.30703381173E+02  0.50400000000E-02 0.  1.
          2   -1    0    0  501    0  0.00000000000E+00 -0.00000000000E+00 -0.47996484133E+02  0.47996484201E+02  0.25500000000E-02 0. -1.
         24    2    1    2    0    0  0.00000000000E+00  0.00000000000E+00 -0.17293103374E+02  0.78699865373E+02  0.76776411647E+02 0.  0.
         66    2    3    3    0    0 -0.25407139181E+02 -0.19700756217E+02 -0.30105335155E+02  0.44090517443E+02  0.20000016885E+01 0.  0.
        -13    1    3    3    0    0  0.25407139181E+02  0.19700756217E+02  0.12812231781E+02  0.34609347930E+02  0.10566000000E+00 0.  1.
         13    1    4    4    0    0 -0.16190002107E+02 -0.13656663081E+02 -0.19427309630E+02  0.28741122773E+02  0.10566000000E+00 0. -1.
        -13    1    4    4    0    0 -0.54316636626E+01 -0.37256802745E+01 -0.63894652839E+01  0.91771506635E+01  0.10566000000E+00 0.  1.
         14    1    4    4    0    0 -0.37854734109E+01 -0.23184128613E+01 -0.42885602412E+01  0.61722440071E+01  0.00000000000E+00 0. -1.
<mgrwt>
<rscale>  0 0.76776412E+02</rscale>
<asrwt>0</asrwt>
<pdfrwt beam="1">  1        2 0.73840745E-02 0.76776412E+02</pdfrwt>
<pdfrwt beam="2">  1       -1 0.47235971E-02 0.76776412E+02</pdfrwt>
<totfact> 0.16575131E+05</totfact>
</mgrwt>
</event>
<event>
 8    1  0.1226832E-016  0.7926815E+02  0.7818608E-02  0.1331141E+00
          2   -1    0    0  501    0  0.00000000000E+00  0.00000000000E+00  0.49619553793E+02  0.49619553858E+02  0.25500000000E-02 0. -1.
         -1   -1    0    0    0  501 -0.00000000000E+00 -0.00000000000E+00 -0.31658078734E+02  0.31658079135E+02  0.50400000000E-02 0.  1.
         24    2    1    2    0    0 -0.14210854715E-13 -0.88817841970E-15  0.17961475059E+02  0.81277632993E+02  0.79268146432E+02 0.  0.
         66    2    3    3    0    0  0.38865872108E+02  0.52924414791E+01  0.33433898178E+01  0.39417562142E+02  0.19999995517E+01 0.  0.
        -13    1    3    3    0    0 -0.38865872108E+02 -0.52924414791E+01  0.14618085242E+02  0.41860070851E+02  0.10566000000E+00 0.  1.
         13    1    4    4    0    0  0.44170307062E+01  0.84586708726E+00  0.27302590866E+00  0.45068124624E+01  0.10566000000E+00 0.  1.
        -13    1    4    4    0    0  0.19624120961E+02  0.26272035587E+01  0.92044155610E+00  0.19820865237E+02  0.10566000000E+00 0. -1.
         14    1    4    4    0    0  0.14824720440E+02  0.18193708332E+01  0.21499223531E+01  0.15089884443E+02  0.00000000000E+00 0. -1.
<mgrwt>
<rscale>  0 0.79268146E+02</rscale>
<asrwt>0</asrwt>
<pdfrwt beam="1">  1        2 0.76337776E-02 0.79268146E+02</pdfrwt>
<pdfrwt beam="2">  1       -1 0.48704737E-02 0.79268146E+02</pdfrwt>
<totfact> 0.15298389E+05</totfact>
</mgrwt>
</event>
<event>
 8    1  0.1226832E-016  0.7703033E+02  0.7818608E-02  0.1337697E+00
          2   -1    0    0  501    0  0.00000000000E+00  0.00000000000E+00  0.21736231368E+03  0.21736231369E+03  0.25500000000E-02 0. -1.
         -1   -1    0    0    0  501 -0.00000000000E+00 -0.00000000000E+00 -0.68246316016E+01  0.68246334626E+01  0.50400000000E-02 0.  1.
         24    2    1    2    0    0  0.35527136788E-14  0.11102230246E-15  0.21053768207E+03  0.22418694715E+03  0.77030329746E+02 0.  0.
         66    2    3    3    0    0  0.17977220818E+02 -0.65181089617E+00  0.20436960701E+03  0.20516954355E+03  0.20000014014E+01 0.  0.
        -13    1    3    3    0    0 -0.17977220818E+02  0.65181089617E+00  0.61680750653E+01  0.19017403604E+02  0.10566000000E+00 0.  1.
         13    1    4    4    0    0  0.67770459105E+01 -0.42888929370E-01  0.73790872893E+02  0.74101513326E+02  0.10566000000E+00 0. -1.
        -13    1    4    4    0    0  0.17469837126E+01 -0.97187801096E-01  0.14956002217E+02  0.15058371888E+02  0.10566000000E+00 0.  1.
         14    1    4    4    0    0  0.94531911949E+01 -0.51173416571E+00  0.11562273190E+03  0.11600965834E+03  0.00000000000E+00 0. -1.
<mgrwt>
<rscale>  0 0.77030330E+02</rscale>
<asrwt>0</asrwt>
<pdfrwt beam="1">  1        2 0.33440361E-01 0.77030330E+02</pdfrwt>
<pdfrwt beam="2">  1       -1 0.10499433E-02 0.77030330E+02</pdfrwt>
<totfact> 0.25085841E+05</totfact>
</mgrwt>
</event>
<event>
 8    1  0.1226832E-016  0.7978216E+02  0.7818608E-02  0.1329671E+00
          2   -1    0    0  501    0  0.00000000000E+00  0.00000000000E+00  0.21857867646E+03  0.21857867648E+03  0.25500000000E-02 0. -1.
         -1   -1    0    0    0  501 -0.00000000000E+00 -0.00000000000E+00 -0.72802073791E+01  0.72802091237E+01  0.50400000000E-02 0.  1.
         24    2    1    2    0    0 -0.35527136788E-14  0.44408920985E-15  0.21129846908E+03  0.22585888560E+03  0.79782160713E+02 0.  0.
         66    2    3    3    0    0 -0.26732773967E+02  0.36457967671E+01  0.18880066830E+03  0.19072919385E+03  0.20000000923E+01 0.  0.
        -13    1    3    3    0    0  0.26732773967E+02 -0.36457967671E+01  0.22497800786E+02  0.35129691748E+02  0.10566000000E+00 0.  1.
         13    1    4    4    0    0 -0.69151207875E+01  0.11342285626E+01  0.46752230249E+02  0.47274597484E+02  0.10566000000E+00 0. -1.
        -13    1    4    4    0    0 -0.23789170632E+01  0.24570070574E+00  0.13794180199E+02  0.14000363803E+02  0.10566000000E+00 0.  1.
        -14    1    4    4    0    0 -0.17438736116E+02  0.22658674987E+01  0.12825425785E+03  0.12945423257E+03  0.00000000000E+00 0.  1.
<mgrwt>
<rscale>  0 0.79782161E+02</rscale>
<asrwt>0</asrwt>
<pdfrwt beam="1">  1        2 0.33627487E-01 0.79782161E+02</pdfrwt>
<pdfrwt beam="2">  1       -1 0.11200321E-02 0.79782161E+02</pdfrwt>
<totfact> 0.22919178E+05</totfact>
</mgrwt>
</event>
<event>
 8    1  0.1226832E-016  0.7899993E+02  0.7818608E-02  0.1331914E+00
         -1   -1    0    0    0  501 -0.00000000000E+00  0.00000000000E+00  0.66218639641E+02  0.66218639833E+02  0.50400000000E-02 0.  1.
          2   -1    0    0  501    0  0.00000000000E+00 -0.00000000000E+00 -0.23562054970E+02  0.23562055108E+02  0.25500000000E-02 0. -1.
         24    2    1    2    0    0 -0.35527136788E-14  0.88817841970E-15  0.42656584671E+02  0.89780694941E+02  0.78999930180E+02 0.  0.
         66    2    3    3    0    0 -0.30449585485E+02  0.54312443832E+01 -0.65320008173E+01  0.31675585200E+02  0.19999978323E+01 0.  0.
        -13    1    3    3    0    0  0.30449585485E+02 -0.54312443832E+01  0.49188585488E+02  0.58105109742E+02  0.10566000000E+00 0.  1.
         13    1    4    4    0    0 -0.94315381075E+01  0.24491719580E+01 -0.16647078324E+01  0.98860897505E+01  0.10566000000E+00 0. -1.
        -13    1    4    4    0    0 -0.48098735310E+01  0.93752242483E+00 -0.12015171945E+01  0.50466463404E+01  0.10566000000E+00 0.  1.
         14    1    4    4    0    0 -0.16208173846E+02  0.20445500003E+01 -0.36657757904E+01  0.16742849109E+02  0.00000000000E+00 0. -1.
<mgrwt>
<rscale>  0 0.78999930E+02</rscale>
<asrwt>0</asrwt>
<pdfrwt beam="1">  1        2 0.36249315E-02 0.78999930E+02</pdfrwt>
<pdfrwt beam="2">  1       -1 0.10187483E-01 0.78999930E+02</pdfrwt>
<totfact> 0.13295635E+05</totfact>
</mgrwt>
</event>
<event>
 8    1  0.1226832E-016  0.8039998E+02  0.7818608E-02  0.1327920E+00
         -1   -1    0    0    0  501 -0.00000000000E+00  0.00000000000E+00  0.13761407023E+03  0.13761407032E+03  0.50400000000E-02 0.  1.
          2   -1    0    0  501    0  0.00000000000E+00 -0.00000000000E+00 -0.11743270917E+02  0.11743271194E+02  0.25500000000E-02 0. -1.
         24    2    1    2    0    0  0.17763568394E-14  0.35527136788E-14  0.12587079931E+03  0.14935734152E+03  0.80399983490E+02 0.  0.
         66    2    3    3    0    0  0.11449112412E+02  0.20213384496E+02  0.20839778930E+01  0.23409529272E+02  0.20000022732E+01 0.  0.
        -13    1    3    3    0    0 -0.11449112412E+02 -0.20213384496E+02  0.12378682142E+03  0.12594781224E+03  0.10566000000E+00 0.  1.
         13    1    4    4    0    0  0.56572102322E+01  0.11303109663E+02  0.16801177198E+01  0.12751402874E+02  0.10566000000E+00 0. -1.
        -13    1    4    4    0    0  0.31440840263E+01  0.52036089594E+01 -0.45233740565E-01  0.60807911240E+01  0.10566000000E+00 0.  1.
         14    1    4    4    0    0  0.26478181531E+01  0.37066658739E+01  0.44909391382E+00  0.45773352746E+01  0.00000000000E+00 0. -1.
<mgrwt>
<rscale>  0 0.80399983E+02</rscale>
<asrwt>0</asrwt>
<pdfrwt beam="1">  1        2 0.18066572E-02 0.80399983E+02</pdfrwt>
<pdfrwt beam="2">  1       -1 0.21171394E-01 0.80399983E+02</pdfrwt>
<totfact> 0.10883916E+05</totfact>
</mgrwt>
</event>
<event>
 8    1  0.1248807E-016  0.8072625E+02  0.7818608E-02  0.1327003E+00
         -1   -1    0    0    0  501 -0.00000000000E+00  0.00000000000E+00  0.51359338525E+02  0.51359338772E+02  0.50400000000E-02 0.  1.
          2   -1    0    0  501    0  0.00000000000E+00 -0.00000000000E+00 -0.31721235840E+02  0.31721235942E+02  0.25500000000E-02 0. -1.
         24    2    1    2    0    0  0.00000000000E+00  0.00000000000E+00  0.19638102685E+02  0.83080574714E+02  0.80726246152E+02 0.  0.
         66    2    3    3    0    0 -0.30201720615E+02 -0.15047496834E+02 -0.12924025610E+02  0.36188417031E+02  0.20000000426E+01 0.  0.
        -13    1    3    3    0    0  0.30201720615E+02  0.15047496834E+02  0.32562128295E+02  0.46892157683E+02  0.10566000000E+00 0.  1.
         13    1    4    4    0    0 -0.12358041206E+02 -0.65269690479E+01 -0.53777848626E+01  0.14975120750E+02  0.10566000000E+00 0. -1.
        -13    1    4    4    0    0 -0.79050613007E+01 -0.45041595254E+01 -0.31762693785E+01  0.96372868796E+01  0.10566000000E+00 0.  1.
        -14    1    4    4    0    0 -0.99386181075E+01 -0.40163682603E+01 -0.43699713690E+01  0.11576009401E+02  0.00000000000E+00 0.  1.
<mgrwt>
<rscale>  0 0.80726246E+02</rscale>
<asrwt>0</asrwt>
<pdfrwt beam="1">  1        2 0.48801902E-02 0.80726246E+02</pdfrwt>
<pdfrwt beam="2">  1       -1 0.79014367E-02 0.80726246E+02</pdfrwt>
<totfact> 0.13264966E+05</totfact>
</mgrwt>
</event>
<event>
 8    1  0.1226832E-016  0.7843360E+02  0.7818608E-02  0.1333556E+00
         -1   -1    0    0    0  501 -0.00000000000E+00  0.00000000000E+00  0.32429872465E+02  0.32429872857E+02  0.50400000000E-02 0.  1.
          2   -1    0    0  501    0  0.00000000000E+00 -0.00000000000E+00 -0.47424097841E+02  0.47424097909E+02  0.25500000000E-02 0. -1.
         24    2    1    2    0    0  0.00000000000E+00  0.00000000000E+00 -0.14994225376E+02  0.79853970766E+02  0.78433601552E+02 0.  0.
         66    2    3    3    0    0  0.23016752331E+02 -0.13363195054E+02 -0.36791095384E+02  0.45452508935E+02  0.19999997525E+01 0.  0.
        -13    1    3    3    0    0 -0.23016752331E+02  0.13363195054E+02  0.21796870009E+02  0.34401461831E+02  0.10566000000E+00 0.  1.
         13    1    4    4    0    0  0.88438796654E+01 -0.52362010081E+01 -0.13429437957E+02  0.16911326867E+02  0.10566000000E+00 0. -1.
        -13    1    4    4    0    0  0.37649826005E+01 -0.28338127120E+01 -0.63703058552E+01  0.79244904689E+01  0.10566000000E+00 0.  1.
        -14    1    4    4    0    0  0.10407890065E+02 -0.52931813335E+01 -0.16991351572E+02  0.20616691599E+02  0.00000000000E+00 0.  1.
<mgrwt>
<rscale>  0 0.78433602E+02</rscale>
<asrwt>0</asrwt>
<pdfrwt beam="1">  1        2 0.72960150E-02 0.78433602E+02</pdfrwt>
<pdfrwt beam="2">  1       -1 0.49892112E-02 0.78433602E+02</pdfrwt>
<totfact> 0.15596073E+05</totfact>
</mgrwt>
</event>
<event>
 8    1  0.1226832E-016  0.7876230E+02  0.7818608E-02  0.1332601E+00
         -1   -1    0    0    0  501 -0.00000000000E+00  0.00000000000E+00  0.37230466302E+02  0.37230466643E+02  0.50400000000E-02 0.  1.
          2   -1    0    0  501    0  0.00000000000E+00 -0.00000000000E+00 -0.41656069615E+02  0.41656069693E+02  0.25500000000E-02 0. -1.
         24    2    1    2    0    0  0.35527136788E-14  0.00000000000E+00 -0.44256033127E+01  0.78886536336E+02  0.78762298408E+02 0.  0.
         66    2    3    3    0    0 -0.25553967947E+02 -0.17093607559E+02 -0.26822743703E+02  0.40849189440E+02  0.20000002142E+01 0.  0.
        -13    1    3    3    0    0  0.25553967947E+02  0.17093607559E+02  0.22397140391E+02  0.38037346897E+02  0.10566000000E+00 0.  1.
         13    1    4    4    0    0 -0.68132839598E+01 -0.42334141824E+01 -0.78792972884E+01  0.11244426342E+02  0.10566000000E+00 0. -1.
        -13    1    4    4    0    0 -0.17386766356E+02 -0.11656869240E+02 -0.17616392441E+02  0.27359288943E+02  0.10566000000E+00 0.  1.
        -14    1    4    4    0    0 -0.13539176313E+01 -0.12033241365E+01 -0.13270539739E+01  0.22454741547E+01  0.00000000000E+00 0.  1.
<mgrwt>
<rscale>  0 0.78762298E+02</rscale>
<asrwt>0</asrwt>
<pdfrwt beam="1">  1        2 0.64086261E-02 0.78762298E+02</pdfrwt>
<pdfrwt beam="2">  1       -1 0.57277641E-02 0.78762298E+02</pdfrwt>
<totfact> 0.15006340E+05</totfact>
</mgrwt>
</event>
<event>
 8    1  0.1226832E-016  0.7867972E+02  0.7818608E-02  0.1332841E+00
          2   -1    0    0  501    0  0.00000000000E+00  0.00000000000E+00  0.41241471191E+03  0.41241471192E+03  0.25500000000E-02 0. -1.
         -1   -1    0    0    0  501 -0.00000000000E+00 -0.00000000000E+00 -0.37525912228E+01  0.37525946074E+01  0.50400000000E-02 0.  1.
         24    2    1    2    0    0  0.00000000000E+00  0.00000000000E+00  0.40866212069E+03  0.41616730653E+03  0.78679718708E+02 0.  0.
         66    2    3    3    0    0  0.21675438399E+00 -0.37704586215E+02  0.26334780289E+03  0.26604087673E+03  0.19999992088E+01 0.  0.
        -13    1    3    3    0    0 -0.21675438399E+00  0.37704586215E+02  0.14531431780E+03  0.15012642980E+03  0.10566000000E+00 0.  1.
         13    1    4    4    0    0  0.52131025431E+00 -0.17668615359E+02  0.12286700944E+03  0.12413204624E+03  0.10566000000E+00 0. -1.
        -13    1    4    4    0    0  0.32487957104E+00 -0.13226107595E+02  0.94908172197E+02  0.95825924376E+02  0.10566000000E+00 0.  1.
        -14    1    4    4    0    0 -0.62943544135E+00 -0.68098632603E+01  0.45572621262E+02  0.46082906107E+02  0.00000000000E+00 0.  1.
<mgrwt>
<rscale>  0 0.78679719E+02</rscale>
<asrwt>0</asrwt>
<pdfrwt beam="1">  1        2 0.63448420E-01 0.78679719E+02</pdfrwt>
<pdfrwt beam="2">  1       -1 0.57732197E-03 0.78679719E+02</pdfrwt>
<totfact> 0.29822951E+05</totfact>
</mgrwt>
</event>
<event>
 8    1  0.1226832E-016  0.8722638E+02  0.7818608E-02  0.1309711E+00
          2   -1    0    0  501    0  0.00000000000E+00  0.00000000000E+00  0.76553580962E+01  0.76553585209E+01  0.25500000000E-02 0. -1.
         -1   -1    0    0    0  501 -0.00000000000E+00 -0.00000000000E+00 -0.24846784567E+03  0.24846784572E+03  0.50400000000E-02 0.  1.
         24    2    1    2    0    0 -0.35527136788E-14  0.00000000000E+00 -0.24081248758E+03  0.25612320424E+03  0.87226381215E+02 0.  0.
         66    2    3    3    0    0 -0.25599423141E+02 -0.27576535661E+02 -0.55850017573E+02  0.67372251245E+02  0.19999976912E+01 0.  0.
        -13    1    3    3    0    0  0.25599423141E+02  0.27576535661E+02 -0.18496247000E+03  0.18875095300E+03  0.10566000000E+00 0.  1.
         13    1    4    4    0    0 -0.87613101096E+01 -0.90853236289E+01 -0.18392842802E+02  0.22307207146E+02  0.10566000000E+00 0. -1.
        -13    1    4    4    0    0 -0.22955795014E+01 -0.20218639412E+01 -0.39547961295E+01  0.50009194660E+01  0.10566000000E+00 0.  1.
         14    1    4    4    0    0 -0.14542533530E+02 -0.16469348091E+02 -0.33502378641E+02  0.40064124633E+02  0.00000000000E+00 0. -1.
<mgrwt>
<rscale>  0 0.87226381E+02</rscale>
<asrwt>0</asrwt>
<pdfrwt beam="1">  1        2 0.11777476E-02 0.87226381E+02</pdfrwt>
<pdfrwt beam="2">  1       -1 0.38225816E-01 0.87226381E+02</pdfrwt>
<totfact> 0.74370209E+04</totfact>
</mgrwt>
</event>
<event>
 8    1  0.1226832E-016  0.7915332E+02  0.7818608E-02  0.1331472E+00
          2   -1    0    0  501    0  0.00000000000E+00  0.00000000000E+00  0.32008398384E+02  0.32008398485E+02  0.25500000000E-02 0. -1.
         -1   -1    0    0    0  501 -0.00000000000E+00 -0.00000000000E+00 -0.48934404229E+02  0.48934404489E+02  0.50400000000E-02 0.  1.
         24    2    1    2    0    0  0.00000000000E+00  0.17763568394E-14 -0.16926005846E+02  0.80942802974E+02  0.79153317551E+02 0.  0.
         66    2    3    3    0    0 -0.23007726972E+02 -0.15418329402E+02  0.20405146860E+02  0.34459402622E+02  0.20000071749E+01 0.  0.
        -13    1    3    3    0    0  0.23007726972E+02  0.15418329402E+02 -0.37331152705E+02  0.46483400352E+02  0.10566000000E+00 0.  1.
         13    1    4    4    0    0 -0.80091871072E+00 -0.42493248773E+00  0.58596136507E+00  0.10846903509E+01  0.10566000000E+00 0.  1.
        -13    1    4    4    0    0 -0.20157455628E+00 -0.79807888846E-02  0.13320087334E+00  0.26382286290E+00  0.10566000000E+00 0.  1.
         14    1    4    4    0    0 -0.22005233705E+02 -0.14985416126E+02  0.19685984621E+02  0.33110889408E+02  0.00000000000E+00 0. -1.
<mgrwt>
<rscale>  0 0.79153318E+02</rscale>
<asrwt>0</asrwt>
<pdfrwt beam="1">  1        2 0.49243690E-02 0.79153318E+02</pdfrwt>
<pdfrwt beam="2">  1       -1 0.75283699E-02 0.79153318E+02</pdfrwt>
<totfact> 0.14039689E+05</totfact>
</mgrwt>
</event>
<event>
 8    1  0.1226832E-016  0.8315134E+02  0.7818608E-02  0.1320339E+00
         -1   -1    0    0    0  501 -0.00000000000E+00  0.00000000000E+00  0.21351970576E+01  0.21352030059E+01  0.50400000000E-02 0.  1.
          2   -1    0    0  501    0  0.00000000000E+00 -0.00000000000E+00 -0.80954312193E+03  0.80954312194E+03  0.25500000000E-02 0. -1.
         24    2    1    2    0    0  0.00000000000E+00 -0.88817841970E-15 -0.80740792488E+03  0.81167832494E+03  0.83151344129E+02 0.  0.
         66    2    3    3    0    0 -0.19616582401E+02  0.75931430970E+01 -0.75372754991E+03  0.75402366383E+03  0.20000001343E+01 0.  0.
        -13    1    3    3    0    0  0.19616582401E+02 -0.75931430970E+01 -0.53680374967E+02  0.57654661111E+02  0.10566000000E+00 0.  1.
         13    1    4    4    0    0 -0.55859707084E+01  0.26268650089E+01 -0.20474348421E+03  0.20483654210E+03  0.10566000000E+00 0. -1.
        -13    1    4    4    0    0 -0.75536475129E+01  0.24661583692E+01 -0.27202659204E+03  0.27214264176E+03  0.10566000000E+00 0.  1.
        -14    1    4    4    0    0 -0.64769641793E+01  0.25001197189E+01 -0.27695747366E+03  0.27704447997E+03  0.00000000000E+00 0.  1.
<mgrwt>
<rscale>  0 0.83151344E+02</rscale>
<asrwt>0</asrwt>
<pdfrwt beam="1">  1        2 0.12454485E+00 0.83151344E+02</pdfrwt>
<pdfrwt beam="2">  1       -1 0.32849296E-03 0.83151344E+02</pdfrwt>
<totfact> 0.31140631E+05</totfact>
</mgrwt>
</event>
<event>
 8    1  0.1226832E-016  0.7980396E+02  0.7818608E-02  0.1329609E+00
          2   -1    0    0  501    0  0.00000000000E+00  0.00000000000E+00  0.12425631946E+04  0.12425631946E+04  0.25500000000E-02 0. -1.
         -1   -1    0    0    0  501 -0.00000000000E+00 -0.00000000000E+00 -0.12813526728E+01  0.12813625848E+01  0.50400000000E-02 0.  1.
         24    2    1    2    0    0 -0.17763568394E-14  0.00000000000E+00  0.12412818419E+04  0.12438445571E+04  0.79803955705E+02 0.  0.
         66    2    3    3    0    0  0.12248895327E+02 -0.24105484004E+02  0.10778565648E+04  0.10781975163E+04  0.20000037043E+01 0.  0.
        -13    1    3    3    0    0 -0.12248895327E+02  0.24105484004E+02  0.16342527704E+03  0.16564704083E+03  0.10566000000E+00 0.  1.
         13    1    4    4    0    0  0.76015406528E+01 -0.16301485988E+02  0.71112457790E+03  0.71135202138E+03  0.10566000000E+00 0. -1.
        -13    1    4    4    0    0  0.12106121391E+01 -0.19206355916E+01  0.77873390042E+02  0.77906549554E+02  0.10566000000E+00 0.  1.
        -14    1    4    4    0    0  0.34367425350E+01 -0.58833624243E+01  0.28885859690E+03  0.28893894537E+03  0.00000000000E+00 0.  1.
<mgrwt>
<rscale>  0 0.79803956E+02</rscale>
<asrwt>0</asrwt>
<pdfrwt beam="1">  1        2 0.19116305E+00 0.79803956E+02</pdfrwt>
<pdfrwt beam="2">  1       -1 0.19713248E-03 0.79803956E+02</pdfrwt>
<totfact> 0.35105511E+05</totfact>
</mgrwt>
</event>
<event>
 8    1  0.1226832E-016  0.7966292E+02  0.7818608E-02  0.1330011E+00
          2   -1    0    0  501    0  0.00000000000E+00  0.00000000000E+00  0.36772988906E+03  0.36772988907E+03  0.25500000000E-02 0. -1.
         -1   -1    0    0    0  501 -0.00000000000E+00 -0.00000000000E+00 -0.43144292501E+01  0.43144321938E+01  0.50400000000E-02 0.  1.
         24    2    1    2    0    0  0.35527136788E-14  0.35527136788E-14  0.36341545981E+03  0.37204432126E+03  0.79662918318E+02 0.  0.
         66    2    3    3    0    0  0.21779443997E+02  0.21234024612E+02  0.30173984346E+03  0.30327571798E+03  0.19999999671E+01 0.  0.
        -13    1    3    3    0    0 -0.21779443997E+02 -0.21234024612E+02  0.61675616352E+02  0.68768603290E+02  0.10566000000E+00 0.  1.
         13    1    4    4    0    0  0.55159267215E+01  0.57735368182E+01  0.82981863882E+02  0.83365220999E+02  0.10566000000E+00 0. -1.
        -13    1    4    4    0    0  0.31988067502E+01  0.37033394583E+01  0.50954926508E+02  0.51189479264E+02  0.10566000000E+00 0.  1.
        -14    1    4    4    0    0  0.13064710525E+02  0.11757148335E+02  0.16780305307E+03  0.16872101771E+03  0.00000000000E+00 0.  1.
<mgrwt>
<rscale>  0 0.79662918E+02</rscale>
<asrwt>0</asrwt>
<pdfrwt beam="1">  1        2 0.56573838E-01 0.79662918E+02</pdfrwt>
<pdfrwt beam="2">  1       -1 0.66375847E-03 0.79662918E+02</pdfrwt>
<totfact> 0.27731846E+05</totfact>
</mgrwt>
</event>
<event>
 8    1  0.1226832E-016  0.7901392E+02  0.7818608E-02  0.1331873E+00
         -1   -1    0    0    0  501 -0.00000000000E+00  0.00000000000E+00  0.35350849670E+01  0.35350885598E+01  0.50400000000E-02 0.  1.
          2   -1    0    0  501    0  0.00000000000E+00 -0.00000000000E+00 -0.44151666603E+03  0.44151666604E+03  0.25500000000E-02 0. -1.
         24    2    1    2    0    0  0.17763568394E-14  0.00000000000E+00 -0.43798158106E+03  0.44505175460E+03  0.79013915987E+02 0.  0.
         66    2    3    3    0    0 -0.97877813410E+01 -0.87172862919E+01 -0.42890179719E+03  0.42910668065E+03  0.20000007549E+01 0.  0.
        -13    1    3    3    0    0  0.97877813410E+01  0.87172862919E+01 -0.90797838699E+01  0.15945073943E+02  0.10566000000E+00 0.  1.
         13    1    4    4    0    0 -0.18901656788E+01 -0.16279848498E+01 -0.97139212255E+02  0.97171296084E+02  0.10566000000E+00 0.  1.
        -13    1    4    4    0    0 -0.28290676931E+01 -0.30476449040E+01 -0.14819520444E+03  0.14825357178E+03  0.10566000000E+00 0. -1.
         14    1    4    4    0    0 -0.50685479691E+01 -0.40416565382E+01 -0.18356738050E+03  0.18368181279E+03  0.00000000000E+00 0. -1.
<mgrwt>
<rscale>  0 0.79013916E+02</rscale>
<asrwt>0</asrwt>
<pdfrwt beam="1">  1        2 0.67925598E-01 0.79013916E+02</pdfrwt>
<pdfrwt beam="2">  1       -1 0.54385985E-03 0.79013916E+02</pdfrwt>
<totfact> 0.30191326E+05</totfact>
</mgrwt>
</event>
<event>
 8    1  0.1226832E-016  0.7492546E+02  0.7818608E-02  0.1344102E+00
          2   -1    0    0  501    0  0.00000000000E+00  0.00000000000E+00  0.22810923310E+03  0.22810923312E+03  0.25500000000E-02 0. -1.
         -1   -1    0    0    0  501 -0.00000000000E+00 -0.00000000000E+00 -0.61525608916E+01  0.61525629559E+01  0.50400000000E-02 0.  1.
         24    2    1    2    0    0  0.35527136788E-14  0.00000000000E+00  0.22195667221E+03  0.23426179607E+03  0.74925461362E+02 0.  0.
         66    2    3    3    0    0  0.28552628307E+02 -0.22183900040E+02  0.14138250110E+03  0.14594653002E+03  0.20000006017E+01 0.  0.
        -13    1    3    3    0    0 -0.28552628307E+02  0.22183900040E+02  0.80574171110E+02  0.88315266055E+02  0.10566000000E+00 0.  1.
         13    1    4    4    0    0  0.10253156539E+02 -0.80982876293E+01  0.53393470636E+02  0.54968930790E+02  0.10566000000E+00 0. -1.
        -13    1    4    4    0    0  0.10048911720E+02 -0.85137578403E+01  0.49964919894E+02  0.51671743568E+02  0.10566000000E+00 0.  1.
         14    1    4    4    0    0  0.82505600486E+01 -0.55718545706E+01  0.38024110572E+02  0.39305855661E+02  0.00000000000E+00 0. -1.
<mgrwt>
<rscale>  0 0.74925461E+02</rscale>
<asrwt>0</asrwt>
<pdfrwt beam="1">  1        2 0.35093722E-01 0.74925461E+02</pdfrwt>
<pdfrwt beam="2">  1       -1 0.94654816E-03 0.74925461E+02</pdfrwt>
<totfact> 0.27434853E+05</totfact>
</mgrwt>
</event>
<event>
 8    1  0.1226832E-016  0.8008443E+02  0.7818608E-02  0.1328812E+00
         -1   -1    0    0    0  501 -0.00000000000E+00  0.00000000000E+00  0.13522171062E+02  0.13522172002E+02  0.50400000000E-02 0.  1.
          2   -1    0    0  501    0  0.00000000000E+00 -0.00000000000E+00 -0.11857406865E+03  0.11857406868E+03  0.25500000000E-02 0. -1.
         24    2    1    2    0    0  0.00000000000E+00 -0.35527136788E-14 -0.10505189759E+03  0.13209624068E+03  0.80084428042E+02 0.  0.
         66    2    3    3    0    0 -0.20537690226E+02  0.23223067661E+02 -0.94295760095E+02  0.99281407918E+02  0.19999987011E+01 0.  0.
        -13    1    3    3    0    0  0.20537690226E+02 -0.23223067661E+02 -0.10756137495E+02  0.32814832763E+02  0.10566000000E+00 0.  1.
         13    1    4    4    0    0 -0.55647792269E+01  0.63715999435E+01 -0.24591945413E+02  0.26006518354E+02  0.10566000000E+00 0. -1.
        -13    1    4    4    0    0 -0.10478485214E+01  0.17431218015E+01 -0.56097769449E+01  0.59680165504E+01  0.10566000000E+00 0.  1.
         14    1    4    4    0    0 -0.13925062478E+02  0.15108345916E+02 -0.64094037738E+02  0.67306873014E+02  0.00000000000E+00 0. -1.
<mgrwt>
<rscale>  0 0.80084428E+02</rscale>
<asrwt>0</asrwt>
<pdfrwt beam="1">  1        2 0.18242164E-01 0.80084428E+02</pdfrwt>
<pdfrwt beam="2">  1       -1 0.20803342E-02 0.80084428E+02</pdfrwt>
<totfact> 0.18567678E+05</totfact>
</mgrwt>
</event>
<event>
 8    1  0.1226832E-016  0.8121355E+02  0.7818608E-02  0.1325642E+00
         -1   -1    0    0    0  501 -0.00000000000E+00  0.00000000000E+00  0.21554235940E+03  0.21554235946E+03  0.50400000000E-02 0.  1.
          2   -1    0    0  501    0  0.00000000000E+00 -0.00000000000E+00 -0.76500516915E+01  0.76500521165E+01  0.25500000000E-02 0. -1.
         24    2    1    2    0    0  0.00000000000E+00  0.00000000000E+00  0.20789230771E+03  0.22319241157E+03  0.81213551705E+02 0.  0.
         66    2    3    3    0    0 -0.99755340940E+01  0.31732998359E+02  0.40121953176E+02  0.52156165448E+02  0.20000005721E+01 0.  0.
        -13    1    3    3    0    0  0.99755340940E+01 -0.31732998359E+02  0.16777035453E+03  0.17103624613E+03  0.10566000000E+00 0.  1.
         13    1    4    4    0    0 -0.34959710457E+01  0.12808159244E+02  0.15616335194E+02  0.20497605853E+02  0.10566000000E+00 0.  1.
        -13    1    4    4    0    0 -0.14000062603E+01  0.50716532770E+01  0.57482411669E+01  0.77932743465E+01  0.10566000000E+00 0. -1.
        -14    1    4    4    0    0 -0.50795567880E+01  0.13853185838E+02  0.18757376815E+02  0.23865285248E+02  0.00000000000E+00 0.  1.
<mgrwt>
<rscale>  0 0.81213552E+02</rscale>
<asrwt>0</asrwt>
<pdfrwt beam="1">  1        2 0.11769312E-02 0.81213552E+02</pdfrwt>
<pdfrwt beam="2">  1       -1 0.33160358E-01 0.81213552E+02</pdfrwt>
<totfact> 0.93653323E+04</totfact>
</mgrwt>
</event>
<event>
 8    1  0.1226832E-016  0.7903593E+02  0.7818608E-02  0.1331810E+00
         -1   -1    0    0    0  501 -0.00000000000E+00  0.00000000000E+00  0.82576493452E+01  0.82576508833E+01  0.50400000000E-02 0.  1.
          2   -1    0    0  501    0  0.00000000000E+00 -0.00000000000E+00 -0.18911789288E+03  0.18911789290E+03  0.25500000000E-02 0. -1.
         24    2    1    2    0    0 -0.71054273576E-14 -0.88817841970E-15 -0.18086024354E+03  0.19737554378E+03  0.79035925953E+02 0.  0.
         66    2    3    3    0    0 -0.37534494211E+02 -0.74643520326E+01 -0.11484247067E+03  0.12106753434E+03  0.19999986136E+01 0.  0.
        -13    1    3    3    0    0  0.37534494211E+02  0.74643520326E+01 -0.66017772873E+02  0.76308009449E+02  0.10566000000E+00 0.  1.
         13    1    4    4    0    0 -0.13878640371E+02 -0.31182677711E+01 -0.40948313426E+02  0.43348769174E+02  0.10566000000E+00 0. -1.
        -13    1    4    4    0    0 -0.22534375452E+02 -0.42529769190E+01 -0.69662785777E+02  0.73340307989E+02  0.10566000000E+00 0.  1.
        -14    1    4    4    0    0 -0.11214783887E+01 -0.93107342538E-01 -0.42313714629E+01  0.43784571724E+01  0.00000000000E+00 0.  1.
<mgrwt>
<rscale>  0 0.79035926E+02</rscale>
<asrwt>0</asrwt>
<pdfrwt beam="1">  1        2 0.29095057E-01 0.79035926E+02</pdfrwt>
<pdfrwt beam="2">  1       -1 0.12704079E-02 0.79035926E+02</pdfrwt>
<totfact> 0.22340085E+05</totfact>
</mgrwt>
</event>
<event>
 8    1  0.1226832E-016  0.7663875E+02  0.7818608E-02  0.1338870E+00
         -1   -1    0    0    0  501 -0.00000000000E+00  0.00000000000E+00  0.12871540635E+02  0.12871541622E+02  0.50400000000E-02 0.  1.
          2   -1    0    0  501    0  0.00000000000E+00 -0.00000000000E+00 -0.11407915256E+03  0.11407915259E+03  0.25500000000E-02 0. -1.
         24    2    1    2    0    0 -0.35527136788E-14  0.00000000000E+00 -0.10120761193E+03  0.12695069422E+03  0.76638750312E+02 0.  0.
         66    2    3    3    0    0 -0.26818633739E+02  0.21335817671E+02 -0.78939946544E+02  0.86081190707E+02  0.20000004409E+01 0.  0.
        -13    1    3    3    0    0  0.26818633739E+02 -0.21335817671E+02 -0.22267665385E+02  0.40869503509E+02  0.10566000000E+00 0.  1.
         13    1    4    4    0    0 -0.15354550472E+02  0.12294316097E+02 -0.44857775854E+02  0.48981053961E+02  0.10566000000E+00 0. -1.
        -13    1    4    4    0    0 -0.83937221591E+01  0.65358216313E+01 -0.23341858379E+02  0.25651999000E+02  0.10566000000E+00 0.  1.
         14    1    4    4    0    0 -0.30703611078E+01  0.25056799424E+01 -0.10740312311E+02  0.11448137746E+02  0.00000000000E+00 0. -1.
<mgrwt>
<rscale>  0 0.76638750E+02</rscale>
<asrwt>0</asrwt>
<pdfrwt beam="1">  1        2 0.17550638E-01 0.76638750E+02</pdfrwt>
<pdfrwt beam="2">  1       -1 0.19802372E-02 0.76638750E+02</pdfrwt>
<totfact> 0.20637932E+05</totfact>
</mgrwt>
</event>
<event>
 8    1  0.1226832E-016  0.7942674E+02  0.7818608E-02  0.1330686E+00
         -1   -1    0    0    0  501 -0.00000000000E+00  0.00000000000E+00  0.10271158346E+02  0.10271159583E+02  0.50400000000E-02 0.  1.
          2   -1    0    0  501    0  0.00000000000E+00 -0.00000000000E+00 -0.15355148185E+03  0.15355148187E+03  0.25500000000E-02 0. -1.
         24    2    1    2    0    0  0.17763568394E-14  0.00000000000E+00 -0.14328032350E+03  0.16382264145E+03  0.79426738254E+02 0.  0.
         66    2    3    3    0    0 -0.13829179311E+02 -0.36845062213E+02 -0.82271435571E+02  0.91221674651E+02  0.20000013472E+01 0.  0.
        -13    1    3    3    0    0  0.13829179311E+02  0.36845062213E+02 -0.61008887931E+02  0.72600966802E+02  0.10566000000E+00 0.  1.
         13    1    4    4    0    0 -0.30420345646E+01 -0.78861309916E+01 -0.18231407068E+02  0.20095780752E+02  0.10566000000E+00 0. -1.
        -13    1    4    4    0    0 -0.21519806769E+01 -0.40991860260E+01 -0.96500117708E+01  0.10703655363E+02  0.10566000000E+00 0.  1.
         14    1    4    4    0    0 -0.86351640690E+01 -0.24859745195E+02 -0.54390016732E+02  0.60422238537E+02  0.00000000000E+00 0. -1.
<mgrwt>
<rscale>  0 0.79426738E+02</rscale>
<asrwt>0</asrwt>
<pdfrwt beam="1">  1        2 0.23623303E-01 0.79426738E+02</pdfrwt>
<pdfrwt beam="2">  1       -1 0.15801784E-02 0.79426738E+02</pdfrwt>
<totfact> 0.20570613E+05</totfact>
</mgrwt>
</event>
<event>
 8    1  0.1226832E-016  0.7943744E+02  0.7818608E-02  0.1330656E+00
          2   -1    0    0  501    0  0.00000000000E+00  0.00000000000E+00  0.68705940689E+02  0.68705940736E+02  0.25500000000E-02 0. -1.
         -1   -1    0    0    0  501 -0.00000000000E+00 -0.00000000000E+00 -0.22961286351E+02  0.22961286904E+02  0.50400000000E-02 0.  1.
         24    2    1    2    0    0  0.00000000000E+00  0.00000000000E+00  0.45744654339E+02  0.91667227640E+02  0.79437442196E+02 0.  0.
         66    2    3    3    0    0  0.28790549755E+00  0.39641888539E+02  0.25197473359E+02  0.47015687613E+02  0.20000003731E+01 0.  0.
        -13    1    3    3    0    0 -0.28790549755E+00 -0.39641888539E+02  0.20547180980E+02  0.44651540027E+02  0.10566000000E+00 0.  1.
         13    1    4    4    0    0  0.17478331295E+00  0.25074982235E+02  0.16644426930E+02  0.30097066222E+02  0.10566000000E+00 0. -1.
        -13    1    4    4    0    0  0.27389089798E+00  0.13757410566E+02  0.79068958057E+01  0.15870460832E+02  0.10566000000E+00 0.  1.
         14    1    4    4    0    0 -0.16076871338E+00  0.80949573885E+00  0.64615062331E+00  0.10481605595E+01  0.00000000000E+00 0. -1.
<mgrwt>
<rscale>  0 0.79437442E+02</rscale>
<asrwt>0</asrwt>
<pdfrwt beam="1">  1        2 0.10570145E-01 0.79437442E+02</pdfrwt>
<pdfrwt beam="2">  1       -1 0.35325057E-02 0.79437442E+02</pdfrwt>
<totfact> 0.16383373E+05</totfact>
</mgrwt>
</event>
<event>
 8    1  0.1226832E-016  0.7945273E+02  0.7818608E-02  0.1330612E+00
         -1   -1    0    0    0  501 -0.00000000000E+00  0.00000000000E+00  0.20600843036E+03  0.20600843043E+03  0.50400000000E-02 0.  1.
          2   -1    0    0  501    0  0.00000000000E+00 -0.00000000000E+00 -0.76607736291E+01  0.76607740535E+01  0.25500000000E-02 0. -1.
         24    2    1    2    0    0  0.00000000000E+00  0.00000000000E+00  0.19834765674E+03  0.21366920448E+03  0.79452728150E+02 0.  0.
         66    2    3    3    0    0  0.34853785720E+02  0.14748734017E+02  0.13149278925E+03  0.13684540605E+03  0.19999997476E+01 0.  0.
        -13    1    3    3    0    0 -0.34853785720E+02 -0.14748734017E+02  0.66854867487E+02  0.76823798428E+02  0.10566000000E+00 0.  1.
         13    1    4    4    0    0  0.17638806318E+02  0.80025277786E+01  0.68269175754E+02  0.70963789790E+02  0.10566000000E+00 0. -1.
        -13    1    4    4    0    0  0.54868852315E+01  0.26686860106E+01  0.21598742838E+02  0.22444256521E+02  0.10566000000E+00 0.  1.
        -14    1    4    4    0    0  0.11728094171E+02  0.40775202281E+01  0.41624870656E+02  0.43437359740E+02  0.00000000000E+00 0.  1.
<mgrwt>
<rscale>  0 0.79452728E+02</rscale>
<asrwt>0</asrwt>
<pdfrwt beam="1">  1        2 0.11785805E-02 0.79452728E+02</pdfrwt>
<pdfrwt beam="2">  1       -1 0.31693607E-01 0.79452728E+02</pdfrwt>
<totfact> 0.10044792E+05</totfact>
</mgrwt>
</event>
<event>
 8    1  0.1226832E-016  0.8508150E+02  0.7818608E-02  0.1315220E+00
         -1   -1    0    0    0  501 -0.00000000000E+00  0.00000000000E+00  0.58772982644E+01  0.58773004254E+01  0.50400000000E-02 0.  1.
          2   -1    0    0  501    0  0.00000000000E+00 -0.00000000000E+00 -0.30791616985E+03  0.30791616986E+03  0.25500000000E-02 0. -1.
         24    2    1    2    0    0  0.00000000000E+00  0.00000000000E+00 -0.30203887158E+03  0.31379347028E+03  0.85081502369E+02 0.  0.
         66    2    3    3    0    0 -0.41365992766E+02 -0.58703235077E+01 -0.12203767360E+03  0.12900697593E+03  0.20000014171E+01 0.  0.
        -13    1    3    3    0    0  0.41365992766E+02  0.58703235077E+01 -0.18000119798E+03  0.18478649435E+03  0.10566000000E+00 0.  1.
         13    1    4    4    0    0 -0.49816016549E+01 -0.10855660205E+01 -0.13988982847E+02  0.14889513550E+02  0.10566000000E+00 0. -1.
        -13    1    4    4    0    0 -0.14115278721E+02 -0.21564896434E+01 -0.40417571461E+02  0.42865869731E+02  0.10566000000E+00 0.  1.
         14    1    4    4    0    0 -0.22269112390E+02 -0.26282678438E+01 -0.67631119294E+02  0.71251592652E+02  0.00000000000E+00 0. -1.
<mgrwt>
<rscale>  0 0.85081502E+02</rscale>
<asrwt>0</asrwt>
<pdfrwt beam="1">  1        2 0.47371706E-01 0.85081502E+02</pdfrwt>
<pdfrwt beam="2">  1       -1 0.90420015E-03 0.85081502E+02</pdfrwt>
<totfact> 0.21889209E+05</totfact>
</mgrwt>
</event>
<event>
 8    1  0.1226832E-016  0.7573111E+02  0.7818608E-02  0.1341622E+00
          2   -1    0    0  501    0  0.00000000000E+00  0.00000000000E+00  0.51648320886E+02  0.51648320949E+02  0.25500000000E-02 0. -1.
         -1   -1    0    0    0  501 -0.00000000000E+00 -0.00000000000E+00 -0.27760830585E+02  0.27760831043E+02  0.50400000000E-02 0.  1.
         24    2    1    2    0    0  0.00000000000E+00  0.00000000000E+00  0.23887490301E+02  0.79409151992E+02  0.75731111356E+02 0.  0.
         66    2    3    3    0    0 -0.89593992973E+01  0.35353358619E+02  0.22524635788E+02  0.42912585881E+02  0.20000020434E+01 0.  0.
        -13    1    3    3    0    0  0.89593992973E+01 -0.35353358619E+02  0.13628545128E+01  0.36496566111E+02  0.10566000000E+00 0.  1.
         13    1    4    4    0    0 -0.10538016065E+01  0.56173180743E+01  0.32500217774E+01  0.65756038325E+01  0.10566000000E+00 0. -1.
        -13    1    4    4    0    0 -0.77738289252E+01  0.29615669722E+02  0.19104043853E+02  0.36090108961E+02  0.10566000000E+00 0.  1.
        -14    1    4    4    0    0 -0.13176876564E+00  0.12037082320E+00  0.17057015805E+00  0.24687308783E+00  0.00000000000E+00 0.  1.
<mgrwt>
<rscale>  0 0.75731111E+02</rscale>
<asrwt>0</asrwt>
<pdfrwt beam="1">  1        2 0.79458954E-02 0.75731111E+02</pdfrwt>
<pdfrwt beam="2">  1       -1 0.42708971E-02 0.75731111E+02</pdfrwt>
<totfact> 0.17475340E+05</totfact>
</mgrwt>
</event>
<event>
 8    1  0.1226832E-016  0.7939358E+02  0.7818608E-02  0.1330781E+00
         -1   -1    0    0    0  501 -0.00000000000E+00  0.00000000000E+00  0.29780817731E+01  0.29780860379E+01  0.50400000000E-02 0.  1.
          2   -1    0    0  501    0  0.00000000000E+00 -0.00000000000E+00 -0.52914390650E+03  0.52914390651E+03  0.25500000000E-02 0. -1.
         24    2    1    2    0    0  0.00000000000E+00  0.00000000000E+00 -0.52616582473E+03  0.53212199255E+03  0.79393575550E+02 0.  0.
         66    2    3    3    0    0 -0.12888118993E+01  0.22027027590E+02 -0.48422097923E+03  0.48472756029E+03  0.20000004339E+01 0.  0.
        -13    1    3    3    0    0  0.12888118993E+01 -0.22027027590E+02 -0.41944845502E+02  0.47394432255E+02  0.10566000000E+00 0.  1.
         13    1    4    4    0    0 -0.95881364376E+00  0.90511638904E+01 -0.19436355008E+03  0.19457657529E+03  0.10566000000E+00 0. -1.
        -13    1    4    4    0    0 -0.35224402775E+00  0.74983070927E+01 -0.15322643936E+03  0.15341023945E+03  0.10566000000E+00 0.  1.
        -14    1    4    4    0    0  0.22245772186E-01  0.54775566067E+01 -0.13663098979E+03  0.13674074555E+03  0.00000000000E+00 0.  1.
<mgrwt>
<rscale>  0 0.79393576E+02</rscale>
<asrwt>0</asrwt>
<pdfrwt beam="1">  1        2 0.81406680E-01 0.79393576E+02</pdfrwt>
<pdfrwt beam="2">  1       -1 0.45816718E-03 0.79393576E+02</pdfrwt>
<totfact> 0.31616854E+05</totfact>
</mgrwt>
</event>
<event>
 8    1  0.1226832E-016  0.8093374E+02  0.7818608E-02  0.1326422E+00
         -1   -1    0    0    0  501 -0.00000000000E+00  0.00000000000E+00  0.35118455618E+02  0.35118455980E+02  0.50400000000E-02 0.  1.
          2   -1    0    0  501    0  0.00000000000E+00 -0.00000000000E+00 -0.46629827963E+02  0.46629828033E+02  0.25500000000E-02 0. -1.
         24    2    1    2    0    0  0.00000000000E+00  0.35527136788E-14 -0.11511372345E+02  0.81748284013E+02  0.80933739848E+02 0.  0.
         66    2    3    3    0    0  0.30033702583E+01  0.26579774593E+02 -0.36396923972E+02  0.45213280329E+02  0.19999982981E+01 0.  0.
        -13    1    3    3    0    0 -0.30033702583E+01 -0.26579774593E+02  0.24885551627E+02  0.36535003683E+02  0.10566000000E+00 0.  1.
         13    1    4    4    0    0  0.23792359796E+01  0.22061529891E+02 -0.29656395312E+02  0.37038963430E+02  0.10566000000E+00 0. -1.
        -13    1    4    4    0    0  0.58281556794E+00  0.45384551808E+01 -0.66917014644E+01  0.81072363934E+01  0.10566000000E+00 0.  1.
        -14    1    4    4    0    0  0.41318710825E-01 -0.20210478962E-01 -0.48827195030E-01  0.67080506099E-01  0.00000000000E+00 0.  1.
<mgrwt>
<rscale>  0 0.80933740E+02</rscale>
<asrwt>0</asrwt>
<pdfrwt beam="1">  1        2 0.71738197E-02 0.80933740E+02</pdfrwt>
<pdfrwt beam="2">  1       -1 0.54028394E-02 0.80933740E+02</pdfrwt>
<totfact> 0.14257835E+05</totfact>
</mgrwt>
</event>
<event>
 8    1  0.1226832E-016  0.8281465E+02  0.7818608E-02  0.1321248E+00
          2   -1    0    0  501    0  0.00000000000E+00  0.00000000000E+00  0.62642433603E+02  0.62642433655E+02  0.25500000000E-02 0. -1.
         -1   -1    0    0    0  501 -0.00000000000E+00 -0.00000000000E+00 -0.27370689000E+02  0.27370689464E+02  0.50400000000E-02 0.  1.
         24    2    1    2    0    0  0.22204460493E-15  0.14210854715E-13  0.35271744603E+02  0.90013123119E+02  0.82814650674E+02 0.  0.
         66    2    3    3    0    0  0.56528177715E+00  0.40701997411E+02  0.25750044261E+02  0.48208266006E+02  0.19999987820E+01 0.  0.
        -13    1    3    3    0    0 -0.56528177715E+00 -0.40701997411E+02  0.95217003420E+01  0.41804857112E+02  0.10566000000E+00 0.  1.
         13    1    4    4    0    0  0.28803406416E+00  0.27585482480E+02  0.17213801614E+02  0.32517194487E+02  0.10566000000E+00 0. -1.
        -13    1    4    4    0    0 -0.25443347580E+00  0.11248014522E+01  0.63834577933E+00  0.13223328136E+01  0.10566000000E+00 0.  1.
        -14    1    4    4    0    0  0.53168118879E+00  0.11991713479E+02  0.78978968680E+01  0.14368738706E+02  0.00000000000E+00 0.  1.
<mgrwt>
<rscale>  0 0.82814651E+02</rscale>
<asrwt>0</asrwt>
<pdfrwt beam="1">  1        2 0.96372975E-02 0.82814651E+02</pdfrwt>
<pdfrwt beam="2">  1       -1 0.42108753E-02 0.82814651E+02</pdfrwt>
<totfact> 0.14310218E+05</totfact>
</mgrwt>
</event>
<event>
 8    1  0.1226832E-016  0.7939739E+02  0.7818608E-02  0.1330770E+00
         -1   -1    0    0    0  501 -0.00000000000E+00  0.00000000000E+00  0.29232589636E+01  0.29232633083E+01  0.50400000000E-02 0.  1.
          2   -1    0    0  501    0  0.00000000000E+00 -0.00000000000E+00 -0.53911928079E+03  0.53911928080E+03  0.25500000000E-02 0. -1.
         24    2    1    2    0    0 -0.17763568394E-14 -0.35527136788E-14 -0.53619602183E+03  0.54204254411E+03  0.79397391624E+02 0.  0.
         66    2    3    3    0    0 -0.12535015045E+02 -0.17821099229E+02 -0.49461635182E+03  0.49510004415E+03  0.20000129971E+01 0.  0.
        -13    1    3    3    0    0  0.12535015045E+02  0.17821099229E+02 -0.41579670010E+02  0.46942499956E+02  0.10566000000E+00 0.  1.
         13    1    4    4    0    0 -0.68101933118E+01 -0.87713698223E+01 -0.26554470814E+03  0.26577682150E+03  0.10566000000E+00 0. -1.
        -13    1    4    4    0    0 -0.48654952392E+01 -0.72597595670E+01 -0.18206333805E+03  0.18227300233E+03  0.10566000000E+00 0.  1.
         14    1    4    4    0    0 -0.85932649409E+00 -0.17899698397E+01 -0.47008305631E+02  0.47050220322E+02  0.00000000000E+00 0. -1.
<mgrwt>
<rscale>  0 0.79397392E+02</rscale>
<asrwt>0</asrwt>
<pdfrwt beam="1">  1        2 0.82941349E-01 0.79397392E+02</pdfrwt>
<pdfrwt beam="2">  1       -1 0.44973291E-03 0.79397392E+02</pdfrwt>
<totfact> 0.31793797E+05</totfact>
</mgrwt>
</event>
<event>
 8    1  0.1226832E-016  0.7945368E+02  0.7818608E-02  0.1330609E+00
         -1   -1    0    0    0  501 -0.00000000000E+00  0.00000000000E+00  0.52606852962E+02  0.52606853203E+02  0.50400000000E-02 0.  1.
          2   -1    0    0  501    0  0.00000000000E+00 -0.00000000000E+00 -0.30000309470E+02  0.30000309578E+02  0.25500000000E-02 0. -1.
         24    2    1    2    0    0 -0.35527136788E-14  0.35527136788E-14  0.22606543492E+02  0.82607162781E+02  0.79453681690E+02 0.  0.
         66    2    3    3    0    0 -0.25754440103E+02  0.29894781901E+02  0.15869397477E+02  0.42577305545E+02  0.20000003099E+01 0.  0.
        -13    1    3    3    0    0  0.25754440103E+02 -0.29894781901E+02  0.67371460150E+01  0.40029857237E+02  0.10566000000E+00 0.  1.
         13    1    4    4    0    0 -0.61563854276E+01  0.72240283269E+01  0.40550663985E+01  0.10321937528E+02  0.10566000000E+00 0. -1.
        -13    1    4    4    0    0 -0.18701915742E+02  0.21137617699E+02  0.10873782140E+02  0.30245839986E+02  0.10566000000E+00 0.  1.
        -14    1    4    4    0    0 -0.89613893336E+00  0.15331358747E+01  0.94054893866E+00  0.20095280302E+01  0.00000000000E+00 0.  1.
<mgrwt>
<rscale>  0 0.79453682E+02</rscale>
<asrwt>0</asrwt>
<pdfrwt beam="1">  1        2 0.46154323E-02 0.79453682E+02</pdfrwt>
<pdfrwt beam="2">  1       -1 0.80933619E-02 0.79453682E+02</pdfrwt>
<totfact> 0.13716019E+05</totfact>
</mgrwt>
</event>
<event>
 8    1  0.1226832E-016  0.7934433E+02  0.7818608E-02  0.1330922E+00
          2   -1    0    0  501    0  0.00000000000E+00  0.00000000000E+00  0.24183264680E+03  0.24183264681E+03  0.25500000000E-02 0. -1.
         -1   -1    0    0    0  501 -0.00000000000E+00 -0.00000000000E+00 -0.65081390542E+01  0.65081410057E+01  0.50400000000E-02 0.  1.
         24    2    1    2    0    0  0.00000000000E+00 -0.88817841970E-15  0.23532450774E+03  0.24834078782E+03  0.79344331548E+02 0.  0.
         66    2    3    3    0    0 -0.32495235026E+02 -0.62837122722E+01  0.18605572868E+03  0.18898719405E+03  0.19999996384E+01 0.  0.
        -13    1    3    3    0    0  0.32495235026E+02  0.62837122722E+01  0.49268779063E+02  0.59353593773E+02  0.10566000000E+00 0.  1.
         13    1    4    4    0    0 -0.23830182108E+02 -0.47181148641E+01  0.13346935414E+03  0.13566214596E+03  0.10566000000E+00 0.  1.
        -13    1    4    4    0    0 -0.48337314095E+01 -0.11862037164E+01  0.28018175076E+02  0.28457008578E+02  0.10566000000E+00 0. -1.
         14    1    4    4    0    0 -0.38313215091E+01 -0.37939369165E+00  0.24568199467E+02  0.24868039512E+02  0.00000000000E+00 0. -1.
<mgrwt>
<rscale>  0 0.79344332E+02</rscale>
<asrwt>0</asrwt>
<pdfrwt beam="1">  1        2 0.37205025E-01 0.79344332E+02</pdfrwt>
<pdfrwt beam="2">  1       -1 0.10012523E-02 0.79344332E+02</pdfrwt>
<totfact> 0.24102433E+05</totfact>
</mgrwt>
</event>
<event>
 8    1  0.1226832E-016  0.8137561E+02  0.7818608E-02  0.1325192E+00
          2   -1    0    0  501    0  0.00000000000E+00  0.00000000000E+00  0.33357414133E+04  0.33357414133E+04  0.25500000000E-02 0. -1.
         -1   -1    0    0    0  501 -0.00000000000E+00 -0.00000000000E+00 -0.49627787496E+00  0.49630346642E+00  0.50400000000E-02 0.  1.
         24    2    1    2    0    0  0.00000000000E+00  0.00000000000E+00  0.33352451355E+04  0.33362377168E+04  0.81375606941E+02 0.  0.
         66    2    3    3    0    0 -0.18921635133E+01  0.11006738534E+02  0.32716249361E+04  0.32716446096E+04  0.20000016107E+01 0.  0.
        -13    1    3    3    0    0  0.18921635133E+01 -0.11006738534E+02  0.63620199351E+02  0.64593107260E+02  0.10566000000E+00 0.  1.
         13    1    4    4    0    0 -0.61936749643E+00  0.89325418656E+00  0.23620077217E+03  0.23620329688E+03  0.10566000000E+00 0. -1.
        -13    1    4    4    0    0 -0.57161092756E+00  0.31205746898E+01  0.92406869910E+03  0.92407415100E+03  0.10566000000E+00 0. -1.
         14    1    4    4    0    0 -0.70118508936E+00  0.69929096572E+01  0.21113554648E+04  0.21113671617E+04  0.00000000000E+00 0. -1.
<mgrwt>
<rscale>  0 0.81375607E+02</rscale>
<asrwt>0</asrwt>
<pdfrwt beam="1">  1        2 0.51318018E+00 0.81375607E+02</pdfrwt>
<pdfrwt beam="2">  1       -1 0.76354018E-04 0.81375607E+02</pdfrwt>
<totfact> 0.10129515E+05</totfact>
</mgrwt>
</event>
<event>
 8    1  0.1226832E-016  0.7949866E+02  0.7818608E-02  0.1330480E+00
          2   -1    0    0  501    0  0.00000000000E+00  0.00000000000E+00  0.59435693806E+03  0.59435693807E+03  0.25500000000E-02 0. -1.
         -1   -1    0    0    0  501 -0.00000000000E+00 -0.00000000000E+00 -0.26583484658E+01  0.26583532435E+01  0.50400000000E-02 0.  1.
         24    2    1    2    0    0  0.00000000000E+00  0.00000000000E+00  0.59169858960E+03  0.59701529131E+03  0.79498661177E+02 0.  0.
         66    2    3    3    0    0 -0.13549387506E+02 -0.11104886730E+02  0.56377739003E+03  0.56405305594E+03  0.20000003654E+01 0.  0.
        -13    1    3    3    0    0  0.13549387506E+02  0.11104886730E+02  0.27921199572E+02  0.32962235371E+02  0.10566000000E+00 0.  1.
         13    1    4    4    0    0 -0.42211088735E+01 -0.28833312641E+01  0.17207672652E+03  0.17215267158E+03  0.10566000000E+00 0. -1.
        -13    1    4    4    0    0 -0.34416148306E+01 -0.28797045209E+01  0.16219647548E+03  0.16225857522E+03  0.10566000000E+00 0.  1.
        -14    1    4    4    0    0 -0.58866638024E+01 -0.53418509448E+01  0.22950418803E+03  0.22964180914E+03  0.00000000000E+00 0.  1.
<mgrwt>
<rscale>  0 0.79498661E+02</rscale>
<asrwt>0</asrwt>
<pdfrwt beam="1">  1        2 0.91439472E-01 0.79498661E+02</pdfrwt>
<pdfrwt beam="2">  1       -1 0.40897731E-03 0.79498661E+02</pdfrwt>
<totfact> 0.32607594E+05</totfact>
</mgrwt>
</event>
<event>
 8    1  0.1226832E-016  0.7838385E+02  0.7818608E-02  0.1333701E+00
         -1   -1    0    0    0  501 -0.00000000000E+00  0.00000000000E+00  0.11824988369E+03  0.11824988380E+03  0.50400000000E-02 0.  1.
          2   -1    0    0  501    0  0.00000000000E+00 -0.00000000000E+00 -0.12989500320E+02  0.12989500571E+02  0.25500000000E-02 0. -1.
         24    2    1    2    0    0  0.71054273576E-14  0.88817841970E-15  0.10526038337E+03  0.13123938437E+03  0.78383848478E+02 0.  0.
         66    2    3    3    0    0 -0.35601293810E+02 -0.64447098819E+01  0.27548740462E+02  0.45518342529E+02  0.19999997867E+01 0.  0.
        -13    1    3    3    0    0  0.35601293810E+02  0.64447098819E+01  0.77711642906E+02  0.85721041837E+02  0.10566000000E+00 0.  1.
         13    1    4    4    0    0 -0.22057680751E+02 -0.46996678841E+01  0.17454591253E+02  0.28518451539E+02  0.10566000000E+00 0. -1.
        -13    1    4    4    0    0 -0.25160012842E+01 -0.87665914089E-01  0.20808551612E+01  0.32678846388E+01  0.10566000000E+00 0.  1.
         14    1    4    4    0    0 -0.11027611776E+02 -0.16573760838E+01  0.80132940473E+01  0.13732006352E+02  0.00000000000E+00 0. -1.
<mgrwt>
<rscale>  0 0.78383848E+02</rscale>
<asrwt>0</asrwt>
<pdfrwt beam="1">  1        2 0.19983848E-02 0.78383848E+02</pdfrwt>
<pdfrwt beam="2">  1       -1 0.18192289E-01 0.78383848E+02</pdfrwt>
<totfact> 0.12022712E+05</totfact>
</mgrwt>
</event>
<event>
 8    1  0.1226832E-016  0.7999730E+02  0.7818608E-02  0.1329059E+00
          2   -1    0    0  501    0  0.00000000000E+00  0.00000000000E+00  0.20842994226E+03  0.20842994228E+03  0.25500000000E-02 0. -1.
         -1   -1    0    0    0  501 -0.00000000000E+00 -0.00000000000E+00 -0.76759216835E+01  0.76759233381E+01  0.50400000000E-02 0.  1.
         24    2    1    2    0    0  0.35527136788E-14  0.00000000000E+00  0.20075402058E+03  0.21610586561E+03  0.79997302298E+02 0.  0.
         66    2    3    3    0    0  0.11909570084E+02  0.37051870170E+02  0.12508147859E+03  0.13101166066E+03  0.19999996946E+01 0.  0.
        -13    1    3    3    0    0 -0.11909570084E+02 -0.37051870170E+02  0.75672541983E+02  0.85094204955E+02  0.10566000000E+00 0.  1.
         13    1    4    4    0    0  0.31403479510E+01  0.12187607050E+02  0.40917811090E+02  0.42809788358E+02  0.10566000000E+00 0. -1.
        -13    1    4    4    0    0  0.14951556014E+00  0.62155309956E+00  0.18109584333E+01  0.19233870232E+01  0.10566000000E+00 0. -1.
         14    1    4    4    0    0  0.86197065733E+01  0.24242710020E+02  0.82352709070E+02  0.86278485277E+02  0.00000000000E+00 0. -1.
<mgrwt>
<rscale>  0 0.79997302E+02</rscale>
<asrwt>0</asrwt>
<pdfrwt beam="1">  1        2 0.32066148E-01 0.79997302E+02</pdfrwt>
<pdfrwt beam="2">  1       -1 0.11809111E-02 0.79997302E+02</pdfrwt>
<totfact> 0.22380306E+05</totfact>
</mgrwt>
</event>
<event>
 8    1  0.1226832E-016  0.7981136E+02  0.7818608E-02  0.1329588E+00
          2   -1    0    0  501    0  0.00000000000E+00  0.00000000000E+00  0.17371484503E+02  0.17371484690E+02  0.25500000000E-02 0. -1.
         -1   -1    0    0    0  501 -0.00000000000E+00 -0.00000000000E+00 -0.91671113035E+02  0.91671113174E+02  0.50400000000E-02 0.  1.
         24    2    1    2    0    0  0.00000000000E+00  0.71054273576E-14 -0.74299628532E+02  0.10904259786E+03  0.79811361027E+02 0.  0.
         66    2    3    3    0    0 -0.56479081373E+01  0.38842497801E+02 -0.46816535886E+02  0.61126316214E+02  0.19999999352E+01 0.  0.
        -13    1    3    3    0    0  0.56479081373E+01 -0.38842497801E+02 -0.27483092646E+02  0.47916281651E+02  0.10566000000E+00 0.  1.
         13    1    4    4    0    0 -0.44161657354E+01  0.27899252794E+02 -0.33409813873E+02  0.43750401751E+02  0.10566000000E+00 0. -1.
        -13    1    4    4    0    0 -0.10513238122E+01  0.83306149892E+01 -0.10804545650E+02  0.13684070980E+02  0.10566000000E+00 0.  1.
         14    1    4    4    0    0 -0.18041858975E+00  0.26126300178E+01 -0.26021763625E+01  0.36918434824E+01  0.00000000000E+00 0. -1.
<mgrwt>
<rscale>  0 0.79811361E+02</rscale>
<asrwt>0</asrwt>
<pdfrwt beam="1">  1        2 0.26725361E-02 0.79811361E+02</pdfrwt>
<pdfrwt beam="2">  1       -1 0.14103248E-01 0.79811361E+02</pdfrwt>
<totfact> 0.12144064E+05</totfact>
</mgrwt>
</event>
<event>
 8    1  0.1226832E-016  0.7669024E+02  0.7818608E-02  0.1338715E+00
         -1   -1    0    0    0  501 -0.00000000000E+00  0.00000000000E+00  0.12086737157E+01  0.12086842237E+01  0.50400000000E-02 0.  1.
          2   -1    0    0  501    0  0.00000000000E+00 -0.00000000000E+00 -0.12164917913E+04  0.12164917913E+04  0.25500000000E-02 0. -1.
         24    2    1    2    0    0  0.11102230246E-15  0.00000000000E+00 -0.12152831176E+04  0.12177004755E+04  0.76690235438E+02 0.  0.
         66    2    3    3    0    0 -0.31636026907E+00  0.24799139516E+02 -0.10718608514E+04  0.10721496081E+04  0.19999993436E+01 0.  0.
        -13    1    3    3    0    0  0.31636026907E+00 -0.24799139516E+02 -0.14342226613E+03  0.14555086736E+03  0.10566000000E+00 0.  1.
         13    1    4    4    0    0  0.23642825435E+00  0.44202099988E+01 -0.16950802527E+03  0.16956584547E+03  0.10566000000E+00 0. -1.
        -13    1    4    4    0    0  0.37365407751E-01  0.12648603698E+02 -0.57574913776E+03  0.57588807017E+03  0.10566000000E+00 0.  1.
         14    1    4    4    0    0 -0.59015393117E+00  0.77303258194E+01 -0.32660368840E+03  0.32669569250E+03  0.00000000000E+00 0. -1.
<mgrwt>
<rscale>  0 0.76690235E+02</rscale>
<asrwt>0</asrwt>
<pdfrwt beam="1">  1        2 0.18715160E+00 0.76690235E+02</pdfrwt>
<pdfrwt beam="2">  1       -1 0.18595158E-03 0.76690235E+02</pdfrwt>
<totfact> 0.39028775E+05</totfact>
</mgrwt>
</event>
<event>
 8    1  0.1226832E-016  0.7991214E+02  0.7818608E-02  0.1329301E+00
         -1   -1    0    0    0  501 -0.00000000000E+00  0.00000000000E+00  0.20841741529E+02  0.20841742139E+02  0.50400000000E-02 0.  1.
          2   -1    0    0  501    0  0.00000000000E+00 -0.00000000000E+00 -0.76600486658E+02  0.76600486701E+02  0.25500000000E-02 0. -1.
         24    2    1    2    0    0  0.00000000000E+00  0.00000000000E+00 -0.55758745129E+02  0.97442228839E+02  0.79912141148E+02 0.  0.
         66    2    3    3    0    0  0.14655081798E+02 -0.12540909886E+02 -0.70529958620E+02  0.73147254970E+02  0.20000008869E+01 0.  0.
        -13    1    3    3    0    0 -0.14655081798E+02  0.12540909886E+02  0.14771213491E+02  0.24294973869E+02  0.10566000000E+00 0.  1.
         13    1    4    4    0    0  0.82982303830E+01 -0.65286263238E+01 -0.39267911121E+02  0.40662803605E+02  0.10566000000E+00 0. -1.
        -13    1    4    4    0    0  0.36168479141E+01 -0.27351940085E+01 -0.17188716567E+02  0.17777120587E+02  0.10566000000E+00 0. -1.
         14    1    4    4    0    0  0.27400035005E+01 -0.32770895536E+01 -0.14073330932E+02  0.14707330779E+02  0.00000000000E+00 0. -1.
<mgrwt>
<rscale>  0 0.79912141E+02</rscale>
<asrwt>0</asrwt>
<pdfrwt beam="1">  1        2 0.11784690E-01 0.79912141E+02</pdfrwt>
<pdfrwt beam="2">  1       -1 0.32064219E-02 0.79912141E+02</pdfrwt>
<totfact> 0.16561022E+05</totfact>
</mgrwt>
</event>
<event>
 8    1  0.1226832E-016  0.8173993E+02  0.7818608E-02  0.1324185E+00
          2   -1    0    0  501    0  0.00000000000E+00  0.00000000000E+00  0.33454439273E+02  0.33454439370E+02  0.25500000000E-02 0. -1.
         -1   -1    0    0    0  501 -0.00000000000E+00 -0.00000000000E+00 -0.49929215624E+02  0.49929215878E+02  0.50400000000E-02 0.  1.
         24    2    1    2    0    0  0.00000000000E+00  0.00000000000E+00 -0.16474776351E+02  0.83383655248E+02  0.81739927249E+02 0.  0.
         66    2    3    3    0    0  0.26207155996E+02 -0.57532402364E+01  0.23173649636E+02  0.35509615875E+02  0.19999958869E+01 0.  0.
        -13    1    3    3    0    0 -0.26207155996E+02  0.57532402364E+01 -0.39648425987E+02  0.47874039373E+02  0.10566000000E+00 0.  1.
         13    1    4    4    0    0  0.86514465512E+01 -0.15255219173E+01  0.76610448239E+01  0.11656651165E+02  0.10566000000E+00 0. -1.
        -13    1    4    4    0    0  0.89874378745E+01 -0.14216789414E+01  0.80375516816E+01  0.12141194819E+02  0.10566000000E+00 0.  1.
         14    1    4    4    0    0  0.85682715700E+01 -0.28060393777E+01  0.74750531306E+01  0.11711769891E+02  0.00000000000E+00 0. -1.
<mgrwt>
<rscale>  0 0.81739927E+02</rscale>
<asrwt>0</asrwt>
<pdfrwt beam="1">  1        2 0.51468368E-02 0.81739927E+02</pdfrwt>
<pdfrwt beam="2">  1       -1 0.76814179E-02 0.81739927E+02</pdfrwt>
<totfact> 0.12947449E+05</totfact>
</mgrwt>
</event>
<event>
 8    1  0.1226832E-016  0.7747733E+02  0.7818608E-02  0.1336367E+00
          2   -1    0    0  501    0  0.00000000000E+00  0.00000000000E+00  0.39846863635E+02  0.39846863717E+02  0.25500000000E-02 0. -1.
         -1   -1    0    0    0  501 -0.00000000000E+00 -0.00000000000E+00 -0.37661286938E+02  0.37661287276E+02  0.50400000000E-02 0.  1.
         24    2    1    2    0    0  0.00000000000E+00  0.00000000000E+00  0.21855766966E+01  0.77508150992E+02  0.77477330393E+02 0.  0.
         66    2    3    3    0    0 -0.58630557313E+01 -0.19996824445E+02  0.33732109534E+02  0.39700171563E+02  0.19999995314E+01 0.  0.
        -13    1    3    3    0    0  0.58630557313E+01  0.19996824445E+02 -0.31546532838E+02  0.37807979429E+02  0.10566000000E+00 0.  1.
         13    1    4    4    0    0 -0.10293647844E+01 -0.48130545593E+01  0.78889565903E+01  0.92990260871E+01  0.10566000000E+00 0. -1.
        -13    1    4    4    0    0 -0.41065034486E+01 -0.12172829773E+02  0.19659438032E+02  0.23485012732E+02  0.10566000000E+00 0.  1.
        -14    1    4    4    0    0 -0.72718749822E+00 -0.30109401124E+01  0.61837149121E+01  0.69161327440E+01  0.00000000000E+00 0.  1.
<mgrwt>
<rscale>  0 0.77477330E+02</rscale>
<asrwt>0</asrwt>
<pdfrwt beam="1">  1        2 0.61302867E-02 0.77477330E+02</pdfrwt>
<pdfrwt beam="2">  1       -1 0.57940442E-02 0.77477330E+02</pdfrwt>
<totfact> 0.15560071E+05</totfact>
</mgrwt>
</event>
<event>
 8    1  0.1226832E-016  0.8101367E+02  0.7818608E-02  0.1326199E+00
         -1   -1    0    0    0  501 -0.00000000000E+00  0.00000000000E+00  0.37089784431E+01  0.37089818675E+01  0.50400000000E-02 0.  1.
          2   -1    0    0  501    0  0.00000000000E+00 -0.00000000000E+00 -0.44238673947E+03  0.44238673947E+03  0.25500000000E-02 0. -1.
         24    2    1    2    0    0  0.00000000000E+00  0.00000000000E+00 -0.43867776102E+03  0.44609572134E+03  0.81013669109E+02 0.  0.
         66    2    3    3    0    0  0.18644660236E+02  0.33539393612E+02 -0.29047825927E+03  0.29300875990E+03  0.19999977176E+01 0.  0.
        -13    1    3    3    0    0 -0.18644660236E+02 -0.33539393612E+02 -0.14819950175E+03  0.15308696144E+03  0.10566000000E+00 0.  1.
         13    1    4    4    0    0  0.22400254679E+01  0.36580912975E+01 -0.35242289252E+02  0.35502527541E+02  0.10566000000E+00 0. -1.
        -13    1    4    4    0    0  0.57866260228E+01  0.91748118695E+01 -0.81738313589E+02  0.82454989455E+02  0.10566000000E+00 0.  1.
         14    1    4    4    0    0  0.10618008745E+02  0.20706490445E+02 -0.17349765643E+03  0.17505124290E+03  0.00000000000E+00 0. -1.
<mgrwt>
<rscale>  0 0.81013669E+02</rscale>
<asrwt>0</asrwt>
<pdfrwt beam="1">  1        2 0.68059457E-01 0.81013669E+02</pdfrwt>
<pdfrwt beam="2">  1       -1 0.57061268E-03 0.81013669E+02</pdfrwt>
<totfact> 0.28303935E+05</totfact>
</mgrwt>
</event>
<event>
 8    1  0.1226832E-016  0.7883464E+02  0.7818608E-02  0.1332391E+00
          2   -1    0    0  501    0  0.00000000000E+00  0.00000000000E+00  0.11617681687E+04  0.11617681687E+04  0.25500000000E-02 0. -1.
         -1   -1    0    0    0  501 -0.00000000000E+00 -0.00000000000E+00 -0.13373750605E+01  0.13373845573E+01  0.50400000000E-02 0.  1.
         24    2    1    2    0    0  0.88817841970E-15  0.00000000000E+00  0.11604307937E+04  0.11631055533E+04  0.78834644654E+02 0.  0.
         66    2    3    3    0    0  0.70036966392E+01  0.21891050523E+02  0.10525806570E+04  0.10528334671E+04  0.19999983039E+01 0.  0.
        -13    1    3    3    0    0 -0.70036966392E+01 -0.21891050523E+02  0.10785013663E+03  0.11027208620E+03  0.10566000000E+00 0.  1.
         13    1    4    4    0    0  0.39523663752E+01  0.13429344680E+02  0.60935485765E+03  0.60951564558E+03  0.10566000000E+00 0. -1.
        -13    1    4    4    0    0  0.10482674604E+01  0.19576872382E+01  0.11461210154E+03  0.11463366167E+03  0.10566000000E+00 0.  1.
        -14    1    4    4    0    0  0.20030628036E+01  0.65040186045E+01  0.32861369783E+03  0.32868415983E+03  0.00000000000E+00 0.  1.
<mgrwt>
<rscale>  0 0.78834645E+02</rscale>
<asrwt>0</asrwt>
<pdfrwt beam="1">  1        2 0.17873309E+00 0.78834645E+02</pdfrwt>
<pdfrwt beam="2">  1       -1 0.20575129E-03 0.78834645E+02</pdfrwt>
<totfact> 0.36509427E+05</totfact>
</mgrwt>
</event>
<event>
 8    1  0.1226832E-016  0.8094096E+02  0.7818608E-02  0.1326402E+00
          2   -1    0    0  501    0  0.00000000000E+00  0.00000000000E+00  0.44282847311E+02  0.44282847385E+02  0.25500000000E-02 0. -1.
         -1   -1    0    0    0  501 -0.00000000000E+00 -0.00000000000E+00 -0.36986327398E+02  0.36986327741E+02  0.50400000000E-02 0.  1.
         24    2    1    2    0    0  0.00000000000E+00  0.00000000000E+00  0.72965199136E+01  0.81269175126E+02  0.80940963812E+02 0.  0.
         66    2    3    3    0    0 -0.10991183155E+01 -0.39003884242E+02  0.14339960019E+02  0.41619052054E+02  0.19999983692E+01 0.  0.
        -13    1    3    3    0    0  0.10991183155E+01  0.39003884242E+02 -0.70434401055E+01  0.39650123072E+02  0.10566000000E+00 0.  1.
         13    1    4    4    0    0 -0.58523930856E-01 -0.11284619606E+02  0.36684169434E+01  0.11866529047E+02  0.10566000000E+00 0. -1.
        -13    1    4    4    0    0 -0.55819689190E+00 -0.36317725916E+01  0.15971871484E+01  0.40079329772E+01  0.10566000000E+00 0.  1.
        -14    1    4    4    0    0 -0.48239749273E+00 -0.24087492044E+02  0.90743559273E+01  0.25744590030E+02  0.00000000000E+00 0.  1.
<mgrwt>
<rscale>  0 0.80940964E+02</rscale>
<asrwt>0</asrwt>
<pdfrwt beam="1">  1        2 0.68127458E-02 0.80940964E+02</pdfrwt>
<pdfrwt beam="2">  1       -1 0.56902043E-02 0.80940964E+02</pdfrwt>
<totfact> 0.14098282E+05</totfact>
</mgrwt>
</event>
<event>
 8    1  0.1226832E-016  0.7914874E+02  0.7818608E-02  0.1331485E+00
          2   -1    0    0  501    0  0.00000000000E+00  0.00000000000E+00  0.11070391160E+03  0.11070391163E+03  0.25500000000E-02 0. -1.
         -1   -1    0    0    0  501 -0.00000000000E+00 -0.00000000000E+00 -0.14147021375E+02  0.14147022273E+02  0.50400000000E-02 0.  1.
         24    2    1    2    0    0 -0.35527136788E-14  0.00000000000E+00  0.96556890228E+02  0.12485093390E+03  0.79148737490E+02 0.  0.
         66    2    3    3    0    0  0.18211697952E+02 -0.30102059110E+02  0.76804504103E+02  0.84502850596E+02  0.20000008542E+01 0.  0.
        -13    1    3    3    0    0 -0.18211697952E+02  0.30102059110E+02  0.19752386125E+02  0.40348083308E+02  0.10566000000E+00 0.  1.
         13    1    4    4    0    0  0.58251702623E+01 -0.95695275920E+01  0.25115704411E+02  0.27501240682E+02  0.10566000000E+00 0. -1.
        -13    1    4    4    0    0  0.82001068018E+01 -0.14883392559E+02  0.37123559721E+02  0.40828017047E+02  0.10566000000E+00 0.  1.
         14    1    4    4    0    0  0.41864208880E+01 -0.56491389597E+01  0.14565239971E+02  0.16173592867E+02  0.00000000000E+00 0. -1.
<mgrwt>
<rscale>  0 0.79148737E+02</rscale>
<asrwt>0</asrwt>
<pdfrwt beam="1">  1        2 0.17031370E-01 0.79148737E+02</pdfrwt>
<pdfrwt beam="2">  1       -1 0.21764650E-02 0.79148737E+02</pdfrwt>
<totfact> 0.18776330E+05</totfact>
</mgrwt>
</event>
<event>
 8    1  0.1226832E-016  0.8011143E+02  0.7818608E-02  0.1328736E+00
         -1   -1    0    0    0  501 -0.00000000000E+00  0.00000000000E+00  0.13032783166E+01  0.13032880618E+01  0.50400000000E-02 0.  1.
          2   -1    0    0  501    0  0.00000000000E+00 -0.00000000000E+00 -0.12310909308E+04  0.12310909308E+04  0.25500000000E-02 0. -1.
         24    2    1    2    0    0  0.00000000000E+00 -0.17763568394E-14 -0.12297876525E+04  0.12323942189E+04  0.80111425464E+02 0.  0.
         66    2    3    3    0    0 -0.16496266250E+02 -0.11928818112E+02 -0.11455119840E+04  0.11456946054E+04  0.19999998080E+01 0.  0.
        -13    1    3    3    0    0  0.16496266250E+02  0.11928818112E+02 -0.84275668540E+02  0.86699613457E+02  0.10566000000E+00 0.  1.
         13    1    4    4    0    0 -0.63213521351E+01 -0.43471545655E+01 -0.47516486732E+03  0.47522680853E+03  0.10566000000E+00 0. -1.
        -13    1    4    4    0    0 -0.30996034531E+01 -0.21039325011E+01 -0.17931715971E+03  0.17935631855E+03  0.10566000000E+00 0.  1.
         14    1    4    4    0    0 -0.70753106618E+01 -0.54777310458E+01 -0.49102995692E+03  0.49111147833E+03  0.00000000000E+00 0. -1.
<mgrwt>
<rscale>  0 0.80111425E+02</rscale>
<asrwt>0</asrwt>
<pdfrwt beam="1">  1        2 0.18939767E+00 0.80111425E+02</pdfrwt>
<pdfrwt beam="2">  1       -1 0.20050609E-03 0.80111425E+02</pdfrwt>
<totfact> 0.34802094E+05</totfact>
</mgrwt>
</event>
<event>
 8    1  0.1226832E-016  0.7977041E+02  0.7818608E-02  0.1329704E+00
         -1   -1    0    0    0  501 -0.00000000000E+00  0.00000000000E+00  0.95176357636E+01  0.95176370981E+01  0.50400000000E-02 0.  1.
          2   -1    0    0  501    0  0.00000000000E+00 -0.00000000000E+00 -0.16714543386E+03  0.16714543388E+03  0.25500000000E-02 0. -1.
         24    2    1    2    0    0 -0.71054273576E-14 -0.88817841970E-15 -0.15762779810E+03  0.17666307098E+03  0.79770407512E+02 0.  0.
         66    2    3    3    0    0  0.35338184627E+02  0.48819394234E+01 -0.11824437932E+03  0.12352470947E+03  0.19999958913E+01 0.  0.
        -13    1    3    3    0    0 -0.35338184627E+02 -0.48819394234E+01 -0.39383418780E+02  0.53138361511E+02  0.10566000000E+00 0.  1.
         13    1    4    4    0    0  0.27551592033E+02  0.42969599353E+01 -0.92371227439E+02  0.96488387440E+02  0.10566000000E+00 0. -1.
        -13    1    4    4    0    0  0.42808117946E+00  0.15499073707E+00 -0.13006685221E+01  0.13820919886E+01  0.10566000000E+00 0.  1.
         14    1    4    4    0    0  0.73585114144E+01  0.42998875101E+00 -0.24572483357E+02  0.25654230039E+02  0.00000000000E+00 0. -1.
<mgrwt>
<rscale>  0 0.79770408E+02</rscale>
<asrwt>0</asrwt>
<pdfrwt beam="1">  1        2 0.25714680E-01 0.79770408E+02</pdfrwt>
<pdfrwt beam="2">  1       -1 0.14642519E-02 0.79770408E+02</pdfrwt>
<totfact> 0.20910540E+05</totfact>
</mgrwt>
</event>
<event>
 8    1  0.1226832E-016  0.7932090E+02  0.7818608E-02  0.1330990E+00
          2   -1    0    0  501    0  0.00000000000E+00  0.00000000000E+00  0.24489431708E+03  0.24489431709E+03  0.25500000000E-02 0. -1.
         -1   -1    0    0    0  501 -0.00000000000E+00 -0.00000000000E+00 -0.64229786379E+01  0.64229806153E+01  0.50400000000E-02 0.  1.
         24    2    1    2    0    0  0.00000000000E+00  0.00000000000E+00  0.23847133844E+03  0.25131729771E+03  0.79320898061E+02 0.  0.
         66    2    3    3    0    0  0.14920132707E+02  0.26203627775E+02  0.20081306702E+03  0.20307419417E+03  0.19999957527E+01 0.  0.
        -13    1    3    3    0    0 -0.14920132707E+02 -0.26203627775E+02  0.37658271423E+02  0.48243103540E+02  0.10566000000E+00 0.  1.
         13    1    4    4    0    0  0.79642951539E+01  0.13549392808E+02  0.10647751017E+03  0.10763125651E+03  0.10566000000E+00 0. -1.
        -13    1    4    4    0    0  0.30866820972E+01  0.45582184915E+01  0.33610285425E+02  0.34058294329E+02  0.10566000000E+00 0.  1.
         14    1    4    4    0    0  0.38691554563E+01  0.80960164756E+01  0.60725271425E+02  0.61384643327E+02  0.00000000000E+00 0. -1.
<mgrwt>
<rscale>  0 0.79320898E+02</rscale>
<asrwt>0</asrwt>
<pdfrwt beam="1">  1        2 0.37676046E-01 0.79320898E+02</pdfrwt>
<pdfrwt beam="2">  1       -1 0.98815079E-03 0.79320898E+02</pdfrwt>
<totfact> 0.24229711E+05</totfact>
</mgrwt>
</event>
<event>
 8    1  0.1226832E-016  0.7692169E+02  0.7818608E-02  0.1338021E+00
          2   -1    0    0  501    0  0.00000000000E+00  0.00000000000E+00  0.62366520653E+02  0.62366520705E+02  0.25500000000E-02 0. -1.
         -1   -1    0    0    0  501 -0.00000000000E+00 -0.00000000000E+00 -0.23718441137E+02  0.23718441672E+02  0.50400000000E-02 0.  1.
         24    2    1    2    0    0  0.17763568394E-14  0.00000000000E+00  0.38648079517E+02  0.86084962377E+02  0.76921691981E+02 0.  0.
         66    2    3    3    0    0  0.96404692944E+01  0.24523680103E+02  0.50650211449E+02  0.57129619711E+02  0.19999986330E+01 0.  0.
        -13    1    3    3    0    0 -0.96404692944E+01 -0.24523680103E+02 -0.12002131932E+02  0.28955342667E+02  0.10566000000E+00 0.  1.
         13    1    4    4    0    0  0.31683310674E+01  0.89045486116E+01  0.17610136152E+02  0.19986429572E+02  0.10566000000E+00 0. -1.
        -13    1    4    4    0    0  0.15430752948E+01  0.24064835065E+01  0.59774495556E+01  0.66267119643E+01  0.10566000000E+00 0.  1.
         14    1    4    4    0    0  0.49290629322E+01  0.13212647985E+02  0.27062625741E+02  0.30516478174E+02  0.00000000000E+00 0. -1.
<mgrwt>
<rscale>  0 0.76921692E+02</rscale>
<asrwt>0</asrwt>
<pdfrwt beam="1">  1        2 0.95948493E-02 0.76921692E+02</pdfrwt>
<pdfrwt beam="2">  1       -1 0.36489910E-02 0.76921692E+02</pdfrwt>
<totfact> 0.17469094E+05</totfact>
</mgrwt>
</event>
<event>
 8    1  0.1226832E-016  0.7871127E+02  0.7818608E-02  0.1332749E+00
         -1   -1    0    0    0  501 -0.00000000000E+00  0.00000000000E+00  0.82995106595E+01  0.82995121898E+01  0.50400000000E-02 0.  1.
          2   -1    0    0  501    0  0.00000000000E+00 -0.00000000000E+00 -0.18662136452E+03  0.18662136454E+03  0.25500000000E-02 0. -1.
         24    2    1    2    0    0  0.00000000000E+00  0.00000000000E+00 -0.17832185386E+03  0.19492087673E+03  0.78711273778E+02 0.  0.
         66    2    3    3    0    0  0.17919216622E+02 -0.22252142542E+02 -0.15615479275E+03  0.15875948939E+03  0.19999997366E+01 0.  0.
        -13    1    3    3    0    0 -0.17919216622E+02  0.22252142542E+02 -0.22167061104E+02  0.36161387336E+02  0.10566000000E+00 0.  1.
         13    1    4    4    0    0  0.44320720766E+01 -0.62885616469E+01 -0.40982604696E+02  0.41698612953E+02  0.10566000000E+00 0. -1.
        -13    1    4    4    0    0  0.58572677202E+00 -0.96663913183E+00 -0.76830477912E+01  0.77664570082E+01  0.10566000000E+00 0. -1.
         14    1    4    4    0    0  0.12901417773E+02 -0.14996941763E+02 -0.10748914027E+03  0.10929441943E+03  0.00000000000E+00 0. -1.
<mgrwt>
<rscale>  0 0.78711274E+02</rscale>
<asrwt>0</asrwt>
<pdfrwt beam="1">  1        2 0.28710976E-01 0.78711274E+02</pdfrwt>
<pdfrwt beam="2">  1       -1 0.12768481E-02 0.78711274E+02</pdfrwt>
<totfact> 0.22481494E+05</totfact>
</mgrwt>
</event>
<event>
 8    1  0.1226832E-016  0.8129034E+02  0.7818608E-02  0.1325429E+00
          2   -1    0    0  501    0  0.00000000000E+00  0.00000000000E+00  0.29808348554E+03  0.29808348555E+03  0.25500000000E-02 0. -1.
         -1   -1    0    0    0  501 -0.00000000000E+00 -0.00000000000E+00 -0.55421706251E+01  0.55421729168E+01  0.50400000000E-02 0.  1.
         24    2    1    2    0    0  0.17763568394E-14  0.00000000000E+00  0.29254131492E+03  0.30362565847E+03  0.81290341049E+02 0.  0.
         66    2    3    3    0    0  0.66261836987E+01  0.38929135427E+02  0.11079893960E+03  0.11764263224E+03  0.20000021474E+01 0.  0.
        -13    1    3    3    0    0 -0.66261836987E+01 -0.38929135427E+02  0.18174237531E+03  0.18598302623E+03  0.10566000000E+00 0.  1.
         13    1    4    4    0    0  0.14729759533E+01  0.11119924256E+02  0.32603988336E+02  0.34479756279E+02  0.10566000000E+00 0. -1.
        -13    1    4    4    0    0  0.25312480215E+00  0.30657383147E+01  0.78121089172E+01  0.83966084433E+01  0.10566000000E+00 0. -1.
        -14    1    4    4    0    0  0.49000829432E+01  0.24743472856E+02  0.70382842351E+02  0.74766267522E+02  0.00000000000E+00 0.  1.
<mgrwt>
<rscale>  0 0.81290341E+02</rscale>
<asrwt>0</asrwt>
<pdfrwt beam="1">  1        2 0.45858989E-01 0.81290341E+02</pdfrwt>
<pdfrwt beam="2">  1       -1 0.85264198E-03 0.81290341E+02</pdfrwt>
<totfact> 0.24389542E+05</totfact>
</mgrwt>
</event>
<event>
 8    1  0.1226832E-016  0.7997823E+02  0.7818608E-02  0.1329113E+00
          2   -1    0    0  501    0  0.00000000000E+00  0.00000000000E+00  0.32962616802E+03  0.32962616803E+03  0.25500000000E-02 0. -1.
         -1   -1    0    0    0  501 -0.00000000000E+00 -0.00000000000E+00 -0.48513412271E+01  0.48513438451E+01  0.50400000000E-02 0.  1.
         24    2    1    2    0    0  0.00000000000E+00 -0.17763568394E-14  0.32477482680E+03  0.33447751188E+03  0.79978233488E+02 0.  0.
         66    2    3    3    0    0  0.38731902940E+02  0.98435556537E+01  0.16358411742E+03  0.16840670816E+03  0.19999972890E+01 0.  0.
        -13    1    3    3    0    0 -0.38731902940E+02 -0.98435556537E+01  0.16119070938E+03  0.16607080372E+03  0.10566000000E+00 0.  1.
         13    1    4    4    0    0  0.46170779736E+00  0.19719511257E+00  0.20786305881E+01  0.21410112471E+01  0.10566000000E+00 0.  1.
        -13    1    4    4    0    0  0.15197824746E+02  0.32520358587E+01  0.65888213819E+02  0.67696510239E+02  0.10566000000E+00 0.  1.
         14    1    4    4    0    0  0.23072370396E+02  0.63943246824E+01  0.95617273013E+02  0.98569186678E+02  0.00000000000E+00 0. -1.
<mgrwt>
<rscale>  0 0.79978233E+02</rscale>
<asrwt>0</asrwt>
<pdfrwt beam="1">  1        2 0.50711709E-01 0.79978233E+02</pdfrwt>
<pdfrwt beam="2">  1       -1 0.74636052E-03 0.79978233E+02</pdfrwt>
<totfact> 0.26395168E+05</totfact>
</mgrwt>
</event>
<event>
 8    1  0.1226832E-016  0.7847125E+02  0.7818608E-02  0.1333447E+00
          2   -1    0    0  501    0  0.00000000000E+00  0.00000000000E+00  0.14255377248E+02  0.14255377476E+02  0.25500000000E-02 0. -1.
         -1   -1    0    0    0  501 -0.00000000000E+00 -0.00000000000E+00 -0.10798971457E+03  0.10798971469E+03  0.50400000000E-02 0.  1.
         24    2    1    2    0    0  0.00000000000E+00  0.00000000000E+00 -0.93734337324E+02  0.12224509216E+03  0.78471246739E+02 0.  0.
         66    2    3    3    0    0 -0.85033723695E+01  0.30685681169E+02 -0.11253751278E+02  0.33831424619E+02  0.20000008609E+01 0.  0.
        -13    1    3    3    0    0  0.85033723695E+01 -0.30685681169E+02 -0.82480586046E+02  0.88413667546E+02  0.10566000000E+00 0.  1.
         13    1    4    4    0    0 -0.11177398240E+01  0.47255929322E+01 -0.20788250525E+01  0.52832990176E+01  0.10566000000E+00 0. -1.
        -13    1    4    4    0    0 -0.11575934158E+01  0.25664908152E+01 -0.11669912165E+01  0.30495786850E+01  0.10566000000E+00 0.  1.
        -14    1    4    4    0    0 -0.62280391297E+01  0.23393597422E+02 -0.80079350091E+01  0.25498546916E+02  0.00000000000E+00 0.  1.
<mgrwt>
<rscale>  0 0.78471247E+02</rscale>
<asrwt>0</asrwt>
<pdfrwt beam="1">  1        2 0.21931350E-02 0.78471247E+02</pdfrwt>
<pdfrwt beam="2">  1       -1 0.16613802E-01 0.78471247E+02</pdfrwt>
<totfact> 0.12233053E+05</totfact>
</mgrwt>
</event>
<event>
 8    1  0.1226832E-016  0.7745794E+02  0.7818608E-02  0.1336424E+00
          2   -1    0    0  501    0  0.00000000000E+00  0.00000000000E+00  0.19658535043E+03  0.19658535045E+03  0.25500000000E-02 0. -1.
         -1   -1    0    0    0  501 -0.00000000000E+00 -0.00000000000E+00 -0.76299328175E+01  0.76299344821E+01  0.50400000000E-02 0.  1.
         24    2    1    2    0    0 -0.88817841970E-15  0.00000000000E+00  0.18895541762E+03  0.20421528493E+03  0.77457941836E+02 0.  0.
         66    2    3    3    0    0  0.49339235904E+01  0.35672210739E+02  0.13192614382E+03  0.13676753141E+03  0.20000012046E+01 0.  0.
        -13    1    3    3    0    0 -0.49339235904E+01 -0.35672210739E+02  0.57029273801E+02  0.67447753523E+02  0.10566000000E+00 0.  1.
         13    1    4    4    0    0  0.16045820506E+01  0.12073001572E+02  0.45344390036E+02  0.46951644511E+02  0.10566000000E+00 0. -1.
        -13    1    4    4    0    0  0.72041376287E+00  0.93892040873E+01  0.32381227282E+02  0.33722858623E+02  0.10566000000E+00 0.  1.
        -14    1    4    4    0    0  0.26089277770E+01  0.14210005080E+02  0.54200526497E+02  0.56093028276E+02  0.00000000000E+00 0.  1.
<mgrwt>
<rscale>  0 0.77457942E+02</rscale>
<asrwt>0</asrwt>
<pdfrwt beam="1">  1        2 0.30243900E-01 0.77457942E+02</pdfrwt>
<pdfrwt beam="2">  1       -1 0.11738360E-02 0.77457942E+02</pdfrwt>
<totfact> 0.23874721E+05</totfact>
</mgrwt>
</event>
<event>
 8    1  0.1226832E-016  0.8099907E+02  0.7818608E-02  0.1326240E+00
          2   -1    0    0  501    0  0.00000000000E+00  0.00000000000E+00  0.38946436564E+02  0.38946436647E+02  0.25500000000E-02 0. -1.
         -1   -1    0    0    0  501 -0.00000000000E+00 -0.00000000000E+00 -0.42114567547E+02  0.42114567849E+02  0.50400000000E-02 0.  1.
         24    2    1    2    0    0  0.35527136788E-14  0.88817841970E-15 -0.31681309837E+01  0.81061004496E+02  0.80999070340E+02 0.  0.
         66    2    3    3    0    0 -0.21063377539E+02 -0.65291796062E+01  0.32380741718E+02  0.39227649693E+02  0.20000016436E+01 0.  0.
        -13    1    3    3    0    0  0.21063377539E+02  0.65291796062E+01 -0.35548872701E+02  0.41833354803E+02  0.10566000000E+00 0.  1.
         13    1    4    4    0    0 -0.19969150479E+01 -0.73667006542E+00  0.36642417463E+01  0.42388894895E+01  0.10566000000E+00 0. -1.
        -13    1    4    4    0    0 -0.74968607444E+00 -0.17506095430E+00  0.68747545242E+00  0.10375269063E+01  0.10566000000E+00 0.  1.
         14    1    4    4    0    0 -0.18316776417E+02 -0.56174485865E+01  0.28029024519E+02  0.33951233297E+02  0.00000000000E+00 0. -1.
<mgrwt>
<rscale>  0 0.80999070E+02</rscale>
<asrwt>0</asrwt>
<pdfrwt beam="1">  1        2 0.59917595E-02 0.80999070E+02</pdfrwt>
<pdfrwt beam="2">  1       -1 0.64791643E-02 0.80999070E+02</pdfrwt>
<totfact> 0.13698222E+05</totfact>
</mgrwt>
</event>
<event>
 8    1  0.1226832E-016  0.8115136E+02  0.7818608E-02  0.1325815E+00
         -1   -1    0    0    0  501 -0.00000000000E+00  0.00000000000E+00  0.66621768818E+01  0.66621787882E+01  0.50400000000E-02 0.  1.
          2   -1    0    0  501    0  0.00000000000E+00 -0.00000000000E+00 -0.24712428875E+03  0.24712428876E+03  0.25500000000E-02 0. -1.
         24    2    1    2    0    0  0.00000000000E+00  0.44408920985E-15 -0.24046211186E+03  0.25378646755E+03  0.81151363932E+02 0.  0.
         66    2    3    3    0    0 -0.17973819689E+02  0.27597643468E+01 -0.23365395412E+03  0.23436903545E+03  0.20000014366E+01 0.  0.
        -13    1    3    3    0    0  0.17973819689E+02 -0.27597643468E+01 -0.68081577401E+01  0.19417432099E+02  0.10566000000E+00 0.  1.
         13    1    4    4    0    0 -0.35241785818E+01  0.20046215351E+00 -0.39793972097E+02  0.39950361688E+02  0.10566000000E+00 0. -1.
        -13    1    4    4    0    0 -0.43217284803E+01  0.79576787154E+00 -0.65859500221E+02  0.66006026369E+02  0.10566000000E+00 0.  1.
         14    1    4    4    0    0 -0.10127912627E+02  0.17635343218E+01 -0.12800048181E+03  0.12841264739E+03  0.00000000000E+00 0. -1.
<mgrwt>
<rscale>  0 0.81151364E+02</rscale>
<asrwt>0</asrwt>
<pdfrwt beam="1">  1        2 0.38019114E-01 0.81151364E+02</pdfrwt>
<pdfrwt beam="2">  1       -1 0.10249506E-02 0.81151364E+02</pdfrwt>
<totfact> 0.22892544E+05</totfact>
</mgrwt>
</event>
<event>
 8    1  0.1226832E-016  0.7814280E+02  0.7818608E-02  0.1334406E+00
         -1   -1    0    0    0  501 -0.00000000000E+00  0.00000000000E+00  0.19884097846E+02  0.19884098484E+02  0.50400000000E-02 0.  1.
          2   -1    0    0  501    0  0.00000000000E+00 -0.00000000000E+00 -0.76773632823E+02  0.76773632866E+02  0.25500000000E-02 0. -1.
         24    2    1    2    0    0  0.00000000000E+00  0.00000000000E+00 -0.56889534978E+02  0.96657731350E+02  0.78142804146E+02 0.  0.
         66    2    3    3    0    0 -0.22499994576E+02 -0.44449413692E+01 -0.67550604405E+02  0.71365898180E+02  0.20000019650E+01 0.  0.
        -13    1    3    3    0    0  0.22499994576E+02  0.44449413692E+01  0.10661069428E+02  0.25291833170E+02  0.10566000000E+00 0.  1.
         13    1    4    4    0    0 -0.15048931768E+02 -0.24556664502E+01 -0.43003578078E+02  0.45626960633E+02  0.10566000000E+00 0. -1.
        -13    1    4    4    0    0 -0.71331370973E+01 -0.19162604694E+01 -0.23880616845E+02  0.24996974297E+02  0.10566000000E+00 0.  1.
         14    1    4    4    0    0 -0.31792571123E+00 -0.73014449644E-01 -0.66640948178E+00  0.74196325053E+00  0.00000000000E+00 0. -1.
<mgrwt>
<rscale>  0 0.78142804E+02</rscale>
<asrwt>0</asrwt>
<pdfrwt beam="1">  1        2 0.11811328E-01 0.78142804E+02</pdfrwt>
<pdfrwt beam="2">  1       -1 0.30590921E-02 0.78142804E+02</pdfrwt>
<totfact> 0.17601125E+05</totfact>
</mgrwt>
</event>
<event>
 8    1  0.1226832E-016  0.7973943E+02  0.7818608E-02  0.1329793E+00
          2   -1    0    0  501    0  0.00000000000E+00  0.00000000000E+00  0.13896058011E+03  0.13896058013E+03  0.25500000000E-02 0. -1.
         -1   -1    0    0    0  501 -0.00000000000E+00 -0.00000000000E+00 -0.11439171462E+02  0.11439172572E+02  0.50400000000E-02 0.  1.
         24    2    1    2    0    0  0.44408920985E-15  0.71054273576E-14  0.12752140864E+03  0.15039975270E+03  0.79739425319E+02 0.  0.
         66    2    3    3    0    0 -0.32034896067E+01 -0.30438814213E+02  0.11191781572E+03  0.11604473804E+03  0.19999987042E+01 0.  0.
        -13    1    3    3    0    0  0.32034896067E+01  0.30438814213E+02  0.15603592927E+02  0.34355014665E+02  0.10566000000E+00 0.  1.
         13    1    4    4    0    0 -0.13893300595E+01 -0.96907110045E+01  0.36815730273E+02  0.38095265813E+02  0.10566000000E+00 0. -1.
        -13    1    4    4    0    0 -0.15040818547E+01 -0.99938126121E+01  0.37589327684E+02  0.38924378897E+02  0.10566000000E+00 0.  1.
         14    1    4    4    0    0 -0.31007769248E+00 -0.10754290597E+02  0.37512757758E+02  0.39025093325E+02  0.00000000000E+00 0. -1.
<mgrwt>
<rscale>  0 0.79739425E+02</rscale>
<asrwt>0</asrwt>
<pdfrwt beam="1">  1        2 0.21378550E-01 0.79739425E+02</pdfrwt>
<pdfrwt beam="2">  1       -1 0.17598727E-02 0.79739425E+02</pdfrwt>
<totfact> 0.19718376E+05</totfact>
</mgrwt>
</event>
<event>
 8    1  0.1226832E-016  0.8016117E+02  0.7818608E-02  0.1328595E+00
         -1   -1    0    0    0  501 -0.00000000000E+00  0.00000000000E+00  0.10862080681E+02  0.10862081851E+02  0.50400000000E-02 0.  1.
          2   -1    0    0  501    0  0.00000000000E+00 -0.00000000000E+00 -0.14789554208E+03  0.14789554211E+03  0.25500000000E-02 0. -1.
         24    2    1    2    0    0  0.00000000000E+00  0.00000000000E+00 -0.13703346140E+03  0.15875762396E+03  0.80161172774E+02 0.  0.
         66    2    3    3    0    0  0.19739136519E+02  0.19759810267E+02 -0.12542232638E+03  0.12851009128E+03  0.19999985781E+01 0.  0.
        -13    1    3    3    0    0 -0.19739136519E+02 -0.19759810267E+02 -0.11611135020E+02  0.30247532673E+02  0.10566000000E+00 0.  1.
         13    1    4    4    0    0  0.81850185709E+01  0.85152002340E+01 -0.50333846755E+02  0.51701164950E+02  0.10566000000E+00 0.  1.
        -13    1    4    4    0    0  0.71726199903E+01  0.70179177345E+01 -0.49385954801E+02  0.50395251190E+02  0.10566000000E+00 0. -1.
        -14    1    4    4    0    0  0.43814979578E+01  0.42266922984E+01 -0.25702524827E+02  0.26413675144E+02  0.00000000000E+00 0.  1.
<mgrwt>
<rscale>  0 0.80161173E+02</rscale>
<asrwt>0</asrwt>
<pdfrwt beam="1">  1        2 0.22753159E-01 0.80161173E+02</pdfrwt>
<pdfrwt beam="2">  1       -1 0.16710895E-02 0.80161173E+02</pdfrwt>
<totfact> 0.19832977E+05</totfact>
</mgrwt>
</event>
<event>
 8    1  0.1226832E-016  0.7810997E+02  0.7818608E-02  0.1334502E+00
         -1   -1    0    0    0  501 -0.00000000000E+00  0.00000000000E+00  0.43843860682E+03  0.43843860685E+03  0.50400000000E-02 0.  1.
          2   -1    0    0  501    0  0.00000000000E+00 -0.00000000000E+00 -0.34789169831E+01  0.34789179176E+01  0.25500000000E-02 0. -1.
         24    2    1    2    0    0 -0.71054273576E-14  0.35527136788E-14  0.43495968983E+03  0.44191752476E+03  0.78109966795E+02 0.  0.
         66    2    3    3    0    0 -0.32241186771E+02  0.17760246986E+02  0.29103323504E+03  0.29335859352E+03  0.19999997844E+01 0.  0.
        -13    1    3    3    0    0  0.32241186771E+02 -0.17760246986E+02  0.14392645480E+03  0.14855893124E+03  0.10566000000E+00 0.  1.
         13    1    4    4    0    0 -0.23480658295E+02  0.13690283301E+02  0.21816408787E+03  0.21985073475E+03  0.10566000000E+00 0. -1.
        -13    1    4    4    0    0 -0.71146944441E+01  0.34655054223E+01  0.60113954398E+02  0.60632724516E+02  0.10566000000E+00 0.  1.
        -14    1    4    4    0    0 -0.16458340321E+01  0.60445826327E+00  0.12755192772E+02  0.12875134256E+02  0.00000000000E+00 0.  1.
<mgrwt>
<rscale>  0 0.78109967E+02</rscale>
<asrwt>0</asrwt>
<pdfrwt beam="1">  1        2 0.53521830E-03 0.78109967E+02</pdfrwt>
<pdfrwt beam="2">  1       -1 0.67452065E-01 0.78109967E+02</pdfrwt>
<totfact> 0.76748545E+04</totfact>
</mgrwt>
</event>
<event>
 8    1  0.1226832E-016  0.8198529E+02  0.7818608E-02  0.1323510E+00
          2   -1    0    0  501    0  0.00000000000E+00  0.00000000000E+00  0.15221878103E+03  0.15221878105E+03  0.25500000000E-02 0. -1.
         -1   -1    0    0    0  501 -0.00000000000E+00 -0.00000000000E+00 -0.11039352174E+02  0.11039353325E+02  0.50400000000E-02 0.  1.
         24    2    1    2    0    0  0.00000000000E+00 -0.17763568394E-14  0.14117942886E+03  0.16325813438E+03  0.81985287143E+02 0.  0.
         66    2    3    3    0    0 -0.16212265825E+02 -0.87083418969E+01  0.14351788314E+03  0.14470679172E+03  0.20000022005E+01 0.  0.
        -13    1    3    3    0    0  0.16212265825E+02  0.87083418969E+01 -0.23384542813E+01  0.18551342653E+02  0.10566000000E+00 0.  1.
         13    1    4    4    0    0 -0.12171835309E+02 -0.59333162555E+01  0.10611157677E+03  0.10697212583E+03  0.10566000000E+00 0. -1.
        -13    1    4    4    0    0 -0.37258307756E+01 -0.26747524829E+01  0.33209281695E+02  0.33524672564E+02  0.10566000000E+00 0.  1.
         14    1    4    4    0    0 -0.31459974029E+00 -0.10027315848E+00  0.41970246707E+01  0.42099933241E+01  0.00000000000E+00 0. -1.
<mgrwt>
<rscale>  0 0.81985287E+02</rscale>
<asrwt>0</asrwt>
<pdfrwt beam="1">  1        2 0.23418273E-01 0.81985287E+02</pdfrwt>
<pdfrwt beam="2">  1       -1 0.16983620E-02 0.81985287E+02</pdfrwt>
<totfact> 0.18856567E+05</totfact>
</mgrwt>
</event>
<event>
 8    1  0.1226832E-016  0.8000877E+02  0.7818608E-02  0.1329027E+00
         -1   -1    0    0    0  501 -0.00000000000E+00  0.00000000000E+00  0.96541950144E+02  0.96541950276E+02  0.50400000000E-02 0.  1.
          2   -1    0    0  501    0  0.00000000000E+00 -0.00000000000E+00 -0.16576740343E+02  0.16576740539E+02  0.25500000000E-02 0. -1.
         24    2    1    2    0    0  0.88817841970E-15 -0.71054273576E-14  0.79965209801E+02  0.11311869081E+03  0.80008770976E+02 0.  0.
         66    2    3    3    0    0  0.63902330205E+01 -0.34226126329E+02  0.12227203908E+02  0.36956289278E+02  0.20000000612E+01 0.  0.
        -13    1    3    3    0    0 -0.63902330205E+01  0.34226126329E+02  0.67738005893E+02  0.76162401537E+02  0.10566000000E+00 0.  1.
         13    1    4    4    0    0  0.24074137037E+01 -0.14951818511E+02  0.58283866551E+01  0.16227562126E+02  0.10566000000E+00 0.  1.
        -13    1    4    4    0    0  0.80656455304E+00 -0.25180531289E+01  0.11440650269E+01  0.28829128949E+01  0.10566000000E+00 0. -1.
        -14    1    4    4    0    0  0.31762547638E+01 -0.16756254689E+02  0.52547522261E+01  0.17845814256E+02  0.00000000000E+00 0.  1.
<mgrwt>
<rscale>  0 0.80008771E+02</rscale>
<asrwt>0</asrwt>
<pdfrwt beam="1">  1        2 0.25502678E-02 0.80008771E+02</pdfrwt>
<pdfrwt beam="2">  1       -1 0.14852608E-01 0.80008771E+02</pdfrwt>
<totfact> 0.11938983E+05</totfact>
</mgrwt>
</event>
<event>
 8    1  0.1226832E-016  0.8052127E+02  0.7818608E-02  0.1327579E+00
          2   -1    0    0  501    0  0.00000000000E+00  0.00000000000E+00  0.10613733089E+04  0.10613733089E+04  0.25500000000E-02 0. -1.
         -1   -1    0    0    0  501 -0.00000000000E+00 -0.00000000000E+00 -0.15271858754E+01  0.15271941919E+01  0.50400000000E-02 0.  1.
         24    2    1    2    0    0  0.00000000000E+00  0.00000000000E+00  0.10598461230E+04  0.10629005031E+04  0.80521270414E+02 0.  0.
         66    2    3    3    0    0 -0.80393724081E+01  0.80859452293E+01  0.10395972162E+04  0.10396616690E+04  0.20000007081E+01 0.  0.
        -13    1    3    3    0    0  0.80393724081E+01 -0.80859452293E+01  0.20248906776E+02  0.23238834064E+02  0.10566000000E+00 0.  1.
         13    1    4    4    0    0 -0.10325840403E+01  0.61689514496E+00  0.80490462659E+02  0.80499518834E+02  0.10566000000E+00 0. -1.
        -13    1    4    4    0    0 -0.22779964730E-01  0.20447423609E+00  0.21304565704E+02  0.21305821095E+02  0.10566000000E+00 0.  1.
         14    1    4    4    0    0 -0.69840084030E+01  0.72645758482E+01  0.93780218785E+03  0.93785632907E+03  0.00000000000E+00 0. -1.
<mgrwt>
<rscale>  0 0.80521270E+02</rscale>
<asrwt>0</asrwt>
<pdfrwt beam="1">  1        2 0.16328834E+00 0.80521270E+02</pdfrwt>
<pdfrwt beam="2">  1       -1 0.23495212E-03 0.80521270E+02</pdfrwt>
<totfact> 0.34683306E+05</totfact>
</mgrwt>
</event>
<event>
 8    1  0.1226832E-016  0.7634493E+02  0.7818608E-02  0.1339756E+00
         -1   -1    0    0    0  501 -0.00000000000E+00  0.00000000000E+00  0.31642173025E+02  0.31642173426E+02  0.50400000000E-02 0.  1.
          2   -1    0    0  501    0  0.00000000000E+00 -0.00000000000E+00 -0.46050476138E+02  0.46050476209E+02  0.25500000000E-02 0. -1.
         24    2    1    2    0    0  0.00000000000E+00  0.17763568394E-14 -0.14408303113E+02  0.77692649634E+02  0.76344931781E+02 0.  0.
         66    2    3    3    0    0  0.21586372076E+02 -0.12785128016E+02 -0.36451359946E+02  0.44295966021E+02  0.20000015084E+01 0.  0.
        -13    1    3    3    0    0 -0.21586372076E+02  0.12785128016E+02  0.22043056832E+02  0.33396683613E+02  0.10566000000E+00 0.  1.
         13    1    4    4    0    0  0.10521524741E+02 -0.60519073896E+01 -0.17737502816E+02  0.21493213722E+02  0.10566000000E+00 0. -1.
        -13    1    4    4    0    0  0.18256574292E+01 -0.17496042166E+01 -0.37253520854E+01  0.45037264747E+01  0.10566000000E+00 0.  1.
         14    1    4    4    0    0  0.92391899066E+01 -0.49836164101E+01 -0.14988505045E+02  0.18299025825E+02  0.00000000000E+00 0. -1.
<mgrwt>
<rscale>  0 0.76344932E+02</rscale>
<asrwt>0</asrwt>
<pdfrwt beam="1">  1        2 0.70846886E-02 0.76344932E+02</pdfrwt>
<pdfrwt beam="2">  1       -1 0.48680267E-02 0.76344932E+02</pdfrwt>
<totfact> 0.16686878E+05</totfact>
</mgrwt>
</event>
<event>
 8    1  0.1226832E-016  0.8067062E+02  0.7818608E-02  0.1327159E+00
          2   -1    0    0  501    0  0.00000000000E+00  0.00000000000E+00  0.18882583202E+04  0.18882583202E+04  0.25500000000E-02 0. -1.
         -1   -1    0    0    0  501 -0.00000000000E+00 -0.00000000000E+00 -0.86159989199E+00  0.86161463281E+00  0.50400000000E-02 0.  1.
         24    2    1    2    0    0  0.00000000000E+00  0.00000000000E+00  0.18873967203E+04  0.18891199349E+04  0.80670616459E+02 0.  0.
         66    2    3    3    0    0 -0.26681404852E+01 -0.14663337833E+02  0.18213623909E+04  0.18214244676E+04  0.20000006498E+01 0.  0.
        -13    1    3    3    0    0  0.26681404852E+01  0.14663337833E+02  0.66034329481E+02  0.67695467235E+02  0.10566000000E+00 0.  1.
         13    1    4    4    0    0 -0.19769116684E+01 -0.60422455883E+01  0.79792295270E+03  0.79794828562E+03  0.10566000000E+00 0. -1.
        -13    1    4    4    0    0 -0.22547023842E+00 -0.57898931284E+01  0.70484661580E+03  0.70487043963E+03  0.10566000000E+00 0.  1.
         14    1    4    4    0    0 -0.46575857837E+00 -0.28311991168E+01  0.31859282236E+03  0.31860574238E+03  0.00000000000E+00 0. -1.
<mgrwt>
<rscale>  0 0.80670616E+02</rscale>
<asrwt>0</asrwt>
<pdfrwt beam="1">  1        2 0.29049891E+00 0.80670616E+02</pdfrwt>
<pdfrwt beam="2">  1       -1 0.13255604E-03 0.80670616E+02</pdfrwt>
<totfact> 0.28538602E+05</totfact>
</mgrwt>
</event>
<event>
 8    1  0.1226832E-016  0.7802001E+02  0.7818608E-02  0.1334766E+00
         -1   -1    0    0    0  501 -0.00000000000E+00  0.00000000000E+00  0.18173754716E+02  0.18173755415E+02  0.50400000000E-02 0.  1.
          2   -1    0    0  501    0  0.00000000000E+00 -0.00000000000E+00 -0.83735069765E+02  0.83735069803E+02  0.25500000000E-02 0. -1.
         24    2    1    2    0    0  0.22204460493E-15 -0.35527136788E-14 -0.65561315048E+02  0.10190882522E+03  0.78020014269E+02 0.  0.
         66    2    3    3    0    0  0.19954121864E+01 -0.27278464066E+02 -0.69086897034E+02  0.74330986943E+02  0.20000016359E+01 0.  0.
        -13    1    3    3    0    0 -0.19954121864E+01  0.27278464066E+02  0.35255819851E+01  0.27577838276E+02  0.10566000000E+00 0.  1.
         13    1    4    4    0    0  0.98486129261E+00 -0.68640162429E+01 -0.16618755680E+02  0.18007744865E+02  0.10566000000E+00 0. -1.
        -13    1    4    4    0    0  0.16453020660E+00 -0.60811018852E+00 -0.20674214536E+01  0.21638538982E+01  0.10566000000E+00 0.  1.
         14    1    4    4    0    0  0.84602068718E+00 -0.19806337635E+02 -0.50400719900E+02  0.54159388179E+02  0.00000000000E+00 0. -1.
<mgrwt>
<rscale>  0 0.78020014E+02</rscale>
<asrwt>0</asrwt>
<pdfrwt beam="1">  1        2 0.12882318E-01 0.78020014E+02</pdfrwt>
<pdfrwt beam="2">  1       -1 0.27959624E-02 0.78020014E+02</pdfrwt>
<totfact> 0.18071413E+05</totfact>
</mgrwt>
</event>
<event>
 8    1  0.1226832E-016  0.7818014E+02  0.7818608E-02  0.1334297E+00
          2   -1    0    0  501    0  0.00000000000E+00  0.00000000000E+00  0.32312317498E+03  0.32312317499E+03  0.25500000000E-02 0. -1.
         -1   -1    0    0    0  501 -0.00000000000E+00 -0.00000000000E+00 -0.47289491558E+01  0.47289518416E+01  0.50400000000E-02 0.  1.
         24    2    1    2    0    0 -0.17763568394E-14  0.00000000000E+00  0.31839422582E+03  0.32785212683E+03  0.78180138333E+02 0.  0.
         66    2    3    3    0    0  0.13762539747E+02 -0.47359640317E+01  0.31132457899E+03  0.31167102903E+03  0.19999996141E+01 0.  0.
        -13    1    3    3    0    0 -0.13762539747E+02  0.47359640317E+01  0.70696468318E+01  0.16181097798E+02  0.10566000000E+00 0.  1.
         13    1    4    4    0    0  0.27920520734E+01 -0.27176905365E+00  0.64445508276E+02  0.64506620700E+02  0.10566000000E+00 0. -1.
        -13    1    4    4    0    0  0.67676203289E+01 -0.28822635818E+01  0.14527763364E+03  0.14546377600E+03  0.10566000000E+00 0.  1.
         14    1    4    4    0    0  0.42028673444E+01 -0.15819313962E+01  0.10160143707E+03  0.10170063233E+03  0.00000000000E+00 0. -1.
<mgrwt>
<rscale>  0 0.78180138E+02</rscale>
<asrwt>0</asrwt>
<pdfrwt beam="1">  1        2 0.49711275E-01 0.78180138E+02</pdfrwt>
<pdfrwt beam="2">  1       -1 0.72753059E-03 0.78180138E+02</pdfrwt>
<totfact> 0.27812755E+05</totfact>
</mgrwt>
</event>
<event>
 8    1  0.1226832E-016  0.7894532E+02  0.7818608E-02  0.1332071E+00
         -1   -1    0    0    0  501 -0.00000000000E+00  0.00000000000E+00  0.25684437755E+03  0.25684437760E+03  0.50400000000E-02 0.  1.
          2   -1    0    0  501    0  0.00000000000E+00 -0.00000000000E+00 -0.60662833766E+01  0.60662839125E+01  0.25500000000E-02 0. -1.
         24    2    1    2    0    0  0.88817841970E-15  0.00000000000E+00  0.25077809417E+03  0.26291066151E+03  0.78945319174E+02 0.  0.
         66    2    3    3    0    0  0.31413057909E+01 -0.38982229836E+02  0.14264657126E+03  0.14792405596E+03  0.19999984743E+01 0.  0.
        -13    1    3    3    0    0 -0.31413057909E+01  0.38982229836E+02  0.10813152291E+03  0.11498660555E+03  0.10566000000E+00 0.  1.
         13    1    4    4    0    0  0.61614479606E+00 -0.11119123237E+02  0.41780090336E+02  0.43238890464E+02  0.10566000000E+00 0. -1.
        -13    1    4    4    0    0  0.81047949311E-01 -0.35947746107E+00  0.97467592557E+00  0.10473538135E+01  0.10566000000E+00 0.  1.
         14    1    4    4    0    0  0.24441130456E+01 -0.27503629138E+02  0.99891804999E+02  0.10363781168E+03  0.00000000000E+00 0. -1.
<mgrwt>
<rscale>  0 0.78945319E+02</rscale>
<asrwt>0</asrwt>
<pdfrwt beam="1">  1        2 0.93327462E-03 0.78945319E+02</pdfrwt>
<pdfrwt beam="2">  1       -1 0.39514511E-01 0.78945319E+02</pdfrwt>
<totfact> 0.94886899E+04</totfact>
</mgrwt>
</event>
<event>
 8    1  0.1226832E-016  0.8063895E+02  0.7818608E-02  0.1327248E+00
          2   -1    0    0  501    0  0.00000000000E+00  0.00000000000E+00  0.12572273183E+02  0.12572273441E+02  0.25500000000E-02 0. -1.
         -1   -1    0    0    0  501 -0.00000000000E+00 -0.00000000000E+00 -0.12930519484E+03  0.12930519494E+03  0.50400000000E-02 0.  1.
         24    2    1    2    0    0  0.00000000000E+00  0.00000000000E+00 -0.11673292166E+03  0.14187746838E+03  0.80638954825E+02 0.  0.
         66    2    3    3    0    0 -0.87600172332E+01 -0.39300630549E+02 -0.55689210712E+02  0.68750022961E+02  0.20000009954E+01 0.  0.
        -13    1    3    3    0    0  0.87600172332E+01  0.39300630549E+02 -0.61043710950E+02  0.73127445423E+02  0.10566000000E+00 0.  1.
         13    1    4    4    0    0 -0.51862671210E+01 -0.22531272666E+02 -0.30927551130E+02  0.38614507605E+02  0.10566000000E+00 0. -1.
        -13    1    4    4    0    0 -0.24133644646E+01 -0.89575592196E+01 -0.13516473261E+02  0.16394157760E+02  0.10566000000E+00 0.  1.
         14    1    4    4    0    0 -0.11603856476E+01 -0.78117986632E+01 -0.11245186320E+02  0.13741357596E+02  0.00000000000E+00 0. -1.
<mgrwt>
<rscale>  0 0.80638955E+02</rscale>
<asrwt>0</asrwt>
<pdfrwt beam="1">  1        2 0.19341960E-02 0.80638955E+02</pdfrwt>
<pdfrwt beam="2">  1       -1 0.19893106E-01 0.80638955E+02</pdfrwt>
<totfact> 0.10966267E+05</totfact>
</mgrwt>
</event>
<event>
 8    1  0.1226832E-016  0.7993793E+02  0.7818608E-02  0.1329228E+00
         -1   -1    0    0    0  501 -0.00000000000E+00  0.00000000000E+00  0.43939451843E+02  0.43939452132E+02  0.50400000000E-02 0.  1.
          2   -1    0    0  501    0  0.00000000000E+00 -0.00000000000E+00 -0.36357262218E+02  0.36357262307E+02  0.25500000000E-02 0. -1.
         24    2    1    2    0    0  0.22204460493E-15  0.00000000000E+00  0.75821896250E+01  0.80296714439E+02  0.79937930610E+02 0.  0.
         66    2    3    3    0    0  0.16202466535E+01 -0.39584056263E+02 -0.13275100568E+01  0.39689860068E+02  0.19999999399E+01 0.  0.
        -13    1    3    3    0    0 -0.16202466535E+01  0.39584056263E+02  0.89096996818E+01  0.40606854371E+02  0.10566000000E+00 0.  1.
         13    1    4    4    0    0  0.11669773063E+01 -0.12679159676E+02 -0.42302883461E+00  0.12740213639E+02  0.10566000000E+00 0. -1.
        -13    1    4    4    0    0  0.66064966209E+00 -0.19198451082E+02 -0.10534989719E+01  0.19238971024E+02  0.10566000000E+00 0.  1.
         14    1    4    4    0    0 -0.20738031488E+00 -0.77064455046E+01  0.14901774976E+00  0.77106754049E+01  0.00000000000E+00 0. -1.
<mgrwt>
<rscale>  0 0.79937931E+02</rscale>
<asrwt>0</asrwt>
<pdfrwt beam="1">  1        2 0.55934249E-02 0.79937931E+02</pdfrwt>
<pdfrwt beam="2">  1       -1 0.67599158E-02 0.79937931E+02</pdfrwt>
<totfact> 0.14010829E+05</totfact>
</mgrwt>
</event>
<event>
 8    1  0.1226832E-016  0.7606931E+02  0.7818608E-02  0.1340591E+00
          2   -1    0    0  501    0  0.00000000000E+00  0.00000000000E+00  0.22762684666E+03  0.22762684667E+03  0.25500000000E-02 0. -1.
         -1   -1    0    0    0  501 -0.00000000000E+00 -0.00000000000E+00 -0.63552900489E+01  0.63552920473E+01  0.50400000000E-02 0.  1.
         24    2    1    2    0    0 -0.71054273576E-14  0.17763568394E-14  0.22127155661E+03  0.23398213872E+03  0.76069307053E+02 0.  0.
         66    2    3    3    0    0  0.25884694069E+02 -0.95221140459E+01  0.19115404300E+03  0.19314387440E+03  0.20000046087E+01 0.  0.
        -13    1    3    3    0    0 -0.25884694069E+02  0.95221140459E+01  0.30117513609E+02  0.40838264324E+02  0.10566000000E+00 0.  1.
         13    1    4    4    0    0  0.97010696870E+01 -0.35815612608E+01  0.70422496176E+02  0.71177787728E+02  0.10566000000E+00 0. -1.
        -13    1    4    4    0    0  0.92501602574E+00  0.90192716097E-02  0.67897469168E+01  0.68532884971E+01  0.10566000000E+00 0.  1.
        -14    1    4    4    0    0  0.15258608356E+02 -0.59495720567E+01  0.11394179991E+03  0.11511279817E+03  0.00000000000E+00 0.  1.
<mgrwt>
<rscale>  0 0.76069307E+02</rscale>
<asrwt>0</asrwt>
<pdfrwt beam="1">  1        2 0.35019515E-01 0.76069307E+02</pdfrwt>
<pdfrwt beam="2">  1       -1 0.97773708E-03 0.76069307E+02</pdfrwt>
<totfact> 0.26349311E+05</totfact>
</mgrwt>
</event>
<event>
 8    1  0.1226832E-016  0.8027657E+02  0.7818608E-02  0.1328268E+00
         -1   -1    0    0    0  501 -0.00000000000E+00  0.00000000000E+00  0.24581257594E+02  0.24581258110E+02  0.50400000000E-02 0.  1.
          2   -1    0    0  501    0  0.00000000000E+00 -0.00000000000E+00 -0.65541069845E+02  0.65541069895E+02  0.25500000000E-02 0. -1.
         24    2    1    2    0    0  0.00000000000E+00  0.00000000000E+00 -0.40959812251E+02  0.90122328005E+02  0.80276570588E+02 0.  0.
         66    2    3    3    0    0  0.24536561838E+02 -0.87915831083E+01 -0.54723998057E+02  0.60646935297E+02  0.19999993181E+01 0.  0.
        -13    1    3    3    0    0 -0.24536561838E+02  0.87915831083E+01  0.13764185805E+02  0.29475392708E+02  0.10566000000E+00 0.  1.
         13    1    4    4    0    0  0.21773356266E+01 -0.67046597046E+00 -0.38365683693E+01  0.44632651653E+01  0.10566000000E+00 0. -1.
        -13    1    4    4    0    0  0.53291822066E+01 -0.23739640905E+01 -0.12955871888E+02  0.14209210707E+02  0.10566000000E+00 0.  1.
         14    1    4    4    0    0  0.17030044005E+02 -0.57471530474E+01 -0.37931557799E+02  0.41974459425E+02  0.00000000000E+00 0. -1.
<mgrwt>
<rscale>  0 0.80276571E+02</rscale>
<asrwt>0</asrwt>
<pdfrwt beam="1">  1        2 0.10083241E-01 0.80276571E+02</pdfrwt>
<pdfrwt beam="2">  1       -1 0.37817320E-02 0.80276571E+02</pdfrwt>
<totfact> 0.15744022E+05</totfact>
</mgrwt>
</event>
<event>
 8    1  0.1226832E-016  0.8144482E+02  0.7818608E-02  0.1325001E+00
          2   -1    0    0  501    0  0.00000000000E+00  0.00000000000E+00  0.26600279364E+02  0.26600279486E+02  0.25500000000E-02 0. -1.
         -1   -1    0    0    0  501 -0.00000000000E+00 -0.00000000000E+00 -0.62342007660E+02  0.62342007864E+02  0.50400000000E-02 0.  1.
         24    2    1    2    0    0  0.00000000000E+00  0.22204460493E-15 -0.35741728296E+02  0.88942287350E+02  0.81444823884E+02 0.  0.
         66    2    3    3    0    0 -0.33073129549E+02 -0.11611154902E+01  0.79871999415E+01  0.34102425788E+02  0.19999985943E+01 0.  0.
        -13    1    3    3    0    0  0.33073129549E+02  0.11611154902E+01 -0.43728928238E+02  0.54839861562E+02  0.10566000000E+00 0.  1.
         13    1    4    4    0    0 -0.52257389678E+01 -0.60543464434E+00  0.12597853551E+01  0.54104641247E+01  0.10566000000E+00 0. -1.
        -13    1    4    4    0    0 -0.82082384192E+01  0.30938795578E+00  0.14994906692E+01  0.83504811332E+01  0.10566000000E+00 0.  1.
        -14    1    4    4    0    0 -0.19639152162E+02 -0.86506880161E+00  0.52279239171E+01  0.20341480530E+02  0.00000000000E+00 0.  1.
<mgrwt>
<rscale>  0 0.81444824E+02</rscale>
<asrwt>0</asrwt>
<pdfrwt beam="1">  1        2 0.40923507E-02 0.81444824E+02</pdfrwt>
<pdfrwt beam="2">  1       -1 0.95910781E-02 0.81444824E+02</pdfrwt>
<totfact> 0.12491977E+05</totfact>
</mgrwt>
</event>
<event>
 8    1  0.1226832E-016  0.8069727E+02  0.7818608E-02  0.1327084E+00
          2   -1    0    0  501    0  0.00000000000E+00  0.00000000000E+00  0.21141317585E+04  0.21141317585E+04  0.25500000000E-02 0. -1.
         -1   -1    0    0    0  501 -0.00000000000E+00 -0.00000000000E+00 -0.77005359675E+00  0.77007008997E+00  0.50400000000E-02 0.  1.
         24    2    1    2    0    0  0.00000000000E+00  0.00000000000E+00  0.21133617049E+04  0.21149018286E+04  0.80697266547E+02 0.  0.
         66    2    3    3    0    0  0.19895298429E+01 -0.13836060367E+02  0.20485990716E+04  0.20486477371E+04  0.20000005260E+01 0.  0.
        -13    1    3    3    0    0 -0.19895298429E+01  0.13836060367E+02  0.64762633326E+02  0.66254091457E+02  0.10566000000E+00 0.  1.
         13    1    4    4    0    0  0.94721322667E+00 -0.28870161229E+01  0.37172797991E+03  0.37174041251E+03  0.10566000000E+00 0. -1.
        -13    1    4    4    0    0 -0.44224973255E-01 -0.26684062957E+01  0.39668646109E+03  0.39669545236E+03  0.10566000000E+00 0.  1.
         14    1    4    4    0    0  0.10865415895E+01 -0.82806379488E+01  0.12801846306E+04  0.12802118723E+04  0.00000000000E+00 0. -1.
<mgrwt>
<rscale>  0 0.80697267E+02</rscale>
<asrwt>0</asrwt>
<pdfrwt beam="1">  1        2 0.32524754E+00 0.80697267E+02</pdfrwt>
<pdfrwt beam="2">  1       -1 0.11847233E-03 0.80697267E+02</pdfrwt>
<totfact> 0.25674857E+05</totfact>
</mgrwt>
</event>
<event>
 8    1  0.1226832E-016  0.7998863E+02  0.7818608E-02  0.1329084E+00
         -1   -1    0    0    0  501 -0.00000000000E+00  0.00000000000E+00  0.25244063853E+03  0.25244063858E+03  0.50400000000E-02 0.  1.
          2   -1    0    0  501    0  0.00000000000E+00 -0.00000000000E+00 -0.63363212183E+01  0.63363217314E+01  0.25500000000E-02 0. -1.
         24    2    1    2    0    0  0.00000000000E+00  0.00000000000E+00  0.24610431731E+03  0.25877696031E+03  0.79988625371E+02 0.  0.
         66    2    3    3    0    0 -0.18235981845E+02  0.30134840159E+02  0.62012332851E+02  0.71345560775E+02  0.19999978947E+01 0.  0.
        -13    1    3    3    0    0  0.18235981845E+02 -0.30134840159E+02  0.18409198446E+03  0.18743139954E+03  0.10566000000E+00 0.  1.
         13    1    4    4    0    0 -0.15183256984E+02  0.24326850455E+02  0.51093250381E+02  0.58590599453E+02  0.10566000000E+00 0. -1.
        -13    1    4    4    0    0 -0.12816566658E+01  0.31081547345E+01  0.55904037949E+01  0.65243427476E+01  0.10566000000E+00 0.  1.
         14    1    4    4    0    0 -0.17710681946E+01  0.26998349689E+01  0.53286786745E+01  0.62306185749E+01  0.00000000000E+00 0. -1.
<mgrwt>
<rscale>  0 0.79988625E+02</rscale>
<asrwt>0</asrwt>
<pdfrwt beam="1">  1        2 0.97481861E-03 0.79988625E+02</pdfrwt>
<pdfrwt beam="2">  1       -1 0.38837025E-01 0.79988625E+02</pdfrwt>
<totfact> 0.92323392E+04</totfact>
</mgrwt>
</event>
<event>
 8    1  0.1226832E-016  0.7922350E+02  0.7818608E-02  0.1331270E+00
          2   -1    0    0  501    0  0.00000000000E+00  0.00000000000E+00  0.28246202411E+03  0.28246202412E+03  0.25500000000E-02 0. -1.
         -1   -1    0    0    0  501 -0.00000000000E+00 -0.00000000000E+00 -0.55550486905E+01  0.55550509769E+01  0.50400000000E-02 0.  1.
         24    2    1    2    0    0 -0.71054273576E-14  0.00000000000E+00  0.27690697542E+03  0.28801707510E+03  0.79223497223E+02 0.  0.
         66    2    3    3    0    0  0.35979866839E+02 -0.16491268241E+02  0.14129326973E+03  0.14674570121E+03  0.20000015195E+01 0.  0.
        -13    1    3    3    0    0 -0.35979866839E+02  0.16491268241E+02  0.13561370568E+03  0.14127137389E+03  0.10566000000E+00 0.  1.
         13    1    4    4    0    0  0.10349038539E+02 -0.42004205525E+01  0.41108835344E+02  0.42599221107E+02  0.10566000000E+00 0. -1.
        -13    1    4    4    0    0  0.24778417476E+02 -0.12077642843E+02  0.96609711756E+02  0.10046535223E+03  0.10566000000E+00 0.  1.
        -14    1    4    4    0    0  0.85241082445E+00 -0.21320484594E+00  0.35747226308E+01  0.36811278716E+01  0.00000000000E+00 0.  1.
<mgrwt>
<rscale>  0 0.79223497E+02</rscale>
<asrwt>0</asrwt>
<pdfrwt beam="1">  1        2 0.43455687E-01 0.79223497E+02</pdfrwt>
<pdfrwt beam="2">  1       -1 0.85462322E-03 0.79223497E+02</pdfrwt>
<totfact> 0.25590507E+05</totfact>
</mgrwt>
</event>
<event>
 8    1  0.1226832E-016  0.7869437E+02  0.7818608E-02  0.1332798E+00
         -1   -1    0    0    0  501 -0.00000000000E+00  0.00000000000E+00  0.56010624430E+01  0.56010647106E+01  0.50400000000E-02 0.  1.
          2   -1    0    0  501    0  0.00000000000E+00 -0.00000000000E+00 -0.27641198139E+03  0.27641198140E+03  0.25500000000E-02 0. -1.
         24    2    1    2    0    0  0.00000000000E+00 -0.35527136788E-14 -0.27081091894E+03  0.28201304611E+03  0.78694373093E+02 0.  0.
         66    2    3    3    0    0 -0.12950706179E+02 -0.31506055421E+02 -0.20588597121E+03  0.20869447874E+03  0.19999991935E+01 0.  0.
        -13    1    3    3    0    0  0.12950706179E+02  0.31506055421E+02 -0.64924947732E+02  0.73318567367E+02  0.10566000000E+00 0.  1.
         13    1    4    4    0    0 -0.28849575263E+01 -0.52128753506E+01 -0.35629051038E+02  0.36123918548E+02  0.10566000000E+00 0. -1.
        -13    1    4    4    0    0 -0.77621617376E+01 -0.19717539518E+02 -0.12956032744E+03  0.13128184235E+03  0.10566000000E+00 0.  1.
        -14    1    4    4    0    0 -0.23035869153E+01 -0.65756405525E+01 -0.40696592733E+02  0.41288717847E+02  0.00000000000E+00 0.  1.
<mgrwt>
<rscale>  0 0.78694373E+02</rscale>
<asrwt>0</asrwt>
<pdfrwt beam="1">  1        2 0.42524910E-01 0.78694373E+02</pdfrwt>
<pdfrwt beam="2">  1       -1 0.86170231E-03 0.78694373E+02</pdfrwt>
<totfact> 0.25840740E+05</totfact>
</mgrwt>
</event>
<event>
 8    1  0.1226832E-016  0.7654742E+02  0.7818608E-02  0.1339145E+00
          2   -1    0    0  501    0  0.00000000000E+00  0.00000000000E+00  0.12967340171E+03  0.12967340174E+03  0.25500000000E-02 0. -1.
         -1   -1    0    0    0  501 -0.00000000000E+00 -0.00000000000E+00 -0.11296663812E+02  0.11296664936E+02  0.50400000000E-02 0.  1.
         24    2    1    2    0    0  0.00000000000E+00  0.00000000000E+00  0.11837673790E+03  0.14097006668E+03  0.76547420742E+02 0.  0.
         66    2    3    3    0    0 -0.97477292767E+01 -0.19790942725E+02  0.11676730180E+03  0.11884991549E+03  0.20000006039E+01 0.  0.
        -13    1    3    3    0    0  0.97477292767E+01  0.19790942725E+02  0.16094361049E+01  0.22120151188E+02  0.10566000000E+00 0.  1.
         13    1    4    4    0    0 -0.15967869437E+01 -0.37367540443E+01  0.19590641113E+02  0.20007934491E+02  0.10566000000E+00 0.  1.
        -13    1    4    4    0    0 -0.19783940283E+01 -0.53945731664E+01  0.31733214319E+02  0.32249395616E+02  0.10566000000E+00 0. -1.
        -14    1    4    4    0    0 -0.61725483047E+01 -0.10659615514E+02  0.65443446365E+02  0.66592585380E+02  0.00000000000E+00 0.  1.
<mgrwt>
<rscale>  0 0.76547421E+02</rscale>
<asrwt>0</asrwt>
<pdfrwt beam="1">  1        2 0.19949755E-01 0.76547421E+02</pdfrwt>
<pdfrwt beam="2">  1       -1 0.17379483E-02 0.76547421E+02</pdfrwt>
<totfact> 0.21509321E+05</totfact>
</mgrwt>
</event>
<event>
 8    1  0.1226832E-016  0.7994998E+02  0.7818608E-02  0.1329193E+00
          2   -1    0    0  501    0  0.00000000000E+00  0.00000000000E+00  0.94769987007E+03  0.94769987007E+03  0.25500000000E-02 0. -1.
         -1   -1    0    0    0  501 -0.00000000000E+00 -0.00000000000E+00 -0.16861838987E+01  0.16861914309E+01  0.50400000000E-02 0.  1.
         24    2    1    2    0    0  0.00000000000E+00  0.00000000000E+00  0.94601368617E+03  0.94938606150E+03  0.79949980333E+02 0.  0.
         66    2    3    3    0    0 -0.11976218127E+02  0.54075515039E+01  0.92130024271E+03  0.92139611928E+03  0.19999988255E+01 0.  0.
        -13    1    3    3    0    0  0.11976218127E+02 -0.54075515039E+01  0.24713443462E+02  0.27989942223E+02  0.10566000000E+00 0.  1.
         13    1    4    4    0    0 -0.73082115513E+01  0.30112000293E+01  0.49298821437E+03  0.49305158751E+03  0.10566000000E+00 0. -1.
        -13    1    4    4    0    0 -0.46104460055E+01  0.24075543449E+01  0.41857965699E+03  0.41861198375E+03  0.10566000000E+00 0.  1.
         14    1    4    4    0    0 -0.57560570321E-01 -0.11202870291E-01  0.97323713505E+01  0.97325480131E+01  0.00000000000E+00 0. -1.
<mgrwt>
<rscale>  0 0.79949980E+02</rscale>
<asrwt>0</asrwt>
<pdfrwt beam="1">  1        2 0.14579980E+00 0.79949980E+02</pdfrwt>
<pdfrwt beam="2">  1       -1 0.25941380E-03 0.79949980E+02</pdfrwt>
<totfact> 0.35174306E+05</totfact>
</mgrwt>
</event>
<event>
 8    1  0.1226832E-016  0.7939543E+02  0.7818608E-02  0.1330776E+00
         -1   -1    0    0    0  501 -0.00000000000E+00  0.00000000000E+00  0.48777575361E+01  0.48777601399E+01  0.50400000000E-02 0.  1.
          2   -1    0    0  501    0  0.00000000000E+00 -0.00000000000E+00 -0.32308042202E+03  0.32308042203E+03  0.25500000000E-02 0. -1.
         24    2    1    2    0    0  0.00000000000E+00  0.44408920985E-15 -0.31820266448E+03  0.32795818217E+03  0.79395425356E+02 0.  0.
         66    2    3    3    0    0 -0.32498700280E+02  0.26767314898E+01 -0.25253859805E+03  0.25464303233E+03  0.19999994899E+01 0.  0.
        -13    1    3    3    0    0  0.32498700280E+02 -0.26767314898E+01 -0.65664066436E+02  0.73315149842E+02  0.10566000000E+00 0.  1.
         13    1    4    4    0    0 -0.12989518527E+02  0.70232360330E+00 -0.10338097102E+03  0.10419624362E+03  0.10566000000E+00 0. -1.
        -13    1    4    4    0    0 -0.13424916473E+02  0.18192671022E+01 -0.99834927443E+02  0.10074999760E+03  0.10566000000E+00 0.  1.
        -14    1    4    4    0    0 -0.60842652807E+01  0.15514078424E+00 -0.49322699582E+02  0.49696791111E+02  0.00000000000E+00 0.  1.
<mgrwt>
<rscale>  0 0.79395425E+02</rscale>
<asrwt>0</asrwt>
<pdfrwt beam="1">  1        2 0.49704664E-01 0.79395425E+02</pdfrwt>
<pdfrwt beam="2">  1       -1 0.75042469E-03 0.79395425E+02</pdfrwt>
<totfact> 0.26711841E+05</totfact>
</mgrwt>
</event>
<event>
 8    1  0.1226832E-016  0.7924825E+02  0.7818608E-02  0.1331198E+00
         -1   -1    0    0    0  501 -0.00000000000E+00  0.00000000000E+00  0.46817735148E+01  0.46817762276E+01  0.50400000000E-02 0.  1.
          2   -1    0    0  501    0  0.00000000000E+00 -0.00000000000E+00 -0.33535813012E+03  0.33535813013E+03  0.25500000000E-02 0. -1.
         24    2    1    2    0    0  0.00000000000E+00  0.00000000000E+00 -0.33067635660E+03  0.34003990636E+03  0.79248249809E+02 0.  0.
         66    2    3    3    0    0 -0.19592019171E+02 -0.20812265066E+02 -0.28303580566E+03  0.28448245096E+03  0.20000057195E+01 0.  0.
        -13    1    3    3    0    0  0.19592019171E+02  0.20812265066E+02 -0.47640550940E+02  0.55557455398E+02  0.10566000000E+00 0.  1.
         13    1    4    4    0    0 -0.12142619720E+02 -0.12044278162E+02 -0.16395048929E+03  0.16484017093E+03  0.10566000000E+00 0. -1.
        -13    1    4    4    0    0 -0.73628511552E+01 -0.87484111136E+01 -0.11771523913E+03  0.11826933229E+03  0.10566000000E+00 0.  1.
         14    1    4    4    0    0 -0.86548295948E-01 -0.19575790313E-01 -0.13700772508E+01  0.13729477384E+01  0.00000000000E+00 0. -1.
<mgrwt>
<rscale>  0 0.79248250E+02</rscale>
<asrwt>0</asrwt>
<pdfrwt beam="1">  1        2 0.51593540E-01 0.79248250E+02</pdfrwt>
<pdfrwt beam="2">  1       -1 0.72027332E-03 0.79248250E+02</pdfrwt>
<totfact> 0.27204151E+05</totfact>
</mgrwt>
</event>
<event>
 8    1  0.1226832E-016  0.7976704E+02  0.7818608E-02  0.1329714E+00
          2   -1    0    0  501    0  0.00000000000E+00  0.00000000000E+00  0.68760886803E+02  0.68760886850E+02  0.25500000000E-02 0. -1.
         -1   -1    0    0    0  501 -0.00000000000E+00 -0.00000000000E+00 -0.23133721424E+02  0.23133721973E+02  0.50400000000E-02 0.  1.
         24    2    1    2    0    0  0.17763568394E-14  0.00000000000E+00  0.45627165379E+02  0.91894608823E+02  0.79767041503E+02 0.  0.
         66    2    3    3    0    0  0.10023128051E+02  0.38483583421E+02  0.25927910213E+02  0.47515321909E+02  0.19999998292E+01 0.  0.
        -13    1    3    3    0    0 -0.10023128051E+02 -0.38483583421E+02  0.19699255166E+02  0.44379286913E+02  0.10566000000E+00 0.  1.
         13    1    4    4    0    0  0.18340374806E+01  0.81422951273E+01  0.53115722555E+01  0.98936660183E+01  0.10566000000E+00 0. -1.
        -13    1    4    4    0    0  0.71193075193E+01  0.26842203939E+02  0.17583032599E+02  0.32868870550E+02  0.10566000000E+00 0.  1.
        -14    1    4    4    0    0  0.10697830516E+01  0.34990843545E+01  0.30333053584E+01  0.47527853407E+01  0.00000000000E+00 0.  1.
<mgrwt>
<rscale>  0 0.79767042E+02</rscale>
<asrwt>0</asrwt>
<pdfrwt beam="1">  1        2 0.10578598E-01 0.79767042E+02</pdfrwt>
<pdfrwt beam="2">  1       -1 0.35590342E-02 0.79767042E+02</pdfrwt>
<totfact> 0.16203922E+05</totfact>
</mgrwt>
</event>
<event>
 8    1  0.1226832E-016  0.7953235E+02  0.7818608E-02  0.1330384E+00
         -1   -1    0    0    0  501 -0.00000000000E+00  0.00000000000E+00  0.45410934798E+02  0.45410935078E+02  0.50400000000E-02 0.  1.
          2   -1    0    0  501    0  0.00000000000E+00 -0.00000000000E+00 -0.34823083618E+02  0.34823083711E+02  0.25500000000E-02 0. -1.
         24    2    1    2    0    0  0.00000000000E+00  0.00000000000E+00  0.10587851180E+02  0.80234018789E+02  0.79532353030E+02 0.  0.
         66    2    3    3    0    0 -0.14648856932E+02 -0.36035272277E+02 -0.29117229534E+01  0.39059032167E+02  0.20000014559E+01 0.  0.
        -13    1    3    3    0    0  0.14648856932E+02  0.36035272277E+02  0.13499574134E+02  0.41174986622E+02  0.10566000000E+00 0.  1.
         13    1    4    4    0    0 -0.31916807291E+01 -0.64791955612E+01 -0.26348718602E-01  0.72234797216E+01  0.10566000000E+00 0. -1.
        -13    1    4    4    0    0 -0.34126711768E+01 -0.95257357058E+01 -0.91911734745E+00  0.10160802431E+02  0.10566000000E+00 0.  1.
         14    1    4    4    0    0 -0.80445050256E+01 -0.20030341010E+02 -0.19662568874E+01  0.21674750015E+02  0.00000000000E+00 0. -1.
<mgrwt>
<rscale>  0 0.79532353E+02</rscale>
<asrwt>0</asrwt>
<pdfrwt beam="1">  1        2 0.53573975E-02 0.79532353E+02</pdfrwt>
<pdfrwt beam="2">  1       -1 0.69862977E-02 0.79532353E+02</pdfrwt>
<totfact> 0.14087724E+05</totfact>
</mgrwt>
</event>
<event>
 8    1  0.1226832E-016  0.8015407E+02  0.7818608E-02  0.1328615E+00
         -1   -1    0    0    0  501 -0.00000000000E+00  0.00000000000E+00  0.22714557495E+01  0.22714613410E+01  0.50400000000E-02 0.  1.
          2   -1    0    0  501    0  0.00000000000E+00 -0.00000000000E+00 -0.70710892715E+03  0.70710892715E+03  0.25500000000E-02 0. -1.
         24    2    1    2    0    0  0.00000000000E+00  0.00000000000E+00 -0.70483747140E+03  0.70938038849E+03  0.80154067220E+02 0.  0.
         66    2    3    3    0    0 -0.25585665806E+02  0.15482583391E+02 -0.58842997211E+03  0.58919281120E+03  0.19999996358E+01 0.  0.
        -13    1    3    3    0    0  0.25585665806E+02 -0.15482583391E+02 -0.11640749928E+03  0.12018757730E+03  0.10566000000E+00 0.  1.
         13    1    4    4    0    0 -0.14233349718E+02  0.78504963373E+01 -0.32168729322E+03  0.32209772480E+03  0.10566000000E+00 0. -1.
        -13    1    4    4    0    0 -0.74940743544E+01  0.49085646684E+01 -0.16550239873E+03  0.16574471427E+03  0.10566000000E+00 0.  1.
        -14    1    4    4    0    0 -0.38582417337E+01  0.27235223853E+01 -0.10124028016E+03  0.10135037213E+03  0.00000000000E+00 0.  1.
<mgrwt>
<rscale>  0 0.80154067E+02</rscale>
<asrwt>0</asrwt>
<pdfrwt beam="1">  1        2 0.10878581E+00 0.80154067E+02</pdfrwt>
<pdfrwt beam="2">  1       -1 0.34945573E-03 0.80154067E+02</pdfrwt>
<totfact> 0.33361214E+05</totfact>
</mgrwt>
</event>
<event>
 8    1  0.1226832E-016  0.8075097E+02  0.7818608E-02  0.1326934E+00
         -1   -1    0    0    0  501 -0.00000000000E+00  0.00000000000E+00  0.33079168251E+01  0.33079206646E+01  0.50400000000E-02 0.  1.
          2   -1    0    0  501    0  0.00000000000E+00 -0.00000000000E+00 -0.49281135328E+03  0.49281135328E+03  0.25500000000E-02 0. -1.
         24    2    1    2    0    0  0.00000000000E+00 -0.17763568394E-14 -0.48950343645E+03  0.49611927395E+03  0.80750973274E+02 0.  0.
         66    2    3    3    0    0  0.17187244595E+02 -0.14813320169E+02 -0.44990059040E+03  0.45047683305E+03  0.20000117081E+01 0.  0.
        -13    1    3    3    0    0 -0.17187244595E+02  0.14813320169E+02 -0.39602846056E+02  0.45642440896E+02  0.10566000000E+00 0.  1.
         13    1    4    4    0    0  0.50292087661E+01 -0.49210984448E+01 -0.14258713726E+03  0.14276068445E+03  0.10566000000E+00 0. -1.
        -13    1    4    4    0    0  0.96470070436E+00 -0.10829575784E+01 -0.35420639701E+02  0.35450477083E+02  0.10566000000E+00 0.  1.
         14    1    4    4    0    0  0.11193335125E+02 -0.88092641457E+01 -0.27189281344E+03  0.27226567151E+03  0.00000000000E+00 0. -1.
<mgrwt>
<rscale>  0 0.80750973E+02</rscale>
<asrwt>0</asrwt>
<pdfrwt beam="1">  1        2 0.75817073E-01 0.80750973E+02</pdfrwt>
<pdfrwt beam="2">  1       -1 0.50891097E-03 0.80750973E+02</pdfrwt>
<totfact> 0.29580960E+05</totfact>
</mgrwt>
</event>
<event>
 8    1  0.1226832E-016  0.8689154E+02  0.7818608E-02  0.1310559E+00
          2   -1    0    0  501    0  0.00000000000E+00  0.00000000000E+00  0.12411790159E+02  0.12411790421E+02  0.25500000000E-02 0. -1.
         -1   -1    0    0    0  501 -0.00000000000E+00 -0.00000000000E+00 -0.15207595048E+03  0.15207595056E+03  0.50400000000E-02 0.  1.
         24    2    1    2    0    0  0.00000000000E+00  0.88817841970E-15 -0.13966416032E+03  0.16448774098E+03  0.86891537308E+02 0.  0.
         66    2    3    3    0    0  0.41290160457E+02 -0.76162631111E+01 -0.48904647929E+02  0.64486815648E+02  0.19999972671E+01 0.  0.
        -13    1    3    3    0    0 -0.41290160457E+02  0.76162631111E+01 -0.90759512391E+02  0.10000092533E+03  0.10566000000E+00 0.  1.
         13    1    4    4    0    0  0.10179338194E+02 -0.19990624604E+01 -0.13084692842E+02  0.16698369010E+02  0.10566000000E+00 0. -1.
        -13    1    4    4    0    0  0.50843618030E+01 -0.51651101249E+00 -0.57398119517E+01  0.76859692847E+01  0.10566000000E+00 0. -1.
         14    1    4    4    0    0  0.26026460460E+02 -0.51006896383E+01 -0.30080143136E+02  0.40102477354E+02  0.00000000000E+00 0. -1.
<mgrwt>
<rscale>  0 0.86891537E+02</rscale>
<asrwt>0</asrwt>
<pdfrwt beam="1">  1        2 0.19095063E-02 0.86891537E+02</pdfrwt>
<pdfrwt beam="2">  1       -1 0.23396299E-01 0.86891537E+02</pdfrwt>
<totfact> 0.87211846E+04</totfact>
</mgrwt>
</event>
<event>
 8    1  0.1226832E-016  0.8090398E+02  0.7818608E-02  0.1326505E+00
          2   -1    0    0  501    0  0.00000000000E+00  0.00000000000E+00  0.48412533700E+03  0.48412533701E+03  0.25500000000E-02 0. -1.
         -1   -1    0    0    0  501 -0.00000000000E+00 -0.00000000000E+00 -0.33800387378E+01  0.33800424954E+01  0.50400000000E-02 0.  1.
         24    2    1    2    0    0  0.17763568394E-14  0.00000000000E+00  0.48074529826E+03  0.48750537950E+03  0.80903975442E+02 0.  0.
         66    2    3    3    0    0 -0.15012970012E+02  0.36781515557E+02  0.28564744654E+03  0.28840376709E+03  0.20000001007E+01 0.  0.
        -13    1    3    3    0    0  0.15012970012E+02 -0.36781515557E+02  0.19509785172E+03  0.19910161241E+03  0.10566000000E+00 0.  1.
         13    1    4    4    0    0 -0.88776872001E+01  0.22977446001E+02  0.17297923524E+03  0.17472436391E+03  0.10566000000E+00 0. -1.
        -13    1    4    4    0    0 -0.39779733723E+01  0.87906849803E+01  0.74832894419E+02  0.75452459640E+02  0.10566000000E+00 0.  1.
         14    1    4    4    0    0 -0.21573094398E+01  0.50133845762E+01  0.37835316886E+02  0.38226943545E+02  0.00000000000E+00 0. -1.
<mgrwt>
<rscale>  0 0.80903975E+02</rscale>
<asrwt>0</asrwt>
<pdfrwt beam="1">  1        2 0.74480733E-01 0.80903975E+02</pdfrwt>
<pdfrwt beam="2">  1       -1 0.52000687E-03 0.80903975E+02</pdfrwt>
<totfact> 0.29266592E+05</totfact>
</mgrwt>
</event>
<event>
 8    1  0.1226832E-016  0.8392057E+02  0.7818608E-02  0.1318280E+00
         -1   -1    0    0    0  501 -0.00000000000E+00  0.00000000000E+00  0.11665170680E+02  0.11665171769E+02  0.50400000000E-02 0.  1.
          2   -1    0    0  501    0  0.00000000000E+00 -0.00000000000E+00 -0.15093354717E+03  0.15093354720E+03  0.25500000000E-02 0. -1.
         24    2    1    2    0    0  0.71054273576E-14  0.00000000000E+00 -0.13926837649E+03  0.16259871896E+03  0.83920573863E+02 0.  0.
         66    2    3    3    0    0  0.38825430589E+02  0.61274453805E+01 -0.97997456407E+02  0.10560521358E+03  0.20000063210E+01 0.  0.
        -13    1    3    3    0    0 -0.38825430589E+02 -0.61274453805E+01 -0.41270920087E+02  0.56993505386E+02  0.10566000000E+00 0.  1.
         13    1    4    4    0    0  0.10729545802E+02  0.21273870148E+01 -0.27523507608E+02  0.29617622519E+02  0.10566000000E+00 0. -1.
        -13    1    4    4    0    0  0.22248017892E+02  0.35379623040E+01 -0.57125747633E+02  0.61407277126E+02  0.10566000000E+00 0.  1.
        -14    1    4    4    0    0  0.58478668958E+01  0.46209606166E+00 -0.13348201166E+02  0.14580313933E+02  0.00000000000E+00 0.  1.
<mgrwt>
<rscale>  0 0.83920574E+02</rscale>
<asrwt>0</asrwt>
<pdfrwt beam="1">  1        2 0.23220544E-01 0.83920574E+02</pdfrwt>
<pdfrwt beam="2">  1       -1 0.17946418E-02 0.83920574E+02</pdfrwt>
<totfact> 0.17671717E+05</totfact>
</mgrwt>
</event>
<event>
 8    1  0.1226832E-016  0.7734576E+02  0.7818608E-02  0.1336757E+00
         -1   -1    0    0    0  501 -0.00000000000E+00  0.00000000000E+00  0.93081447627E+01  0.93081461272E+01  0.50400000000E-02 0.  1.
          2   -1    0    0  501    0  0.00000000000E+00 -0.00000000000E+00 -0.16067556197E+03  0.16067556199E+03  0.25500000000E-02 0. -1.
         24    2    1    2    0    0  0.17763568394E-14  0.00000000000E+00 -0.15136741721E+03  0.16998370812E+03  0.77345756403E+02 0.  0.
         66    2    3    3    0    0  0.83379024175E+01  0.23150844986E+02 -0.14122836665E+03  0.14336991939E+03  0.19999999452E+01 0.  0.
        -13    1    3    3    0    0 -0.83379024175E+01 -0.23150844986E+02 -0.10139050565E+02  0.26613788732E+02  0.10566000000E+00 0.  1.
         13    1    4    4    0    0  0.33114490063E+01  0.10462012272E+02 -0.58446723664E+02  0.59468059212E+02  0.10566000000E+00 0. -1.
        -13    1    4    4    0    0  0.33411997019E+00  0.91190817968E+00 -0.51317041108E+01  0.52238648335E+01  0.10566000000E+00 0. -1.
         14    1    4    4    0    0  0.46923334410E+01  0.11776924535E+02 -0.77649938871E+02  0.78677995344E+02  0.00000000000E+00 0. -1.
<mgrwt>
<rscale>  0 0.77345756E+02</rscale>
<asrwt>0</asrwt>
<pdfrwt beam="1">  1        2 0.24719315E-01 0.77345756E+02</pdfrwt>
<pdfrwt beam="2">  1       -1 0.14320225E-02 0.77345756E+02</pdfrwt>
<totfact> 0.22395258E+05</totfact>
</mgrwt>
</event>
<event>
 8    1  0.1226832E-016  0.7965756E+02  0.7818608E-02  0.1330026E+00
         -1   -1    0    0    0  501 -0.00000000000E+00  0.00000000000E+00  0.18330369372E+02  0.18330370065E+02  0.50400000000E-02 0.  1.
          2   -1    0    0  501    0  0.00000000000E+00 -0.00000000000E+00 -0.86541170103E+02  0.86541170140E+02  0.25500000000E-02 0. -1.
         24    2    1    2    0    0 -0.35527136788E-14  0.00000000000E+00 -0.68210800730E+02  0.10487154021E+03  0.79657558391E+02 0.  0.
         66    2    3    3    0    0  0.20523438088E+02 -0.13477105616E+02 -0.75371906072E+02  0.79295448235E+02  0.19999997519E+01 0.  0.
        -13    1    3    3    0    0 -0.20523438088E+02  0.13477105616E+02  0.71611053423E+01  0.25576091971E+02  0.10566000000E+00 0.  1.
         13    1    4    4    0    0  0.18066580302E+02 -0.12043196723E+02 -0.65559051564E+02  0.69061134635E+02  0.10566000000E+00 0. -1.
        -13    1    4    4    0    0  0.20236322419E+01 -0.97173555276E+00 -0.70392031044E+01  0.73892423032E+01  0.10566000000E+00 0.  1.
         14    1    4    4    0    0  0.43322554381E+00 -0.46217334076E+00 -0.27736514045E+01  0.28450712966E+01  0.00000000000E+00 0. -1.
<mgrwt>
<rscale>  0 0.79657558E+02</rscale>
<asrwt>0</asrwt>
<pdfrwt beam="1">  1        2 0.13314026E-01 0.79657558E+02</pdfrwt>
<pdfrwt beam="2">  1       -1 0.28200569E-02 0.79657558E+02</pdfrwt>
<totfact> 0.17239185E+05</totfact>
</mgrwt>
</event>
<event>
 8    1  0.1226832E-016  0.7873806E+02  0.7818608E-02  0.1332671E+00
          2   -1    0    0  501    0  0.00000000000E+00  0.00000000000E+00  0.28134851626E+02  0.28134851742E+02  0.25500000000E-02 0. -1.
         -1   -1    0    0    0  501 -0.00000000000E+00 -0.00000000000E+00 -0.55088985566E+02  0.55088985797E+02  0.50400000000E-02 0.  1.
         24    2    1    2    0    0  0.00000000000E+00  0.00000000000E+00 -0.26954133940E+02  0.83223837538E+02  0.78738058130E+02 0.  0.
         66    2    3    3    0    0  0.22612617961E+01  0.17721120717E+02  0.23565036542E+02  0.29638866002E+02  0.20000015665E+01 0.  0.
        -13    1    3    3    0    0 -0.22612617961E+01 -0.17721120717E+02 -0.50519170482E+02  0.53584971537E+02  0.10566000000E+00 0.  1.
         13    1    4    4    0    0  0.23615424198E+00  0.51134365163E+01  0.69492869603E+01  0.86317295558E+01  0.10566000000E+00 0.  1.
        -13    1    4    4    0    0  0.12741125516E+01  0.40904811963E+01  0.60764451115E+01  0.74357076624E+01  0.10566000000E+00 0.  1.
         14    1    4    4    0    0  0.75099500250E+00  0.85172030043E+01  0.10539304470E+02  0.13571428783E+02  0.00000000000E+00 0. -1.
<mgrwt>
<rscale>  0 0.78738058E+02</rscale>
<asrwt>0</asrwt>
<pdfrwt beam="1">  1        2 0.43284387E-02 0.78738058E+02</pdfrwt>
<pdfrwt beam="2">  1       -1 0.84752286E-02 0.78738058E+02</pdfrwt>
<totfact> 0.13892841E+05</totfact>
</mgrwt>
</event>
<event>
 8    1  0.1226832E-016  0.7991206E+02  0.7818608E-02  0.1329301E+00
         -1   -1    0    0    0  501 -0.00000000000E+00  0.00000000000E+00  0.41154469711E+01  0.41154500572E+01  0.50400000000E-02 0.  1.
          2   -1    0    0  501    0  0.00000000000E+00 -0.00000000000E+00 -0.38792473477E+03  0.38792473477E+03  0.25500000000E-02 0. -1.
         24    2    1    2    0    0  0.00000000000E+00  0.00000000000E+00 -0.38380928780E+03  0.39204018483E+03  0.79912058697E+02 0.  0.
         66    2    3    3    0    0 -0.20177608815E+02  0.31788299374E+02 -0.25726507077E+03  0.26001336217E+03  0.19999990578E+01 0.  0.
        -13    1    3    3    0    0  0.20177608815E+02 -0.31788299374E+02 -0.12654421703E+03  0.13202682266E+03  0.10566000000E+00 0.  1.
         13    1    4    4    0    0 -0.10447490292E+02  0.14927216274E+02 -0.12729184292E+03  0.12858925413E+03  0.10566000000E+00 0. -1.
        -13    1    4    4    0    0 -0.52021472671E+01  0.85567883552E+01 -0.66061919070E+02  0.66816684132E+02  0.10566000000E+00 0.  1.
         14    1    4    4    0    0 -0.45279712553E+01  0.83042947446E+01 -0.63911308773E+02  0.64607423908E+02  0.00000000000E+00 0. -1.
<mgrwt>
<rscale>  0 0.79912059E+02</rscale>
<asrwt>0</asrwt>
<pdfrwt beam="1">  1        2 0.59680700E-01 0.79912059E+02</pdfrwt>
<pdfrwt beam="2">  1       -1 0.63314623E-03 0.79912059E+02</pdfrwt>
<totfact> 0.28031747E+05</totfact>
</mgrwt>
</event>
<event>
 8    1  0.1226832E-016  0.7802680E+02  0.7818608E-02  0.1334746E+00
         -1   -1    0    0    0  501 -0.00000000000E+00  0.00000000000E+00  0.72117479585E+02  0.72117479761E+02  0.50400000000E-02 0.  1.
          2   -1    0    0  501    0  0.00000000000E+00 -0.00000000000E+00 -0.21105081054E+02  0.21105081209E+02  0.25500000000E-02 0. -1.
         24    2    1    2    0    0  0.35527136788E-14 -0.35527136788E-14  0.51012398530E+02  0.93222560970E+02  0.78026797127E+02 0.  0.
         66    2    3    3    0    0  0.11970641098E+02 -0.20431189992E+02 -0.11481787548E+02  0.26392446272E+02  0.20000005425E+01 0.  0.
        -13    1    3    3    0    0 -0.11970641098E+02  0.20431189992E+02  0.62494186079E+02  0.66830114697E+02  0.10566000000E+00 0.  1.
         13    1    4    4    0    0  0.17719584193E+01 -0.29956032356E+01 -0.21469031921E+01  0.40907007635E+01  0.10566000000E+00 0. -1.
        -13    1    4    4    0    0  0.10225153051E+01 -0.14061756061E+01 -0.12258968294E+01  0.21299893090E+01  0.10566000000E+00 0. -1.
         14    1    4    4    0    0  0.91761673732E+01 -0.16029411150E+02 -0.81089875269E+01  0.20171756200E+02  0.00000000000E+00 0. -1.
<mgrwt>
<rscale>  0 0.78026797E+02</rscale>
<asrwt>0</asrwt>
<pdfrwt beam="1">  1        2 0.32469355E-02 0.78026797E+02</pdfrwt>
<pdfrwt beam="2">  1       -1 0.11094997E-01 0.78026797E+02</pdfrwt>
<totfact> 0.13478433E+05</totfact>
</mgrwt>
</event>
<event>
 8    1  0.1226832E-016  0.8225489E+02  0.7818608E-02  0.1322771E+00
         -1   -1    0    0    0  501 -0.00000000000E+00  0.00000000000E+00  0.38631333895E+02  0.38631334224E+02  0.50400000000E-02 0.  1.
          2   -1    0    0  501    0  0.00000000000E+00 -0.00000000000E+00 -0.43784841825E+02  0.43784841899E+02  0.25500000000E-02 0. -1.
         24    2    1    2    0    0 -0.35527136788E-14 -0.71054273576E-14 -0.51535079302E+01  0.82416176123E+02  0.82254893124E+02 0.  0.
         66    2    3    3    0    0  0.22255296160E+02  0.33988413377E+02 -0.88316174318E+01  0.41623405874E+02  0.19999997422E+01 0.  0.
        -13    1    3    3    0    0 -0.22255296160E+02 -0.33988413377E+02  0.36781095016E+01  0.40792770250E+02  0.10566000000E+00 0.  1.
         13    1    4    4    0    0  0.65762671934E+01  0.10611471790E+02 -0.24655841333E+01  0.12725599904E+02  0.10566000000E+00 0. -1.
        -13    1    4    4    0    0  0.64224321116E+01  0.96080134528E+01 -0.33659914701E+01  0.12037550388E+02  0.10566000000E+00 0.  1.
        -14    1    4    4    0    0  0.92565968554E+01  0.13768928134E+02 -0.30000418284E+01  0.16860255582E+02  0.00000000000E+00 0.  1.
<mgrwt>
<rscale>  0 0.82254893E+02</rscale>
<asrwt>0</asrwt>
<pdfrwt beam="1">  1        2 0.67361295E-02 0.82254893E+02</pdfrwt>
<pdfrwt beam="2">  1       -1 0.59432822E-02 0.82254893E+02</pdfrwt>
<totfact> 0.13452802E+05</totfact>
</mgrwt>
</event>
<event>
 8    1  0.1226832E-016  0.7629879E+02  0.7818608E-02  0.1339896E+00
          2   -1    0    0  501    0  0.00000000000E+00  0.00000000000E+00  0.48938170208E+03  0.48938170208E+03  0.25500000000E-02 0. -1.
         -1   -1    0    0    0  501 -0.00000000000E+00 -0.00000000000E+00 -0.29739065213E+01  0.29739107921E+01  0.50400000000E-02 0.  1.
         24    2    1    2    0    0  0.00000000000E+00  0.00000000000E+00  0.48640779556E+03  0.49235561288E+03  0.76298793915E+02 0.  0.
         66    2    3    3    0    0  0.61344878349E+01  0.14094070210E+02  0.46849557002E+03  0.46875193215E+03  0.20000024582E+01 0.  0.
        -13    1    3    3    0    0 -0.61344878349E+01 -0.14094070210E+02  0.17912225531E+02  0.23603680721E+02  0.10566000000E+00 0.  1.
         13    1    4    4    0    0  0.38456444560E+00  0.14410325173E+01  0.34603786151E+02  0.34636074324E+02  0.10566000000E+00 0. -1.
        -13    1    4    4    0    0  0.24397516104E+00  0.44554242461E+00  0.11239894203E+02  0.11251862853E+02  0.10566000000E+00 0.  1.
         14    1    4    4    0    0  0.55059482282E+01  0.12207495268E+02  0.42265188967E+03  0.42286399498E+03  0.00000000000E+00 0. -1.
<mgrwt>
<rscale>  0 0.76298794E+02</rscale>
<asrwt>0</asrwt>
<pdfrwt beam="1">  1        2 0.75289425E-01 0.76298794E+02</pdfrwt>
<pdfrwt beam="2">  1       -1 0.45752483E-03 0.76298794E+02</pdfrwt>
<totfact> 0.34207322E+05</totfact>
</mgrwt>
</event>
<event>
 8    1  0.1226832E-016  0.7823648E+02  0.7818608E-02  0.1334132E+00
         -1   -1    0    0    0  501 -0.00000000000E+00  0.00000000000E+00  0.15586115876E+03  0.15586115884E+03  0.50400000000E-02 0.  1.
          2   -1    0    0  501    0  0.00000000000E+00 -0.00000000000E+00 -0.98179478694E+01  0.98179482005E+01  0.25500000000E-02 0. -1.
         24    2    1    2    0    0 -0.17763568394E-14  0.00000000000E+00  0.14604321089E+03  0.16567910704E+03  0.78236481663E+02 0.  0.
         66    2    3    3    0    0  0.98013979110E+01  0.35329262946E+02  0.44343114713E+02  0.57572007609E+02  0.20000040878E+01 0.  0.
        -13    1    3    3    0    0 -0.98013979110E+01 -0.35329262946E+02  0.10170009618E+03  0.10810709944E+03  0.10566000000E+00 0.  1.
         13    1    4    4    0    0  0.37759079938E+01  0.13415346244E+02  0.16596903059E+02  0.21672502191E+02  0.10566000000E+00 0. -1.
        -13    1    4    4    0    0  0.25839812245E+01  0.88491979981E+01  0.10096882079E+02  0.13672726719E+02  0.10566000000E+00 0.  1.
         14    1    4    4    0    0  0.34415086928E+01  0.13064718703E+02  0.17649329575E+02  0.22226778699E+02  0.00000000000E+00 0. -1.
<mgrwt>
<rscale>  0 0.78236482E+02</rscale>
<asrwt>0</asrwt>
<pdfrwt beam="1">  1        2 0.15104535E-02 0.78236482E+02</pdfrwt>
<pdfrwt beam="2">  1       -1 0.23978640E-01 0.78236482E+02</pdfrwt>
<totfact> 0.11300856E+05</totfact>
</mgrwt>
</event>
<event>
 8    1  0.1226832E-016  0.8188591E+02  0.7818608E-02  0.1323783E+00
          2   -1    0    0  501    0  0.00000000000E+00  0.00000000000E+00  0.15347574272E+03  0.15347574274E+03  0.25500000000E-02 0. -1.
         -1   -1    0    0    0  501 -0.00000000000E+00 -0.00000000000E+00 -0.10922413641E+02  0.10922414804E+02  0.50400000000E-02 0.  1.
         24    2    1    2    0    0 -0.35527136788E-14  0.35527136788E-14  0.14255332907E+03  0.16439815754E+03  0.81885911931E+02 0.  0.
         66    2    3    3    0    0 -0.23260005118E+02  0.28513420978E+02  0.35389574286E+02  0.51092709665E+02  0.19999997214E+01 0.  0.
        -13    1    3    3    0    0  0.23260005118E+02 -0.28513420978E+02  0.10716375479E+03  0.11330544788E+03  0.10566000000E+00 0.  1.
         13    1    4    4    0    0 -0.80387690383E+01  0.94348605347E+01  0.12240125826E+02  0.17420397390E+02  0.10566000000E+00 0. -1.
        -13    1    4    4    0    0 -0.45125837292E+01  0.66214884759E+01  0.80824266882E+01  0.11381753237E+02  0.10566000000E+00 0.  1.
        -14    1    4    4    0    0 -0.10708652350E+02  0.12457071967E+02  0.15067021771E+02  0.22290559038E+02  0.00000000000E+00 0.  1.
<mgrwt>
<rscale>  0 0.81885912E+02</rscale>
<asrwt>0</asrwt>
<pdfrwt beam="1">  1        2 0.23611652E-01 0.81885912E+02</pdfrwt>
<pdfrwt beam="2">  1       -1 0.16803715E-02 0.81885912E+02</pdfrwt>
<totfact> 0.18968157E+05</totfact>
</mgrwt>
</event>
<event>
 8    1  0.1226832E-016  0.7996771E+02  0.7818608E-02  0.1329143E+00
         -1   -1    0    0    0  501 -0.00000000000E+00  0.00000000000E+00  0.13090352745E+02  0.13090353715E+02  0.50400000000E-02 0.  1.
          2   -1    0    0  501    0  0.00000000000E+00 -0.00000000000E+00 -0.12212876648E+03  0.12212876651E+03  0.25500000000E-02 0. -1.
         24    2    1    2    0    0  0.00000000000E+00  0.00000000000E+00 -0.10903841374E+03  0.13521912023E+03  0.79967711009E+02 0.  0.
         66    2    3    3    0    0 -0.19394802009E+02  0.32234048573E+02 -0.31772069864E+02  0.49281402708E+02  0.19999992655E+01 0.  0.
        -13    1    3    3    0    0  0.19394802009E+02 -0.32234048573E+02 -0.77266343875E+02  0.85937717518E+02  0.10566000000E+00 0.  1.
         13    1    4    4    0    0 -0.91959018922E+01  0.14360785630E+02 -0.13882417053E+02  0.21989302917E+02  0.10566000000E+00 0. -1.
        -13    1    4    4    0    0 -0.24271612270E+01  0.48287393828E+01 -0.52539061006E+01  0.75380719682E+01  0.10566000000E+00 0.  1.
        -14    1    4    4    0    0 -0.77717388900E+01  0.13044523560E+02 -0.12635746711E+02  0.19754027823E+02  0.00000000000E+00 0.  1.
<mgrwt>
<rscale>  0 0.79967711E+02</rscale>
<asrwt>0</asrwt>
<pdfrwt beam="1">  1        2 0.18789040E-01 0.79967711E+02</pdfrwt>
<pdfrwt beam="2">  1       -1 0.20139006E-02 0.79967711E+02</pdfrwt>
<totfact> 0.18805661E+05</totfact>
</mgrwt>
</event>
<event>
 8    1  0.1226832E-016  0.7889684E+02  0.7818608E-02  0.1332212E+00
         -1   -1    0    0    0  501 -0.00000000000E+00  0.00000000000E+00  0.63638840670E+01  0.63638860628E+01  0.50400000000E-02 0.  1.
          2   -1    0    0  501    0  0.00000000000E+00 -0.00000000000E+00 -0.24453266263E+03  0.24453266264E+03  0.25500000000E-02 0. -1.
         24    2    1    2    0    0  0.00000000000E+00  0.00000000000E+00 -0.23816877856E+03  0.25089654871E+03  0.78896838152E+02 0.  0.
         66    2    3    3    0    0 -0.14676266692E+02  0.22693489875E+00 -0.23551470694E+03  0.23598012944E+03  0.20000006258E+01 0.  0.
        -13    1    3    3    0    0  0.14676266692E+02 -0.22693489875E+00 -0.26540716230E+01  0.14916419265E+02  0.10566000000E+00 0.  1.
         13    1    4    4    0    0 -0.99534414706E+01 -0.56475480626E+00 -0.15443122143E+03  0.15475271649E+03  0.10566000000E+00 0. -1.
        -13    1    4    4    0    0 -0.21737448975E+00  0.72332483960E-01 -0.29190240842E+01  0.29299060218E+01  0.10566000000E+00 0. -1.
         14    1    4    4    0    0 -0.45054507321E+01  0.71935722105E+00 -0.78164461426E+02  0.78297506928E+02  0.00000000000E+00 0. -1.
<mgrwt>
<rscale>  0 0.78896838E+02</rscale>
<asrwt>0</asrwt>
<pdfrwt beam="1">  1        2 0.37620402E-01 0.78896838E+02</pdfrwt>
<pdfrwt beam="2">  1       -1 0.97905943E-03 0.78896838E+02</pdfrwt>
<totfact> 0.24560347E+05</totfact>
</mgrwt>
</event>
<event>
 8    1  0.1226832E-016  0.7983705E+02  0.7818608E-02  0.1329514E+00
          2   -1    0    0  501    0  0.00000000000E+00  0.00000000000E+00  0.12978968018E+02  0.12978968269E+02  0.25500000000E-02 0. -1.
         -1   -1    0    0    0  501 -0.00000000000E+00 -0.00000000000E+00 -0.12277467932E+03  0.12277467942E+03  0.50400000000E-02 0.  1.
         24    2    1    2    0    0  0.88817841970E-15  0.00000000000E+00 -0.10979571130E+03  0.13575364769E+03  0.79837050556E+02 0.  0.
         66    2    3    3    0    0  0.78536779684E+01 -0.38776618350E+02 -0.46232405106E+02  0.60883016288E+02  0.20000005556E+01 0.  0.
        -13    1    3    3    0    0 -0.78536779684E+01  0.38776618350E+02 -0.63563306195E+02  0.74870631404E+02  0.10566000000E+00 0.  1.
         13    1    4    4    0    0  0.53057143421E+01 -0.24067201789E+02 -0.29302302146E+02  0.38288599893E+02  0.10566000000E+00 0.  1.
        -13    1    4    4    0    0  0.10163169962E-01 -0.90469292934E+00 -0.79933243277E+00  0.12118865294E+01  0.10566000000E+00 0. -1.
         14    1    4    4    0    0  0.25378004563E+01 -0.13804723631E+02 -0.16130770527E+02  0.21382529867E+02  0.00000000000E+00 0. -1.
<mgrwt>
<rscale>  0 0.79837051E+02</rscale>
<asrwt>0</asrwt>
<pdfrwt beam="1">  1        2 0.19967644E-02 0.79837051E+02</pdfrwt>
<pdfrwt beam="2">  1       -1 0.18888412E-01 0.79837051E+02</pdfrwt>
<totfact> 0.11382846E+05</totfact>
</mgrwt>
</event>
<event>
 8    1  0.1226832E-016  0.8341385E+02  0.7818608E-02  0.1319633E+00
          2   -1    0    0  501    0  0.00000000000E+00  0.00000000000E+00  0.77374843275E+03  0.77374843276E+03  0.25500000000E-02 0. -1.
         -1   -1    0    0    0  501 -0.00000000000E+00 -0.00000000000E+00 -0.22481018097E+01  0.22481074592E+01  0.50400000000E-02 0.  1.
         24    2    1    2    0    0 -0.35527136788E-14  0.00000000000E+00  0.77150033094E+03  0.77599654021E+03  0.83413846466E+02 0.  0.
         66    2    3    3    0    0 -0.21780088946E+02 -0.17065729315E+02  0.67598699685E+03  0.67655600751E+03  0.19999985147E+01 0.  0.
        -13    1    3    3    0    0  0.21780088946E+02  0.17065729315E+02  0.95513334093E+02  0.99440532707E+02  0.10566000000E+00 0.  1.
         13    1    4    4    0    0 -0.18837527566E+02 -0.14727084683E+02  0.58903807241E+03  0.58952319834E+03  0.10566000000E+00 0. -1.
        -13    1    4    4    0    0 -0.24441496343E+01 -0.22117639242E+01  0.73167237187E+02  0.73241528716E+02  0.10566000000E+00 0.  1.
         14    1    4    4    0    0 -0.49841174587E+00 -0.12688070837E+00  0.13781687253E+02  0.13791280452E+02  0.00000000000E+00 0. -1.
<mgrwt>
<rscale>  0 0.83413846E+02</rscale>
<asrwt>0</asrwt>
<pdfrwt beam="1">  1        2 0.11903826E+00 0.83413846E+02</pdfrwt>
<pdfrwt beam="2">  1       -1 0.34586215E-03 0.83413846E+02</pdfrwt>
<totfact> 0.30638158E+05</totfact>
</mgrwt>
</event>
<event>
 8    1  0.1226832E-016  0.7920403E+02  0.7818608E-02  0.1331326E+00
         -1   -1    0    0    0  501 -0.00000000000E+00  0.00000000000E+00  0.33168974061E+01  0.33169012352E+01  0.50400000000E-02 0.  1.
          2   -1    0    0  501    0  0.00000000000E+00 -0.00000000000E+00 -0.47282695880E+03  0.47282695881E+03  0.25500000000E-02 0. -1.
         24    2    1    2    0    0 -0.88817841970E-15  0.35527136788E-14 -0.46951006140E+03  0.47614386005E+03  0.79204025817E+02 0.  0.
         66    2    3    3    0    0  0.76016617610E+01 -0.20572920612E+02 -0.43294874251E+03  0.43350852814E+03  0.20000008702E+01 0.  0.
        -13    1    3    3    0    0 -0.76016617610E+01  0.20572920612E+02 -0.36561318888E+02  0.42635331908E+02  0.10566000000E+00 0.  1.
         13    1    4    4    0    0  0.92593516964E+00 -0.13966707310E+01 -0.28430950398E+02  0.28480487173E+02  0.10566000000E+00 0. -1.
        -13    1    4    4    0    0  0.44610192001E+01 -0.13480453247E+02 -0.27603447207E+03  0.27639946499E+03  0.10566000000E+00 0.  1.
         14    1    4    4    0    0  0.22147073913E+01 -0.56957966344E+01 -0.12848332004E+03  0.12862857598E+03  0.00000000000E+00 0. -1.
<mgrwt>
<rscale>  0 0.79204026E+02</rscale>
<asrwt>0</asrwt>
<pdfrwt beam="1">  1        2 0.72742556E-01 0.79204026E+02</pdfrwt>
<pdfrwt beam="2">  1       -1 0.51029258E-03 0.79204026E+02</pdfrwt>
<totfact> 0.30695419E+05</totfact>
</mgrwt>
</event>
<event>
 8    1  0.1226832E-016  0.7823159E+02  0.7818608E-02  0.1334146E+00
         -1   -1    0    0    0  501 -0.00000000000E+00  0.00000000000E+00  0.19573897304E+01  0.19573962190E+01  0.50400000000E-02 0.  1.
          2   -1    0    0  501    0  0.00000000000E+00 -0.00000000000E+00 -0.78167513125E+03  0.78167513125E+03  0.25500000000E-02 0. -1.
         24    2    1    2    0    0  0.00000000000E+00 -0.17763568394E-14 -0.77971774152E+03  0.78363252747E+03  0.78231589998E+02 0.  0.
         66    2    3    3    0    0 -0.14522779656E+02  0.12856117725E+02 -0.73007324664E+03  0.73033357882E+03  0.19999992709E+01 0.  0.
        -13    1    3    3    0    0  0.14522779656E+02 -0.12856117725E+02 -0.49644494876E+02  0.53298948652E+02  0.10566000000E+00 0.  1.
         13    1    4    4    0    0 -0.78757135757E+01  0.59208297129E+01 -0.37813382803E+03  0.37826219234E+03  0.10566000000E+00 0. -1.
        -13    1    4    4    0    0 -0.23646286178E+01  0.22359214095E+01 -0.10753435324E+03  0.10758363772E+03  0.10566000000E+00 0.  1.
        -14    1    4    4    0    0 -0.42824374621E+01  0.46993666028E+01 -0.24440506537E+03  0.24448774876E+03  0.00000000000E+00 0.  1.
<mgrwt>
<rscale>  0 0.78231590E+02</rscale>
<asrwt>0</asrwt>
<pdfrwt beam="1">  1        2 0.12025746E+00 0.78231590E+02</pdfrwt>
<pdfrwt beam="2">  1       -1 0.30113800E-03 0.78231590E+02</pdfrwt>
<totfact> 0.36268198E+05</totfact>
</mgrwt>
</event>
<event>
 8    1  0.1226832E-016  0.7866851E+02  0.7818608E-02  0.1332873E+00
         -1   -1    0    0    0  501 -0.00000000000E+00  0.00000000000E+00  0.80371094348E+01  0.80371110150E+01  0.50400000000E-02 0.  1.
          2   -1    0    0  501    0  0.00000000000E+00 -0.00000000000E+00 -0.19250495044E+03  0.19250495046E+03  0.25500000000E-02 0. -1.
         24    2    1    2    0    0  0.71054273576E-14  0.00000000000E+00 -0.18446784101E+03  0.20054206147E+03  0.78668507386E+02 0.  0.
         66    2    3    3    0    0  0.33487939131E+02  0.17494052909E+02 -0.11994895269E+03  0.12577454133E+03  0.20000103761E+01 0.  0.
        -13    1    3    3    0    0 -0.33487939131E+02 -0.17494052909E+02 -0.64518888316E+02  0.74767520140E+02  0.10566000000E+00 0.  1.
         13    1    4    4    0    0  0.53134681077E+01  0.26315290025E+01 -0.21099561277E+02  0.21917128880E+02  0.10566000000E+00 0. -1.
        -13    1    4    4    0    0  0.17561292449E+02  0.91203422905E+01 -0.60428351318E+02  0.63585976779E+02  0.10566000000E+00 0.  1.
         14    1    4    4    0    0  0.10613178574E+02  0.57421816158E+01 -0.38421040098E+02  0.40271435675E+02  0.00000000000E+00 0. -1.
<mgrwt>
<rscale>  0 0.78668507E+02</rscale>
<asrwt>0</asrwt>
<pdfrwt beam="1">  1        2 0.29616143E-01 0.78668507E+02</pdfrwt>
<pdfrwt beam="2">  1       -1 0.12364786E-02 0.78668507E+02</pdfrwt>
<totfact> 0.22754522E+05</totfact>
</mgrwt>
</event>
<event>
 8    1  0.1226832E-016  0.7808511E+02  0.7818608E-02  0.1334575E+00
          2   -1    0    0  501    0  0.00000000000E+00  0.00000000000E+00  0.28408802489E+03  0.28408802490E+03  0.25500000000E-02 0. -1.
         -1   -1    0    0    0  501 -0.00000000000E+00 -0.00000000000E+00 -0.53656638569E+01  0.53656662239E+01  0.50400000000E-02 0.  1.
         24    2    1    2    0    0  0.00000000000E+00  0.00000000000E+00  0.27872236103E+03  0.28945369112E+03  0.78085112321E+02 0.  0.
         66    2    3    3    0    0  0.20412602206E+02 -0.18558761687E+02  0.24172613406E+03  0.24330356719E+03  0.19999900182E+01 0.  0.
        -13    1    3    3    0    0 -0.20412602206E+02  0.18558761687E+02  0.36996226976E+02  0.46150123929E+02  0.10566000000E+00 0.  1.
         13    1    4    4    0    0  0.37515194939E+01 -0.32800902820E+01  0.40757956205E+02  0.41061600661E+02  0.10566000000E+00 0. -1.
        -13    1    4    4    0    0  0.15953595450E+02 -0.14675421536E+02  0.19510618898E+03  0.19630670225E+03  0.10566000000E+00 0.  1.
        -14    1    4    4    0    0  0.70748726184E+00 -0.60324986872E+00  0.58619888668E+01  0.59352642826E+01  0.00000000000E+00 0.  1.
<mgrwt>
<rscale>  0 0.78085112E+02</rscale>
<asrwt>0</asrwt>
<pdfrwt beam="1">  1        2 0.43705859E-01 0.78085112E+02</pdfrwt>
<pdfrwt beam="2">  1       -1 0.82548677E-03 0.78085112E+02</pdfrwt>
<totfact> 0.26634579E+05</totfact>
</mgrwt>
</event>
<event>
 8    1  0.1226832E-016  0.7862843E+02  0.7818608E-02  0.1332989E+00
         -1   -1    0    0    0  501 -0.00000000000E+00  0.00000000000E+00  0.20778945470E+01  0.20779006594E+01  0.50400000000E-02 0.  1.
          2   -1    0    0  501    0  0.00000000000E+00 -0.00000000000E+00 -0.74383230107E+03  0.74383230108E+03  0.25500000000E-02 0. -1.
         24    2    1    2    0    0  0.00000000000E+00  0.55511151231E-16 -0.74175440653E+03  0.74591020174E+03  0.78628426502E+02 0.  0.
         66    2    3    3    0    0 -0.12826629450E+02 -0.33724320781E+00 -0.72339307917E+03  0.72350962892E+03  0.19999999769E+01 0.  0.
        -13    1    3    3    0    0  0.12826629450E+02  0.33724320781E+00 -0.18361327362E+02  0.22400572818E+02  0.10566000000E+00 0.  1.
         13    1    4    4    0    0 -0.80803245197E+01 -0.98951463933E+00 -0.45838845416E+03  0.45846074734E+03  0.10566000000E+00 0. -1.
        -13    1    4    4    0    0 -0.12968057476E+01  0.55354309912E-02 -0.86166269278E+02  0.86176092167E+02  0.10566000000E+00 0.  1.
        -14    1    4    4    0    0 -0.34494991830E+01  0.64673600053E+00 -0.17883835573E+03  0.17887278941E+03  0.00000000000E+00 0.  1.
<mgrwt>
<rscale>  0 0.78628427E+02</rscale>
<asrwt>0</asrwt>
<pdfrwt beam="1">  1        2 0.11443553E+00 0.78628427E+02</pdfrwt>
<pdfrwt beam="2">  1       -1 0.31967715E-03 0.78628427E+02</pdfrwt>
<totfact> 0.35452417E+05</totfact>
</mgrwt>
</event>
<event>
 8    1  0.1226832E-016  0.7418528E+02  0.7818608E-02  0.1346413E+00
          2   -1    0    0  501    0  0.00000000000E+00  0.00000000000E+00  0.46297075085E+03  0.46297075085E+03  0.25500000000E-02 0. -1.
         -1   -1    0    0    0  501 -0.00000000000E+00 -0.00000000000E+00 -0.29718139243E+01  0.29718181981E+01  0.50400000000E-02 0.  1.
         24    2    1    2    0    0  0.35527136788E-14 -0.35527136788E-14  0.45999893692E+03  0.46594256905E+03  0.74185279435E+02 0.  0.
         66    2    3    3    0    0  0.18941155532E+02 -0.29813765243E+02  0.30073254586E+03  0.30280636075E+03  0.20000011206E+01 0.  0.
        -13    1    3    3    0    0 -0.18941155532E+02  0.29813765243E+02  0.15926639106E+03  0.16313620830E+03  0.10566000000E+00 0.  1.
         13    1    4    4    0    0  0.72518729627E+00 -0.13146662583E+01  0.10481525870E+02  0.10589041155E+02  0.10566000000E+00 0. -1.
        -13    1    4    4    0    0  0.42935039838E+01 -0.63015042790E+01  0.69015428417E+02  0.69435463966E+02  0.10566000000E+00 0.  1.
         14    1    4    4    0    0  0.13922464252E+02 -0.22197594705E+02  0.22123559157E+03  0.22278185563E+03  0.00000000000E+00 0. -1.
<mgrwt>
<rscale>  0 0.74185279E+02</rscale>
<asrwt>0</asrwt>
<pdfrwt beam="1">  1        2 0.71226293E-01 0.74185279E+02</pdfrwt>
<pdfrwt beam="2">  1       -1 0.45720232E-03 0.74185279E+02</pdfrwt>
<totfact> 0.36130734E+05</totfact>
</mgrwt>
</event>
<event>
 8    1  0.1226832E-016  0.8142046E+02  0.7818608E-02  0.1325068E+00
          2   -1    0    0  501    0  0.00000000000E+00  0.00000000000E+00  0.30572445482E+03  0.30572445484E+03  0.25500000000E-02 0. -1.
         -1   -1    0    0    0  501 -0.00000000000E+00 -0.00000000000E+00 -0.54209678313E+01  0.54209701742E+01  0.50400000000E-02 0.  1.
         24    2    1    2    0    0  0.00000000000E+00  0.00000000000E+00  0.30030348699E+03  0.31114542501E+03  0.81420459369E+02 0.  0.
         66    2    3    3    0    0 -0.40927475244E+01 -0.40400198415E+02  0.14058110602E+03  0.14634197613E+03  0.19999984851E+01 0.  0.
        -13    1    3    3    0    0  0.40927475244E+01  0.40400198415E+02  0.15972238098E+03  0.16480344888E+03  0.10566000000E+00 0.  1.
         13    1    4    4    0    0  0.37714625371E-01 -0.10695432331E+01  0.32168190340E+01  0.33918186646E+01  0.10566000000E+00 0. -1.
        -13    1    4    4    0    0 -0.36503061714E+01 -0.29425250762E+02  0.10358088176E+03  0.10774126576E+03  0.10566000000E+00 0.  1.
         14    1    4    4    0    0 -0.48015597844E+00 -0.99054044202E+01  0.33783405225E+02  0.35208891705E+02  0.00000000000E+00 0. -1.
<mgrwt>
<rscale>  0 0.81420459E+02</rscale>
<asrwt>0</asrwt>
<pdfrwt beam="1">  1        2 0.47034526E-01 0.81420459E+02</pdfrwt>
<pdfrwt beam="2">  1       -1 0.83399533E-03 0.81420459E+02</pdfrwt>
<totfact> 0.24511229E+05</totfact>
</mgrwt>
</event>
<event>
 8    1  0.1226832E-016  0.8053886E+02  0.7818608E-02  0.1327529E+00
          2   -1    0    0  501    0  0.00000000000E+00  0.00000000000E+00  0.10665754671E+04  0.10665754671E+04  0.25500000000E-02 0. -1.
         -1   -1    0    0    0  501 -0.00000000000E+00 -0.00000000000E+00 -0.15204009677E+01  0.15204093213E+01  0.50400000000E-02 0.  1.
         24    2    1    2    0    0  0.00000000000E+00  0.00000000000E+00  0.10650550661E+04  0.10680958764E+04  0.80538856090E+02 0.  0.
         66    2    3    3    0    0 -0.23225231246E+02  0.82099191468E+01  0.95490926409E+03  0.95522903891E+03  0.19999978681E+01 0.  0.
        -13    1    3    3    0    0  0.23225231246E+02 -0.82099191468E+01  0.11014580199E+03  0.11286683747E+03  0.10566000000E+00 0.  1.
         13    1    4    4    0    0 -0.17518774704E+01  0.55209425872E+00  0.87212184428E+02  0.87231589229E+02  0.10566000000E+00 0. -1.
        -13    1    4    4    0    0 -0.99520157309E+01  0.42123980038E+01  0.41294631231E+03  0.41308770852E+03  0.10566000000E+00 0.  1.
         14    1    4    4    0    0 -0.11521338045E+02  0.34454268842E+01  0.45475076735E+03  0.45490974116E+03  0.00000000000E+00 0. -1.
<mgrwt>
<rscale>  0 0.80538856E+02</rscale>
<asrwt>0</asrwt>
<pdfrwt beam="1">  1        2 0.16408907E+00 0.80538856E+02</pdfrwt>
<pdfrwt beam="2">  1       -1 0.23390772E-03 0.80538856E+02</pdfrwt>
<totfact> 0.34662869E+05</totfact>
</mgrwt>
</event>
<event>
 8    1  0.1226832E-016  0.8066781E+02  0.7818608E-02  0.1327167E+00
         -1   -1    0    0    0  501 -0.00000000000E+00  0.00000000000E+00  0.17536037315E+01  0.17536109742E+01  0.50400000000E-02 0.  1.
          2   -1    0    0  501    0  0.00000000000E+00 -0.00000000000E+00 -0.92770131171E+03  0.92770131171E+03  0.25500000000E-02 0. -1.
         24    2    1    2    0    0  0.00000000000E+00  0.00000000000E+00 -0.92594770798E+03  0.92945492269E+03  0.80667808932E+02 0.  0.
         66    2    3    3    0    0 -0.16831781999E+02  0.13944590837E+02 -0.85348780726E+03  0.85376999106E+03  0.19999998330E+01 0.  0.
        -13    1    3    3    0    0  0.16831781999E+02 -0.13944590837E+02 -0.72459900720E+02  0.75684931626E+02  0.10566000000E+00 0.  1.
         13    1    4    4    0    0 -0.86382683119E+01  0.70534125673E+01 -0.45096750899E+03  0.45110539305E+03  0.10566000000E+00 0. -1.
        -13    1    4    4    0    0 -0.44039452780E+01  0.42448873037E+01 -0.21205552002E+03  0.21214374498E+03  0.10566000000E+00 0.  1.
         14    1    4    4    0    0 -0.37895684094E+01  0.26462909660E+01 -0.19046477825E+03  0.19052085303E+03  0.00000000000E+00 0. -1.
<mgrwt>
<rscale>  0 0.80667809E+02</rscale>
<asrwt>0</asrwt>
<pdfrwt beam="1">  1        2 0.14272289E+00 0.80667809E+02</pdfrwt>
<pdfrwt beam="2">  1       -1 0.26978649E-03 0.80667809E+02</pdfrwt>
<totfact> 0.34304830E+05</totfact>
</mgrwt>
</event>
<event>
 8    1  0.1226832E-016  0.7855488E+02  0.7818608E-02  0.1333203E+00
          2   -1    0    0  501    0  0.00000000000E+00  0.00000000000E+00  0.99185649387E+02  0.99185649420E+02  0.25500000000E-02 0. -1.
         -1   -1    0    0    0  501 -0.00000000000E+00 -0.00000000000E+00 -0.15553836744E+02  0.15553837560E+02  0.50400000000E-02 0.  1.
         24    2    1    2    0    0  0.00000000000E+00 -0.17763568394E-14  0.83631812644E+02  0.11473948698E+03  0.78554883912E+02 0.  0.
         66    2    3    3    0    0  0.27062549739E+02  0.15836287786E+02  0.76331797959E+02  0.82545217495E+02  0.19999856112E+01 0.  0.
        -13    1    3    3    0    0 -0.27062549739E+02 -0.15836287786E+02  0.73000146845E+01  0.32194269485E+02  0.10566000000E+00 0.  1.
         13    1    4    4    0    0  0.94297650294E+01  0.53131151018E+01  0.24189683125E+02  0.26500973459E+02  0.10566000000E+00 0. -1.
        -13    1    4    4    0    0  0.70725138516E+01  0.44740413059E+01  0.21961531516E+02  0.23502287726E+02  0.10566000000E+00 0.  1.
         14    1    4    4    0    0  0.10560270858E+02  0.60491313785E+01  0.30180583319E+02  0.32541956310E+02  0.00000000000E+00 0. -1.
<mgrwt>
<rscale>  0 0.78554884E+02</rscale>
<asrwt>0</asrwt>
<pdfrwt beam="1">  1        2 0.15259330E-01 0.78554884E+02</pdfrwt>
<pdfrwt beam="2">  1       -1 0.23928981E-02 0.78554884E+02</pdfrwt>
<totfact> 0.18569676E+05</totfact>
</mgrwt>
</event>
<event>
 8    1  0.1226832E-016  0.8306521E+02  0.7818608E-02  0.1320571E+00
         -1   -1    0    0    0  501 -0.00000000000E+00  0.00000000000E+00  0.24239089577E+01  0.24239141975E+01  0.50400000000E-02 0.  1.
          2   -1    0    0  501    0  0.00000000000E+00 -0.00000000000E+00 -0.71164205113E+03  0.71164205114E+03  0.25500000000E-02 0. -1.
         24    2    1    2    0    0  0.88817841970E-15 -0.88817841970E-15 -0.70921814218E+03  0.71406596534E+03  0.83065213293E+02 0.  0.
         66    2    3    3    0    0  0.74538601287E+01 -0.75892400799E+01 -0.69972308798E+03  0.69980679937E+03  0.19999992526E+01 0.  0.
        -13    1    3    3    0    0 -0.74538601287E+01  0.75892400799E+01 -0.94950541960E+01  0.14259165965E+02  0.10566000000E+00 0.  1.
         13    1    4    4    0    0  0.26303113035E+01 -0.24776950428E+01 -0.28745534725E+03  0.28747807802E+03  0.10566000000E+00 0. -1.
        -13    1    4    4    0    0  0.93889089591E+00 -0.86508725714E+00 -0.57221605946E+02  0.57235943629E+02  0.10566000000E+00 0.  1.
         14    1    4    4    0    0  0.38846579293E+01 -0.42464577799E+01 -0.35504613478E+03  0.35509277773E+03  0.00000000000E+00 0. -1.
<mgrwt>
<rscale>  0 0.83065213E+02</rscale>
<asrwt>0</asrwt>
<pdfrwt beam="1">  1        2 0.10948323E+00 0.83065213E+02</pdfrwt>
<pdfrwt beam="2">  1       -1 0.37291004E-03 0.83065213E+02</pdfrwt>
<totfact> 0.30444715E+05</totfact>
</mgrwt>
</event>
<event>
 8    1  0.1226832E-016  0.8043238E+02  0.7818608E-02  0.1327829E+00
          2   -1    0    0  501    0  0.00000000000E+00  0.00000000000E+00  0.27798312290E+02  0.27798312407E+02  0.25500000000E-02 0. -1.
         -1   -1    0    0    0  501 -0.00000000000E+00 -0.00000000000E+00 -0.58181294694E+02  0.58181294912E+02  0.50400000000E-02 0.  1.
         24    2    1    2    0    0  0.00000000000E+00  0.00000000000E+00 -0.30382982404E+02  0.85979607320E+02  0.80432376908E+02 0.  0.
         66    2    3    3    0    0 -0.34914849640E+02  0.67627955293E+01  0.48135368866E+01  0.35943737556E+02  0.20000008473E+01 0.  0.
        -13    1    3    3    0    0  0.34914849640E+02 -0.67627955293E+01 -0.35196519290E+02  0.50035869763E+02  0.10566000000E+00 0.  1.
         13    1    4    4    0    0 -0.74844112178E+01  0.17258297271E+01  0.79778118104E+00  0.77228568789E+01  0.10566000000E+00 0.  1.
        -13    1    4    4    0    0 -0.37495624384E+01  0.39965297550E+00  0.99946597434E+00  0.39024399098E+01  0.10566000000E+00 0. -1.
         14    1    4    4    0    0 -0.23680875984E+02  0.46373128267E+01  0.30162897313E+01  0.24318440768E+02  0.00000000000E+00 0. -1.
<mgrwt>
<rscale>  0 0.80432377E+02</rscale>
<asrwt>0</asrwt>
<pdfrwt beam="1">  1        2 0.42766635E-02 0.80432377E+02</pdfrwt>
<pdfrwt beam="2">  1       -1 0.89509684E-02 0.80432377E+02</pdfrwt>
<totfact> 0.13055012E+05</totfact>
</mgrwt>
</event>
<event>
 8    1  0.1226832E-016  0.7913228E+02  0.7818608E-02  0.1331532E+00
          2   -1    0    0  501    0  0.00000000000E+00  0.00000000000E+00  0.42764302899E+03  0.42764302900E+03  0.25500000000E-02 0. -1.
         -1   -1    0    0    0  501 -0.00000000000E+00 -0.00000000000E+00 -0.36607138171E+01  0.36607172866E+01  0.50400000000E-02 0.  1.
         24    2    1    2    0    0  0.00000000000E+00  0.35527136788E-14  0.42398231517E+03  0.43130374628E+03  0.79132281525E+02 0.  0.
         66    2    3    3    0    0  0.47699228581E+01  0.21879331548E+02  0.38974761058E+03  0.39039551392E+03  0.20000044923E+01 0.  0.
        -13    1    3    3    0    0 -0.47699228581E+01 -0.21879331548E+02  0.34234704590E+02  0.40908232368E+02  0.10566000000E+00 0.  1.
         13    1    4    4    0    0  0.72740054185E+00  0.39640123576E+01  0.78267118863E+02  0.78370884675E+02  0.10566000000E+00 0. -1.
        -13    1    4    4    0    0  0.73189911562E+00  0.52375313223E+01  0.97412563205E+02  0.97556066162E+02  0.10566000000E+00 0.  1.
         14    1    4    4    0    0  0.33106232006E+01  0.12677787868E+02  0.21406792851E+03  0.21446856308E+03  0.00000000000E+00 0. -1.
<mgrwt>
<rscale>  0 0.79132282E+02</rscale>
<asrwt>0</asrwt>
<pdfrwt beam="1">  1        2 0.65791259E-01 0.79132282E+02</pdfrwt>
<pdfrwt beam="2">  1       -1 0.56318680E-03 0.79132282E+02</pdfrwt>
<totfact> 0.29749080E+05</totfact>
</mgrwt>
</event>
<event>
 8    1  0.1226832E-016  0.8062225E+02  0.7818608E-02  0.1327295E+00
          2   -1    0    0  501    0  0.00000000000E+00  0.00000000000E+00  0.87025178296E+03  0.87025178296E+03  0.25500000000E-02 0. -1.
         -1   -1    0    0    0  501 -0.00000000000E+00 -0.00000000000E+00 -0.18672571322E+01  0.18672639341E+01  0.50400000000E-02 0.  1.
         24    2    1    2    0    0 -0.17763568394E-14  0.00000000000E+00  0.86838452583E+03  0.87211904690E+03  0.80622250433E+02 0.  0.
         66    2    3    3    0    0  0.10360662061E+02  0.36912846990E+01  0.85369386902E+03  0.85376705892E+03  0.20000006123E+01 0.  0.
        -13    1    3    3    0    0 -0.10360662061E+02 -0.36912846990E+01  0.14690656809E+02  0.18351987974E+02  0.10566000000E+00 0.  1.
         13    1    4    4    0    0  0.25744089934E+01  0.52108511032E+00  0.24324268461E+03  0.24325688868E+03  0.10566000000E+00 0. -1.
        -13    1    4    4    0    0  0.54886896290E+01  0.27537861603E+01  0.42890470338E+03  0.42894867385E+03  0.10566000000E+00 0.  1.
        -14    1    4    4    0    0  0.22975634391E+01  0.41641342828E+00  0.18154648103E+03  0.18156149639E+03  0.00000000000E+00 0.  1.
<mgrwt>
<rscale>  0 0.80622250E+02</rscale>
<asrwt>0</asrwt>
<pdfrwt beam="1">  1        2 0.13388470E+00 0.80622250E+02</pdfrwt>
<pdfrwt beam="2">  1       -1 0.28727126E-03 0.80622250E+02</pdfrwt>
<totfact> 0.34112658E+05</totfact>
</mgrwt>
</event>
<event>
 8    1  0.1226832E-016  0.8688336E+02  0.7818608E-02  0.1310580E+00
          2   -1    0    0  501    0  0.00000000000E+00  0.00000000000E+00  0.19587420338E+03  0.19587420339E+03  0.25500000000E-02 0. -1.
         -1   -1    0    0    0  501 -0.00000000000E+00 -0.00000000000E+00 -0.96346507628E+01  0.96346520811E+01  0.50400000000E-02 0.  1.
         24    2    1    2    0    0  0.00000000000E+00 -0.35527136788E-14  0.18623955261E+03  0.20550885547E+03  0.86883362738E+02 0.  0.
         66    2    3    3    0    0  0.44326984410E+01 -0.26058642169E+02  0.17464369600E+03  0.17664405508E+03  0.19999990849E+01 0.  0.
        -13    1    3    3    0    0 -0.44326984410E+01  0.26058642169E+02  0.11595856618E+02  0.28864800396E+02  0.10566000000E+00 0.  1.
         13    1    4    4    0    0  0.32582206294E+01 -0.18829993226E+02  0.12266720012E+03  0.12414683965E+03  0.10566000000E+00 0. -1.
        -13    1    4    4    0    0  0.10991347355E+01 -0.65049157714E+01  0.48381208570E+02  0.48829033710E+02  0.10566000000E+00 0.  1.
         14    1    4    4    0    0  0.75343076157E-01 -0.72373317142E+00  0.35952873110E+01  0.36681817201E+01  0.00000000000E+00 0. -1.
<mgrwt>
<rscale>  0 0.86883363E+02</rscale>
<asrwt>0</asrwt>
<pdfrwt beam="1">  1        2 0.30134496E-01 0.86883363E+02</pdfrwt>
<pdfrwt beam="2">  1       -1 0.14822539E-02 0.86883363E+02</pdfrwt>
<totfact> 0.17595667E+05</totfact>
</mgrwt>
</event>
<event>
 8    1  0.1226832E-016  0.7996111E+02  0.7818608E-02  0.1329162E+00
         -1   -1    0    0    0  501 -0.00000000000E+00  0.00000000000E+00  0.14830591826E+02  0.14830592682E+02  0.50400000000E-02 0.  1.
          2   -1    0    0  501    0  0.00000000000E+00 -0.00000000000E+00 -0.10778023685E+03  0.10778023688E+03  0.25500000000E-02 0. -1.
         24    2    1    2    0    0 -0.35527136788E-14  0.35527136788E-14 -0.92949645029E+02  0.12261082957E+03  0.79961109398E+02 0.  0.
         66    2    3    3    0    0 -0.16572188505E+02  0.14012339099E+02 -0.97945410516E+02  0.10034085167E+03  0.19999982121E+01 0.  0.
        -13    1    3    3    0    0  0.16572188505E+02 -0.14012339099E+02  0.49957654878E+01  0.22269977901E+02  0.10566000000E+00 0.  1.
         13    1    4    4    0    0 -0.10178653078E+02  0.92683962617E+01 -0.61932410753E+02  0.63444013220E+02  0.10566000000E+00 0. -1.
        -13    1    4    4    0    0 -0.50967455947E+01  0.38285931493E+01 -0.26783157847E+02  0.27531502855E+02  0.10566000000E+00 0.  1.
        -14    1    4    4    0    0 -0.12967898321E+01  0.91534968831E+00 -0.92298419166E+01  0.93653355907E+01  0.00000000000E+00 0.  1.
<mgrwt>
<rscale>  0 0.79961109E+02</rscale>
<asrwt>0</asrwt>
<pdfrwt beam="1">  1        2 0.16581574E-01 0.79961109E+02</pdfrwt>
<pdfrwt beam="2">  1       -1 0.22816297E-02 0.79961109E+02</pdfrwt>
<totfact> 0.18130398E+05</totfact>
</mgrwt>
</event>
<event>
 8    1  0.1226832E-016  0.7925820E+02  0.7818608E-02  0.1331170E+00
          2   -1    0    0  501    0  0.00000000000E+00  0.00000000000E+00  0.23584610077E+03  0.23584610078E+03  0.25500000000E-02 0. -1.
         -1   -1    0    0    0  501 -0.00000000000E+00 -0.00000000000E+00 -0.66588561981E+01  0.66588581055E+01  0.50400000000E-02 0.  1.
         24    2    1    2    0    0  0.71054273576E-14  0.00000000000E+00  0.22918724457E+03  0.24250495888E+03  0.79258198385E+02 0.  0.
         66    2    3    3    0    0  0.33759022355E+02 -0.46466541291E+01  0.17640814802E+03  0.17968054339E+03  0.20000006794E+01 0.  0.
        -13    1    3    3    0    0 -0.33759022355E+02  0.46466541291E+01  0.52779096550E+02  0.62824415490E+02  0.10566000000E+00 0.  1.
         13    1    4    4    0    0  0.11241695475E+02 -0.14008647949E+01  0.57259978630E+02  0.58369979065E+02  0.10566000000E+00 0. -1.
        -13    1    4    4    0    0  0.69843096806E+01 -0.17169083058E+01  0.38275508756E+02  0.38945527220E+02  0.10566000000E+00 0.  1.
        -14    1    4    4    0    0  0.15533017200E+02 -0.15288810284E+01  0.80872660631E+02  0.82365037110E+02  0.00000000000E+00 0.  1.
<mgrwt>
<rscale>  0 0.79258198E+02</rscale>
<asrwt>0</asrwt>
<pdfrwt beam="1">  1        2 0.36284013E-01 0.79258198E+02</pdfrwt>
<pdfrwt beam="2">  1       -1 0.10244396E-02 0.79258198E+02</pdfrwt>
<totfact> 0.23956474E+05</totfact>
</mgrwt>
</event>
<event>
 8    1  0.1226832E-016  0.7882838E+02  0.7818608E-02  0.1332410E+00
         -1   -1    0    0    0  501 -0.00000000000E+00  0.00000000000E+00  0.32016453856E+01  0.32016493526E+01  0.50400000000E-02 0.  1.
          2   -1    0    0  501    0  0.00000000000E+00 -0.00000000000E+00 -0.48521216557E+03  0.48521216558E+03  0.25500000000E-02 0. -1.
         24    2    1    2    0    0  0.00000000000E+00  0.00000000000E+00 -0.48201052019E+03  0.48841381493E+03  0.78828377158E+02 0.  0.
         66    2    3    3    0    0  0.16182435873E+02  0.35792734496E+02 -0.25920512737E+03  0.26217225088E+03  0.20000004109E+01 0.  0.
        -13    1    3    3    0    0 -0.16182435873E+02 -0.35792734496E+02 -0.22280539281E+03  0.22624156405E+03  0.10566000000E+00 0.  1.
         13    1    4    4    0    0  0.35014051440E+01  0.71754036093E+01 -0.51679306576E+02  0.52292524773E+02  0.10566000000E+00 0. -1.
        -13    1    4    4    0    0  0.75495427835E+00  0.12985943139E+01 -0.12174197803E+02  0.12266970259E+02  0.10566000000E+00 0.  1.
        -14    1    4    4    0    0  0.11926076451E+02  0.27318736573E+02 -0.19535162299E+03  0.19761275585E+03  0.00000000000E+00 0.  1.
<mgrwt>
<rscale>  0 0.78828377E+02</rscale>
<asrwt>0</asrwt>
<pdfrwt beam="1">  1        2 0.74647967E-01 0.78828377E+02</pdfrwt>
<pdfrwt beam="2">  1       -1 0.49256152E-03 0.78828377E+02</pdfrwt>
<totfact> 0.31340687E+05</totfact>
</mgrwt>
</event>
<event>
 8    1  0.1226832E-016  0.8049222E+02  0.7818608E-02  0.1327660E+00
         -1   -1    0    0    0  501 -0.00000000000E+00  0.00000000000E+00  0.40950849506E+01  0.40950880521E+01  0.50400000000E-02 0.  1.
          2   -1    0    0  501    0  0.00000000000E+00 -0.00000000000E+00 -0.39553484126E+03  0.39553484127E+03  0.25500000000E-02 0. -1.
         24    2    1    2    0    0  0.35527136788E-14  0.00000000000E+00 -0.39143975631E+03  0.39962992932E+03  0.80492220674E+02 0.  0.
         66    2    3    3    0    0  0.29030103105E+02  0.13771478782E+02 -0.31595880524E+03  0.31759465854E+03  0.20000020787E+01 0.  0.
        -13    1    3    3    0    0 -0.29030103105E+02 -0.13771478782E+02 -0.75480951069E+02  0.82035270783E+02  0.10566000000E+00 0.  1.
         13    1    4    4    0    0  0.17376794926E+01  0.55180636414E+00 -0.16423839192E+02  0.16525062122E+02  0.10566000000E+00 0.  1.
        -13    1    4    4    0    0  0.31897657526E+01  0.19732061497E+01 -0.39648818925E+02  0.39825973362E+02  0.10566000000E+00 0.  1.
         14    1    4    4    0    0  0.24102657860E+02  0.11246466268E+02 -0.25988614713E+03  0.26124362306E+03  0.00000000000E+00 0. -1.
<mgrwt>
<rscale>  0 0.80492221E+02</rscale>
<asrwt>0</asrwt>
<pdfrwt beam="1">  1        2 0.60851484E-01 0.80492221E+02</pdfrwt>
<pdfrwt beam="2">  1       -1 0.63001362E-03 0.80492221E+02</pdfrwt>
<totfact> 0.27695271E+05</totfact>
</mgrwt>
</event>
<event>
 8    1  0.1226832E-016  0.8387706E+02  0.7818608E-02  0.1318396E+00
          2   -1    0    0  501    0  0.00000000000E+00  0.00000000000E+00  0.18967938755E+03  0.18967938756E+03  0.25500000000E-02 0. -1.
         -1   -1    0    0    0  501 -0.00000000000E+00 -0.00000000000E+00 -0.92727007008E+01  0.92727020705E+01  0.50400000000E-02 0.  1.
         24    2    1    2    0    0 -0.11102230246E-15 -0.35527136788E-14  0.18040668684E+03  0.19895208963E+03  0.83877060697E+02 0.  0.
         66    2    3    3    0    0 -0.84582002322E+00 -0.25571314921E+02  0.16900274710E+03  0.17094015353E+03  0.20000012531E+01 0.  0.
        -13    1    3    3    0    0  0.84582002322E+00  0.25571314921E+02  0.11403939748E+02  0.28011936101E+02  0.10566000000E+00 0.  1.
         13    1    4    4    0    0 -0.12562691904E+01 -0.14387278043E+02  0.94802401709E+02  0.95896186137E+02  0.10566000000E+00 0. -1.
        -13    1    4    4    0    0 -0.18762605424E+00 -0.12239319212E+01  0.82163358395E+01  0.83097864922E+01  0.10566000000E+00 0. -1.
        -14    1    4    4    0    0  0.59807522139E+00 -0.99601049573E+01  0.65984009548E+02  0.66734180903E+02  0.00000000000E+00 0.  1.
<mgrwt>
<rscale>  0 0.83877061E+02</rscale>
<asrwt>0</asrwt>
<pdfrwt beam="1">  1        2 0.29181442E-01 0.83877061E+02</pdfrwt>
<pdfrwt beam="2">  1       -1 0.14265695E-02 0.83877061E+02</pdfrwt>
<totfact> 0.19107666E+05</totfact>
</mgrwt>
</event>
<event>
 8    1  0.1226832E-016  0.7860690E+02  0.7818608E-02  0.1333052E+00
          2   -1    0    0  501    0  0.00000000000E+00  0.00000000000E+00  0.14470456379E+04  0.14470456379E+04  0.25500000000E-02 0. -1.
         -1   -1    0    0    0  501 -0.00000000000E+00 -0.00000000000E+00 -0.10675217134E+01  0.10675336108E+01  0.50400000000E-02 0.  1.
         24    2    1    2    0    0  0.00000000000E+00  0.22204460493E-15  0.14459781162E+04  0.14481131716E+04  0.78606901853E+02 0.  0.
         66    2    3    3    0    0  0.15858211542E+02  0.11132399862E+01  0.13851272737E+04  0.13852199416E+04  0.20000051408E+01 0.  0.
        -13    1    3    3    0    0 -0.15858211542E+02 -0.11132399862E+01  0.60850842548E+02  0.62893229996E+02  0.10566000000E+00 0.  1.
         13    1    4    4    0    0  0.91312691364E+01  0.13474458301E+00  0.77389304790E+03  0.77394693550E+03  0.10566000000E+00 0. -1.
        -13    1    4    4    0    0  0.36507761525E+01  0.39153554673E+00  0.37583899770E+03  0.37585694729E+03  0.10566000000E+00 0.  1.
         14    1    4    4    0    0  0.30761662526E+01  0.58695985649E+00  0.23539522808E+03  0.23541605876E+03  0.00000000000E+00 0. -1.
<mgrwt>
<rscale>  0 0.78606902E+02</rscale>
<asrwt>0</asrwt>
<pdfrwt beam="1">  1        2 0.22262293E+00 0.78606902E+02</pdfrwt>
<pdfrwt beam="2">  1       -1 0.16423464E-03 0.78606902E+02</pdfrwt>
<totfact> 0.35245022E+05</totfact>
</mgrwt>
</event>
<event>
 8    1  0.1226832E-016  0.7968344E+02  0.7818608E-02  0.1329952E+00
          2   -1    0    0  501    0  0.00000000000E+00  0.00000000000E+00  0.31137106809E+03  0.31137106810E+03  0.25500000000E-02 0. -1.
         -1   -1    0    0    0  501 -0.00000000000E+00 -0.00000000000E+00 -0.50979763594E+01  0.50979788507E+01  0.50400000000E-02 0.  1.
         24    2    1    2    0    0 -0.17763568394E-14  0.88817841970E-15  0.30627309173E+03  0.31646904695E+03  0.79683442194E+02 0.  0.
         66    2    3    3    0    0 -0.11222998416E+02  0.62706432189E+01  0.30289756961E+03  0.30317686980E+03  0.20000115601E+01 0.  0.
        -13    1    3    3    0    0  0.11222998416E+02 -0.62706432189E+01  0.33755221214E+01  0.13292177152E+02  0.10566000000E+00 0.  1.
         13    1    4    4    0    0 -0.74356111714E+01  0.37565230674E+01  0.18743891211E+03  0.18762397692E+03  0.10566000000E+00 0. -1.
        -13    1    4    4    0    0 -0.62125693212E+00  0.93008895167E+00  0.26381755991E+02  0.26405666794E+02  0.10566000000E+00 0.  1.
        -14    1    4    4    0    0 -0.31661303120E+01  0.15840311999E+01  0.89076901509E+02  0.89147226084E+02  0.00000000000E+00 0.  1.
<mgrwt>
<rscale>  0 0.79683442E+02</rscale>
<asrwt>0</asrwt>
<pdfrwt beam="1">  1        2 0.47903253E-01 0.79683442E+02</pdfrwt>
<pdfrwt beam="2">  1       -1 0.78430406E-03 0.79683442E+02</pdfrwt>
<totfact> 0.26109745E+05</totfact>
</mgrwt>
</event>
<event>
 8    1  0.1226832E-016  0.8004108E+02  0.7818608E-02  0.1328935E+00
         -1   -1    0    0    0  501 -0.00000000000E+00  0.00000000000E+00  0.19553420438E+02  0.19553421087E+02  0.50400000000E-02 0.  1.
          2   -1    0    0  501    0  0.00000000000E+00 -0.00000000000E+00 -0.81911179332E+02  0.81911179372E+02  0.25500000000E-02 0. -1.
         24    2    1    2    0    0  0.00000000000E+00  0.00000000000E+00 -0.62357758895E+02  0.10146460046E+03  0.80041083526E+02 0.  0.
         66    2    3    3    0    0 -0.14214012206E+02  0.37369228828E+02 -0.29843976166E+02  0.49931556327E+02  0.19999994238E+01 0.  0.
        -13    1    3    3    0    0  0.14214012206E+02 -0.37369228828E+02 -0.32513782729E+02  0.51533044132E+02  0.10566000000E+00 0.  1.
         13    1    4    4    0    0 -0.58113599101E+01  0.17140718393E+02 -0.13048901767E+02  0.22312801985E+02  0.10566000000E+00 0. -1.
        -13    1    4    4    0    0 -0.35708193054E+01  0.74252139917E+01 -0.64240711794E+01  0.10448177252E+02  0.10566000000E+00 0.  1.
         14    1    4    4    0    0 -0.48318329907E+01  0.12803296443E+02 -0.10371003219E+02  0.17170577091E+02  0.00000000000E+00 0. -1.
<mgrwt>
<rscale>  0 0.80041084E+02</rscale>
<asrwt>0</asrwt>
<pdfrwt beam="1">  1        2 0.12601720E-01 0.80041084E+02</pdfrwt>
<pdfrwt beam="2">  1       -1 0.30082186E-02 0.80041084E+02</pdfrwt>
<totfact> 0.16774454E+05</totfact>
</mgrwt>
</event>
<event>
 8    1  0.1290390E-016  0.8109867E+02  0.7818608E-02  0.1325962E+00
          2   -1    0    0  501    0  0.00000000000E+00  0.00000000000E+00  0.44089557607E+03  0.44089557608E+03  0.25500000000E-02 0. -1.
         -1   -1    0    0    0  501 -0.00000000000E+00 -0.00000000000E+00 -0.37293365187E+01  0.37293399244E+01  0.50400000000E-02 0.  1.
         24    2    1    2    0    0  0.00000000000E+00  0.00000000000E+00  0.43716623955E+03  0.44462491600E+03  0.81098674010E+02 0.  0.
         66    2    3    3    0    0 -0.82112700089E+01  0.25708196615E+02  0.38445714123E+03  0.38540839349E+03  0.20000006130E+01 0.  0.
        -13    1    3    3    0    0  0.82112700089E+01 -0.25708196615E+02  0.52709098322E+02  0.59216522511E+02  0.10566000000E+00 0.  1.
         13    1    4    4    0    0 -0.45337066703E+01  0.14907230461E+02  0.22473560581E+03  0.22527512889E+03  0.10566000000E+00 0. -1.
        -13    1    4    4    0    0 -0.22333079251E+01  0.60236525257E+01  0.97884850360E+02  0.98095500141E+02  0.10566000000E+00 0.  1.
        -14    1    4    4    0    0 -0.14442554134E+01  0.47773136289E+01  0.61836685061E+02  0.62037764455E+02  0.00000000000E+00 0.  1.
<mgrwt>
<rscale>  0 0.81098674E+02</rscale>
<asrwt>0</asrwt>
<pdfrwt beam="1">  1        2 0.67830063E-01 0.81098674E+02</pdfrwt>
<pdfrwt beam="2">  1       -1 0.57374456E-03 0.81098674E+02</pdfrwt>
<totfact> 0.28194242E+05</totfact>
</mgrwt>
</event>
<event>
 8    1  0.1226832E-016  0.8065477E+02  0.7818608E-02  0.1327203E+00
          2   -1    0    0  501    0  0.00000000000E+00  0.00000000000E+00  0.57085452130E+02  0.57085452187E+02  0.25500000000E-02 0. -1.
         -1   -1    0    0    0  501 -0.00000000000E+00 -0.00000000000E+00 -0.28488836641E+02  0.28488837087E+02  0.50400000000E-02 0.  1.
         24    2    1    2    0    0 -0.35527136788E-14 -0.17763568394E-14  0.28596615489E+02  0.85574289273E+02  0.80654773989E+02 0.  0.
         66    2    3    3    0    0  0.28946238809E+02  0.13960202343E+02  0.40111748885E+02  0.51436605524E+02  0.19999996370E+01 0.  0.
        -13    1    3    3    0    0 -0.28946238809E+02 -0.13960202343E+02 -0.11515133396E+02  0.34137683750E+02  0.10566000000E+00 0.  1.
         13    1    4    4    0    0  0.11560272728E+02  0.55716578322E+01  0.16330620181E+02  0.20769776024E+02  0.10566000000E+00 0. -1.
        -13    1    4    4    0    0  0.33240798417E+01  0.11126253802E+01  0.37543747514E+01  0.51375028798E+01  0.10566000000E+00 0.  1.
        -14    1    4    4    0    0  0.14061886239E+02  0.72759191309E+01  0.20026753952E+02  0.25529326620E+02  0.00000000000E+00 0.  1.
<mgrwt>
<rscale>  0 0.80654774E+02</rscale>
<asrwt>0</asrwt>
<pdfrwt beam="1">  1        2 0.87823772E-02 0.80654774E+02</pdfrwt>
<pdfrwt beam="2">  1       -1 0.43828980E-02 0.80654774E+02</pdfrwt>
<totfact> 0.15051317E+05</totfact>
</mgrwt>
</event>
<event>
 8    1  0.1226832E-016  0.8046908E+02  0.7818608E-02  0.1327726E+00
         -1   -1    0    0    0  501 -0.00000000000E+00  0.00000000000E+00  0.18580198755E+01  0.18580267111E+01  0.50400000000E-02 0.  1.
          2   -1    0    0  501    0  0.00000000000E+00 -0.00000000000E+00 -0.87125821582E+03  0.87125821583E+03  0.25500000000E-02 0. -1.
         24    2    1    2    0    0  0.00000000000E+00  0.00000000000E+00 -0.86940019595E+03  0.87311624254E+03  0.80469076482E+02 0.  0.
         66    2    3    3    0    0 -0.32484591017E+02 -0.91298700124E+01 -0.67224307306E+03  0.67309238034E+03  0.20000029895E+01 0.  0.
        -13    1    3    3    0    0  0.32484591017E+02  0.91298700124E+01 -0.19715712289E+03  0.20002386220E+03  0.10566000000E+00 0.  1.
         13    1    4    4    0    0 -0.25301269610E+02 -0.79013259107E+01 -0.52998077320E+03  0.53064321000E+03  0.10566000000E+00 0. -1.
        -13    1    4    4    0    0 -0.56333108035E+01 -0.96911900440E+00 -0.11380366503E+03  0.11394717514E+03  0.10566000000E+00 0.  1.
         14    1    4    4    0    0 -0.15500106042E+01 -0.25942509738E+00 -0.28458634826E+02  0.28501995201E+02  0.00000000000E+00 0. -1.
<mgrwt>
<rscale>  0 0.80469076E+02</rscale>
<asrwt>0</asrwt>
<pdfrwt beam="1">  1        2 0.13403940E+00 0.80469076E+02</pdfrwt>
<pdfrwt beam="2">  1       -1 0.28585043E-03 0.80469076E+02</pdfrwt>
<totfact> 0.34286759E+05</totfact>
</mgrwt>
</event>
<event>
 8    1  0.1226832E-016  0.8580416E+02  0.7818608E-02  0.1313343E+00
          2   -1    0    0  501    0  0.00000000000E+00  0.00000000000E+00  0.11038317036E+02  0.11038317331E+02  0.25500000000E-02 0. -1.
         -1   -1    0    0    0  501 -0.00000000000E+00 -0.00000000000E+00 -0.16674537834E+03  0.16674537841E+03  0.50400000000E-02 0.  1.
         24    2    1    2    0    0  0.17763568394E-14  0.00000000000E+00 -0.15570706130E+03  0.17778369574E+03  0.85804158019E+02 0.  0.
         66    2    3    3    0    0 -0.88354738247E+01 -0.25440139599E+02 -0.87614976956E+01  0.28390670044E+02  0.20000007774E+01 0.  0.
        -13    1    3    3    0    0  0.88354738247E+01  0.25440139599E+02 -0.14694556361E+03  0.14939302570E+03  0.10566000000E+00 0.  1.
         13    1    4    4    0    0 -0.33605477307E+00 -0.18414220574E+01 -0.23700482791E+00  0.18897363118E+01  0.10566000000E+00 0. -1.
        -13    1    4    4    0    0 -0.20597537492E+01 -0.64858720374E+01 -0.21569094808E+01  0.71395058749E+01  0.10566000000E+00 0.  1.
         14    1    4    4    0    0 -0.64396653024E+01 -0.17112845505E+02 -0.63675833869E+01  0.19361427857E+02  0.00000000000E+00 0. -1.
<mgrwt>
<rscale>  0 0.85804158E+02</rscale>
<asrwt>0</asrwt>
<pdfrwt beam="1">  1        2 0.16982028E-02 0.85804158E+02</pdfrwt>
<pdfrwt beam="2">  1       -1 0.25653133E-01 0.85804158E+02</pdfrwt>
<totfact> 0.87838614E+04</totfact>
</mgrwt>
</event>
<event>
 8    1  0.1226832E-016  0.8125915E+02  0.7818608E-02  0.1325516E+00
          2   -1    0    0  501    0  0.00000000000E+00  0.00000000000E+00  0.11520359032E+02  0.11520359315E+02  0.25500000000E-02 0. -1.
         -1   -1    0    0    0  501 -0.00000000000E+00 -0.00000000000E+00 -0.14329089039E+03  0.14329089048E+03  0.50400000000E-02 0.  1.
         24    2    1    2    0    0  0.35527136788E-14  0.00000000000E+00 -0.13177053136E+03  0.15481124980E+03  0.81259154120E+02 0.  0.
         66    2    3    3    0    0 -0.22230091994E+02  0.17614454898E+02 -0.10566913039E+02  0.30333242623E+02  0.19999863705E+01 0.  0.
        -13    1    3    3    0    0  0.22230091994E+02 -0.17614454898E+02 -0.12120361832E+03  0.12447800717E+03  0.10566000000E+00 0.  1.
         13    1    4    4    0    0 -0.69845353225E+01  0.51094849900E+01 -0.38737020314E+01  0.94819461081E+01  0.10566000000E+00 0. -1.
        -13    1    4    4    0    0 -0.66468577156E+01  0.60866415275E+01 -0.28318106694E+01  0.94476578197E+01  0.10566000000E+00 0.  1.
         14    1    4    4    0    0 -0.85986989555E+01  0.64183283804E+01 -0.38614003381E+01  0.11403638695E+02  0.00000000000E+00 0. -1.
<mgrwt>
<rscale>  0 0.81259154E+02</rscale>
<asrwt>0</asrwt>
<pdfrwt beam="1">  1        2 0.17723630E-02 0.81259154E+02</pdfrwt>
<pdfrwt beam="2">  1       -1 0.22044751E-01 0.81259154E+02</pdfrwt>
<totfact> 0.10490500E+05</totfact>
</mgrwt>
</event>
<event>
 8    1  0.1226832E-016  0.7862909E+02  0.7818608E-02  0.1332988E+00
          2   -1    0    0  501    0  0.00000000000E+00  0.00000000000E+00  0.28290781208E+03  0.28290781209E+03  0.25500000000E-02 0. -1.
         -1   -1    0    0    0  501 -0.00000000000E+00 -0.00000000000E+00 -0.54633806074E+01  0.54633829321E+01  0.50400000000E-02 0.  1.
         24    2    1    2    0    0  0.00000000000E+00  0.00000000000E+00  0.27744443147E+03  0.28837119502E+03  0.78629088537E+02 0.  0.
         66    2    3    3    0    0  0.17496066614E+02 -0.24382566752E+02  0.23181029963E+03  0.23375336770E+03  0.19999971668E+01 0.  0.
        -13    1    3    3    0    0 -0.17496066614E+02  0.24382566752E+02  0.45634131841E+02  0.54617827321E+02  0.10566000000E+00 0.  1.
         13    1    4    4    0    0  0.55449584783E+01 -0.86378983134E+01  0.75617608975E+02  0.76311164340E+02  0.10566000000E+00 0. -1.
        -13    1    4    4    0    0  0.12939474053E+01 -0.16723553520E+01  0.19428891218E+02  0.19543900591E+02  0.10566000000E+00 0.  1.
         14    1    4    4    0    0  0.10657160730E+02 -0.14072313086E+02  0.13676379943E+03  0.13789830277E+03  0.00000000000E+00 0. -1.
<mgrwt>
<rscale>  0 0.78629089E+02</rscale>
<asrwt>0</asrwt>
<pdfrwt beam="1">  1        2 0.43524275E-01 0.78629089E+02</pdfrwt>
<pdfrwt beam="2">  1       -1 0.84052035E-03 0.78629089E+02</pdfrwt>
<totfact> 0.26115451E+05</totfact>
</mgrwt>
</event>
<event>
 8    1  0.1226832E-016  0.7930917E+02  0.7818608E-02  0.1331023E+00
          2   -1    0    0  501    0  0.00000000000E+00  0.00000000000E+00  0.65963653516E+03  0.65963653516E+03  0.25500000000E-02 0. -1.
         -1   -1    0    0    0  501 -0.00000000000E+00 -0.00000000000E+00 -0.23838647664E+01  0.23838700942E+01  0.50400000000E-02 0.  1.
         24    2    1    2    0    0  0.00000000000E+00  0.00000000000E+00  0.65725267039E+03  0.66202040526E+03  0.79309168700E+02 0.  0.
         66    2    3    3    0    0  0.19256529376E+02 -0.77912821146E+01  0.61054508953E+03  0.61090164868E+03  0.20000007645E+01 0.  0.
        -13    1    3    3    0    0 -0.19256529376E+02  0.77912821146E+01  0.46707580860E+02  0.51118756581E+02  0.10566000000E+00 0.  1.
         13    1    4    4    0    0  0.16871539167E+02 -0.68065588942E+01  0.51759887650E+03  0.51791851309E+03  0.10566000000E+00 0. -1.
        -13    1    4    4    0    0  0.78032845286E+00 -0.39497460408E+00  0.38546910204E+02  0.38556975604E+02  0.10566000000E+00 0.  1.
         14    1    4    4    0    0  0.16046617557E+01 -0.58974861625E+00  0.54399302823E+02  0.54426159982E+02  0.00000000000E+00 0. -1.
<mgrwt>
<rscale>  0 0.79309169E+02</rscale>
<asrwt>0</asrwt>
<pdfrwt beam="1">  1        2 0.10148260E+00 0.79309169E+02</pdfrwt>
<pdfrwt beam="2">  1       -1 0.36674862E-03 0.79309169E+02</pdfrwt>
<totfact> 0.33731345E+05</totfact>
</mgrwt>
</event>
<event>
 8    1  0.1226832E-016  0.8013839E+02  0.7818608E-02  0.1328659E+00
         -1   -1    0    0    0  501 -0.00000000000E+00  0.00000000000E+00  0.41950406174E+01  0.41950436450E+01  0.50400000000E-02 0.  1.
          2   -1    0    0  501    0  0.00000000000E+00 -0.00000000000E+00 -0.38272328722E+03  0.38272328722E+03  0.25500000000E-02 0. -1.
         24    2    1    2    0    0  0.00000000000E+00  0.00000000000E+00 -0.37852824660E+03  0.38691833087E+03  0.80138388365E+02 0.  0.
         66    2    3    3    0    0  0.26818658750E+02 -0.25430246088E+02 -0.26380338366E+03  0.26638724271E+03  0.19999933191E+01 0.  0.
        -13    1    3    3    0    0 -0.26818658750E+02  0.25430246088E+02 -0.11472486293E+03  0.12053108816E+03  0.10566000000E+00 0.  1.
         13    1    4    4    0    0  0.86314697765E+01 -0.76658765452E+01 -0.83254440294E+02  0.84051061423E+02  0.10566000000E+00 0. -1.
        -13    1    4    4    0    0  0.33586151078E+01 -0.31263915736E+01 -0.36743148759E+02  0.37028701901E+02  0.10566000000E+00 0.  1.
         14    1    4    4    0    0  0.14828573866E+02 -0.14637977970E+02 -0.14380579461E+03  0.14530747939E+03  0.00000000000E+00 0. -1.
<mgrwt>
<rscale>  0 0.80138388E+02</rscale>
<asrwt>0</asrwt>
<pdfrwt beam="1">  1        2 0.58880478E-01 0.80138388E+02</pdfrwt>
<pdfrwt beam="2">  1       -1 0.64539140E-03 0.80138388E+02</pdfrwt>
<totfact> 0.27693094E+05</totfact>
</mgrwt>
</event>
<event>
 8    1  0.1226832E-016  0.7758038E+02  0.7818608E-02  0.1336062E+00
         -1   -1    0    0    0  501 -0.00000000000E+00  0.00000000000E+00  0.40667894649E+01  0.40667925879E+01  0.50400000000E-02 0.  1.
          2   -1    0    0  501    0  0.00000000000E+00 -0.00000000000E+00 -0.36999169138E+03  0.36999169139E+03  0.25500000000E-02 0. -1.
         24    2    1    2    0    0 -0.35527136788E-14  0.00000000000E+00 -0.36592490192E+03  0.37405848398E+03  0.77580381498E+02 0.  0.
         66    2    3    3    0    0 -0.25787431200E+02  0.21023531564E+02 -0.27899440518E+03  0.28097839527E+03  0.19999996655E+01 0.  0.
        -13    1    3    3    0    0  0.25787431200E+02 -0.21023531564E+02 -0.86930496739E+02  0.93080088712E+02  0.10566000000E+00 0.  1.
         13    1    4    4    0    0 -0.13062962892E+02  0.10604717532E+02 -0.13760042708E+03  0.13862535746E+03  0.10566000000E+00 0. -1.
        -13    1    4    4    0    0 -0.69012871235E+01  0.62804043195E+01 -0.76533755220E+02  0.77100571298E+02  0.10566000000E+00 0.  1.
         14    1    4    4    0    0 -0.58231811846E+01  0.41384097126E+01 -0.64860222879E+02  0.65252466513E+02  0.00000000000E+00 0. -1.
<mgrwt>
<rscale>  0 0.77580381E+02</rscale>
<asrwt>0</asrwt>
<pdfrwt beam="1">  1        2 0.56921772E-01 0.77580381E+02</pdfrwt>
<pdfrwt beam="2">  1       -1 0.62566045E-03 0.77580381E+02</pdfrwt>
<totfact> 0.29781585E+05</totfact>
</mgrwt>
</event>
<event>
 8    1  0.1226832E-016  0.7976768E+02  0.7818608E-02  0.1329712E+00
          2   -1    0    0  501    0  0.00000000000E+00  0.00000000000E+00  0.72218747507E+01  0.72218752009E+01  0.25500000000E-02 0. -1.
         -1   -1    0    0    0  501 -0.00000000000E+00 -0.00000000000E+00 -0.22026423561E+03  0.22026423567E+03  0.50400000000E-02 0.  1.
         24    2    1    2    0    0  0.35527136788E-14 -0.35527136788E-14 -0.21304236086E+03  0.22748611087E+03  0.79767682162E+02 0.  0.
         66    2    3    3    0    0  0.26380067492E+02 -0.29754812037E+02 -0.11437672622E+03  0.12110859715E+03  0.20000011865E+01 0.  0.
        -13    1    3    3    0    0 -0.26380067492E+02  0.29754812037E+02 -0.98665634643E+02  0.10637751371E+03  0.10566000000E+00 0.  1.
         13    1    4    4    0    0  0.15893776756E+02 -0.18001390485E+02 -0.66967985632E+02  0.71143407724E+02  0.10566000000E+00 0. -1.
        -13    1    4    4    0    0  0.13483117550E+01 -0.16200497101E+01 -0.73011487234E+01  0.76000291031E+01  0.10566000000E+00 0.  1.
         14    1    4    4    0    0  0.91379789811E+01 -0.10133371842E+02 -0.40107591860E+02  0.42365160327E+02  0.00000000000E+00 0. -1.
<mgrwt>
<rscale>  0 0.79767682E+02</rscale>
<asrwt>0</asrwt>
<pdfrwt beam="1">  1        2 0.11110579E-02 0.79767682E+02</pdfrwt>
<pdfrwt beam="2">  1       -1 0.33886801E-01 0.79767682E+02</pdfrwt>
<totfact> 0.97365553E+04</totfact>
</mgrwt>
</event>
<event>
 8    1  0.1226832E-016  0.8126866E+02  0.7818608E-02  0.1325489E+00
          2   -1    0    0  501    0  0.00000000000E+00  0.00000000000E+00  0.67661661473E+01  0.67661666278E+01  0.25500000000E-02 0. -1.
         -1   -1    0    0    0  501 -0.00000000000E+00 -0.00000000000E+00 -0.24403018539E+03  0.24403018545E+03  0.50400000000E-02 0.  1.
         24    2    1    2    0    0  0.00000000000E+00  0.00000000000E+00 -0.23726401925E+03  0.25079635207E+03  0.81268661761E+02 0.  0.
         66    2    3    3    0    0  0.11260560413E+02 -0.19468539466E+02 -0.22305112981E+03  0.22419105862E+03  0.20000012723E+01 0.  0.
        -13    1    3    3    0    0 -0.11260560413E+02  0.19468539466E+02 -0.14212889439E+02  0.26605293458E+02  0.10566000000E+00 0.  1.
         13    1    4    4    0    0  0.52862904914E+00 -0.13263681425E+01 -0.17994099920E+02  0.18050969422E+02  0.10566000000E+00 0. -1.
        -13    1    4    4    0    0  0.83196910044E+01 -0.14548884362E+02 -0.15970098714E+03  0.16057803010E+03  0.10566000000E+00 0.  1.
        -14    1    4    4    0    0  0.24122403599E+01 -0.35932869610E+01 -0.45356042752E+02  0.45562059094E+02  0.00000000000E+00 0.  1.
<mgrwt>
<rscale>  0 0.81268662E+02</rscale>
<asrwt>0</asrwt>
<pdfrwt beam="1">  1        2 0.10409489E-02 0.81268662E+02</pdfrwt>
<pdfrwt beam="2">  1       -1 0.37543099E-01 0.81268662E+02</pdfrwt>
<totfact> 0.89710968E+04</totfact>
</mgrwt>
</event>
<event>
 8    1  0.1226832E-016  0.7963678E+02  0.7818608E-02  0.1330085E+00
         -1   -1    0    0    0  501 -0.00000000000E+00  0.00000000000E+00  0.11429254278E+02  0.11429255389E+02  0.50400000000E-02 0.  1.
          2   -1    0    0  501    0  0.00000000000E+00 -0.00000000000E+00 -0.13872331209E+03  0.13872331212E+03  0.25500000000E-02 0. -1.
         24    2    1    2    0    0  0.00000000000E+00  0.00000000000E+00 -0.12729405782E+03  0.15015256751E+03  0.79636777770E+02 0.  0.
         66    2    3    3    0    0 -0.18339035200E+02  0.53343416267E+01 -0.12950915719E+03  0.13092515889E+03  0.20000055781E+01 0.  0.
        -13    1    3    3    0    0  0.18339035200E+02 -0.53343416267E+01  0.22150993759E+01  0.19227408612E+02  0.10566000000E+00 0.  1.
         13    1    4    4    0    0 -0.65602540237E+01  0.24845552361E+01 -0.51471135032E+02  0.51947077426E+02  0.10566000000E+00 0. -1.
        -13    1    4    4    0    0 -0.66404909030E+00  0.34402761589E+00 -0.49800573925E+01  0.50370082255E+01  0.10566000000E+00 0.  1.
         14    1    4    4    0    0 -0.11114732086E+02  0.25057587747E+01 -0.73057964767E+02  0.73941073242E+02  0.00000000000E+00 0. -1.
<mgrwt>
<rscale>  0 0.79636778E+02</rscale>
<asrwt>0</asrwt>
<pdfrwt beam="1">  1        2 0.21342047E-01 0.79636778E+02</pdfrwt>
<pdfrwt beam="2">  1       -1 0.17583470E-02 0.79636778E+02</pdfrwt>
<totfact> 0.19775338E+05</totfact>
</mgrwt>
</event>
<event>
 8    1  0.1226832E-016  0.7480303E+02  0.7818608E-02  0.1344482E+00
          2   -1    0    0  501    0  0.00000000000E+00  0.00000000000E+00  0.24448039193E+03  0.24448039195E+03  0.25500000000E-02 0. -1.
         -1   -1    0    0    0  501 -0.00000000000E+00 -0.00000000000E+00 -0.57218205025E+01  0.57218227222E+01  0.50400000000E-02 0.  1.
         24    2    1    2    0    0  0.00000000000E+00  0.00000000000E+00  0.23875857143E+03  0.25020221467E+03  0.74803026633E+02 0.  0.
         66    2    3    3    0    0  0.26694984999E+02  0.99201666992E+01  0.20042245858E+03  0.20244553300E+03  0.19999993430E+01 0.  0.
        -13    1    3    3    0    0 -0.26694984999E+02 -0.99201666992E+01  0.38336112854E+02  0.47756681671E+02  0.10566000000E+00 0.  1.
         13    1    4    4    0    0  0.12197583226E+02  0.49607325185E+01  0.96138887161E+02  0.97036522466E+02  0.10566000000E+00 0. -1.
        -13    1    4    4    0    0  0.11977653976E+02  0.44770689174E+01  0.85455341249E+02  0.86406798650E+02  0.10566000000E+00 0.  1.
        -14    1    4    4    0    0  0.25197477972E+01  0.48236526338E+00  0.18828230166E+02  0.19002211882E+02  0.00000000000E+00 0.  1.
<mgrwt>
<rscale>  0 0.74803027E+02</rscale>
<asrwt>0</asrwt>
<pdfrwt beam="1">  1        2 0.37612364E-01 0.74803027E+02</pdfrwt>
<pdfrwt beam="2">  1       -1 0.88028034E-03 0.74803027E+02</pdfrwt>
<totfact> 0.28235181E+05</totfact>
</mgrwt>
</event>
<event>
 8    1  0.1226832E-016  0.7412662E+02  0.7818608E-02  0.1346597E+00
         -1   -1    0    0    0  501 -0.00000000000E+00  0.00000000000E+00  0.86192897171E+00  0.86194370691E+00  0.50400000000E-02 0.  1.
          2   -1    0    0  501    0  0.00000000000E+00 -0.00000000000E+00 -0.15937243438E+04  0.15937243438E+04  0.25500000000E-02 0. -1.
         24    2    1    2    0    0  0.00000000000E+00 -0.17763568394E-14 -0.15928624149E+04  0.15945862875E+04  0.74126619639E+02 0.  0.
         66    2    3    3    0    0  0.97937112125E+01 -0.87986906979E+01 -0.15416825762E+04  0.15417400881E+04  0.20000040008E+01 0.  0.
        -13    1    3    3    0    0 -0.97937112125E+01  0.87986906979E+01 -0.51179838693E+02  0.52846199390E+02  0.10566000000E+00 0.  1.
         13    1    4    4    0    0  0.36287569148E+01 -0.32746029703E+01 -0.50854111591E+03  0.50856461599E+03  0.10566000000E+00 0. -1.
        -13    1    4    4    0    0  0.36721158076E+01 -0.35495615457E+01 -0.55862700712E+03  0.55865036299E+03  0.10566000000E+00 0.  1.
         14    1    4    4    0    0  0.24928384901E+01 -0.19745261820E+01 -0.47451445313E+03  0.47452510917E+03  0.00000000000E+00 0. -1.
<mgrwt>
<rscale>  0 0.74126620E+02</rscale>
<asrwt>0</asrwt>
<pdfrwt beam="1">  1        2 0.24518600E+00 0.74126620E+02</pdfrwt>
<pdfrwt beam="2">  1       -1 0.13260687E-03 0.74126620E+02</pdfrwt>
<totfact> 0.39491027E+05</totfact>
</mgrwt>
</event>
<event>
 8    1  0.1226832E-016  0.7954263E+02  0.7818608E-02  0.1330354E+00
          2   -1    0    0  501    0  0.00000000000E+00  0.00000000000E+00  0.11759625647E+04  0.11759625647E+04  0.25500000000E-02 0. -1.
         -1   -1    0    0    0  501 -0.00000000000E+00 -0.00000000000E+00 -0.13450699239E+01  0.13450793664E+01  0.50400000000E-02 0.  1.
         24    2    1    2    0    0  0.00000000000E+00  0.00000000000E+00  0.11746174948E+04  0.11773076441E+04  0.79542628507E+02 0.  0.
         66    2    3    3    0    0  0.23795590433E+02  0.93892059319E+01  0.10379216301E+04  0.10382387479E+04  0.19999991695E+01 0.  0.
        -13    1    3    3    0    0 -0.23795590433E+02 -0.93892059319E+01  0.13669586472E+03  0.13906889626E+03  0.10566000000E+00 0.  1.
         13    1    4    4    0    0  0.10226703015E+02  0.37581615882E+01  0.47699505439E+03  0.47711948431E+03  0.10566000000E+00 0.  1.
        -13    1    4    4    0    0  0.72821380372E+01  0.33096307945E+01  0.29996714999E+03  0.30007379997E+03  0.10566000000E+00 0. -1.
         14    1    4    4    0    0  0.62867493804E+01  0.23214135492E+01  0.26095942572E+03  0.26104546357E+03  0.00000000000E+00 0. -1.
<mgrwt>
<rscale>  0 0.79542629E+02</rscale>
<asrwt>0</asrwt>
<pdfrwt beam="1">  1        2 0.18091748E+00 0.79542629E+02</pdfrwt>
<pdfrwt beam="2">  1       -1 0.20693437E-03 0.79542629E+02</pdfrwt>
<totfact> 0.35635771E+05</totfact>
</mgrwt>
</event>
<event>
 8    1  0.1239766E-016  0.8165151E+02  0.7818608E-02  0.1324429E+00
         -1   -1    0    0    0  501 -0.00000000000E+00  0.00000000000E+00  0.76457672358E+02  0.76457672524E+02  0.50400000000E-02 0.  1.
          2   -1    0    0  501    0  0.00000000000E+00 -0.00000000000E+00 -0.21799539661E+02  0.21799539810E+02  0.25500000000E-02 0. -1.
         24    2    1    2    0    0  0.00000000000E+00  0.00000000000E+00  0.54658132697E+02  0.98257212333E+02  0.81651505226E+02 0.  0.
         66    2    3    3    0    0  0.23424566334E+02  0.11044299237E+02 -0.10595201534E+02  0.28052542646E+02  0.19999999395E+01 0.  0.
        -13    1    3    3    0    0 -0.23424566334E+02 -0.11044299237E+02  0.65253334232E+02  0.70204669688E+02  0.10566000000E+00 0.  1.
         13    1    4    4    0    0  0.13529653515E+02  0.59431569931E+01 -0.55950034940E+01  0.15801514719E+02  0.10566000000E+00 0. -1.
        -13    1    4    4    0    0  0.13810772296E+01  0.34586708545E+00 -0.52141843050E+00  0.15198814330E+01  0.10566000000E+00 0. -1.
        -14    1    4    4    0    0  0.85138355898E+01  0.47552751584E+01 -0.44787796099E+01  0.10731146494E+02  0.00000000000E+00 0.  1.
<mgrwt>
<rscale>  0 0.81651505E+02</rscale>
<asrwt>0</asrwt>
<pdfrwt beam="1">  1        2 0.33537754E-02 0.81651505E+02</pdfrwt>
<pdfrwt beam="2">  1       -1 0.11762719E-01 0.81651505E+02</pdfrwt>
<totfact> 0.11915056E+05</totfact>
</mgrwt>
</event>
<event>
 8    1  0.1226832E-016  0.7962396E+02  0.7818608E-02  0.1330122E+00
         -1   -1    0    0    0  501 -0.00000000000E+00  0.00000000000E+00  0.48940425392E+03  0.48940425395E+03  0.50400000000E-02 0.  1.
          2   -1    0    0  501    0  0.00000000000E+00 -0.00000000000E+00 -0.32386178046E+01  0.32386188085E+01  0.25500000000E-02 0. -1.
         24    2    1    2    0    0  0.71054273576E-14  0.00000000000E+00  0.48616563612E+03  0.49264287276E+03  0.79623955794E+02 0.  0.
         66    2    3    3    0    0  0.37776905671E+02  0.98075869026E+01  0.29104311693E+03  0.29365520475E+03  0.19999995129E+01 0.  0.
        -13    1    3    3    0    0 -0.37776905671E+02 -0.98075869026E+01  0.19512251919E+03  0.19898766801E+03  0.10566000000E+00 0.  1.
         13    1    4    4    0    0  0.10968373313E+02  0.28327876003E+01  0.81021216849E+02  0.81809404365E+02  0.10566000000E+00 0. -1.
        -13    1    4    4    0    0  0.59828981074E+01  0.10146922262E+01  0.43909269939E+02  0.44326739341E+02  0.10566000000E+00 0.  1.
        -14    1    4    4    0    0  0.20825634250E+02  0.59601070760E+01  0.16611263015E+03  0.16751906104E+03  0.00000000000E+00 0.  1.
<mgrwt>
<rscale>  0 0.79623956E+02</rscale>
<asrwt>0</asrwt>
<pdfrwt beam="1">  1        2 0.49824919E-03 0.79623956E+02</pdfrwt>
<pdfrwt beam="2">  1       -1 0.75292930E-01 0.79623956E+02</pdfrwt>
<totfact> 0.68508326E+04</totfact>
</mgrwt>
</event>
<event>
 8    1  0.1226832E-016  0.8047521E+02  0.7818608E-02  0.1327708E+00
         -1   -1    0    0    0  501 -0.00000000000E+00  0.00000000000E+00  0.11285919529E+03  0.11285919540E+03  0.50400000000E-02 0.  1.
          2   -1    0    0  501    0  0.00000000000E+00 -0.00000000000E+00 -0.14345884801E+02  0.14345885028E+02  0.25500000000E-02 0. -1.
         24    2    1    2    0    0  0.00000000000E+00  0.00000000000E+00  0.98513310490E+02  0.12720508043E+03  0.80475214469E+02 0.  0.
         66    2    3    3    0    0  0.29185583807E+02 -0.18888766999E+02  0.17340314261E+02  0.38900775316E+02  0.20000001570E+01 0.  0.
        -13    1    3    3    0    0 -0.29185583807E+02  0.18888766999E+02  0.81172996229E+02  0.88304305115E+02  0.10566000000E+00 0.  1.
         13    1    4    4    0    0  0.17236249902E+02 -0.11447296362E+02  0.94281770762E+01  0.22738306702E+02  0.10566000000E+00 0. -1.
        -13    1    4    4    0    0  0.11426380366E+02 -0.69530528701E+01  0.75659841014E+01  0.15367575994E+02  0.10566000000E+00 0.  1.
         14    1    4    4    0    0  0.52295353973E+00 -0.48841776753E+00  0.34615308294E+00  0.79489261991E+00  0.00000000000E+00 0. -1.
<mgrwt>
<rscale>  0 0.80475214E+02</rscale>
<asrwt>0</asrwt>
<pdfrwt beam="1">  1        2 0.22070593E-02 0.80475214E+02</pdfrwt>
<pdfrwt beam="2">  1       -1 0.17362953E-01 0.80475214E+02</pdfrwt>
<totfact> 0.11373578E+05</totfact>
</mgrwt>
</event>
<event>
 8    1  0.1226832E-016  0.8073783E+02  0.7818608E-02  0.1326971E+00
          2   -1    0    0  501    0  0.00000000000E+00  0.00000000000E+00  0.40566035136E+03  0.40566035137E+03  0.25500000000E-02 0. -1.
         -1   -1    0    0    0  501 -0.00000000000E+00 -0.00000000000E+00 -0.40172737446E+01  0.40172769062E+01  0.50400000000E-02 0.  1.
         24    2    1    2    0    0  0.35527136788E-14  0.00000000000E+00  0.40164307761E+03  0.40967762827E+03  0.80737830736E+02 0.  0.
         66    2    3    3    0    0  0.29419867719E+02  0.18676030560E+02  0.30410392619E+03  0.30610050745E+03  0.20000002441E+01 0.  0.
        -13    1    3    3    0    0 -0.29419867719E+02 -0.18676030560E+02  0.97539151423E+02  0.10357712083E+03  0.10566000000E+00 0.  1.
         13    1    4    4    0    0  0.65982787842E+01  0.40735925959E+01  0.69305264483E+02  0.69737811040E+02  0.10566000000E+00 0. -1.
        -13    1    4    4    0    0  0.13576600954E+02  0.80252167545E+01  0.14188373408E+03  0.14275760350E+03  0.10566000000E+00 0.  1.
         14    1    4    4    0    0  0.92449879807E+01  0.65772212091E+01  0.92914927625E+02  0.93605092902E+02  0.00000000000E+00 0. -1.
<mgrwt>
<rscale>  0 0.80737831E+02</rscale>
<asrwt>0</asrwt>
<pdfrwt beam="1">  1        2 0.62409267E-01 0.80737831E+02</pdfrwt>
<pdfrwt beam="2">  1       -1 0.61804254E-03 0.80737831E+02</pdfrwt>
<totfact> 0.27719455E+05</totfact>
</mgrwt>
</event>
<event>
 8    1  0.1226832E-016  0.8047075E+02  0.7818608E-02  0.1327721E+00
         -1   -1    0    0    0  501 -0.00000000000E+00  0.00000000000E+00  0.63494543735E+01  0.63494563738E+01  0.50400000000E-02 0.  1.
          2   -1    0    0  501    0  0.00000000000E+00 -0.00000000000E+00 -0.25496442312E+03  0.25496442313E+03  0.25500000000E-02 0. -1.
         24    2    1    2    0    0  0.35527136788E-14 -0.88817841970E-15 -0.24861496875E+03  0.26131387951E+03  0.80470745852E+02 0.  0.
         66    2    3    3    0    0  0.30660432001E+02 -0.65810496412E+01 -0.20611762995E+03  0.20849903999E+03  0.19999984486E+01 0.  0.
        -13    1    3    3    0    0 -0.30660432001E+02  0.65810496412E+01 -0.42497338799E+02  0.52814839523E+02  0.10566000000E+00 0.  1.
         13    1    4    4    0    0  0.10059628860E+02 -0.21701838756E+01 -0.68917648166E+02  0.69681842854E+02  0.10566000000E+00 0. -1.
        -13    1    4    4    0    0  0.18054935176E+01 -0.96386018050E-01 -0.97936668769E+01  0.99597275082E+01  0.10566000000E+00 0.  1.
        -14    1    4    4    0    0  0.18795309623E+02 -0.43144797475E+01 -0.12740631491E+03  0.12885746962E+03  0.00000000000E+00 0.  1.
<mgrwt>
<rscale>  0 0.80470746E+02</rscale>
<asrwt>0</asrwt>
<pdfrwt beam="1">  1        2 0.39225288E-01 0.80470746E+02</pdfrwt>
<pdfrwt beam="2">  1       -1 0.97683949E-03 0.80470746E+02</pdfrwt>
<totfact> 0.23669297E+05</totfact>
</mgrwt>
</event>
<event>
 8    1  0.1226832E-016  0.7990850E+02  0.7818608E-02  0.1329311E+00
          2   -1    0    0  501    0  0.00000000000E+00  0.00000000000E+00  0.38823040217E+03  0.38823040218E+03  0.25500000000E-02 0. -1.
         -1   -1    0    0    0  501 -0.00000000000E+00 -0.00000000000E+00 -0.41118407994E+01  0.41118438882E+01  0.50400000000E-02 0.  1.
         24    2    1    2    0    0  0.00000000000E+00  0.00000000000E+00  0.38411856137E+03  0.39234224607E+03  0.79908503047E+02 0.  0.
         66    2    3    3    0    0 -0.32537738553E+02  0.18257963294E+01  0.30545841804E+03  0.30719844257E+03  0.19999996684E+01 0.  0.
        -13    1    3    3    0    0  0.32537738553E+02 -0.18257963294E+01  0.78660143331E+02  0.85143803505E+02  0.10566000000E+00 0.  1.
         13    1    4    4    0    0 -0.36817312375E+00 -0.69711467025E-01  0.30166706637E+01  0.30416898373E+01  0.10566000000E+00 0.  1.
        -13    1    4    4    0    0 -0.39132141136E+01  0.57257671555E+00  0.39717041360E+02  0.39913602033E+02  0.10566000000E+00 0. -1.
         14    1    4    4    0    0 -0.28256351316E+02  0.13229310809E+01  0.26272470602E+03  0.26424315070E+03  0.00000000000E+00 0. -1.
<mgrwt>
<rscale>  0 0.79908503E+02</rscale>
<asrwt>0</asrwt>
<pdfrwt beam="1">  1        2 0.59727742E-01 0.79908503E+02</pdfrwt>
<pdfrwt beam="2">  1       -1 0.63259126E-03 0.79908503E+02</pdfrwt>
<totfact> 0.28042787E+05</totfact>
</mgrwt>
</event>
<event>
 8    1  0.1226832E-016  0.8016659E+02  0.7818608E-02  0.1328579E+00
         -1   -1    0    0    0  501 -0.00000000000E+00  0.00000000000E+00  0.10685890618E+02  0.10685891807E+02  0.50400000000E-02 0.  1.
          2   -1    0    0  501    0  0.00000000000E+00 -0.00000000000E+00 -0.15035436465E+03  0.15035436467E+03  0.25500000000E-02 0. -1.
         24    2    1    2    0    0  0.00000000000E+00 -0.35527136788E-14 -0.13966847403E+03  0.16104025648E+03  0.80166586357E+02 0.  0.
         66    2    3    3    0    0  0.30596774508E+02  0.25309021167E+02 -0.80498952928E+02  0.89781905708E+02  0.20000018412E+01 0.  0.
        -13    1    3    3    0    0 -0.30596774508E+02 -0.25309021167E+02 -0.59169521103E+02  0.71258350769E+02  0.10566000000E+00 0.  1.
         13    1    4    4    0    0  0.69956778732E+01  0.66685813644E+01 -0.20373702800E+02  0.22550131178E+02  0.10566000000E+00 0. -1.
        -13    1    4    4    0    0  0.20092859923E+02  0.16161498473E+02 -0.51834821237E+02  0.57894532639E+02  0.10566000000E+00 0.  1.
        -14    1    4    4    0    0  0.35082367112E+01  0.24789413295E+01 -0.82904288906E+01  0.93372418908E+01  0.00000000000E+00 0.  1.
<mgrwt>
<rscale>  0 0.80166586E+02</rscale>
<asrwt>0</asrwt>
<pdfrwt beam="1">  1        2 0.23131439E-01 0.80166586E+02</pdfrwt>
<pdfrwt beam="2">  1       -1 0.16439834E-02 0.80166586E+02</pdfrwt>
<totfact> 0.19934906E+05</totfact>
</mgrwt>
</event>
<event>
 8    1  0.1226832E-016  0.7847519E+02  0.7818608E-02  0.1333435E+00
          2   -1    0    0  501    0  0.00000000000E+00  0.00000000000E+00  0.37796705414E+02  0.37796705501E+02  0.25500000000E-02 0. -1.
         -1   -1    0    0    0  501 -0.00000000000E+00 -0.00000000000E+00 -0.40733416852E+02  0.40733417164E+02  0.50400000000E-02 0.  1.
         24    2    1    2    0    0  0.00000000000E+00  0.88817841970E-15 -0.29367114374E+01  0.78530122664E+02  0.78475192842E+02 0.  0.
         66    2    3    3    0    0 -0.34757953407E+02 -0.55534147331E+01  0.15823654258E+02  0.38643806398E+02  0.19999996410E+01 0.  0.
        -13    1    3    3    0    0  0.34757953407E+02  0.55534147331E+01 -0.18760365695E+02  0.39886316267E+02  0.10566000000E+00 0.  1.
         13    1    4    4    0    0 -0.81169476825E+01 -0.18649358198E+01  0.38685851728E+01  0.91836779433E+01  0.10566000000E+00 0. -1.
        -13    1    4    4    0    0 -0.45939364382E+01 -0.98220801215E+00  0.17323612956E+01  0.50081158405E+01  0.10566000000E+00 0.  1.
        -14    1    4    4    0    0 -0.22047069287E+02 -0.27062709012E+01  0.10222707789E+02  0.24452012614E+02  0.00000000000E+00 0.  1.
<mgrwt>
<rscale>  0 0.78475193E+02</rscale>
<asrwt>0</asrwt>
<pdfrwt beam="1">  1        2 0.58148778E-02 0.78475193E+02</pdfrwt>
<pdfrwt beam="2">  1       -1 0.62666796E-02 0.78475193E+02</pdfrwt>
<totfact> 0.14861885E+05</totfact>
</mgrwt>
</event>
<event>
 8    1  0.1226832E-016  0.8093690E+02  0.7818608E-02  0.1326413E+00
          2   -1    0    0  501    0  0.00000000000E+00  0.00000000000E+00  0.81664343041E+03  0.81664343042E+03  0.25500000000E-02 0. -1.
         -1   -1    0    0    0  501 -0.00000000000E+00 -0.00000000000E+00 -0.20053953326E+01  0.20054016659E+01  0.50400000000E-02 0.  1.
         24    2    1    2    0    0  0.44408920985E-15  0.00000000000E+00  0.81463803508E+03  0.81864883208E+03  0.80936901787E+02 0.  0.
         66    2    3    3    0    0  0.20605307036E+01  0.29822002148E+02  0.68310422602E+03  0.68376090938E+03  0.20000006019E+01 0.  0.
        -13    1    3    3    0    0 -0.20605307036E+01 -0.29822002148E+02  0.13153380907E+03  0.13488792270E+03  0.10566000000E+00 0.  1.
         13    1    4    4    0    0  0.39745134188E+00  0.12534290366E+01  0.30236979926E+02  0.30265742532E+02  0.10566000000E+00 0. -1.
        -13    1    4    4    0    0  0.35949712347E-01  0.57883281897E+00  0.16699604996E+02  0.16710006310E+02  0.10566000000E+00 0.  1.
         14    1    4    4    0    0  0.16271296494E+01  0.27989740292E+02  0.63616764109E+03  0.63678516054E+03  0.00000000000E+00 0. -1.
<mgrwt>
<rscale>  0 0.80936902E+02</rscale>
<asrwt>0</asrwt>
<pdfrwt beam="1">  1        2 0.12563708E+00 0.80936902E+02</pdfrwt>
<pdfrwt beam="2">  1       -1 0.30852376E-03 0.80936902E+02</pdfrwt>
<totfact> 0.33456472E+05</totfact>
</mgrwt>
</event>
<event>
 8    1  0.1226832E-016  0.7903311E+02  0.7818608E-02  0.1331818E+00
         -1   -1    0    0    0  501 -0.00000000000E+00  0.00000000000E+00  0.10434341076E+01  0.10434462796E+01  0.50400000000E-02 0.  1.
          2   -1    0    0  501    0  0.00000000000E+00 -0.00000000000E+00 -0.14965476381E+04  0.14965476381E+04  0.25500000000E-02 0. -1.
         24    2    1    2    0    0  0.00000000000E+00  0.00000000000E+00 -0.14955042040E+04  0.14975910843E+04  0.79033106105E+02 0.  0.
         66    2    3    3    0    0 -0.10433455455E+02  0.22353276574E+01 -0.14687117003E+04  0.14687518212E+04  0.20000006361E+01 0.  0.
        -13    1    3    3    0    0  0.10433455455E+02 -0.22353276574E+01 -0.26792503654E+02  0.28839263142E+02  0.10566000000E+00 0.  1.
         13    1    4    4    0    0 -0.22116484418E+01  0.98167125466E+00 -0.37454541869E+03  0.37455324974E+03  0.10566000000E+00 0. -1.
        -13    1    4    4    0    0 -0.59685428990E+01  0.96526166969E+00 -0.71992861834E+03  0.71995401374E+03  0.10566000000E+00 0.  1.
        -14    1    4    4    0    0 -0.22532641144E+01  0.28839473306E+00 -0.37423766328E+03  0.37424455773E+03  0.00000000000E+00 0.  1.
<mgrwt>
<rscale>  0 0.79033106E+02</rscale>
<asrwt>0</asrwt>
<pdfrwt beam="1">  1        2 0.23023638E+00 0.79033106E+02</pdfrwt>
<pdfrwt beam="2">  1       -1 0.16053046E-03 0.79033106E+02</pdfrwt>
<totfact> 0.34348410E+05</totfact>
</mgrwt>
</event>
<event>
 8    1  0.1226832E-016  0.8498227E+02  0.7818608E-02  0.1315479E+00
          2   -1    0    0  501    0  0.00000000000E+00  0.00000000000E+00  0.45151084940E+02  0.45151085012E+02  0.25500000000E-02 0. -1.
         -1   -1    0    0    0  501 -0.00000000000E+00 -0.00000000000E+00 -0.39987887319E+02  0.39987887637E+02  0.50400000000E-02 0.  1.
         24    2    1    2    0    0  0.44408920985E-15  0.00000000000E+00  0.51631976210E+01  0.85138972649E+02  0.84982269056E+02 0.  0.
         66    2    3    3    0    0 -0.25686976695E+01 -0.36485432679E+02  0.24203051231E+02  0.43904130646E+02  0.19999983447E+01 0.  0.
        -13    1    3    3    0    0  0.25686976695E+01  0.36485432679E+02 -0.19039853610E+02  0.41234842003E+02  0.10566000000E+00 0.  1.
         13    1    4    4    0    0 -0.15349966957E+01 -0.13261688913E+02  0.86171097052E+01  0.15890070843E+02  0.10566000000E+00 0. -1.
        -13    1    4    4    0    0 -0.38218995830E+00 -0.93853422480E+01  0.70061412003E+01  0.11718698598E+02  0.10566000000E+00 0.  1.
        -14    1    4    4    0    0 -0.65151101559E+00 -0.13838401518E+02  0.85798003255E+01  0.16295361205E+02  0.00000000000E+00 0.  1.
<mgrwt>
<rscale>  0 0.84982269E+02</rscale>
<asrwt>0</asrwt>
<pdfrwt beam="1">  1        2 0.69463208E-02 0.84982269E+02</pdfrwt>
<pdfrwt beam="2">  1       -1 0.61519827E-02 0.84982269E+02</pdfrwt>
<totfact> 0.12372190E+05</totfact>
</mgrwt>
</event>
<event>
 8    1  0.1226832E-016  0.7686185E+02  0.7818608E-02  0.1338201E+00
         -1   -1    0    0    0  501 -0.00000000000E+00  0.00000000000E+00  0.10053274482E+03  0.10053274495E+03  0.50400000000E-02 0.  1.
          2   -1    0    0  501    0  0.00000000000E+00 -0.00000000000E+00 -0.14691093478E+02  0.14691093699E+02  0.25500000000E-02 0. -1.
         24    2    1    2    0    0  0.00000000000E+00 -0.35527136788E-14  0.85841651344E+02  0.11522383865E+03  0.76861849361E+02 0.  0.
         66    2    3    3    0    0 -0.22605043163E+02  0.28534494860E+02  0.61293198133E+02  0.71316628620E+02  0.20000017443E+01 0.  0.
        -13    1    3    3    0    0  0.22605043163E+02 -0.28534494860E+02  0.24548453211E+02  0.43907210028E+02  0.10566000000E+00 0.  1.
         13    1    4    4    0    0 -0.71049630403E+01  0.81892564757E+01  0.18237119038E+02  0.21216693811E+02  0.10566000000E+00 0. -1.
        -13    1    4    4    0    0 -0.10582860014E+02  0.13222311294E+02  0.27447969440E+02  0.32252575594E+02  0.10566000000E+00 0. -1.
         14    1    4    4    0    0 -0.49172201087E+01  0.71229270903E+01  0.15608109656E+02  0.17847359215E+02  0.00000000000E+00 0. -1.
<mgrwt>
<rscale>  0 0.76861849E+02</rscale>
<asrwt>0</asrwt>
<pdfrwt beam="1">  1        2 0.22601683E-02 0.76861849E+02</pdfrwt>
<pdfrwt beam="2">  1       -1 0.15466576E-01 0.76861849E+02</pdfrwt>
<totfact> 0.13081697E+05</totfact>
</mgrwt>
</event>
<event>
 8    1  0.1226832E-016  0.7843893E+02  0.7818608E-02  0.1333541E+00
          2   -1    0    0  501    0  0.00000000000E+00  0.00000000000E+00  0.83710918546E+03  0.83710918547E+03  0.25500000000E-02 0. -1.
         -1   -1    0    0    0  501 -0.00000000000E+00 -0.00000000000E+00 -0.18374704882E+01  0.18374774003E+01  0.50400000000E-02 0.  1.
         24    2    1    2    0    0  0.00000000000E+00  0.00000000000E+00  0.83527171498E+03  0.83894666287E+03  0.78438927193E+02 0.  0.
         66    2    3    3    0    0 -0.13752211392E+02  0.23456327580E+02  0.71982386941E+03  0.72034000693E+03  0.19999995021E+01 0.  0.
        -13    1    3    3    0    0  0.13752211392E+02 -0.23456327580E+02  0.11544784557E+03  0.11860665594E+03  0.10566000000E+00 0.  1.
         13    1    4    4    0    0 -0.61467099561E+01  0.11685315281E+02  0.34114730303E+03  0.34140272724E+03  0.10566000000E+00 0. -1.
        -13    1    4    4    0    0 -0.78500465074E+00  0.17550730282E+01  0.57289126038E+02  0.57321476253E+02  0.10566000000E+00 0.  1.
         14    1    4    4    0    0 -0.68204967850E+01  0.10015939271E+02  0.32138744034E+03  0.32161580344E+03  0.00000000000E+00 0. -1.
<mgrwt>
<rscale>  0 0.78438927E+02</rscale>
<asrwt>0</asrwt>
<pdfrwt beam="1">  1        2 0.12878598E+00 0.78438927E+02</pdfrwt>
<pdfrwt beam="2">  1       -1 0.28268842E-03 0.78438927E+02</pdfrwt>
<totfact> 0.36434035E+05</totfact>
</mgrwt>
</event>
<event>
 8    1  0.1226832E-016  0.8196583E+02  0.7818608E-02  0.1323563E+00
          2   -1    0    0  501    0  0.00000000000E+00  0.00000000000E+00  0.32690462708E+03  0.32690462709E+03  0.25500000000E-02 0. -1.
         -1   -1    0    0    0  501 -0.00000000000E+00 -0.00000000000E+00 -0.51378869333E+01  0.51378894052E+01  0.50400000000E-02 0.  1.
         24    2    1    2    0    0  0.00000000000E+00  0.00000000000E+00  0.32176674014E+03  0.33204251649E+03  0.81965832490E+02 0.  0.
         66    2    3    3    0    0 -0.89835450270E+01  0.29799745452E+02  0.26883450695E+03  0.27063761941E+03  0.20000012785E+01 0.  0.
        -13    1    3    3    0    0  0.89835450270E+01 -0.29799745452E+02  0.52932233196E+02  0.61404897080E+02  0.10566000000E+00 0.  1.
         13    1    4    4    0    0 -0.23615975678E+01  0.10194714621E+02  0.91182677949E+02  0.91781268629E+02  0.10566000000E+00 0. -1.
        -13    1    4    4    0    0 -0.10578301659E+01  0.38114950386E+01  0.37195444771E+02  0.37405330834E+02  0.10566000000E+00 0.  1.
         14    1    4    4    0    0 -0.55641172933E+01  0.15793535792E+02  0.14045638423E+03  0.14145101995E+03  0.00000000000E+00 0. -1.
<mgrwt>
<rscale>  0 0.81965832E+02</rscale>
<asrwt>0</asrwt>
<pdfrwt beam="1">  1        2 0.50293024E-01 0.81965832E+02</pdfrwt>
<pdfrwt beam="2">  1       -1 0.79044428E-03 0.81965832E+02</pdfrwt>
<totfact> 0.24676104E+05</totfact>
</mgrwt>
</event>
<event>
 8    1  0.1226832E-016  0.7971702E+02  0.7818608E-02  0.1329856E+00
         -1   -1    0    0    0  501 -0.00000000000E+00  0.00000000000E+00  0.77621025649E+02  0.77621025812E+02  0.50400000000E-02 0.  1.
          2   -1    0    0  501    0  0.00000000000E+00 -0.00000000000E+00 -0.20467400548E+02  0.20467400707E+02  0.25500000000E-02 0. -1.
         24    2    1    2    0    0  0.35527136788E-14  0.00000000000E+00  0.57153625101E+02  0.98088426519E+02  0.79717015466E+02 0.  0.
         66    2    3    3    0    0  0.26313305412E+02  0.19714920160E+02  0.92647328729E+00  0.32953398434E+02  0.19999992403E+01 0.  0.
        -13    1    3    3    0    0 -0.26313305412E+02 -0.19714920160E+02  0.56227151813E+02  0.65135028085E+02  0.10566000000E+00 0.  1.
         13    1    4    4    0    0  0.10712234953E+02  0.77780216820E+01  0.64172684567E+00  0.13254153173E+02  0.10566000000E+00 0. -1.
        -13    1    4    4    0    0  0.67137521313E+01  0.58374797840E+01  0.58003184931E+00  0.89161784915E+01  0.10566000000E+00 0.  1.
        -14    1    4    4    0    0  0.88873183282E+01  0.60994186937E+01 -0.29528540769E+00  0.10783066769E+02  0.00000000000E+00 0.  1.
<mgrwt>
<rscale>  0 0.79717015E+02</rscale>
<asrwt>0</asrwt>
<pdfrwt beam="1">  1        2 0.31488308E-02 0.79717015E+02</pdfrwt>
<pdfrwt beam="2">  1       -1 0.11941697E-01 0.79717015E+02</pdfrwt>
<totfact> 0.12601131E+05</totfact>
</mgrwt>
</event>
<event>
 8    1  0.1226832E-016  0.7866677E+02  0.7818608E-02  0.1332878E+00
         -1   -1    0    0    0  501 -0.00000000000E+00  0.00000000000E+00  0.22232925724E+01  0.22232982850E+01  0.50400000000E-02 0.  1.
          2   -1    0    0  501    0  0.00000000000E+00 -0.00000000000E+00 -0.69586570753E+03  0.69586570753E+03  0.25500000000E-02 0. -1.
         24    2    1    2    0    0 -0.55511151231E-16 -0.17763568394E-14 -0.69364241496E+03  0.69808900582E+03  0.78666766923E+02 0.  0.
         66    2    3    3    0    0  0.16801223153E+00 -0.11373658137E+02 -0.68093863133E+03  0.68103656875E+03  0.20000025817E+01 0.  0.
        -13    1    3    3    0    0 -0.16801223153E+00  0.11373658137E+02 -0.12703783630E+02  0.17052437071E+02  0.10566000000E+00 0.  1.
         13    1    4    4    0    0 -0.33400723952E+00 -0.10269343973E+02 -0.61510667082E+03  0.61519248909E+03  0.10566000000E+00 0. -1.
        -13    1    4    4    0    0  0.30532583115E+00 -0.81971619097E+00 -0.39371704163E+02  0.39381561818E+02  0.10566000000E+00 0.  1.
         14    1    4    4    0    0  0.19669363989E+00 -0.28459797255E+00 -0.26460256345E+02  0.26462517837E+02  0.00000000000E+00 0. -1.
<mgrwt>
<rscale>  0 0.78666767E+02</rscale>
<asrwt>0</asrwt>
<pdfrwt beam="1">  1        2 0.10705609E+00 0.78666767E+02</pdfrwt>
<pdfrwt beam="2">  1       -1 0.34204601E-03 0.78666767E+02</pdfrwt>
<totfact> 0.34896696E+05</totfact>
</mgrwt>
</event>
<event>
 8    1  0.1226832E-016  0.7883208E+02  0.7818608E-02  0.1332399E+00
          2   -1    0    0  501    0  0.00000000000E+00  0.00000000000E+00  0.41256335410E+01  0.41256343291E+01  0.25500000000E-02 0. -1.
         -1   -1    0    0    0  501 -0.00000000000E+00 -0.00000000000E+00 -0.37657827997E+03  0.37657828000E+03  0.50400000000E-02 0.  1.
         24    2    1    2    0    0  0.35527136788E-14  0.00000000000E+00 -0.37245264643E+03  0.38070391433E+03  0.78832078219E+02 0.  0.
         66    2    3    3    0    0  0.28728637891E+02  0.26454511355E+02 -0.16151207221E+03  0.16617859456E+03  0.20000038867E+01 0.  0.
        -13    1    3    3    0    0 -0.28728637891E+02 -0.26454511355E+02 -0.21094057422E+03  0.21452531977E+03  0.10566000000E+00 0.  1.
         13    1    4    4    0    0  0.46152578043E+01  0.45707129599E+01 -0.28438653581E+02  0.29171222173E+02  0.10566000000E+00 0. -1.
        -13    1    4    4    0    0  0.77383888815E+00  0.65146847694E+00 -0.52223397516E+01  0.53204543338E+01  0.10566000000E+00 0. -1.
         14    1    4    4    0    0  0.23339541198E+02  0.21232329918E+02 -0.12785107888E+03  0.13168691806E+03  0.00000000000E+00 0. -1.
<mgrwt>
<rscale>  0 0.78832078E+02</rscale>
<asrwt>0</asrwt>
<pdfrwt beam="1">  1        2 0.63471321E-03 0.78832078E+02</pdfrwt>
<pdfrwt beam="2">  1       -1 0.57935093E-01 0.78832078E+02</pdfrwt>
<totfact> 0.81135958E+04</totfact>
</mgrwt>
</event>
<event>
 8    1  0.1226832E-016  0.7981158E+02  0.7818608E-02  0.1329587E+00
         -1   -1    0    0    0  501 -0.00000000000E+00  0.00000000000E+00  0.21759030102E+02  0.21759030686E+02  0.50400000000E-02 0.  1.
          2   -1    0    0  501    0  0.00000000000E+00 -0.00000000000E+00 -0.73186715166E+02  0.73186715211E+02  0.25500000000E-02 0. -1.
         24    2    1    2    0    0  0.00000000000E+00  0.00000000000E+00 -0.51427685065E+02  0.94945745896E+02  0.79811577310E+02 0.  0.
         66    2    3    3    0    0 -0.81765244125E+01 -0.82842861056E+01 -0.71107222097E+02  0.72081356781E+02  0.20000033193E+01 0.  0.
        -13    1    3    3    0    0  0.81765244125E+01  0.82842861056E+01  0.19679537033E+02  0.22864389115E+02  0.10566000000E+00 0.  1.
         13    1    4    4    0    0 -0.41786085792E+01 -0.38055843529E+01 -0.30634799087E+02  0.31151971383E+02  0.10566000000E+00 0. -1.
        -13    1    4    4    0    0 -0.35130218858E+00 -0.48861905032E+00 -0.24696225370E+01  0.25440835904E+01  0.10566000000E+00 0. -1.
         14    1    4    4    0    0 -0.36466136447E+01 -0.39900827023E+01 -0.38002800474E+02  0.38385301808E+02  0.00000000000E+00 0. -1.
<mgrwt>
<rscale>  0 0.79811577E+02</rscale>
<asrwt>0</asrwt>
<pdfrwt beam="1">  1        2 0.11259495E-01 0.79811577E+02</pdfrwt>
<pdfrwt beam="2">  1       -1 0.33475432E-02 0.79811577E+02</pdfrwt>
<totfact> 0.16428865E+05</totfact>
</mgrwt>
</event>
<event>
 8    1  0.1226832E-016  0.8054375E+02  0.7818608E-02  0.1327515E+00
         -1   -1    0    0    0  501 -0.00000000000E+00  0.00000000000E+00  0.12319204764E+02  0.12319205795E+02  0.50400000000E-02 0.  1.
          2   -1    0    0  501    0  0.00000000000E+00 -0.00000000000E+00 -0.13165005804E+03  0.13165005806E+03  0.25500000000E-02 0. -1.
         24    2    1    2    0    0  0.00000000000E+00  0.35527136788E-14 -0.11933085327E+03  0.14396926386E+03  0.80543754522E+02 0.  0.
         66    2    3    3    0    0 -0.26551293637E+02 -0.25384353966E+02 -0.89099417531E+02  0.96395242677E+02  0.19999965796E+01 0.  0.
        -13    1    3    3    0    0  0.26551293637E+02  0.25384353966E+02 -0.30231435740E+02  0.47574021178E+02  0.10566000000E+00 0.  1.
         13    1    4    4    0    0 -0.31684144203E+01 -0.36241924819E+01 -0.11732445974E+02  0.12682076867E+02  0.10566000000E+00 0. -1.
        -13    1    4    4    0    0 -0.60301023048E+01 -0.57573011419E+01 -0.21805775777E+02  0.23345485035E+02  0.10566000000E+00 0.  1.
        -14    1    4    4    0    0 -0.17352776912E+02 -0.16002860343E+02 -0.55561195780E+02  0.60367680776E+02  0.00000000000E+00 0.  1.
<mgrwt>
<rscale>  0 0.80543755E+02</rscale>
<asrwt>0</asrwt>
<pdfrwt beam="1">  1        2 0.20253854E-01 0.80543755E+02</pdfrwt>
<pdfrwt beam="2">  1       -1 0.18952625E-02 0.80543755E+02</pdfrwt>
<totfact> 0.18877753E+05</totfact>
</mgrwt>
</event>
<event>
 8    1  0.1226832E-016  0.7343333E+02  0.7818608E-02  0.1348792E+00
          2   -1    0    0  501    0  0.00000000000E+00  0.00000000000E+00  0.78861740830E+02  0.78861740871E+02  0.25500000000E-02 0. -1.
         -1   -1    0    0    0  501 -0.00000000000E+00 -0.00000000000E+00 -0.17094645011E+02  0.17094645754E+02  0.50400000000E-02 0.  1.
         24    2    1    2    0    0 -0.71054273576E-14  0.00000000000E+00  0.61767095819E+02  0.95956386625E+02  0.73433330364E+02 0.  0.
         66    2    3    3    0    0  0.33835519848E+02 -0.84945549865E+01  0.45754071275E+02  0.57571129209E+02  0.20000030968E+01 0.  0.
        -13    1    3    3    0    0 -0.33835519848E+02  0.84945549865E+01  0.16013024544E+02  0.38385257416E+02  0.10566000000E+00 0.  1.
         13    1    4    4    0    0  0.85125234193E+00 -0.18170709269E+00  0.80871163262E+00  0.11928229364E+01  0.10566000000E+00 0. -1.
        -13    1    4    4    0    0  0.76707079690E+01 -0.23455747327E+01  0.10139906952E+02  0.12929437675E+02  0.10566000000E+00 0.  1.
         14    1    4    4    0    0  0.25313559537E+02 -0.59672731611E+01  0.34805452690E+02  0.43448868597E+02  0.00000000000E+00 0. -1.
<mgrwt>
<rscale>  0 0.73433330E+02</rscale>
<asrwt>0</asrwt>
<pdfrwt beam="1">  1        2 0.12132576E-01 0.73433330E+02</pdfrwt>
<pdfrwt beam="2">  1       -1 0.26299454E-02 0.73433330E+02</pdfrwt>
<totfact> 0.20927527E+05</totfact>
</mgrwt>
</event>
<event>
 8    1  0.1226832E-016  0.7865625E+02  0.7818608E-02  0.1332909E+00
         -1   -1    0    0    0  501 -0.00000000000E+00  0.00000000000E+00  0.36792324299E+02  0.36792324644E+02  0.50400000000E-02 0.  1.
          2   -1    0    0  501    0  0.00000000000E+00 -0.00000000000E+00 -0.42038694517E+02  0.42038694594E+02  0.25500000000E-02 0. -1.
         24    2    1    2    0    0  0.00000000000E+00  0.00000000000E+00 -0.52463702186E+01  0.78831019238E+02  0.78656247010E+02 0.  0.
         66    2    3    3    0    0  0.34587640837E+02  0.24108806242E+01 -0.21174895496E+02  0.40675464916E+02  0.20000007019E+01 0.  0.
        -13    1    3    3    0    0 -0.34587640837E+02 -0.24108806242E+01  0.15928525278E+02  0.38155554322E+02  0.10566000000E+00 0.  1.
         13    1    4    4    0    0  0.18135030536E+02  0.20174441364E+01 -0.11597578893E+02  0.21620925364E+02  0.10566000000E+00 0. -1.
        -13    1    4    4    0    0  0.97094068455E+01  0.47732903818E+00 -0.59326660820E+01  0.11388947062E+02  0.10566000000E+00 0.  1.
        -14    1    4    4    0    0  0.67432034551E+01 -0.83892550340E-01 -0.36446505213E+01  0.76655924898E+01  0.00000000000E+00 0.  1.
<mgrwt>
<rscale>  0 0.78656247E+02</rscale>
<asrwt>0</asrwt>
<pdfrwt beam="1">  1        2 0.64674915E-02 0.78656247E+02</pdfrwt>
<pdfrwt beam="2">  1       -1 0.56603576E-02 0.78656247E+02</pdfrwt>
<totfact> 0.15090436E+05</totfact>
</mgrwt>
</event>
<event>
 8    1  0.1771345E-016  0.8079582E+02  0.7818608E-02  0.1326808E+00
         -1   -1    0    0    0  501 -0.00000000000E+00  0.00000000000E+00  0.22026285415E+02  0.22026285991E+02  0.50400000000E-02 0.  1.
          2   -1    0    0  501    0  0.00000000000E+00 -0.00000000000E+00 -0.74092889753E+02  0.74092889797E+02  0.25500000000E-02 0. -1.
         24    2    1    2    0    0  0.00000000000E+00 -0.17763568394E-14 -0.52066604338E+02  0.96119175788E+02  0.80795820850E+02 0.  0.
         66    2    3    3    0    0  0.72834278480E+01 -0.15811523685E+02 -0.69384901407E+02  0.71563378512E+02  0.19999996093E+01 0.  0.
        -13    1    3    3    0    0 -0.72834278480E+01  0.15811523685E+02  0.17318297068E+02  0.24555797275E+02  0.10566000000E+00 0.  1.
         13    1    4    4    0    0  0.32343039350E+01 -0.74576272298E+01 -0.32728059298E+02  0.33722603032E+02  0.10566000000E+00 0. -1.
        -13    1    4    4    0    0  0.23734099362E+01 -0.36478746727E+01 -0.15282242051E+02  0.15890190386E+02  0.10566000000E+00 0.  1.
        -14    1    4    4    0    0  0.16757139768E+01 -0.47060217822E+01 -0.21374600058E+02  0.21950585094E+02  0.00000000000E+00 0.  1.
<mgrwt>
<rscale>  0 0.80795821E+02</rscale>
<asrwt>0</asrwt>
<pdfrwt beam="1">  1        2 0.11398906E-01 0.80795821E+02</pdfrwt>
<pdfrwt beam="2">  1       -1 0.33886594E-02 0.80795821E+02</pdfrwt>
<totfact> 0.15942135E+05</totfact>
</mgrwt>
</event>
<event>
 8    1  0.1226832E-016  0.8016473E+02  0.7818608E-02  0.1328585E+00
         -1   -1    0    0    0  501 -0.00000000000E+00  0.00000000000E+00  0.47323768736E+02  0.47323769004E+02  0.50400000000E-02 0.  1.
          2   -1    0    0  501    0  0.00000000000E+00 -0.00000000000E+00 -0.33949025966E+02  0.33949026062E+02  0.25500000000E-02 0. -1.
         24    2    1    2    0    0 -0.17763568394E-14  0.00000000000E+00  0.13374742770E+02  0.81272795066E+02  0.80164727117E+02 0.  0.
         66    2    3    3    0    0  0.12364254817E+02  0.27940866020E+01 -0.31832517096E+02  0.34321871478E+02  0.19999999936E+01 0.  0.
        -13    1    3    3    0    0 -0.12364254817E+02 -0.27940866020E+01  0.45207259866E+02  0.46950923588E+02  0.10566000000E+00 0.  1.
         13    1    4    4    0    0  0.86568980780E+01  0.15642171676E+01 -0.23928617941E+02  0.25494677490E+02  0.10566000000E+00 0. -1.
        -13    1    4    4    0    0  0.13367182143E+01  0.28564326866E+00 -0.30290473223E+01  0.33248608058E+01  0.10566000000E+00 0.  1.
         14    1    4    4    0    0  0.23706385246E+01  0.94422616570E+00 -0.48748518327E+01  0.55023331830E+01  0.00000000000E+00 0. -1.
<mgrwt>
<rscale>  0 0.80164727E+02</rscale>
<asrwt>0</asrwt>
<pdfrwt beam="1">  1        2 0.52229271E-02 0.80164727E+02</pdfrwt>
<pdfrwt beam="2">  1       -1 0.72805798E-02 0.80164727E+02</pdfrwt>
<totfact> 0.13710755E+05</totfact>
</mgrwt>
</event>
<event>
 8    1  0.1226832E-016  0.7930319E+02  0.7818608E-02  0.1331041E+00
          2   -1    0    0  501    0  0.00000000000E+00  0.00000000000E+00  0.24660206885E+03  0.24660206886E+03  0.25500000000E-02 0. -1.
         -1   -1    0    0    0  501 -0.00000000000E+00 -0.00000000000E+00 -0.63756504289E+01  0.63756524209E+01  0.50400000000E-02 0.  1.
         24    2    1    2    0    0  0.17763568394E-14  0.00000000000E+00  0.24022641842E+03  0.25297772128E+03  0.79303186308E+02 0.  0.
         66    2    3    3    0    0  0.87200440348E+01 -0.14284252388E+02  0.23477082309E+03  0.23537505902E+03  0.19999998505E+01 0.  0.
        -13    1    3    3    0    0 -0.87200440348E+01  0.14284252388E+02  0.54555953256E+01  0.17602662260E+02  0.10566000000E+00 0.  1.
         13    1    4    4    0    0  0.13875373205E+01 -0.23779468977E+01  0.30362106271E+02  0.30486858686E+02  0.10566000000E+00 0. -1.
        -13    1    4    4    0    0  0.48650006078E+01 -0.75570728238E+01  0.13653680043E+03  0.13683233030E+03  0.10566000000E+00 0.  1.
         14    1    4    4    0    0  0.24675061065E+01 -0.43492326663E+01  0.67871916392E+02  0.68055870032E+02  0.00000000000E+00 0. -1.
<mgrwt>
<rscale>  0 0.79303186E+02</rscale>
<asrwt>0</asrwt>
<pdfrwt beam="1">  1        2 0.37938773E-01 0.79303186E+02</pdfrwt>
<pdfrwt beam="2">  1       -1 0.98086964E-03 0.79303186E+02</pdfrwt>
<totfact> 0.24304198E+05</totfact>
</mgrwt>
</event>
<event>
 8    1  0.1226832E-016  0.7859589E+02  0.7818608E-02  0.1333084E+00
         -1   -1    0    0    0  501 -0.00000000000E+00  0.00000000000E+00  0.50871962719E+02  0.50871962969E+02  0.50400000000E-02 0.  1.
          2   -1    0    0  501    0  0.00000000000E+00 -0.00000000000E+00 -0.30357162329E+02  0.30357162436E+02  0.25500000000E-02 0. -1.
         24    2    1    2    0    0 -0.17763568394E-14  0.00000000000E+00  0.20514800390E+02  0.81229125405E+02  0.78595889072E+02 0.  0.
         66    2    3    3    0    0 -0.12398890878E+02  0.11090681433E+02 -0.26502967097E+02  0.31355110796E+02  0.19999996152E+01 0.  0.
        -13    1    3    3    0    0  0.12398890878E+02 -0.11090681433E+02  0.47017767487E+02  0.49874014608E+02  0.10566000000E+00 0.  1.
         13    1    4    4    0    0 -0.81297383875E+01  0.70423739472E+01 -0.18392230869E+02  0.21306642096E+02  0.10566000000E+00 0. -1.
        -13    1    4    4    0    0 -0.27016278294E+01  0.30171698940E+01 -0.57197087105E+01  0.70091610672E+01  0.10566000000E+00 0.  1.
         14    1    4    4    0    0 -0.15675246608E+01  0.10311375916E+01 -0.23910275181E+01  0.30393076328E+01  0.00000000000E+00 0. -1.
<mgrwt>
<rscale>  0 0.78595889E+02</rscale>
<asrwt>0</asrwt>
<pdfrwt beam="1">  1        2 0.46703327E-02 0.78595889E+02</pdfrwt>
<pdfrwt beam="2">  1       -1 0.78264558E-02 0.78595889E+02</pdfrwt>
<totfact> 0.14171465E+05</totfact>
</mgrwt>
</event>
<event>
 8    1  0.1226832E-016  0.7821437E+02  0.7818608E-02  0.1334197E+00
          2   -1    0    0  501    0  0.00000000000E+00  0.00000000000E+00  0.17361906730E+03  0.17361906732E+03  0.25500000000E-02 0. -1.
         -1   -1    0    0    0  501 -0.00000000000E+00 -0.00000000000E+00 -0.88087767789E+01  0.88087782208E+01  0.50400000000E-02 0.  1.
         24    2    1    2    0    0  0.00000000000E+00  0.00000000000E+00  0.16481029052E+03  0.18242784554E+03  0.78214365474E+02 0.  0.
         66    2    3    3    0    0  0.89931573413E+01 -0.16063549534E+02  0.16286617706E+03  0.16391554574E+03  0.20000004680E+01 0.  0.
        -13    1    3    3    0    0 -0.89931573413E+01  0.16063549534E+02  0.19441134567E+01  0.18512299797E+02  0.10566000000E+00 0.  1.
         13    1    4    4    0    0  0.28101524438E+01 -0.64425244877E+01  0.63589813306E+02  0.63977172483E+02  0.10566000000E+00 0.  1.
        -13    1    4    4    0    0  0.26207860393E+01 -0.39403273495E+01  0.36780879606E+02  0.37084214536E+02  0.10566000000E+00 0. -1.
         14    1    4    4    0    0  0.35622188582E+01 -0.56806976971E+01  0.62495484150E+02  0.62854158723E+02  0.00000000000E+00 0. -1.
<mgrwt>
<rscale>  0 0.78214365E+02</rscale>
<asrwt>0</asrwt>
<pdfrwt beam="1">  1        2 0.26710624E-01 0.78214365E+02</pdfrwt>
<pdfrwt beam="2">  1       -1 0.13551966E-02 0.78214365E+02</pdfrwt>
<totfact> 0.22308662E+05</totfact>
</mgrwt>
</event>
<event>
 8    1  0.1226832E-016  0.7758656E+02  0.7818608E-02  0.1336043E+00
         -1   -1    0    0    0  501 -0.00000000000E+00  0.00000000000E+00  0.10723031274E+02  0.10723032458E+02  0.50400000000E-02 0.  1.
          2   -1    0    0  501    0  0.00000000000E+00 -0.00000000000E+00 -0.14034449197E+03  0.14034449200E+03  0.25500000000E-02 0. -1.
         24    2    1    2    0    0 -0.17763568394E-14  0.00000000000E+00 -0.12962146070E+03  0.15106752445E+03  0.77586557283E+02 0.  0.
         66    2    3    3    0    0  0.12487474805E+02  0.36691343440E+02 -0.66507939205E+02  0.77003231642E+02  0.19999988846E+01 0.  0.
        -13    1    3    3    0    0 -0.12487474805E+02 -0.36691343440E+02 -0.63113521494E+02  0.74064292813E+02  0.10566000000E+00 0.  1.
         13    1    4    4    0    0  0.13074419993E+01  0.38440060784E+01 -0.61648485407E+01  0.73825679054E+01  0.10566000000E+00 0. -1.
        -13    1    4    4    0    0  0.17946169484E+01  0.42730762306E+01 -0.86943815362E+01  0.98530840247E+01  0.10566000000E+00 0.  1.
         14    1    4    4    0    0  0.93854158577E+01  0.28574261131E+02 -0.51648709128E+02  0.59767579712E+02  0.00000000000E+00 0. -1.
<mgrwt>
<rscale>  0 0.77586557E+02</rscale>
<asrwt>0</asrwt>
<pdfrwt beam="1">  1        2 0.21591459E-01 0.77586557E+02</pdfrwt>
<pdfrwt beam="2">  1       -1 0.16496973E-02 0.77586557E+02</pdfrwt>
<totfact> 0.21269312E+05</totfact>
</mgrwt>
</event>
<event>
 8    1  0.1226832E-016  0.7827909E+02  0.7818608E-02  0.1334007E+00
         -1   -1    0    0    0  501 -0.00000000000E+00  0.00000000000E+00  0.55080268395E+01  0.55080291454E+01  0.50400000000E-02 0.  1.
          2   -1    0    0  501    0  0.00000000000E+00 -0.00000000000E+00 -0.27812201505E+03  0.27812201506E+03  0.25500000000E-02 0. -1.
         24    2    1    2    0    0 -0.44408920985E-15  0.17763568394E-14 -0.27261398821E+03  0.28363004420E+03  0.78279086663E+02 0.  0.
         66    2    3    3    0    0  0.34403271911E+01  0.13872336270E+02 -0.26831742137E+03  0.26870525893E+03  0.20000006796E+01 0.  0.
        -13    1    3    3    0    0 -0.34403271911E+01 -0.13872336270E+02 -0.42965668378E+01  0.14924785272E+02  0.10566000000E+00 0.  1.
         13    1    4    4    0    0  0.26138300896E+01  0.91597263081E+01 -0.19179270379E+03  0.19202912562E+03  0.10566000000E+00 0. -1.
        -13    1    4    4    0    0  0.11617963486E+00  0.68364699228E+00 -0.87639447051E+01  0.87919714369E+01  0.10566000000E+00 0.  1.
         14    1    4    4    0    0  0.71031746657E+00  0.40289629698E+01 -0.67760772872E+02  0.67884161877E+02  0.00000000000E+00 0. -1.
<mgrwt>
<rscale>  0 0.78279087E+02</rscale>
<asrwt>0</asrwt>
<pdfrwt beam="1">  1        2 0.42787992E-01 0.78279087E+02</pdfrwt>
<pdfrwt beam="2">  1       -1 0.84738914E-03 0.78279087E+02</pdfrwt>
<totfact> 0.26259900E+05</totfact>
</mgrwt>
</event>
<event>
 8    1  0.1226832E-016  0.7914685E+02  0.7818608E-02  0.1331490E+00
         -1   -1    0    0    0  501 -0.00000000000E+00  0.00000000000E+00  0.68717632069E+01  0.68717650551E+01  0.50400000000E-02 0.  1.
          2   -1    0    0  501    0  0.00000000000E+00 -0.00000000000E+00 -0.22789722102E+03  0.22789722104E+03  0.25500000000E-02 0. -1.
         24    2    1    2    0    0  0.00000000000E+00 -0.17763568394E-14 -0.22102545782E+03  0.23476898609E+03  0.79146849767E+02 0.  0.
         66    2    3    3    0    0  0.17461585683E+02  0.15217174963E+02 -0.20566880979E+03  0.20697857064E+03  0.19999987309E+01 0.  0.
        -13    1    3    3    0    0 -0.17461585683E+02 -0.15217174963E+02 -0.15356648026E+02  0.27790415453E+02  0.10566000000E+00 0.  1.
         13    1    4    4    0    0  0.10846217579E+01  0.14833559616E+01 -0.17786870816E+02  0.17881853559E+02  0.10566000000E+00 0. -1.
        -13    1    4    4    0    0  0.14664403561E+02  0.12155290351E+02 -0.16999357380E+03  0.17105736498E+03  0.10566000000E+00 0.  1.
        -14    1    4    4    0    0  0.17125603642E+01  0.15785286500E+01 -0.17888365172E+02  0.18039352101E+02  0.00000000000E+00 0.  1.
<mgrwt>
<rscale>  0 0.79146850E+02</rscale>
<asrwt>0</asrwt>
<pdfrwt beam="1">  1        2 0.35061105E-01 0.79146850E+02</pdfrwt>
<pdfrwt beam="2">  1       -1 0.10571947E-02 0.79146850E+02</pdfrwt>
<totfact> 0.23754364E+05</totfact>
</mgrwt>
</event>
<event>
 8    1  0.1226832E-016  0.7987269E+02  0.7818608E-02  0.1329413E+00
          2   -1    0    0  501    0  0.00000000000E+00  0.00000000000E+00  0.52256109193E+03  0.52256109194E+03  0.25500000000E-02 0. -1.
         -1   -1    0    0    0  501 -0.00000000000E+00 -0.00000000000E+00 -0.30521032806E+01  0.30521074419E+01  0.50400000000E-02 0.  1.
         24    2    1    2    0    0 -0.35527136788E-14 -0.35527136788E-14  0.51950898865E+03  0.52561319938E+03  0.79872686652E+02 0.  0.
         66    2    3    3    0    0  0.31375170617E+02 -0.23520261376E+02  0.30885425787E+03  0.31133993742E+03  0.20000004513E+01 0.  0.
        -13    1    3    3    0    0 -0.31375170617E+02  0.23520261376E+02  0.21065473079E+03  0.21427326196E+03  0.10566000000E+00 0.  1.
         13    1    4    4    0    0  0.59208852668E+01 -0.43235873152E+01  0.53912147600E+02  0.54408465449E+02  0.10566000000E+00 0. -1.
        -13    1    4    4    0    0  0.61000630717E+01 -0.42104678725E+01  0.55500802046E+02  0.55993651435E+02  0.10566000000E+00 0.  1.
        -14    1    4    4    0    0  0.19354222279E+02 -0.14986206188E+02  0.19944130822E+03  0.20093782053E+03  0.00000000000E+00 0.  1.
<mgrwt>
<rscale>  0 0.79872687E+02</rscale>
<asrwt>0</asrwt>
<pdfrwt beam="1">  1        2 0.80394020E-01 0.79872687E+02</pdfrwt>
<pdfrwt beam="2">  1       -1 0.46955464E-03 0.79872687E+02</pdfrwt>
<totfact> 0.31005312E+05</totfact>
</mgrwt>
</event>
<event>
 8    1  0.1226832E-016  0.7011159E+02  0.7818608E-02  0.1359714E+00
         -1   -1    0    0    0  501 -0.00000000000E+00  0.00000000000E+00  0.11502527861E+02  0.11502528965E+02  0.50400000000E-02 0.  1.
          2   -1    0    0  501    0  0.00000000000E+00 -0.00000000000E+00 -0.10683813279E+03  0.10683813282E+03  0.25500000000E-02 0. -1.
         24    2    1    2    0    0  0.00000000000E+00  0.00000000000E+00 -0.95335604932E+02  0.11834066179E+03  0.70111587238E+02 0.  0.
         66    2    3    3    0    0 -0.20584039190E+02 -0.69929155729E+01 -0.94063592870E+02  0.96563776882E+02  0.19999911267E+01 0.  0.
        -13    1    3    3    0    0  0.20584039190E+02  0.69929155729E+01 -0.12720120626E+01  0.21776884908E+02  0.10566000000E+00 0.  1.
         13    1    4    4    0    0 -0.62882041744E+01 -0.26839475642E+01 -0.31667359128E+02  0.32397189453E+02  0.10566000000E+00 0. -1.
        -13    1    4    4    0    0 -0.46724907110E+01 -0.11091029498E+01 -0.21779560151E+02  0.22302974761E+02  0.10566000000E+00 0.  1.
         14    1    4    4    0    0 -0.96233443041E+01 -0.31998650589E+01 -0.40616673591E+02  0.41863612668E+02  0.00000000000E+00 0. -1.
<mgrwt>
<rscale>  0 0.70111587E+02</rscale>
<asrwt>0</asrwt>
<pdfrwt beam="1">  1        2 0.16436635E-01 0.70111587E+02</pdfrwt>
<pdfrwt beam="2">  1       -1 0.17696198E-02 0.70111587E+02</pdfrwt>
<totfact> 0.25624013E+05</totfact>
</mgrwt>
</event>
<event>
 8    1  0.1226832E-016  0.8096970E+02  0.7818608E-02  0.1326322E+00
         -1   -1    0    0    0  501 -0.00000000000E+00  0.00000000000E+00  0.18227184290E+03  0.18227184297E+03  0.50400000000E-02 0.  1.
          2   -1    0    0  501    0  0.00000000000E+00 -0.00000000000E+00 -0.89921899025E+01  0.89921902641E+01  0.25500000000E-02 0. -1.
         24    2    1    2    0    0  0.71054273576E-14  0.00000000000E+00  0.17327965300E+03  0.19126403323E+03  0.80969699677E+02 0.  0.
         66    2    3    3    0    0  0.35173764912E+02  0.16391615738E+02  0.59641923940E+02  0.71183129531E+02  0.20000085247E+01 0.  0.
        -13    1    3    3    0    0 -0.35173764912E+02 -0.16391615738E+02  0.11363772906E+03  0.12008090370E+03  0.10566000000E+00 0.  1.
         13    1    4    4    0    0  0.10634316056E+02  0.56429295428E+01  0.18080077247E+02  0.21721687069E+02  0.10566000000E+00 0. -1.
        -13    1    4    4    0    0  0.78371261919E+01  0.39512019389E+01  0.14059662502E+02  0.16574613643E+02  0.10566000000E+00 0.  1.
         14    1    4    4    0    0  0.16702322663E+02  0.67974842558E+01  0.27502184191E+02  0.32886828820E+02  0.00000000000E+00 0. -1.
<mgrwt>
<rscale>  0 0.80969700E+02</rscale>
<asrwt>0</asrwt>
<pdfrwt beam="1">  1        2 0.13834139E-02 0.80969700E+02</pdfrwt>
<pdfrwt beam="2">  1       -1 0.28041821E-01 0.80969700E+02</pdfrwt>
<totfact> 0.99272558E+04</totfact>
</mgrwt>
</event>
<event>
 8    1  0.1226832E-016  0.7995891E+02  0.7818608E-02  0.1329168E+00
          2   -1    0    0  501    0  0.00000000000E+00  0.00000000000E+00  0.50613704049E+03  0.50613704049E+03  0.25500000000E-02 0. -1.
         -1   -1    0    0    0  501 -0.00000000000E+00 -0.00000000000E+00 -0.31579509203E+01  0.31579549421E+01  0.50400000000E-02 0.  1.
         24    2    1    2    0    0  0.00000000000E+00 -0.35527136788E-14  0.50297908957E+03  0.50929499543E+03  0.79958913414E+02 0.  0.
         66    2    3    3    0    0  0.31381627688E+02 -0.22419329739E+02  0.31812086519E+03  0.32045642102E+03  0.20000008653E+01 0.  0.
        -13    1    3    3    0    0 -0.31381627688E+02  0.22419329739E+02  0.18485822438E+03  0.18883857441E+03  0.10566000000E+00 0.  1.
         13    1    4    4    0    0  0.78031835658E+01 -0.50802569488E+01  0.82042844029E+02  0.82569595523E+02  0.10566000000E+00 0. -1.
        -13    1    4    4    0    0  0.11656218079E+02 -0.87463336716E+01  0.11434083623E+03  0.11526579617E+03  0.10566000000E+00 0.  1.
         14    1    4    4    0    0  0.11922226044E+02 -0.85927391189E+01  0.12173718493E+03  0.12262102933E+03  0.00000000000E+00 0. -1.
<mgrwt>
<rscale>  0 0.79958913E+02</rscale>
<asrwt>0</asrwt>
<pdfrwt beam="1">  1        2 0.77867190E-01 0.79958913E+02</pdfrwt>
<pdfrwt beam="2">  1       -1 0.48583921E-03 0.79958913E+02</pdfrwt>
<totfact> 0.30610469E+05</totfact>
</mgrwt>
</event>
<event>
 8    1  0.1226832E-016  0.8234709E+02  0.7818608E-02  0.1322520E+00
         -1   -1    0    0    0  501 -0.00000000000E+00  0.00000000000E+00  0.25183545804E+02  0.25183546308E+02  0.50400000000E-02 0.  1.
          2   -1    0    0  501    0  0.00000000000E+00 -0.00000000000E+00 -0.67316199818E+02  0.67316199867E+02  0.25500000000E-02 0. -1.
         24    2    1    2    0    0  0.71054273576E-14  0.00000000000E+00 -0.42132654015E+02  0.92499746175E+02  0.82347085608E+02 0.  0.
         66    2    3    3    0    0  0.40410960929E+02 -0.12886559044E+01 -0.29673857684E+02  0.50192073498E+02  0.20000037380E+01 0.  0.
        -13    1    3    3    0    0 -0.40410960929E+02  0.12886559044E+01 -0.12458796331E+02  0.42307672676E+02  0.10566000000E+00 0.  1.
         13    1    4    4    0    0  0.28128016803E+02 -0.79769253838E+00 -0.21374764388E+02  0.35337138528E+02  0.10566000000E+00 0. -1.
        -13    1    4    4    0    0  0.19063454464E+01 -0.22642943292E+00 -0.15959214234E+01  0.24987101622E+01  0.10566000000E+00 0.  1.
        -14    1    4    4    0    0  0.10376598679E+02 -0.26453393311E+00 -0.67031718733E+01  0.12356224809E+02  0.00000000000E+00 0.  1.
<mgrwt>
<rscale>  0 0.82347086E+02</rscale>
<asrwt>0</asrwt>
<pdfrwt beam="1">  1        2 0.10356338E-01 0.82347086E+02</pdfrwt>
<pdfrwt beam="2">  1       -1 0.38743917E-02 0.82347086E+02</pdfrwt>
<totfact> 0.14786365E+05</totfact>
</mgrwt>
</event>
<event>
 8    1  0.1226832E-016  0.8020050E+02  0.7818608E-02  0.1328483E+00
          2   -1    0    0  501    0  0.00000000000E+00  0.00000000000E+00  0.15553079018E+02  0.15553079227E+02  0.25500000000E-02 0. -1.
         -1   -1    0    0    0  501 -0.00000000000E+00 -0.00000000000E+00 -0.10338982887E+03  0.10338982900E+03  0.50400000000E-02 0.  1.
         24    2    1    2    0    0  0.00000000000E+00 -0.17763568394E-14 -0.87836749857E+02  0.11894290822E+03  0.80200503686E+02 0.  0.
         66    2    3    3    0    0  0.32029098151E+02 -0.93499793527E+01 -0.11024811680E+02  0.35197041145E+02  0.19999976383E+01 0.  0.
        -13    1    3    3    0    0 -0.32029098151E+02  0.93499793527E+01 -0.76811938177E+02  0.83745867079E+02  0.10566000000E+00 0.  1.
         13    1    4    4    0    0  0.45150014379E+01 -0.15212948687E+01 -0.95337724852E+00  0.48600070242E+01  0.10566000000E+00 0. -1.
        -13    1    4    4    0    0  0.26089945179E+01 -0.63794608991E+00 -0.11311764981E+01  0.29162564896E+01  0.10566000000E+00 0.  1.
         14    1    4    4    0    0  0.24905102195E+02 -0.71907383941E+01 -0.89402579331E+01  0.27420777631E+02  0.00000000000E+00 0. -1.
<mgrwt>
<rscale>  0 0.80200504E+02</rscale>
<asrwt>0</asrwt>
<pdfrwt beam="1">  1        2 0.23927815E-02 0.80200504E+02</pdfrwt>
<pdfrwt beam="2">  1       -1 0.15906127E-01 0.80200504E+02</pdfrwt>
<totfact> 0.11694886E+05</totfact>
</mgrwt>
</event>
<event>
 8    1  0.1226832E-016  0.7948824E+02  0.7818608E-02  0.1330510E+00
         -1   -1    0    0    0  501 -0.00000000000E+00  0.00000000000E+00  0.10677465374E+01  0.10677584323E+01  0.50400000000E-02 0.  1.
          2   -1    0    0  501    0  0.00000000000E+00 -0.00000000000E+00 -0.14793643909E+04  0.14793643909E+04  0.25500000000E-02 0. -1.
         24    2    1    2    0    0 -0.17763568394E-14  0.22204460493E-15 -0.14782966443E+04  0.14804321493E+04  0.79488238433E+02 0.  0.
         66    2    3    3    0    0  0.15063808212E+02 -0.89088899292E+00 -0.14238934668E+04  0.14239748301E+04  0.19999963080E+01 0.  0.
        -13    1    3    3    0    0 -0.15063808212E+02  0.89088899292E+00 -0.54403177508E+02  0.56457319172E+02  0.10566000000E+00 0.  1.
         13    1    4    4    0    0  0.62125574351E+01 -0.65177744442E+00 -0.57876442559E+03  0.57879814459E+03  0.10566000000E+00 0. -1.
        -13    1    4    4    0    0  0.33846828293E+01  0.18284203112E+00 -0.38633825583E+03  0.38635313975E+03  0.10566000000E+00 0.  1.
        -14    1    4    4    0    0  0.54665679473E+01 -0.42195357963E+00 -0.45879078538E+03  0.45882354578E+03  0.00000000000E+00 0.  1.
<mgrwt>
<rscale>  0 0.79488238E+02</rscale>
<asrwt>0</asrwt>
<pdfrwt beam="1">  1        2 0.22759288E+00 0.79488238E+02</pdfrwt>
<pdfrwt beam="2">  1       -1 0.16427080E-03 0.79488238E+02</pdfrwt>
<totfact> 0.33982841E+05</totfact>
</mgrwt>
</event>
<event>
 8    1  0.1226832E-016  0.8055294E+02  0.7818608E-02  0.1327490E+00
         -1   -1    0    0    0  501 -0.00000000000E+00  0.00000000000E+00  0.12306015230E+03  0.12306015241E+03  0.50400000000E-02 0.  1.
          2   -1    0    0  501    0  0.00000000000E+00 -0.00000000000E+00 -0.13182123379E+02  0.13182123626E+02  0.25500000000E-02 0. -1.
         24    2    1    2    0    0  0.00000000000E+00  0.00000000000E+00  0.10987802892E+03  0.13624227603E+03  0.80552942455E+02 0.  0.
         66    2    3    3    0    0  0.28545575140E+02  0.22571781711E+02  0.25881081086E+02  0.44700844975E+02  0.19999984201E+01 0.  0.
        -13    1    3    3    0    0 -0.28545575140E+02 -0.22571781711E+02  0.83996947838E+02  0.91541431056E+02  0.10566000000E+00 0.  1.
         13    1    4    4    0    0  0.10638313999E+02  0.86164032922E+01  0.10549867410E+02  0.17283720572E+02  0.10566000000E+00 0. -1.
        -13    1    4    4    0    0  0.61637015179E+01  0.42896020899E+01  0.46878619430E+01  0.88531980732E+01  0.10566000000E+00 0.  1.
         14    1    4    4    0    0  0.11743559623E+02  0.96657763290E+01  0.10643351733E+02  0.18563926330E+02  0.00000000000E+00 0. -1.
<mgrwt>
<rscale>  0 0.80552942E+02</rscale>
<asrwt>0</asrwt>
<pdfrwt beam="1">  1        2 0.20280190E-02 0.80552942E+02</pdfrwt>
<pdfrwt beam="2">  1       -1 0.18932331E-01 0.80552942E+02</pdfrwt>
<totfact> 0.11124440E+05</totfact>
</mgrwt>
</event>
<event>
 8    1  0.1226832E-016  0.7947626E+02  0.7818608E-02  0.1330544E+00
          2   -1    0    0  501    0  0.00000000000E+00  0.00000000000E+00  0.12416225305E+03  0.12416225308E+03  0.25500000000E-02 0. -1.
         -1   -1    0    0    0  501 -0.00000000000E+00 -0.00000000000E+00 -0.12718187433E+02  0.12718188432E+02  0.50400000000E-02 0.  1.
         24    2    1    2    0    0  0.71054273576E-14  0.00000000000E+00  0.11144406562E+03  0.13688044151E+03  0.79476257500E+02 0.  0.
         66    2    3    3    0    0 -0.33700413943E+02 -0.63683648845E+01  0.90238986284E+02  0.96557488680E+02  0.20000008792E+01 0.  0.
        -13    1    3    3    0    0  0.33700413943E+02  0.63683648845E+01  0.21205079334E+02  0.40322952829E+02  0.10566000000E+00 0.  1.
         13    1    4    4    0    0 -0.21200346890E+02 -0.47101677975E+01  0.57033487498E+02  0.61028438037E+02  0.10566000000E+00 0. -1.
        -13    1    4    4    0    0 -0.11945966973E+02 -0.17522233551E+01  0.31620377081E+02  0.33847242493E+02  0.10566000000E+00 0.  1.
         14    1    4    4    0    0 -0.55410007981E+00  0.94026268102E-01  0.15851217051E+01  0.16818081512E+01  0.00000000000E+00 0. -1.
<mgrwt>
<rscale>  0 0.79476258E+02</rscale>
<asrwt>0</asrwt>
<pdfrwt beam="1">  1        2 0.19101885E-01 0.79476258E+02</pdfrwt>
<pdfrwt beam="2">  1       -1 0.19566443E-02 0.79476258E+02</pdfrwt>
<totfact> 0.19212685E+05</totfact>
</mgrwt>
</event>
<event>
 8    1  0.1226832E-016  0.8959396E+02  0.7818608E-02  0.1303838E+00
         -1   -1    0    0    0  501 -0.00000000000E+00  0.00000000000E+00  0.68571311135E+02  0.68571311320E+02  0.50400000000E-02 0.  1.
          2   -1    0    0  501    0  0.00000000000E+00 -0.00000000000E+00 -0.29265438982E+02  0.29265439093E+02  0.25500000000E-02 0. -1.
         24    2    1    2    0    0  0.71054273576E-14  0.00000000000E+00  0.39305872153E+02  0.97836750413E+02  0.89593962663E+02 0.  0.
         66    2    3    3    0    0  0.30509993099E+02  0.31792324639E+02  0.10984698889E+02  0.45456299823E+02  0.19999997656E+01 0.  0.
        -13    1    3    3    0    0 -0.30509993099E+02 -0.31792324639E+02  0.28321173264E+02  0.52380450589E+02  0.10566000000E+00 0.  1.
         13    1    4    4    0    0  0.87060797935E+01  0.80577076174E+01  0.31513628988E+01  0.12274556186E+02  0.10566000000E+00 0. -1.
        -13    1    4    4    0    0  0.10044881170E+02  0.10846477914E+02  0.40759497026E+01  0.15335261682E+02  0.10566000000E+00 0.  1.
         14    1    4    4    0    0  0.11759032136E+02  0.12888139108E+02  0.37573862877E+01  0.17846481955E+02  0.00000000000E+00 0. -1.
<mgrwt>
<rscale>  0 0.89593963E+02</rscale>
<asrwt>0</asrwt>
<pdfrwt beam="1">  1        2 0.45023753E-02 0.89593963E+02</pdfrwt>
<pdfrwt beam="2">  1       -1 0.10549432E-01 0.89593963E+02</pdfrwt>
<totfact> 0.97120571E+04</totfact>
</mgrwt>
</event>
<event>
 8    1  0.1226832E-016  0.7542137E+02  0.7818608E-02  0.1342571E+00
          2   -1    0    0  501    0  0.00000000000E+00  0.00000000000E+00  0.27529644836E+02  0.27529644954E+02  0.25500000000E-02 0. -1.
         -1   -1    0    0    0  501 -0.00000000000E+00 -0.00000000000E+00 -0.51656892303E+02  0.51656892548E+02  0.50400000000E-02 0.  1.
         24    2    1    2    0    0  0.88817841970E-15 -0.35527136788E-14 -0.24127247467E+02  0.79186537503E+02  0.75421373969E+02 0.  0.
         66    2    3    3    0    0 -0.66461165121E+01  0.20522107516E+02  0.20369703671E+02  0.29736384964E+02  0.20000003778E+01 0.  0.
        -13    1    3    3    0    0  0.66461165121E+01 -0.20522107516E+02 -0.44496951137E+02  0.49450152539E+02  0.10566000000E+00 0.  1.
         13    1    4    4    0    0 -0.29421575891E+01  0.80700063701E+01  0.78792710487E+01  0.11656559114E+02  0.10566000000E+00 0. -1.
        -13    1    4    4    0    0 -0.24635842945E+01  0.98939051890E+01  0.92264442482E+01  0.13751256123E+02  0.10566000000E+00 0.  1.
        -14    1    4    4    0    0 -0.12403746285E+01  0.25581959566E+01  0.32639883738E+01  0.43285697263E+01  0.00000000000E+00 0.  1.
<mgrwt>
<rscale>  0 0.75421374E+02</rscale>
<asrwt>0</asrwt>
<pdfrwt beam="1">  1        2 0.42353300E-02 0.75421374E+02</pdfrwt>
<pdfrwt beam="2">  1       -1 0.79472143E-02 0.75421374E+02</pdfrwt>
<totfact> 0.15604178E+05</totfact>
</mgrwt>
</event>
<event>
 8    1  0.1226832E-016  0.8136856E+02  0.7818608E-02  0.1325212E+00
         -1   -1    0    0    0  501 -0.00000000000E+00  0.00000000000E+00  0.22553275697E+02  0.22553276260E+02  0.50400000000E-02 0.  1.
          2   -1    0    0  501    0  0.00000000000E+00 -0.00000000000E+00 -0.73391131921E+02  0.73391131966E+02  0.25500000000E-02 0. -1.
         24    2    1    2    0    0  0.00000000000E+00  0.00000000000E+00 -0.50837856224E+02  0.95944408226E+02  0.81368555624E+02 0.  0.
         66    2    3    3    0    0 -0.37567181548E+01 -0.40466170756E+02 -0.23951358733E+02  0.47215373572E+02  0.20000023645E+01 0.  0.
        -13    1    3    3    0    0  0.37567181548E+01  0.40466170756E+02 -0.26886497491E+02  0.48729034654E+02  0.10566000000E+00 0.  1.
         13    1    4    4    0    0 -0.15234217286E+00 -0.29102903355E+01 -0.20957159219E+01  0.35911261793E+01  0.10566000000E+00 0. -1.
        -13    1    4    4    0    0 -0.40291863758E-01 -0.20663615676E+00 -0.14351540047E+00  0.27583082014E+00  0.10566000000E+00 0. -1.
         14    1    4    4    0    0 -0.35640841181E+01 -0.37349244263E+02 -0.21712127411E+02  0.43348416572E+02  0.00000000000E+00 0. -1.
<mgrwt>
<rscale>  0 0.81368556E+02</rscale>
<asrwt>0</asrwt>
<pdfrwt beam="1">  1        2 0.11290943E-01 0.81368556E+02</pdfrwt>
<pdfrwt beam="2">  1       -1 0.34697348E-02 0.81368556E+02</pdfrwt>
<totfact> 0.15602991E+05</totfact>
</mgrwt>
</event>
<event>
 8    1  0.1226832E-016  0.7935266E+02  0.7818608E-02  0.1330899E+00
          2   -1    0    0  501    0  0.00000000000E+00  0.00000000000E+00  0.84588652074E+02  0.84588652113E+02  0.25500000000E-02 0. -1.
         -1   -1    0    0    0  501 -0.00000000000E+00 -0.00000000000E+00 -0.18610195123E+02  0.18610195806E+02  0.50400000000E-02 0.  1.
         24    2    1    2    0    0  0.00000000000E+00  0.00000000000E+00  0.65978456951E+02  0.10319884792E+03  0.79352664921E+02 0.  0.
         66    2    3    3    0    0  0.36606529630E+01 -0.97498257391E+01  0.82766225849E+02  0.83442840461E+02  0.20000001936E+01 0.  0.
        -13    1    3    3    0    0 -0.36606529630E+01  0.97498257391E+01 -0.16787768898E+02  0.19756007458E+02  0.10566000000E+00 0.  1.
         13    1    4    4    0    0  0.92629500098E+00 -0.35624200449E+01  0.33814611432E+02  0.34014525858E+02  0.10566000000E+00 0. -1.
        -13    1    4    4    0    0  0.53042779338E+00 -0.52697323000E+00  0.66662853672E+01  0.67089178756E+01  0.10566000000E+00 0. -1.
         14    1    4    4    0    0  0.22039301686E+01 -0.56604324642E+01  0.42285329050E+02  0.42719396727E+02  0.00000000000E+00 0. -1.
<mgrwt>
<rscale>  0 0.79352665E+02</rscale>
<asrwt>0</asrwt>
<pdfrwt beam="1">  1        2 0.13013639E-01 0.79352665E+02</pdfrwt>
<pdfrwt beam="2">  1       -1 0.28631069E-02 0.79352665E+02</pdfrwt>
<totfact> 0.17313473E+05</totfact>
</mgrwt>
</event>
<event>
 8    1  0.1226832E-016  0.7765388E+02  0.7818608E-02  0.1335844E+00
          2   -1    0    0  501    0  0.00000000000E+00  0.00000000000E+00  0.29146456024E+02  0.29146456136E+02  0.25500000000E-02 0. -1.
         -1   -1    0    0    0  501 -0.00000000000E+00 -0.00000000000E+00 -0.51722632171E+02  0.51722632416E+02  0.50400000000E-02 0.  1.
         24    2    1    2    0    0  0.71054273576E-14 -0.88817841970E-15 -0.22576176146E+02  0.80869088552E+02  0.77653884345E+02 0.  0.
         66    2    3    3    0    0 -0.33630944993E+02  0.53230031249E+01  0.80799303829E+01  0.35052248253E+02  0.20000023092E+01 0.  0.
        -13    1    3    3    0    0  0.33630944993E+02 -0.53230031249E+01 -0.30656106529E+02  0.45816840299E+02  0.10566000000E+00 0.  1.
         13    1    4    4    0    0 -0.39803836867E+01  0.72974224924E+00  0.12838282640E+01  0.42468055160E+01  0.10566000000E+00 0. -1.
        -13    1    4    4    0    0 -0.43148528756E+00 -0.87584852123E-01  0.14640323208E+00  0.47586615941E+00  0.10566000000E+00 0. -1.
         14    1    4    4    0    0 -0.29219076019E+02  0.46808457278E+01  0.66496988868E+01  0.30329576578E+02  0.00000000000E+00 0. -1.
<mgrwt>
<rscale>  0 0.77653884E+02</rscale>
<asrwt>0</asrwt>
<pdfrwt beam="1">  1        2 0.44840702E-02 0.77653884E+02</pdfrwt>
<pdfrwt beam="2">  1       -1 0.79573281E-02 0.77653884E+02</pdfrwt>
<totfact> 0.14541624E+05</totfact>
</mgrwt>
</event>
<event>
 8    1  0.1226832E-016  0.7864947E+02  0.7818608E-02  0.1332928E+00
         -1   -1    0    0    0  501 -0.00000000000E+00  0.00000000000E+00  0.10071457744E+03  0.10071457757E+03  0.50400000000E-02 0.  1.
          2   -1    0    0  501    0  0.00000000000E+00 -0.00000000000E+00 -0.15354628149E+02  0.15354628360E+02  0.25500000000E-02 0. -1.
         24    2    1    2    0    0  0.00000000000E+00  0.00000000000E+00  0.85359949291E+02  0.11606920593E+03  0.78649473115E+02 0.  0.
         66    2    3    3    0    0 -0.17538498811E+02  0.17645086465E+02  0.87603240467E+02  0.91089383343E+02  0.20000001542E+01 0.  0.
        -13    1    3    3    0    0  0.17538498811E+02 -0.17645086465E+02 -0.22432911765E+01  0.24979822582E+02  0.10566000000E+00 0.  1.
         13    1    4    4    0    0 -0.54392424786E+01  0.43358899103E+01  0.23657014444E+02  0.24658686025E+02  0.10566000000E+00 0. -1.
        -13    1    4    4    0    0 -0.34766820651E+00  0.40785765745E+00  0.18795029151E+01  0.19572726672E+01  0.10566000000E+00 0. -1.
         14    1    4    4    0    0 -0.11751588126E+02  0.12901338897E+02  0.62066723109E+02  0.64473424651E+02  0.00000000000E+00 0. -1.
<mgrwt>
<rscale>  0 0.78649473E+02</rscale>
<asrwt>0</asrwt>
<pdfrwt beam="1">  1        2 0.23622505E-02 0.78649473E+02</pdfrwt>
<pdfrwt beam="2">  1       -1 0.15494551E-01 0.78649473E+02</pdfrwt>
<totfact> 0.12348137E+05</totfact>
</mgrwt>
</event>
<event>
 8    1  0.1226832E-016  0.7604711E+02  0.7818608E-02  0.1340659E+00
          2   -1    0    0  501    0  0.00000000000E+00  0.00000000000E+00  0.42877355653E+03  0.42877355654E+03  0.25500000000E-02 0. -1.
         -1   -1    0    0    0  501 -0.00000000000E+00 -0.00000000000E+00 -0.33719191889E+01  0.33719229556E+01  0.50400000000E-02 0.  1.
         24    2    1    2    0    0 -0.17763568394E-14  0.00000000000E+00  0.42540163734E+03  0.43214547950E+03  0.76047106414E+02 0.  0.
         66    2    3    3    0    0 -0.97560722812E+01 -0.89256832918E+01  0.41527399452E+03  0.41548927700E+03  0.20000006648E+01 0.  0.
        -13    1    3    3    0    0  0.97560722812E+01  0.89256832918E+01  0.10127642820E+02  0.16656202500E+02  0.10566000000E+00 0.  1.
         13    1    4    4    0    0 -0.41910372417E+01 -0.41464513220E+01  0.15657376981E+03  0.15668476125E+03  0.10566000000E+00 0. -1.
        -13    1    4    4    0    0 -0.40716268522E+01 -0.36905233512E+01  0.19088979814E+03  0.19096890927E+03  0.10566000000E+00 0. -1.
         14    1    4    4    0    0 -0.14934081873E+01 -0.10887086186E+01  0.67810426571E+02  0.67835606478E+02  0.00000000000E+00 0. -1.
<mgrwt>
<rscale>  0 0.76047106E+02</rscale>
<asrwt>0</asrwt>
<pdfrwt beam="1">  1        2 0.65965160E-01 0.76047106E+02</pdfrwt>
<pdfrwt beam="2">  1       -1 0.51875711E-03 0.76047106E+02</pdfrwt>
<totfact> 0.33022473E+05</totfact>
</mgrwt>
</event>
<event>
 8    1  0.1226832E-016  0.7944338E+02  0.7818608E-02  0.1330638E+00
          2   -1    0    0  501    0  0.00000000000E+00  0.00000000000E+00  0.81756671597E+02  0.81756671636E+02  0.25500000000E-02 0. -1.
         -1   -1    0    0    0  501 -0.00000000000E+00 -0.00000000000E+00 -0.19298886691E+02  0.19298887349E+02  0.50400000000E-02 0.  1.
         24    2    1    2    0    0  0.35527136788E-14 -0.35527136788E-14  0.62457784906E+02  0.10105555899E+03  0.79443383025E+02 0.  0.
         66    2    3    3    0    0 -0.16994057505E+02  0.26635939977E+02  0.61818402688E+02  0.69453482114E+02  0.19999944722E+01 0.  0.
        -13    1    3    3    0    0  0.16994057505E+02 -0.26635939977E+02  0.63938221767E+00  0.31602076871E+02  0.10566000000E+00 0.  1.
         13    1    4    4    0    0 -0.82775041826E+01  0.14232790888E+02  0.33016404501E+02  0.36894220986E+02  0.10566000000E+00 0. -1.
        -13    1    4    4    0    0 -0.54864066532E+01  0.71999540108E+01  0.17658470540E+02  0.19843707858E+02  0.10566000000E+00 0.  1.
         14    1    4    4    0    0 -0.32301466692E+01  0.52031950781E+01  0.11143527647E+02  0.12715553269E+02  0.00000000000E+00 0. -1.
<mgrwt>
<rscale>  0 0.79443383E+02</rscale>
<asrwt>0</asrwt>
<pdfrwt beam="1">  1        2 0.12577950E-01 0.79443383E+02</pdfrwt>
<pdfrwt beam="2">  1       -1 0.29690595E-02 0.79443383E+02</pdfrwt>
<totfact> 0.17108127E+05</totfact>
</mgrwt>
</event>
<event>
 8    1  0.1226832E-016  0.8043127E+02  0.7818608E-02  0.1327832E+00
          2   -1    0    0  501    0  0.00000000000E+00  0.00000000000E+00  0.13068252580E+04  0.13068252580E+04  0.25500000000E-02 0. -1.
         -1   -1    0    0    0  501 -0.00000000000E+00 -0.00000000000E+00 -0.12375721537E+01  0.12375824163E+01  0.50400000000E-02 0.  1.
         24    2    1    2    0    0 -0.11102230246E-15  0.00000000000E+00  0.13055876859E+04  0.13080628404E+04  0.80431269112E+02 0.  0.
         66    2    3    3    0    0  0.98773482547E+00 -0.20795747579E+02  0.12122912358E+04  0.12124716406E+04  0.19999992142E+01 0.  0.
        -13    1    3    3    0    0 -0.98773482547E+00  0.20795747579E+02  0.93296450022E+02  0.95591199847E+02  0.10566000000E+00 0.  1.
         13    1    4    4    0    0  0.11212748119E+01 -0.15970187511E+02  0.93711742633E+03  0.93725417366E+03  0.10566000000E+00 0. -1.
        -13    1    4    4    0    0 -0.25520169816E+00 -0.47508249367E+01  0.26665433807E+03  0.26669679908E+03  0.10566000000E+00 0.  1.
        -14    1    4    4    0    0  0.12166171176E+00 -0.74735131135E-01  0.85194714490E+01  0.85206678542E+01  0.00000000000E+00 0.  1.
<mgrwt>
<rscale>  0 0.80431269E+02</rscale>
<asrwt>0</asrwt>
<pdfrwt beam="1">  1        2 0.20105074E+00 0.80431269E+02</pdfrwt>
<pdfrwt beam="2">  1       -1 0.19039584E-03 0.80431269E+02</pdfrwt>
<totfact> 0.34101669E+05</totfact>
</mgrwt>
</event>
<event>
 8    1  0.1226832E-016  0.7891623E+02  0.7818608E-02  0.1332155E+00
          2   -1    0    0  501    0  0.00000000000E+00  0.00000000000E+00  0.19188852718E+02  0.19188852888E+02  0.25500000000E-02 0. -1.
         -1   -1    0    0    0  501 -0.00000000000E+00 -0.00000000000E+00 -0.81137883319E+02  0.81137883476E+02  0.50400000000E-02 0.  1.
         24    2    1    2    0    0  0.00000000000E+00  0.00000000000E+00 -0.61949030601E+02  0.10032673636E+03  0.78916231772E+02 0.  0.
         66    2    3    3    0    0  0.29822311303E+02  0.30642087024E+01  0.15714110488E+01  0.30087023253E+02  0.20000022788E+01 0.  0.
        -13    1    3    3    0    0 -0.29822311303E+02 -0.30642087024E+01 -0.63520441650E+02  0.70239713111E+02  0.10566000000E+00 0.  1.
         13    1    4    4    0    0  0.27517751690E+01  0.52970811790E+00 -0.20192336071E+00  0.28115466118E+01  0.10566000000E+00 0. -1.
        -13    1    4    4    0    0  0.12666914021E+01  0.33558379985E+00  0.20641119109E+00  0.13307491162E+01  0.10566000000E+00 0.  1.
         14    1    4    4    0    0  0.25803844732E+02  0.21989167846E+01  0.15669232185E+01  0.25944727525E+02  0.00000000000E+00 0. -1.
<mgrwt>
<rscale>  0 0.78916232E+02</rscale>
<asrwt>0</asrwt>
<pdfrwt beam="1">  1        2 0.29521313E-02 0.78916232E+02</pdfrwt>
<pdfrwt beam="2">  1       -1 0.12482751E-01 0.78916232E+02</pdfrwt>
<totfact> 0.12804394E+05</totfact>
</mgrwt>
</event>
<event>
 8    1  0.1226832E-016  0.8042549E+02  0.7818608E-02  0.1327848E+00
         -1   -1    0    0    0  501 -0.00000000000E+00  0.00000000000E+00  0.27989798460E+01  0.27989843836E+01  0.50400000000E-02 0.  1.
          2   -1    0    0  501    0  0.00000000000E+00 -0.00000000000E+00 -0.57773325065E+03  0.57773325066E+03  0.25500000000E-02 0. -1.
         24    2    1    2    0    0  0.00000000000E+00  0.35527136788E-14 -0.57493427081E+03  0.58053223504E+03  0.80425494557E+02 0.  0.
         66    2    3    3    0    0 -0.15222843763E+02 -0.23343337403E+02 -0.49665186833E+03  0.49743715651E+03  0.19999989674E+01 0.  0.
        -13    1    3    3    0    0  0.15222843763E+02  0.23343337403E+02 -0.78282402482E+02  0.83095078529E+02  0.10566000000E+00 0.  1.
         13    1    4    4    0    0 -0.15952304923E+01 -0.20596637663E+01 -0.44735797481E+02  0.44811714043E+02  0.10566000000E+00 0. -1.
        -13    1    4    4    0    0 -0.11546617178E+02 -0.18073770930E+02 -0.37180091601E+03  0.37241900848E+03  0.10566000000E+00 0.  1.
         14    1    4    4    0    0 -0.20809960928E+01 -0.32099027072E+01 -0.80115154829E+02  0.80206433990E+02  0.00000000000E+00 0. -1.
<mgrwt>
<rscale>  0 0.80425495E+02</rscale>
<asrwt>0</asrwt>
<pdfrwt beam="1">  1        2 0.88881944E-01 0.80425495E+02</pdfrwt>
<pdfrwt beam="2">  1       -1 0.43061309E-03 0.80425495E+02</pdfrwt>
<totfact> 0.31384197E+05</totfact>
</mgrwt>
</event>
<event>
 8    1  0.1226832E-016  0.7991644E+02  0.7818608E-02  0.1329289E+00
         -1   -1    0    0    0  501 -0.00000000000E+00  0.00000000000E+00  0.24773675772E+01  0.24773727040E+01  0.50400000000E-02 0.  1.
          2   -1    0    0  501    0  0.00000000000E+00 -0.00000000000E+00 -0.64449765160E+03  0.64449765161E+03  0.25500000000E-02 0. -1.
         24    2    1    2    0    0  0.00000000000E+00  0.88817841970E-15 -0.64202028402E+03  0.64697502431E+03  0.79916437502E+02 0.  0.
         66    2    3    3    0    0  0.18676552487E+02  0.73095617529E+01 -0.60076377744E+03  0.60110178804E+03  0.20000005811E+01 0.  0.
        -13    1    3    3    0    0 -0.18676552487E+02 -0.73095617529E+01 -0.41256506585E+02  0.45873236265E+02  0.10566000000E+00 0.  1.
         13    1    4    4    0    0  0.60925376548E+01  0.28952550923E+01 -0.18967394658E+03  0.18979388476E+03  0.10566000000E+00 0. -1.
        -13    1    4    4    0    0  0.60158837321E+01  0.26358050367E+01 -0.21270094181E+03  0.21280234993E+03  0.10566000000E+00 0.  1.
         14    1    4    4    0    0  0.65681310999E+01  0.17785016239E+01 -0.19838888905E+03  0.19850555335E+03  0.00000000000E+00 0. -1.
<mgrwt>
<rscale>  0 0.79916438E+02</rscale>
<asrwt>0</asrwt>
<pdfrwt beam="1">  1        2 0.99153351E-01 0.79916438E+02</pdfrwt>
<pdfrwt beam="2">  1       -1 0.38113438E-03 0.79916438E+02</pdfrwt>
<totfact> 0.32875204E+05</totfact>
</mgrwt>
</event>
<event>
 8    1  0.1226832E-016  0.9010375E+02  0.7818608E-02  0.1302601E+00
         -1   -1    0    0    0  501 -0.00000000000E+00  0.00000000000E+00  0.13605163865E+03  0.13605163874E+03  0.50400000000E-02 0.  1.
          2   -1    0    0  501    0  0.00000000000E+00 -0.00000000000E+00 -0.14918390352E+02  0.14918390570E+02  0.25500000000E-02 0. -1.
         24    2    1    2    0    0  0.00000000000E+00  0.00000000000E+00  0.12113324830E+03  0.15097002931E+03  0.90103750797E+02 0.  0.
         66    2    3    3    0    0 -0.17511470591E+02  0.14541479868E+02 -0.45024330762E+01  0.23289013350E+02  0.20000000555E+01 0.  0.
        -13    1    3    3    0    0  0.17511470591E+02 -0.14541479868E+02  0.12563568137E+03  0.12768101596E+03  0.10566000000E+00 0.  1.
         13    1    4    4    0    0 -0.58313984345E+01  0.51505952324E+01 -0.14424497753E+01  0.79136378701E+01  0.10566000000E+00 0. -1.
        -13    1    4    4    0    0 -0.56255646511E+01  0.50309251608E+01 -0.22188588477E+01  0.78671268097E+01  0.10566000000E+00 0.  1.
        -14    1    4    4    0    0 -0.60545075055E+01  0.43599594745E+01 -0.84112445310E+00  0.75082486705E+01  0.00000000000E+00 0.  1.
<mgrwt>
<rscale>  0 0.90103751E+02</rscale>
<asrwt>0</asrwt>
<pdfrwt beam="1">  1        2 0.22951371E-02 0.90103751E+02</pdfrwt>
<pdfrwt beam="2">  1       -1 0.20931021E-01 0.90103751E+02</pdfrwt>
<totfact> 0.81883507E+04</totfact>
</mgrwt>
</event>
<event>
 8    1  0.1226832E-016  0.8161488E+02  0.7818608E-02  0.1324530E+00
         -1   -1    0    0    0  501 -0.00000000000E+00  0.00000000000E+00  0.40122635925E+02  0.40122636242E+02  0.50400000000E-02 0.  1.
          2   -1    0    0  501    0  0.00000000000E+00 -0.00000000000E+00 -0.41503935013E+02  0.41503935091E+02  0.25500000000E-02 0. -1.
         24    2    1    2    0    0  0.00000000000E+00  0.00000000000E+00 -0.13812990881E+01  0.81626571333E+02  0.81614883204E+02 0.  0.
         66    2    3    3    0    0 -0.23436009250E+01 -0.38869380088E+02 -0.12813901754E+02  0.41042870892E+02  0.19999998087E+01 0.  0.
        -13    1    3    3    0    0  0.23436009250E+01  0.38869380088E+02  0.11432602666E+02  0.40583700441E+02  0.10566000000E+00 0.  1.
         13    1    4    4    0    0 -0.48095902264E+00 -0.90850470666E+01 -0.28326204847E+01  0.95291292692E+01  0.10566000000E+00 0.  1.
        -13    1    4    4    0    0 -0.11637463190E+01 -0.83616777546E+01 -0.23835390012E+01  0.87729346614E+01  0.10566000000E+00 0.  1.
         14    1    4    4    0    0 -0.69889558339E+00 -0.21422655267E+02 -0.75977422678E+01  0.22740806962E+02  0.00000000000E+00 0. -1.
<mgrwt>
<rscale>  0 0.81614883E+02</rscale>
<asrwt>0</asrwt>
<pdfrwt beam="1">  1        2 0.63852208E-02 0.81614883E+02</pdfrwt>
<pdfrwt beam="2">  1       -1 0.61727133E-02 0.81614883E+02</pdfrwt>
<totfact> 0.13592211E+05</totfact>
</mgrwt>
</event>
<event>
 8    1  0.1226832E-016  0.7950336E+02  0.7818608E-02  0.1330467E+00
          2   -1    0    0  501    0  0.00000000000E+00  0.00000000000E+00  0.45067713465E+03  0.45067713466E+03  0.25500000000E-02 0. -1.
         -1   -1    0    0    0  501 -0.00000000000E+00 -0.00000000000E+00 -0.35062692200E+01  0.35062728423E+01  0.50400000000E-02 0.  1.
         24    2    1    2    0    0 -0.71054273576E-14  0.35527136788E-14  0.44717086543E+03  0.45418340750E+03  0.79503363189E+02 0.  0.
         66    2    3    3    0    0 -0.22520366108E+02  0.22484662867E+02  0.35957299847E+03  0.36098402760E+03  0.19999996756E+01 0.  0.
        -13    1    3    3    0    0  0.22520366108E+02 -0.22484662867E+02  0.87597866954E+02  0.93199379895E+02  0.10566000000E+00 0.  1.
         13    1    4    4    0    0 -0.21960630320E+01  0.25773171123E+01  0.44241612096E+02  0.44371124182E+02  0.10566000000E+00 0. -1.
        -13    1    4    4    0    0 -0.80440407115E+01  0.81822535363E+01  0.12447360645E+03  0.12500138291E+03  0.10566000000E+00 0.  1.
         14    1    4    4    0    0 -0.12280262364E+02  0.11725092219E+02  0.19085777993E+03  0.19161152051E+03  0.00000000000E+00 0. -1.
<mgrwt>
<rscale>  0 0.79503363E+02</rscale>
<asrwt>0</asrwt>
<pdfrwt beam="1">  1        2 0.69334907E-01 0.79503363E+02</pdfrwt>
<pdfrwt beam="2">  1       -1 0.53942660E-03 0.79503363E+02</pdfrwt>
<totfact> 0.29915275E+05</totfact>
</mgrwt>
</event>
<event>
 8    1  0.1226832E-016  0.7908007E+02  0.7818608E-02  0.1331683E+00
         -1   -1    0    0    0  501 -0.00000000000E+00  0.00000000000E+00  0.12096640478E+02  0.12096641528E+02  0.50400000000E-02 0.  1.
          2   -1    0    0  501    0  0.00000000000E+00 -0.00000000000E+00 -0.12924369149E+03  0.12924369151E+03  0.25500000000E-02 0. -1.
         24    2    1    2    0    0  0.35527136788E-14 -0.17763568394E-14 -0.11714705101E+03  0.14134033304E+03  0.79080074507E+02 0.  0.
         66    2    3    3    0    0 -0.31661939782E+02  0.95290476326E+01 -0.97281542532E+02  0.10276662735E+03  0.20000000963E+01 0.  0.
        -13    1    3    3    0    0  0.31661939782E+02 -0.95290476326E+01 -0.19865508479E+02  0.38573705691E+02  0.10566000000E+00 0.  1.
         13    1    4    4    0    0 -0.88098035864E+01  0.20131267320E+01 -0.25544280701E+02  0.27095880850E+02  0.10566000000E+00 0. -1.
        -13    1    4    4    0    0 -0.97365049697E+01  0.37453778790E+01 -0.31221181193E+02  0.32918090825E+02  0.10566000000E+00 0.  1.
        -14    1    4    4    0    0 -0.13115631226E+02  0.37705430216E+01 -0.40516080638E+02  0.42752655677E+02  0.00000000000E+00 0.  1.
<mgrwt>
<rscale>  0 0.79080075E+02</rscale>
<asrwt>0</asrwt>
<pdfrwt beam="1">  1        2 0.19883644E-01 0.79080075E+02</pdfrwt>
<pdfrwt beam="2">  1       -1 0.18610218E-02 0.79080075E+02</pdfrwt>
<totfact> 0.19709361E+05</totfact>
</mgrwt>
</event>
<event>
 8    1  0.1226832E-016  0.7767801E+02  0.7818608E-02  0.1335773E+00
          2   -1    0    0  501    0  0.00000000000E+00  0.00000000000E+00  0.82184258509E+02  0.82184258549E+02  0.25500000000E-02 0. -1.
         -1   -1    0    0    0  501 -0.00000000000E+00 -0.00000000000E+00 -0.18354711472E+02  0.18354712164E+02  0.50400000000E-02 0.  1.
         24    2    1    2    0    0 -0.17763568394E-14  0.00000000000E+00  0.63829547037E+02  0.10053897071E+03  0.77678012057E+02 0.  0.
         66    2    3    3    0    0  0.14962993586E+02  0.80881603211E+01  0.77091208830E+02  0.78970652467E+02  0.19999894219E+01 0.  0.
        -13    1    3    3    0    0 -0.14962993586E+02 -0.80881603211E+01 -0.13261661793E+02  0.21568318246E+02  0.10566000000E+00 0.  1.
         13    1    4    4    0    0  0.32360664002E+01  0.25422069415E+01  0.20210869518E+02  0.20625841863E+02  0.10566000000E+00 0. -1.
        -13    1    4    4    0    0  0.32732811254E+01  0.12297428415E+01  0.15427053692E+02  0.15818716334E+02  0.10566000000E+00 0.  1.
         14    1    4    4    0    0  0.84536460600E+01  0.43162105381E+01  0.41453285621E+02  0.42526094270E+02  0.00000000000E+00 0. -1.
<mgrwt>
<rscale>  0 0.77678012E+02</rscale>
<asrwt>0</asrwt>
<pdfrwt beam="1">  1        2 0.12643732E-01 0.77678012E+02</pdfrwt>
<pdfrwt beam="2">  1       -1 0.28238018E-02 0.77678012E+02</pdfrwt>
<totfact> 0.18197681E+05</totfact>
</mgrwt>
</event>
<event>
 8    1  0.1226832E-016  0.7962512E+02  0.7818608E-02  0.1330119E+00
         -1   -1    0    0    0  501 -0.00000000000E+00  0.00000000000E+00  0.12133191873E+03  0.12133191883E+03  0.50400000000E-02 0.  1.
          2   -1    0    0  501    0  0.00000000000E+00 -0.00000000000E+00 -0.13063667436E+02  0.13063667684E+02  0.25500000000E-02 0. -1.
         24    2    1    2    0    0  0.00000000000E+00  0.00000000000E+00  0.10826825129E+03  0.13439558652E+03  0.79625118130E+02 0.  0.
         66    2    3    3    0    0  0.27056145529E+02  0.24158813572E+02  0.26570265182E+02  0.45007358083E+02  0.20000014137E+01 0.  0.
        -13    1    3    3    0    0 -0.27056145529E+02 -0.24158813572E+02  0.81697986109E+02  0.89388228433E+02  0.10566000000E+00 0.  1.
         13    1    4    4    0    0  0.63014022892E+00  0.46914534798E+00  0.55651436693E+00  0.96852792517E+00  0.10566000000E+00 0. -1.
        -13    1    4    4    0    0  0.69361537341E+01  0.62466477050E+01  0.58927565986E+01  0.11039319750E+02  0.10566000000E+00 0.  1.
         14    1    4    4    0    0  0.19489851566E+02  0.17443020519E+02  0.20120994217E+02  0.32999510408E+02  0.00000000000E+00 0. -1.
<mgrwt>
<rscale>  0 0.79625118E+02</rscale>
<asrwt>0</asrwt>
<pdfrwt beam="1">  1        2 0.20097951E-02 0.79625118E+02</pdfrwt>
<pdfrwt beam="2">  1       -1 0.18666448E-01 0.79625118E+02</pdfrwt>
<totfact> 0.11490373E+05</totfact>
</mgrwt>
</event>
<event>
 8    1  0.1226832E-016  0.7149046E+02  0.7818608E-02  0.1355097E+00
          2   -1    0    0  501    0  0.00000000000E+00  0.00000000000E+00  0.21571536054E+01  0.21571551126E+01  0.25500000000E-02 0. -1.
         -1   -1    0    0    0  501 -0.00000000000E+00 -0.00000000000E+00 -0.59231799963E+03  0.59231799965E+03  0.50400000000E-02 0.  1.
         24    2    1    2    0    0 -0.35527136788E-14  0.17763568394E-14 -0.59016084603E+03  0.59447515476E+03  0.71490457065E+02 0.  0.
         66    2    3    3    0    0  0.31655924375E+02 -0.11333596173E+02 -0.39550017118E+03  0.39693190014E+03  0.19999999253E+01 0.  0.
        -13    1    3    3    0    0 -0.31655924375E+02  0.11333596173E+02 -0.19466067485E+03  0.19754325462E+03  0.10566000000E+00 0.  1.
         13    1    4    4    0    0  0.28560185675E+01 -0.11021287074E+01 -0.35215969719E+02  0.35348935162E+02  0.10566000000E+00 0. -1.
        -13    1    4    4    0    0  0.28285274788E+02 -0.97621415589E+01 -0.35208824739E+03  0.35335746956E+03  0.10566000000E+00 0.  1.
        -14    1    4    4    0    0  0.51463101906E+00 -0.46932590617E+00 -0.81959540640E+01  0.82254954204E+01  0.00000000000E+00 0.  1.
<mgrwt>
<rscale>  0 0.71490457E+02</rscale>
<asrwt>0</asrwt>
<pdfrwt beam="1">  1        2 0.33187037E-03 0.71490457E+02</pdfrwt>
<pdfrwt beam="2">  1       -1 0.91125717E-01 0.71490457E+02</pdfrwt>
<totfact> 0.79546160E+04</totfact>
</mgrwt>
</event>
<event>
 8    1  0.1226832E-016  0.7831289E+02  0.7818608E-02  0.1333909E+00
          2   -1    0    0  501    0  0.00000000000E+00  0.00000000000E+00  0.26050210734E+03  0.26050210736E+03  0.25500000000E-02 0. -1.
         -1   -1    0    0    0  501 -0.00000000000E+00 -0.00000000000E+00 -0.58856604322E+01  0.58856625901E+01  0.50400000000E-02 0.  1.
         24    2    1    2    0    0  0.34694469520E-16  0.00000000000E+00  0.25461644691E+03  0.26638776995E+03  0.78312891270E+02 0.  0.
         66    2    3    3    0    0  0.59042719343E-01 -0.24696533879E+02  0.23063900525E+03  0.23196610316E+03  0.20000000620E+01 0.  0.
        -13    1    3    3    0    0 -0.59042719343E-01  0.24696533879E+02  0.23977441658E+02  0.34421666784E+02  0.10566000000E+00 0.  1.
         13    1    4    4    0    0 -0.11490645089E+00 -0.15390663138E+02  0.14988306925E+03  0.15067126909E+03  0.10566000000E+00 0. -1.
        -13    1    4    4    0    0 -0.23597743839E+00 -0.51259217519E+01  0.46496869481E+02  0.46779277407E+02  0.10566000000E+00 0.  1.
         14    1    4    4    0    0  0.40992660863E+00 -0.41799489896E+01  0.34259066521E+02  0.34515556670E+02  0.00000000000E+00 0. -1.
<mgrwt>
<rscale>  0 0.78312891E+02</rscale>
<asrwt>0</asrwt>
<pdfrwt beam="1">  1        2 0.40077227E-01 0.78312891E+02</pdfrwt>
<pdfrwt beam="2">  1       -1 0.90548685E-03 0.78312891E+02</pdfrwt>
<totfact> 0.25617725E+05</totfact>
</mgrwt>
</event>
<event>
 8    1  0.1226832E-016  0.7709186E+02  0.7818608E-02  0.1337513E+00
         -1   -1    0    0    0  501 -0.00000000000E+00  0.00000000000E+00  0.10370379048E+03  0.10370379060E+03  0.50400000000E-02 0.  1.
          2   -1    0    0  501    0  0.00000000000E+00 -0.00000000000E+00 -0.14327234703E+02  0.14327234930E+02  0.25500000000E-02 0. -1.
         24    2    1    2    0    0  0.00000000000E+00  0.00000000000E+00  0.89376555772E+02  0.11803102553E+03  0.77091856025E+02 0.  0.
         66    2    3    3    0    0 -0.27024991399E+02  0.40555407356E+01  0.31542724926E+01  0.27581642617E+02  0.20000009361E+01 0.  0.
        -13    1    3    3    0    0  0.27024991399E+02 -0.40555407356E+01  0.86222283280E+02  0.90449382910E+02  0.10566000000E+00 0.  1.
         13    1    4    4    0    0 -0.56141488440E+01  0.24407331974E+00  0.72064358261E+00  0.56664565856E+01  0.10566000000E+00 0.  1.
        -13    1    4    4    0    0 -0.71939479923E+01  0.10389030446E+01  0.31328380689E+00  0.72760922225E+01  0.10566000000E+00 0. -1.
        -14    1    4    4    0    0 -0.14216894563E+02  0.27725643713E+01  0.21203451031E+01  0.14639093809E+02  0.00000000000E+00 0.  1.
<mgrwt>
<rscale>  0 0.77091856E+02</rscale>
<asrwt>0</asrwt>
<pdfrwt beam="1">  1        2 0.22041900E-02 0.77091856E+02</pdfrwt>
<pdfrwt beam="2">  1       -1 0.15954430E-01 0.77091856E+02</pdfrwt>
<totfact> 0.12899363E+05</totfact>
</mgrwt>
</event>
<event>
 8    1  0.1226832E-016  0.7952507E+02  0.7818608E-02  0.1330405E+00
          2   -1    0    0  501    0  0.00000000000E+00  0.00000000000E+00  0.59413235389E+02  0.59413235444E+02  0.25500000000E-02 0. -1.
         -1   -1    0    0    0  501 -0.00000000000E+00 -0.00000000000E+00 -0.26611225145E+02  0.26611225622E+02  0.50400000000E-02 0.  1.
         24    2    1    2    0    0 -0.35527136788E-14  0.00000000000E+00  0.32802010244E+02  0.86024461066E+02  0.79525065392E+02 0.  0.
         66    2    3    3    0    0 -0.21602805145E+02  0.89801364709E+01  0.51157041008E+02  0.56288248133E+02  0.19999980062E+01 0.  0.
        -13    1    3    3    0    0  0.21602805145E+02 -0.89801364709E+01 -0.18355030764E+02  0.29736212933E+02  0.10566000000E+00 0.  1.
         13    1    4    4    0    0 -0.14705315188E+02  0.55160543907E+01  0.33584278387E+02  0.37075437551E+02  0.10566000000E+00 0. -1.
        -13    1    4    4    0    0 -0.16138622847E+01  0.88927004755E+00  0.51234830448E+01  0.54457869254E+01  0.10566000000E+00 0.  1.
         14    1    4    4    0    0 -0.52836276728E+01  0.25748120326E+01  0.12449279577E+02  0.13767023657E+02  0.00000000000E+00 0. -1.
<mgrwt>
<rscale>  0 0.79525065E+02</rscale>
<asrwt>0</asrwt>
<pdfrwt beam="1">  1        2 0.91404978E-02 0.79525065E+02</pdfrwt>
<pdfrwt beam="2">  1       -1 0.40940347E-02 0.79525065E+02</pdfrwt>
<totfact> 0.15784598E+05</totfact>
</mgrwt>
</event>
<event>
 8    1  0.1226832E-016  0.7934236E+02  0.7818608E-02  0.1330928E+00
          2   -1    0    0  501    0  0.00000000000E+00  0.00000000000E+00  0.20015586913E+03  0.20015586914E+03  0.25500000000E-02 0. -1.
         -1   -1    0    0    0  501 -0.00000000000E+00 -0.00000000000E+00 -0.78628846309E+01  0.78628862462E+01  0.50400000000E-02 0.  1.
         24    2    1    2    0    0  0.00000000000E+00  0.00000000000E+00  0.19229298450E+03  0.20801875539E+03  0.79342363888E+02 0.  0.
         66    2    3    3    0    0  0.31539305905E+02  0.47261646410E+01  0.34457057409E+02  0.46993119254E+02  0.20000006927E+01 0.  0.
        -13    1    3    3    0    0 -0.31539305905E+02 -0.47261646410E+01  0.15783592709E+03  0.16102563614E+03  0.10566000000E+00 0.  1.
         13    1    4    4    0    0  0.23254831965E+02  0.38648404355E+01  0.24481443977E+02  0.33986415882E+02  0.10566000000E+00 0. -1.
        -13    1    4    4    0    0  0.41529347222E+01  0.57783097858E+00  0.53504562593E+01  0.67984778933E+01  0.10566000000E+00 0.  1.
         14    1    4    4    0    0  0.41315392186E+01  0.28349322696E+00  0.46251571726E+01  0.62082254788E+01  0.00000000000E+00 0. -1.
<mgrwt>
<rscale>  0 0.79342364E+02</rscale>
<asrwt>0</asrwt>
<pdfrwt beam="1">  1        2 0.30793211E-01 0.79342364E+02</pdfrwt>
<pdfrwt beam="2">  1       -1 0.12096747E-02 0.79342364E+02</pdfrwt>
<totfact> 0.22550165E+05</totfact>
</mgrwt>
</event>
<event>
 8    1  0.1226832E-016  0.7656409E+02  0.7818608E-02  0.1339095E+00
          2   -1    0    0  501    0  0.00000000000E+00  0.00000000000E+00  0.89239095177E+02  0.89239095214E+02  0.25500000000E-02 0. -1.
         -1   -1    0    0    0  501 -0.00000000000E+00 -0.00000000000E+00 -0.16422340489E+02  0.16422341263E+02  0.50400000000E-02 0.  1.
         24    2    1    2    0    0  0.00000000000E+00  0.35527136788E-14  0.72816754688E+02  0.10566143648E+03  0.76564086849E+02 0.  0.
         66    2    3    3    0    0  0.15695453176E+02 -0.18592155584E+02  0.77173404028E+02  0.80942879538E+02  0.19999897655E+01 0.  0.
        -13    1    3    3    0    0 -0.15695453176E+02  0.18592155584E+02 -0.43566493397E+01  0.24718556939E+02  0.10566000000E+00 0.  1.
         13    1    4    4    0    0  0.80966570861E+01 -0.10200405302E+02  0.41919802494E+02  0.43896299724E+02  0.10566000000E+00 0. -1.
        -13    1    4    4    0    0  0.32648271843E+00 -0.75813333538E+00  0.21954402514E+01  0.23478669155E+01  0.10566000000E+00 0.  1.
         14    1    4    4    0    0  0.72723133711E+01 -0.76336169460E+01  0.33058161282E+02  0.34698712898E+02  0.00000000000E+00 0. -1.
<mgrwt>
<rscale>  0 0.76564087E+02</rscale>
<asrwt>0</asrwt>
<pdfrwt beam="1">  1        2 0.13729092E-01 0.76564087E+02</pdfrwt>
<pdfrwt beam="2">  1       -1 0.25265140E-02 0.76564087E+02</pdfrwt>
<totfact> 0.19326472E+05</totfact>
</mgrwt>
</event>
<event>
 8    1  0.1226832E-016  0.7219808E+02  0.7818608E-02  0.1352774E+00
          2   -1    0    0  501    0  0.00000000000E+00  0.00000000000E+00  0.43155696036E+03  0.43155696037E+03  0.25500000000E-02 0. -1.
         -1   -1    0    0    0  501 -0.00000000000E+00 -0.00000000000E+00 -0.30196239563E+01  0.30196281624E+01  0.50400000000E-02 0.  1.
         24    2    1    2    0    0  0.00000000000E+00  0.00000000000E+00  0.42853733640E+03  0.43457658853E+03  0.72198078966E+02 0.  0.
         66    2    3    3    0    0 -0.87400292304E+01 -0.32170503065E+02  0.29735967658E+03  0.29922918745E+03  0.19999968922E+01 0.  0.
        -13    1    3    3    0    0  0.87400292304E+01  0.32170503065E+02  0.13117765983E+03  0.13534740108E+03  0.10566000000E+00 0.  1.
         13    1    4    4    0    0 -0.40971017540E+01 -0.12750961295E+02  0.11896220206E+03  0.11971378341E+03  0.10566000000E+00 0. -1.
        -13    1    4    4    0    0 -0.43847805595E+01 -0.17977582155E+02  0.16776805760E+03  0.16878552093E+03  0.10566000000E+00 0.  1.
        -14    1    4    4    0    0 -0.25814691694E+00 -0.14419596140E+01  0.10629416919E+02  0.10729883103E+02  0.00000000000E+00 0.  1.
<mgrwt>
<rscale>  0 0.72198079E+02</rscale>
<asrwt>0</asrwt>
<pdfrwt beam="1">  1        2 0.66393403E-01 0.72198079E+02</pdfrwt>
<pdfrwt beam="2">  1       -1 0.46455768E-03 0.72198079E+02</pdfrwt>
<totfact> 0.37857021E+05</totfact>
</mgrwt>
</event>
<event>
 8    1  0.1226832E-016  0.8249986E+02  0.7818608E-02  0.1322103E+00
          2   -1    0    0  501    0  0.00000000000E+00  0.00000000000E+00  0.17356790986E+02  0.17356791174E+02  0.25500000000E-02 0. -1.
         -1   -1    0    0    0  501 -0.00000000000E+00 -0.00000000000E+00 -0.98034059530E+02  0.98034059660E+02  0.50400000000E-02 0.  1.
         24    2    1    2    0    0  0.00000000000E+00  0.00000000000E+00 -0.80677268544E+02  0.11539085083E+03  0.82499859372E+02 0.  0.
         66    2    3    3    0    0  0.24982849250E+02 -0.21773509028E+02 -0.74660541062E+02  0.81709392645E+02  0.20000006695E+01 0.  0.
        -13    1    3    3    0    0 -0.24982849250E+02  0.21773509028E+02 -0.60167274819E+01  0.33681458189E+02  0.10566000000E+00 0.  1.
         13    1    4    4    0    0  0.53952627799E+01 -0.44301240671E+01 -0.15138472087E+02  0.16670913619E+02  0.10566000000E+00 0. -1.
        -13    1    4    4    0    0  0.97293213088E+01 -0.94978687739E+01 -0.29725662691E+02  0.32687847755E+02  0.10566000000E+00 0.  1.
        -14    1    4    4    0    0  0.98582651616E+01 -0.78455161874E+01 -0.29796406284E+02  0.32350631272E+02  0.00000000000E+00 0.  1.
<mgrwt>
<rscale>  0 0.82499859E+02</rscale>
<asrwt>0</asrwt>
<pdfrwt beam="1">  1        2 0.26702756E-02 0.82499859E+02</pdfrwt>
<pdfrwt beam="2">  1       -1 0.15082163E-01 0.82499859E+02</pdfrwt>
<totfact> 0.11025389E+05</totfact>
</mgrwt>
</event>
<event>
 8    1  0.1226832E-016  0.7233968E+02  0.7818608E-02  0.1352313E+00
          2   -1    0    0  501    0  0.00000000000E+00  0.00000000000E+00  0.81025809332E+03  0.81025809333E+03  0.25500000000E-02 0. -1.
         -1   -1    0    0    0  501 -0.00000000000E+00 -0.00000000000E+00 -0.16146141635E+01  0.16146220296E+01  0.50400000000E-02 0.  1.
         24    2    1    2    0    0  0.35527136788E-14 -0.17763568394E-14  0.80864347916E+03  0.81187271536E+03  0.72339681734E+02 0.  0.
         66    2    3    3    0    0  0.21618681113E+02 -0.13973697594E+02  0.68935548380E+03  0.68983883237E+03  0.19999983976E+01 0.  0.
        -13    1    3    3    0    0 -0.21618681113E+02  0.13973697594E+02  0.11928799536E+03  0.12203388299E+03  0.10566000000E+00 0.  1.
         13    1    4    4    0    0  0.18894660491E+02 -0.11927920936E+02  0.60995138899E+03  0.61036054230E+03  0.10566000000E+00 0. -1.
        -13    1    4    4    0    0  0.20046997133E+01 -0.17155382155E+01  0.60172303395E+02  0.60230217932E+02  0.10566000000E+00 0.  1.
         14    1    4    4    0    0  0.71932090912E+00 -0.33023844208E+00  0.19231791414E+02  0.19248072137E+02  0.00000000000E+00 0. -1.
<mgrwt>
<rscale>  0 0.72339682E+02</rscale>
<asrwt>0</asrwt>
<pdfrwt beam="1">  1        2 0.12465501E+00 0.72339682E+02</pdfrwt>
<pdfrwt beam="2">  1       -1 0.24840295E-03 0.72339682E+02</pdfrwt>
<totfact> 0.44670373E+05</totfact>
</mgrwt>
</event>
<event>
 8    1  0.1226832E-016  0.7992238E+02  0.7818608E-02  0.1329272E+00
          2   -1    0    0  501    0  0.00000000000E+00  0.00000000000E+00  0.62923122117E+03  0.62923122118E+03  0.25500000000E-02 0. -1.
         -1   -1    0    0    0  501 -0.00000000000E+00 -0.00000000000E+00 -0.25378511782E+01  0.25378561828E+01  0.50400000000E-02 0.  1.
         24    2    1    2    0    0  0.00000000000E+00  0.00000000000E+00  0.62669337000E+03  0.63176907736E+03  0.79922381809E+02 0.  0.
         66    2    3    3    0    0 -0.13543622753E+02 -0.48542554202E+01  0.60803115118E+03  0.60820463193E+03  0.19999983913E+01 0.  0.
        -13    1    3    3    0    0  0.13543622753E+02  0.48542554202E+01  0.18662218819E+02  0.23564445427E+02  0.10566000000E+00 0.  1.
         13    1    4    4    0    0 -0.20684263172E+01 -0.10540254365E+01  0.12325558480E+03  0.12327749067E+03  0.10566000000E+00 0.  1.
        -13    1    4    4    0    0 -0.94233591721E+01 -0.31374851155E+01  0.38330397217E+03  0.38343264044E+03  0.10566000000E+00 0. -1.
        -14    1    4    4    0    0 -0.20518372641E+01 -0.66274486813E+00  0.10147159421E+03  0.10149450083E+03  0.00000000000E+00 0.  1.
<mgrwt>
<rscale>  0 0.79922382E+02</rscale>
<asrwt>0</asrwt>
<pdfrwt beam="1">  1        2 0.96804790E-01 0.79922382E+02</pdfrwt>
<pdfrwt beam="2">  1       -1 0.39043908E-03 0.79922382E+02</pdfrwt>
<totfact> 0.32664002E+05</totfact>
</mgrwt>
</event>
<event>
 8    1  0.1226832E-016  0.8085596E+02  0.7818608E-02  0.1326640E+00
          2   -1    0    0  501    0  0.00000000000E+00  0.00000000000E+00  0.32278533027E+02  0.32278533127E+02  0.25500000000E-02 0. -1.
         -1   -1    0    0    0  501 -0.00000000000E+00 -0.00000000000E+00 -0.50634938177E+02  0.50634938428E+02  0.50400000000E-02 0.  1.
         24    2    1    2    0    0  0.00000000000E+00  0.00000000000E+00 -0.18356405151E+02  0.82913471556E+02  0.80855959306E+02 0.  0.
         66    2    3    3    0    0 -0.41824436398E+01  0.18881563246E+02  0.27192972456E+02  0.33428491715E+02  0.20000104810E+01 0.  0.
        -13    1    3    3    0    0  0.41824436398E+01 -0.18881563246E+02 -0.45549377607E+02  0.49484979841E+02  0.10566000000E+00 0.  1.
         13    1    4    4    0    0 -0.13277982610E+01  0.38231821402E+01  0.58076594197E+01  0.70795368400E+01  0.10566000000E+00 0. -1.
        -13    1    4    4    0    0 -0.93785608789E+00  0.22242803861E+01  0.33793026184E+01  0.41542565520E+01  0.10566000000E+00 0.  1.
        -14    1    4    4    0    0 -0.19167892909E+01  0.12834100720E+02  0.18006010418E+02  0.22194698323E+02  0.00000000000E+00 0.  1.
<mgrwt>
<rscale>  0 0.80855959E+02</rscale>
<asrwt>0</asrwt>
<pdfrwt beam="1">  1        2 0.49659282E-02 0.80855959E+02</pdfrwt>
<pdfrwt beam="2">  1       -1 0.77899905E-02 0.80855959E+02</pdfrwt>
<totfact> 0.13251545E+05</totfact>
</mgrwt>
</event>
<event>
 8    1  0.1226832E-016  0.7989355E+02  0.7818608E-02  0.1329354E+00
          2   -1    0    0  501    0  0.00000000000E+00  0.00000000000E+00  0.16232174440E+03  0.16232174442E+03  0.25500000000E-02 0. -1.
         -1   -1    0    0    0  501 -0.00000000000E+00 -0.00000000000E+00 -0.98307516962E+01  0.98307529882E+01  0.50400000000E-02 0.  1.
         24    2    1    2    0    0  0.17763568394E-14 -0.71054273576E-14  0.15249099270E+03  0.17215249741E+03  0.79893551105E+02 0.  0.
         66    2    3    3    0    0  0.95723805992E+01 -0.36846280633E+02  0.10219178348E+03  0.10907080055E+03  0.20000133573E+01 0.  0.
        -13    1    3    3    0    0 -0.95723805992E+01  0.36846280633E+02  0.50299209221E+02  0.63081696863E+02  0.10566000000E+00 0.  1.
         13    1    4    4    0    0  0.65634959241E+01 -0.25380991809E+02  0.70154378214E+02  0.74892737769E+02  0.10566000000E+00 0. -1.
        -13    1    4    4    0    0  0.11840863273E+00 -0.40901906904E+00  0.74943428818E+00  0.86840830894E+00  0.10566000000E+00 0.  1.
        -14    1    4    4    0    0  0.28904760424E+01 -0.11056269754E+02  0.31287970981E+02  0.33309654467E+02  0.00000000000E+00 0.  1.
<mgrwt>
<rscale>  0 0.79893551E+02</rscale>
<asrwt>0</asrwt>
<pdfrwt beam="1">  1        2 0.24972573E-01 0.79893551E+02</pdfrwt>
<pdfrwt beam="2">  1       -1 0.15124236E-02 0.79893551E+02</pdfrwt>
<totfact> 0.20624622E+05</totfact>
</mgrwt>
</event>
<event>
 8    1  0.1226832E-016  0.7236047E+02  0.7818608E-02  0.1352245E+00
          2   -1    0    0  501    0  0.00000000000E+00  0.00000000000E+00  0.29362810446E+03  0.29362810447E+03  0.25500000000E-02 0. -1.
         -1   -1    0    0    0  501 -0.00000000000E+00 -0.00000000000E+00 -0.44580508810E+01  0.44580537300E+01  0.50400000000E-02 0.  1.
         24    2    1    2    0    0 -0.35527136788E-14  0.00000000000E+00  0.28917005357E+03  0.29808615820E+03  0.72360471420E+02 0.  0.
         66    2    3    3    0    0  0.28478179690E+02 -0.13875855228E+02  0.21645644327E+03  0.21877142839E+03  0.19999924795E+01 0.  0.
        -13    1    3    3    0    0 -0.28478179690E+02  0.13875855228E+02  0.72713610304E+02  0.79314729806E+02  0.10566000000E+00 0.  1.
         13    1    4    4    0    0  0.94076796006E+01 -0.39865847244E+01  0.67249471264E+02  0.68021319029E+02  0.10566000000E+00 0. -1.
        -13    1    4    4    0    0  0.90962123428E+01 -0.52877186106E+01  0.75051835833E+02  0.75785818416E+02  0.10566000000E+00 0.  1.
         14    1    4    4    0    0  0.99742877463E+01 -0.46015518927E+01  0.74155136174E+02  0.74964290945E+02  0.00000000000E+00 0. -1.
<mgrwt>
<rscale>  0 0.72360471E+02</rscale>
<asrwt>0</asrwt>
<pdfrwt beam="1">  1        2 0.45173547E-01 0.72360471E+02</pdfrwt>
<pdfrwt beam="2">  1       -1 0.68585432E-03 0.72360471E+02</pdfrwt>
<totfact> 0.32866125E+05</totfact>
</mgrwt>
</event>
<event>
 8    1  0.1226832E-016  0.8014813E+02  0.7818608E-02  0.1328632E+00
          2   -1    0    0  501    0  0.00000000000E+00  0.00000000000E+00  0.85840863686E+03  0.85840863686E+03  0.25500000000E-02 0. -1.
         -1   -1    0    0    0  501 -0.00000000000E+00 -0.00000000000E+00 -0.18708196726E+01  0.18708264615E+01  0.50400000000E-02 0.  1.
         24    2    1    2    0    0  0.00000000000E+00  0.00000000000E+00  0.85653781718E+03  0.86027946332E+03  0.80148130028E+02 0.  0.
         66    2    3    3    0    0  0.20669970289E+02  0.71965505419E+01  0.78853339085E+03  0.78883962026E+03  0.19999993168E+01 0.  0.
        -13    1    3    3    0    0 -0.20669970289E+02 -0.71965505419E+01  0.68004426333E+02  0.71439843060E+02  0.10566000000E+00 0.  1.
         13    1    4    4    0    0  0.39599349148E+01  0.18028713633E+01  0.14964508803E+03  0.14970836638E+03  0.10566000000E+00 0. -1.
        -13    1    4    4    0    0  0.48040410385E+01  0.22297111249E+01  0.19869344247E+03  0.19876404521E+03  0.10566000000E+00 0.  1.
        -14    1    4    4    0    0  0.11905994336E+02  0.31639680536E+01  0.44019486035E+03  0.44036720867E+03  0.00000000000E+00 0.  1.
<mgrwt>
<rscale>  0 0.80148130E+02</rscale>
<asrwt>0</asrwt>
<pdfrwt beam="1">  1        2 0.13206324E+00 0.80148130E+02</pdfrwt>
<pdfrwt beam="2">  1       -1 0.28781813E-03 0.80148130E+02</pdfrwt>
<totfact> 0.34576398E+05</totfact>
</mgrwt>
</event>
<event>
 8    1  0.1226832E-016  0.8020167E+02  0.7818608E-02  0.1328480E+00
          2   -1    0    0  501    0  0.00000000000E+00  0.00000000000E+00  0.57312845102E+02  0.57312845158E+02  0.25500000000E-02 0. -1.
         -1   -1    0    0    0  501 -0.00000000000E+00 -0.00000000000E+00 -0.28057883520E+02  0.28057883973E+02  0.50400000000E-02 0.  1.
         24    2    1    2    0    0  0.71054273576E-14 -0.17763568394E-14  0.29254961581E+02  0.85370729131E+02  0.80201674642E+02 0.  0.
         66    2    3    3    0    0  0.38266581794E+02  0.10877241762E+02  0.19788596050E+02  0.44477344447E+02  0.19999912125E+01 0.  0.
        -13    1    3    3    0    0 -0.38266581794E+02 -0.10877241762E+02  0.94663655308E+01  0.40893384684E+02  0.10566000000E+00 0.  1.
         13    1    4    4    0    0  0.82539709893E+01  0.25740403188E+01  0.49044683347E+01  0.99407592435E+01  0.10566000000E+00 0. -1.
        -13    1    4    4    0    0  0.29802301601E+01  0.49139249585E+00  0.16069272632E+01  0.34229545216E+01  0.10566000000E+00 0.  1.
        -14    1    4    4    0    0  0.27032380645E+02  0.78118089470E+01  0.13277200452E+02  0.31113630682E+02  0.00000000000E+00 0.  1.
<mgrwt>
<rscale>  0 0.80201675E+02</rscale>
<asrwt>0</asrwt>
<pdfrwt beam="1">  1        2 0.88173608E-02 0.80201675E+02</pdfrwt>
<pdfrwt beam="2">  1       -1 0.43165975E-02 0.80201675E+02</pdfrwt>
<totfact> 0.15298239E+05</totfact>
</mgrwt>
</event>
<event>
 8    1  0.1226832E-016  0.8039107E+02  0.7818608E-02  0.1327945E+00
          2   -1    0    0  501    0  0.00000000000E+00  0.00000000000E+00  0.28553153731E+03  0.28553153732E+03  0.25500000000E-02 0. -1.
         -1   -1    0    0    0  501 -0.00000000000E+00 -0.00000000000E+00 -0.56585011807E+01  0.56585034253E+01  0.50400000000E-02 0.  1.
         24    2    1    2    0    0  0.00000000000E+00  0.00000000000E+00  0.27987303613E+03  0.29119004075E+03  0.80391065908E+02 0.  0.
         66    2    3    3    0    0  0.88046116946E+00 -0.19933612027E+02  0.26630896299E+03  0.26706289122E+03  0.19999988996E+01 0.  0.
        -13    1    3    3    0    0 -0.88046116946E+00  0.19933612027E+02  0.13564073140E+02  0.24127149531E+02  0.10566000000E+00 0.  1.
         13    1    4    4    0    0  0.44477712435E+00 -0.75652724629E+01  0.95591489794E+02  0.95891476468E+02  0.10566000000E+00 0. -1.
        -13    1    4    4    0    0 -0.40913870991E+00 -0.21489371593E+01  0.27130419007E+02  0.27218672358E+02  0.10566000000E+00 0.  1.
        -14    1    4    4    0    0  0.84482275501E+00 -0.10219402405E+02  0.14358705419E+03  0.14395274239E+03  0.00000000000E+00 0.  1.
<mgrwt>
<rscale>  0 0.80391066E+02</rscale>
<asrwt>0</asrwt>
<pdfrwt beam="1">  1        2 0.43927931E-01 0.80391066E+02</pdfrwt>
<pdfrwt beam="2">  1       -1 0.87053878E-03 0.80391066E+02</pdfrwt>
<totfact> 0.24723634E+05</totfact>
</mgrwt>
</event>
<event>
 8    1  0.1226832E-016  0.7921479E+02  0.7818608E-02  0.1331295E+00
         -1   -1    0    0    0  501 -0.00000000000E+00  0.00000000000E+00  0.43636430690E+02  0.43636430981E+02  0.50400000000E-02 0.  1.
          2   -1    0    0  501    0  0.00000000000E+00 -0.00000000000E+00 -0.35950367268E+02  0.35950367359E+02  0.25500000000E-02 0. -1.
         24    2    1    2    0    0  0.00000000000E+00  0.00000000000E+00  0.76860634219E+01  0.79586798340E+02  0.79214789648E+02 0.  0.
         66    2    3    3    0    0 -0.92297387648E+01  0.14558192889E+02 -0.31953469858E+02  0.36361425924E+02  0.20000003494E+01 0.  0.
        -13    1    3    3    0    0  0.92297387648E+01 -0.14558192889E+02  0.39639533279E+02  0.43225372416E+02  0.10566000000E+00 0.  1.
         13    1    4    4    0    0 -0.97172354247E+00  0.24670312249E+01 -0.53620732688E+01  0.59827655381E+01  0.10566000000E+00 0. -1.
        -13    1    4    4    0    0 -0.34437557121E+00  0.93206281497E+00 -0.15529234030E+01  0.18466376895E+01  0.10566000000E+00 0.  1.
        -14    1    4    4    0    0 -0.79136396511E+01  0.11159098849E+02 -0.25038473186E+02  0.28532022696E+02  0.00000000000E+00 0.  1.
<mgrwt>
<rscale>  0 0.79214790E+02</rscale>
<asrwt>0</asrwt>
<pdfrwt beam="1">  1        2 0.55308258E-02 0.79214790E+02</pdfrwt>
<pdfrwt beam="2">  1       -1 0.67132970E-02 0.79214790E+02</pdfrwt>
<totfact> 0.14336159E+05</totfact>
</mgrwt>
</event>
<event>
 8    1  0.1226832E-016  0.8671603E+02  0.7818608E-02  0.1311005E+00
         -1   -1    0    0    0  501 -0.00000000000E+00  0.00000000000E+00  0.10592227575E+03  0.10592227587E+03  0.50400000000E-02 0.  1.
          2   -1    0    0  501    0  0.00000000000E+00 -0.00000000000E+00 -0.17748085755E+02  0.17748085938E+02  0.25500000000E-02 0. -1.
         24    2    1    2    0    0 -0.35527136788E-14  0.35527136788E-14  0.88174189993E+02  0.12367036181E+03  0.86716034320E+02 0.  0.
         66    2    3    3    0    0 -0.26067333958E+02  0.16271682583E+02  0.53364099933E+00  0.30798673193E+02  0.19999859853E+01 0.  0.
        -13    1    3    3    0    0  0.26067333958E+02 -0.16271682583E+02  0.87640548993E+02  0.92871688612E+02  0.10566000000E+00 0.  1.
         13    1    4    4    0    0 -0.79725728897E+01  0.54494656774E+01  0.91626845119E+00  0.97009951325E+01  0.10566000000E+00 0. -1.
        -13    1    4    4    0    0 -0.13740358470E+02  0.79856086075E+01 -0.97489410976E-01  0.15893019346E+02  0.10566000000E+00 0.  1.
         14    1    4    4    0    0 -0.43544025984E+01  0.28366082984E+01 -0.28513804089E+00  0.52046587141E+01  0.00000000000E+00 0. -1.
<mgrwt>
<rscale>  0 0.86716034E+02</rscale>
<asrwt>0</asrwt>
<pdfrwt beam="1">  1        2 0.27304748E-02 0.86716034E+02</pdfrwt>
<pdfrwt beam="2">  1       -1 0.16295734E-01 0.86716034E+02</pdfrwt>
<totfact> 0.95714478E+04</totfact>
</mgrwt>
</event>
<event>
 8    1  0.1226832E-016  0.8231567E+02  0.7818608E-02  0.1322605E+00
         -1   -1    0    0    0  501 -0.00000000000E+00  0.00000000000E+00  0.23173138147E+01  0.23173192956E+01  0.50400000000E-02 0.  1.
          2   -1    0    0  501    0  0.00000000000E+00 -0.00000000000E+00 -0.73100390073E+03  0.73100390073E+03  0.25500000000E-02 0. -1.
         24    2    1    2    0    0  0.00000000000E+00  0.00000000000E+00 -0.72868658691E+03  0.73332122003E+03  0.82315671631E+02 0.  0.
         66    2    3    3    0    0  0.24644359546E+02 -0.16486667044E+02 -0.61854136700E+03  0.61925485653E+03  0.19999998583E+01 0.  0.
        -13    1    3    3    0    0 -0.24644359546E+02  0.16486667044E+02 -0.11014521991E+03  0.11406636350E+03  0.10566000000E+00 0.  1.
         13    1    4    4    0    0  0.27350166757E+01 -0.21702833773E+01 -0.80798626060E+02  0.80874097110E+02  0.10566000000E+00 0.  1.
        -13    1    4    4    0    0  0.11601691944E+02 -0.80806953862E+01 -0.29994709449E+03  0.30028014845E+03  0.10566000000E+00 0. -1.
        -14    1    4    4    0    0  0.10307650926E+02 -0.62356882800E+01 -0.23779564645E+03  0.23810061098E+03  0.00000000000E+00 0.  1.
<mgrwt>
<rscale>  0 0.82315672E+02</rscale>
<asrwt>0</asrwt>
<pdfrwt beam="1">  1        2 0.11246196E+00 0.82315672E+02</pdfrwt>
<pdfrwt beam="2">  1       -1 0.35651082E-03 0.82315672E+02</pdfrwt>
<totfact> 0.31355759E+05</totfact>
</mgrwt>
</event>
<event>
 8    1  0.1226832E-016  0.8186576E+02  0.7818608E-02  0.1323839E+00
          2   -1    0    0  501    0  0.00000000000E+00  0.00000000000E+00  0.59497529691E+03  0.59497529692E+03  0.25500000000E-02 0. -1.
         -1   -1    0    0    0  501 -0.00000000000E+00 -0.00000000000E+00 -0.28160824483E+01  0.28160869584E+01  0.50400000000E-02 0.  1.
         24    2    1    2    0    0  0.00000000000E+00  0.00000000000E+00  0.59215921446E+03  0.59779138387E+03  0.81865764285E+02 0.  0.
         66    2    3    3    0    0  0.36047540450E+02 -0.17749468063E+02  0.35235712361E+03  0.35464631868E+03  0.20000007758E+01 0.  0.
        -13    1    3    3    0    0 -0.36047540450E+02  0.17749468063E+02  0.23980209085E+03  0.24314506520E+03  0.10566000000E+00 0.  1.
         13    1    4    4    0    0  0.27468830674E+01 -0.13696150392E+01  0.24508356915E+02  0.24700039163E+02  0.10566000000E+00 0. -1.
        -13    1    4    4    0    0  0.28117347824E+02 -0.13410884980E+02  0.27106845561E+03  0.27285262666E+03  0.10566000000E+00 0.  1.
        -14    1    4    4    0    0  0.51833095584E+01 -0.29689680437E+01  0.56780311084E+02  0.57093652852E+02  0.00000000000E+00 0.  1.
<mgrwt>
<rscale>  0 0.81865764E+02</rscale>
<asrwt>0</asrwt>
<pdfrwt beam="1">  1        2 0.91534614E-01 0.81865764E+02</pdfrwt>
<pdfrwt beam="2">  1       -1 0.43324402E-03 0.81865764E+02</pdfrwt>
<totfact> 0.30217462E+05</totfact>
</mgrwt>
</event>
<event>
 8    1  0.1226832E-016  0.8086879E+02  0.7818608E-02  0.1326604E+00
          2   -1    0    0  501    0  0.00000000000E+00  0.00000000000E+00  0.66683633798E+02  0.66683633846E+02  0.25500000000E-02 0. -1.
         -1   -1    0    0    0  501 -0.00000000000E+00 -0.00000000000E+00 -0.24517866345E+02  0.24517866863E+02  0.50400000000E-02 0.  1.
         24    2    1    2    0    0  0.35527136788E-14  0.71054273576E-14  0.42165767453E+02  0.91201500709E+02  0.80868793652E+02 0.  0.
         66    2    3    3    0    0  0.19957653273E+02  0.35075969965E+02  0.23435393763E+02  0.46710269486E+02  0.20000003731E+01 0.  0.
        -13    1    3    3    0    0 -0.19957653273E+02 -0.35075969965E+02  0.18730373689E+02  0.44491231223E+02  0.10566000000E+00 0.  1.
         13    1    4    4    0    0  0.75449357063E+01  0.14818466813E+02  0.97974257548E+01  0.19300614730E+02  0.10566000000E+00 0. -1.
        -13    1    4    4    0    0  0.45800666234E+01  0.69989942959E+01  0.43939939331E+01  0.94488770840E+01  0.10566000000E+00 0.  1.
         14    1    4    4    0    0  0.78326509437E+01  0.13258508856E+02  0.92439740753E+01  0.17960777672E+02  0.00000000000E+00 0. -1.
<mgrwt>
<rscale>  0 0.80868794E+02</rscale>
<asrwt>0</asrwt>
<pdfrwt beam="1">  1        2 0.10259020E-01 0.80868794E+02</pdfrwt>
<pdfrwt beam="2">  1       -1 0.37719795E-02 0.80868794E+02</pdfrwt>
<totfact> 0.15497096E+05</totfact>
</mgrwt>
</event>
<event>
 8    1  0.1226832E-016  0.7583350E+02  0.7818608E-02  0.1341309E+00
         -1   -1    0    0    0  501 -0.00000000000E+00  0.00000000000E+00  0.12251986696E+02  0.12251987733E+02  0.50400000000E-02 0.  1.
          2   -1    0    0  501    0  0.00000000000E+00 -0.00000000000E+00 -0.11734259086E+03  0.11734259089E+03  0.25500000000E-02 0. -1.
         24    2    1    2    0    0 -0.17763568394E-14 -0.11102230246E-15 -0.10509060416E+03  0.12959457862E+03  0.75833500014E+02 0.  0.
         66    2    3    3    0    0 -0.15645683184E+02 -0.44464445275E+00 -0.11155092668E+03  0.11266141465E+03  0.19999996452E+01 0.  0.
        -13    1    3    3    0    0  0.15645683184E+02  0.44464445275E+00  0.64603225109E+01  0.16933163968E+02  0.10566000000E+00 0.  1.
         13    1    4    4    0    0 -0.79289551933E+01 -0.43568003053E+00 -0.61232998775E+02  0.61745845613E+02  0.10566000000E+00 0.  1.
        -13    1    4    4    0    0 -0.63739000252E+01  0.26769131651E+00 -0.42922288838E+02  0.43393920119E+02  0.10566000000E+00 0. -1.
        -14    1    4    4    0    0 -0.13428279654E+01 -0.27665573873E+00 -0.73956390627E+01  0.75216489208E+01  0.00000000000E+00 0.  1.
<mgrwt>
<rscale>  0 0.75833500E+02</rscale>
<asrwt>0</asrwt>
<pdfrwt beam="1">  1        2 0.18052705E-01 0.75833500E+02</pdfrwt>
<pdfrwt beam="2">  1       -1 0.18849212E-02 0.75833500E+02</pdfrwt>
<totfact> 0.21400281E+05</totfact>
</mgrwt>
</event>
<event>
 8    1  0.1226832E-016  0.7966420E+02  0.7818608E-02  0.1330007E+00
          2   -1    0    0  501    0  0.00000000000E+00  0.00000000000E+00  0.32067137233E+03  0.32067137234E+03  0.25500000000E-02 0. -1.
         -1   -1    0    0    0  501 -0.00000000000E+00 -0.00000000000E+00 -0.49477315927E+01  0.49477341597E+01  0.50400000000E-02 0.  1.
         24    2    1    2    0    0  0.00000000000E+00 -0.35527136788E-14  0.31572364073E+03  0.32561910650E+03  0.79664202734E+02 0.  0.
         66    2    3    3    0    0 -0.27535448937E+02  0.27791552233E+02  0.12791937166E+03  0.13378317146E+03  0.19999992986E+01 0.  0.
        -13    1    3    3    0    0  0.27535448937E+02 -0.27791552233E+02  0.18780426907E+03  0.19183593503E+03  0.10566000000E+00 0.  1.
         13    1    4    4    0    0 -0.36567425519E+01  0.41059899177E+01  0.19338853648E+02  0.20105555047E+02  0.10566000000E+00 0. -1.
        -13    1    4    4    0    0 -0.18169734827E+01  0.20290818736E+01  0.98506295653E+01  0.10220794135E+02  0.10566000000E+00 0.  1.
         14    1    4    4    0    0 -0.22061732902E+02  0.21656480442E+02  0.98729888446E+02  0.10345682228E+03  0.00000000000E+00 0. -1.
<mgrwt>
<rscale>  0 0.79664203E+02</rscale>
<asrwt>0</asrwt>
<pdfrwt beam="1">  1        2 0.49334066E-01 0.79664203E+02</pdfrwt>
<pdfrwt beam="2">  1       -1 0.76118954E-03 0.79664203E+02</pdfrwt>
<totfact> 0.26405259E+05</totfact>
</mgrwt>
</event>
<event>
 8    1  0.1226832E-016  0.7006976E+02  0.7818608E-02  0.1359856E+00
          2   -1    0    0  501    0  0.00000000000E+00  0.00000000000E+00  0.13477222440E+02  0.13477222681E+02  0.25500000000E-02 0. -1.
         -1   -1    0    0    0  501 -0.00000000000E+00 -0.00000000000E+00 -0.91075355956E+02  0.91075356096E+02  0.50400000000E-02 0.  1.
         24    2    1    2    0    0  0.00000000000E+00  0.00000000000E+00 -0.77598133516E+02  0.10455257878E+03  0.70069760978E+02 0.  0.
         66    2    3    3    0    0 -0.96928155486E+01 -0.23544005788E+02 -0.29834132643E+01  0.25713257850E+02  0.19999981900E+01 0.  0.
        -13    1    3    3    0    0  0.96928155486E+01  0.23544005788E+02 -0.74614720252E+02  0.78839320926E+02  0.10566000000E+00 0.  1.
         13    1    4    4    0    0 -0.29790078353E+01 -0.71746392286E+01 -0.85099982280E+00  0.78157085717E+01  0.10566000000E+00 0. -1.
        -13    1    4    4    0    0 -0.15110685189E+01 -0.30964125622E+01  0.19509037753E+00  0.34525820939E+01  0.10566000000E+00 0.  1.
        -14    1    4    4    0    0 -0.52027391945E+01 -0.13272953997E+02 -0.23275038191E+01  0.14444967184E+02  0.00000000000E+00 0.  1.
<mgrwt>
<rscale>  0 0.70069761E+02</rscale>
<asrwt>0</asrwt>
<pdfrwt beam="1">  1        2 0.20734189E-02 0.70069761E+02</pdfrwt>
<pdfrwt beam="2">  1       -1 0.14011593E-01 0.70069761E+02</pdfrwt>
<totfact> 0.16794226E+05</totfact>
</mgrwt>
</event>
<event>
 8    1  0.1226832E-016  0.8007792E+02  0.7818608E-02  0.1328830E+00
         -1   -1    0    0    0  501 -0.00000000000E+00  0.00000000000E+00  0.12356328199E+02  0.12356329227E+02  0.50400000000E-02 0.  1.
          2   -1    0    0  501    0  0.00000000000E+00 -0.00000000000E+00 -0.12974066237E+03  0.12974066240E+03  0.25500000000E-02 0. -1.
         24    2    1    2    0    0  0.71054273576E-14  0.88817841970E-15 -0.11738433417E+03  0.14209699163E+03  0.80077919051E+02 0.  0.
         66    2    3    3    0    0  0.25358845505E+02  0.25980383765E+01 -0.11345914067E+03  0.11630476107E+03  0.19999996043E+01 0.  0.
        -13    1    3    3    0    0 -0.25358845505E+02 -0.25980383765E+01 -0.39251935060E+01  0.25792230552E+02  0.10566000000E+00 0.  1.
         13    1    4    4    0    0  0.12188341568E+02  0.84589366992E+00 -0.54164300571E+02  0.55525253954E+02  0.10566000000E+00 0. -1.
        -13    1    4    4    0    0  0.70970500826E+00  0.32146613910E+00 -0.44303398552E+01  0.44995663064E+01  0.10566000000E+00 0.  1.
        -14    1    4    4    0    0  0.12460798929E+02  0.14306785675E+01 -0.54864500241E+02  0.56279940813E+02  0.00000000000E+00 0.  1.
<mgrwt>
<rscale>  0 0.80077919E+02</rscale>
<asrwt>0</asrwt>
<pdfrwt beam="1">  1        2 0.19960101E-01 0.80077919E+02</pdfrwt>
<pdfrwt beam="2">  1       -1 0.19009737E-02 0.80077919E+02</pdfrwt>
<totfact> 0.19085243E+05</totfact>
</mgrwt>
</event>
<event>
 8    1  0.1226832E-016  0.7851230E+02  0.7818608E-02  0.1333327E+00
         -1   -1    0    0    0  501 -0.00000000000E+00  0.00000000000E+00  0.90246714286E+01  0.90246728359E+01  0.50400000000E-02 0.  1.
          2   -1    0    0  501    0  0.00000000000E+00 -0.00000000000E+00 -0.17075915894E+03  0.17075915896E+03  0.25500000000E-02 0. -1.
         24    2    1    2    0    0  0.00000000000E+00  0.00000000000E+00 -0.16173448751E+03  0.17978383179E+03  0.78512303012E+02 0.  0.
         66    2    3    3    0    0 -0.20766696635E+02  0.22732477348E+02 -0.13658861391E+03  0.14003024908E+03  0.19999979330E+01 0.  0.
        -13    1    3    3    0    0  0.20766696635E+02 -0.22732477348E+02 -0.25145873598E+02  0.39753582713E+02  0.10566000000E+00 0.  1.
         13    1    4    4    0    0 -0.65368754556E+01  0.83059423166E+01 -0.48439229423E+02  0.49579123929E+02  0.10566000000E+00 0. -1.
        -13    1    4    4    0    0 -0.93419273226E+01  0.99096210994E+01 -0.59590013399E+02  0.61126533170E+02  0.10566000000E+00 0.  1.
         14    1    4    4    0    0 -0.48878938564E+01  0.45169139316E+01 -0.28559371090E+02  0.29324591982E+02  0.00000000000E+00 0. -1.
<mgrwt>
<rscale>  0 0.78512303E+02</rscale>
<asrwt>0</asrwt>
<pdfrwt beam="1">  1        2 0.26270637E-01 0.78512303E+02</pdfrwt>
<pdfrwt beam="2">  1       -1 0.13884112E-02 0.78512303E+02</pdfrwt>
<totfact> 0.21963864E+05</totfact>
</mgrwt>
</event>
<event>
 8    1  0.1226832E-016  0.8065047E+02  0.7818608E-02  0.1327216E+00
          2   -1    0    0  501    0  0.00000000000E+00  0.00000000000E+00  0.32086207055E+03  0.32086207056E+03  0.25500000000E-02 0. -1.
         -1   -1    0    0    0  501 -0.00000000000E+00 -0.00000000000E+00 -0.50679851376E+01  0.50679876437E+01  0.50400000000E-02 0.  1.
         24    2    1    2    0    0  0.88817841970E-15  0.00000000000E+00  0.31579408541E+03  0.32593005820E+03  0.80650470918E+02 0.  0.
         66    2    3    3    0    0 -0.63729875263E+01  0.19244620814E+02  0.29875236950E+03  0.29944606973E+03  0.19999984769E+01 0.  0.
        -13    1    3    3    0    0  0.63729875263E+01 -0.19244620814E+02  0.17041715913E+02  0.26483988476E+02  0.10566000000E+00 0.  1.
         13    1    4    4    0    0 -0.24333947097E+01  0.68823388197E+01  0.98727296700E+02  0.98996859926E+02  0.10566000000E+00 0. -1.
        -13    1    4    4    0    0 -0.19973414663E+00  0.18921756919E+01  0.32042069406E+02  0.32098685307E+02  0.10566000000E+00 0.  1.
        -14    1    4    4    0    0 -0.37398586700E+01  0.10470106302E+02  0.16798300339E+03  0.16835052449E+03  0.00000000000E+00 0.  1.
<mgrwt>
<rscale>  0 0.80650471E+02</rscale>
<asrwt>0</asrwt>
<pdfrwt beam="1">  1        2 0.49363404E-01 0.80650471E+02</pdfrwt>
<pdfrwt beam="2">  1       -1 0.77969009E-03 0.80650471E+02</pdfrwt>
<totfact> 0.25573103E+05</totfact>
</mgrwt>
</event>
<event>
 8    1  0.1226832E-016  0.7866814E+02  0.7818608E-02  0.1332874E+00
         -1   -1    0    0    0  501 -0.00000000000E+00  0.00000000000E+00  0.12269549081E+02  0.12269550116E+02  0.50400000000E-02 0.  1.
          2   -1    0    0  501    0  0.00000000000E+00 -0.00000000000E+00 -0.12609827370E+03  0.12609827373E+03  0.25500000000E-02 0. -1.
         24    2    1    2    0    0 -0.35527136788E-14  0.35527136788E-14 -0.11382872462E+03  0.13836782384E+03  0.78668139208E+02 0.  0.
         66    2    3    3    0    0  0.16599582219E+02  0.26305267767E+02 -0.99224617289E+02  0.10400498989E+03  0.20000010949E+01 0.  0.
        -13    1    3    3    0    0 -0.16599582219E+02 -0.26305267767E+02 -0.14604107333E+02  0.34362833951E+02  0.10566000000E+00 0.  1.
         13    1    4    4    0    0  0.12269146908E+02  0.18474806970E+02 -0.71993278931E+02  0.75331891212E+02  0.10566000000E+00 0. -1.
        -13    1    4    4    0    0  0.31870588467E+00  0.87300479958E+00 -0.33071284164E+01  0.34368551350E+01  0.10566000000E+00 0.  1.
        -14    1    4    4    0    0  0.40117294269E+01  0.69574559975E+01 -0.23924209942E+02  0.25236243546E+02  0.00000000000E+00 0.  1.
<mgrwt>
<rscale>  0 0.78668139E+02</rscale>
<asrwt>0</asrwt>
<pdfrwt beam="1">  1        2 0.19399734E-01 0.78668139E+02</pdfrwt>
<pdfrwt beam="2">  1       -1 0.18876231E-02 0.78668139E+02</pdfrwt>
<totfact> 0.19835136E+05</totfact>
</mgrwt>
</event>
<event>
 8    1  0.1226832E-016  0.7973223E+02  0.7818608E-02  0.1329813E+00
         -1   -1    0    0    0  501 -0.00000000000E+00  0.00000000000E+00  0.36226903386E+01  0.36226938445E+01  0.50400000000E-02 0.  1.
          2   -1    0    0  501    0  0.00000000000E+00 -0.00000000000E+00 -0.43870888328E+03  0.43870888329E+03  0.25500000000E-02 0. -1.
         24    2    1    2    0    0 -0.17763568394E-14  0.00000000000E+00 -0.43508619294E+03  0.44233157714E+03  0.79732232126E+02 0.  0.
         66    2    3    3    0    0  0.13475233583E+02  0.16083763139E+02 -0.40556885462E+03  0.40611619667E+03  0.19999995427E+01 0.  0.
        -13    1    3    3    0    0 -0.13475233583E+02 -0.16083763139E+02 -0.29517338320E+02  0.36215380467E+02  0.10566000000E+00 0.  1.
         13    1    4    4    0    0  0.82957577404E+01  0.10651240815E+02 -0.24756499141E+03  0.24793286322E+03  0.10566000000E+00 0. -1.
        -13    1    4    4    0    0  0.27224889757E+01  0.28677521313E+01 -0.89732533266E+02  0.89819678461E+02  0.10566000000E+00 0.  1.
        -14    1    4    4    0    0  0.24569868666E+01  0.25647701924E+01 -0.68271329950E+02  0.68363654991E+02  0.00000000000E+00 0.  1.
<mgrwt>
<rscale>  0 0.79732232E+02</rscale>
<asrwt>0</asrwt>
<pdfrwt beam="1">  1        2 0.67493633E-01 0.79732232E+02</pdfrwt>
<pdfrwt beam="2">  1       -1 0.55733759E-03 0.79732232E+02</pdfrwt>
<totfact> 0.29423625E+05</totfact>
</mgrwt>
</event>
<event>
 8    1  0.1226832E-016  0.8056262E+02  0.7818608E-02  0.1327462E+00
          2   -1    0    0  501    0  0.00000000000E+00  0.00000000000E+00  0.13730353282E+04  0.13730353282E+04  0.25500000000E-02 0. -1.
         -1   -1    0    0    0  501 -0.00000000000E+00 -0.00000000000E+00 -0.11817442372E+01  0.11817549847E+01  0.50400000000E-02 0.  1.
         24    2    1    2    0    0  0.00000000000E+00  0.17763568394E-14  0.13718535839E+04  0.13742170831E+04  0.80562620933E+02 0.  0.
         66    2    3    3    0    0 -0.15962749577E+02 -0.10332963562E+02  0.12915979815E+04  0.12917394960E+04  0.19999997747E+01 0.  0.
        -13    1    3    3    0    0  0.15962749577E+02  0.10332963562E+02  0.80255602375E+02  0.82477587178E+02  0.10566000000E+00 0.  1.
         13    1    4    4    0    0 -0.13195513372E+01 -0.51161440959E+00  0.10504755457E+03  0.10505714088E+03  0.10566000000E+00 0. -1.
        -13    1    4    4    0    0 -0.49240036393E+00 -0.27748496806E+00  0.25547278040E+02  0.25553747970E+02  0.10566000000E+00 0.  1.
         14    1    4    4    0    0 -0.14150797876E+02 -0.95438641840E+01  0.11610031489E+04  0.11611286071E+04  0.00000000000E+00 0. -1.
<mgrwt>
<rscale>  0 0.80562621E+02</rscale>
<asrwt>0</asrwt>
<pdfrwt beam="1">  1        2 0.21123650E+00 0.80562621E+02</pdfrwt>
<pdfrwt beam="2">  1       -1 0.18180738E-03 0.80562621E+02</pdfrwt>
<totfact> 0.33575885E+05</totfact>
</mgrwt>
</event>
<event>
 8    1  0.1226832E-016  0.7915657E+02  0.7818608E-02  0.1331462E+00
          2   -1    0    0  501    0  0.00000000000E+00  0.00000000000E+00  0.63094637493E+02  0.63094637545E+02  0.25500000000E-02 0. -1.
         -1   -1    0    0    0  501 -0.00000000000E+00 -0.00000000000E+00 -0.24826841700E+02  0.24826842211E+02  0.50400000000E-02 0.  1.
         24    2    1    2    0    0  0.00000000000E+00  0.22204460493E-15  0.38267795794E+02  0.87921479756E+02  0.79156568948E+02 0.  0.
         66    2    3    3    0    0  0.30433719564E+02 -0.17811093750E+01  0.47136708130E+02  0.56171638698E+02  0.20000258986E+01 0.  0.
        -13    1    3    3    0    0 -0.30433719564E+02  0.17811093750E+01 -0.88689123360E+01  0.31749841058E+02  0.10566000000E+00 0.  1.
         13    1    4    4    0    0  0.69995638488E+01 -0.11382551835E+01  0.11327299413E+02  0.13364445180E+02  0.10566000000E+00 0. -1.
        -13    1    4    4    0    0  0.66167166523E+01  0.31179985122E-01  0.10565159906E+02  0.12466582504E+02  0.10566000000E+00 0. -1.
        -14    1    4    4    0    0  0.16817439063E+02 -0.67403417662E+00  0.25244248810E+02  0.30340611014E+02  0.00000000000E+00 0.  1.
<mgrwt>
<rscale>  0 0.79156569E+02</rscale>
<asrwt>0</asrwt>
<pdfrwt beam="1">  1        2 0.97068674E-02 0.79156569E+02</pdfrwt>
<pdfrwt beam="2">  1       -1 0.38195141E-02 0.79156569E+02</pdfrwt>
<totfact> 0.16209316E+05</totfact>
</mgrwt>
</event>
<event>
 8    1  0.1487657E-016  0.8101582E+02  0.7818608E-02  0.1326193E+00
         -1   -1    0    0    0  501 -0.00000000000E+00  0.00000000000E+00  0.11604704649E+02  0.11604705743E+02  0.50400000000E-02 0.  1.
          2   -1    0    0  501    0  0.00000000000E+00 -0.00000000000E+00 -0.14139874825E+03  0.14139874827E+03  0.25500000000E-02 0. -1.
         24    2    1    2    0    0 -0.35527136788E-14  0.00000000000E+00 -0.12979404360E+03  0.15300345401E+03  0.81015820594E+02 0.  0.
         66    2    3    3    0    0  0.26698599025E+02 -0.28825646112E+02 -0.83358686995E+02  0.92175939100E+02  0.19999969538E+01 0.  0.
        -13    1    3    3    0    0 -0.26698599025E+02  0.28825646112E+02 -0.46435356602E+02  0.60827514913E+02  0.10566000000E+00 0.  1.
         13    1    4    4    0    0  0.12065192928E+02 -0.13336541826E+02 -0.38321566255E+02  0.42331853640E+02  0.10566000000E+00 0. -1.
        -13    1    4    4    0    0  0.13295058535E+02 -0.13752899582E+02 -0.41219829826E+02  0.45442121025E+02  0.10566000000E+00 0.  1.
        -14    1    4    4    0    0  0.13383475615E+01 -0.17362047035E+01 -0.38172909138E+01  0.44019644352E+01  0.00000000000E+00 0.  1.
<mgrwt>
<rscale>  0 0.81015821E+02</rscale>
<asrwt>0</asrwt>
<pdfrwt beam="1">  1        2 0.21753652E-01 0.81015821E+02</pdfrwt>
<pdfrwt beam="2">  1       -1 0.17853394E-02 0.81015821E+02</pdfrwt>
<totfact> 0.19007362E+05</totfact>
</mgrwt>
</event>
<event>
 8    1  0.1226832E-016  0.8169825E+02  0.7818608E-02  0.1324300E+00
         -1   -1    0    0    0  501 -0.00000000000E+00  0.00000000000E+00  0.40537527421E+01  0.40537558752E+01  0.50400000000E-02 0.  1.
          2   -1    0    0  501    0  0.00000000000E+00 -0.00000000000E+00 -0.41163104896E+03  0.41163104897E+03  0.25500000000E-02 0. -1.
         24    2    1    2    0    0  0.00000000000E+00 -0.88817841970E-15 -0.40757729622E+03  0.41568480484E+03  0.81698253257E+02 0.  0.
         66    2    3    3    0    0  0.40102218605E+02  0.76409339322E+01 -0.20252305667E+03  0.20660629296E+03  0.20000003873E+01 0.  0.
        -13    1    3    3    0    0 -0.40102218605E+02 -0.76409339322E+01 -0.20505423955E+03  0.20907851188E+03  0.10566000000E+00 0.  1.
         13    1    4    4    0    0  0.85914986389E+01  0.22426148196E+01 -0.41673251182E+02  0.42608851172E+02  0.10566000000E+00 0.  1.
        -13    1    4    4    0    0  0.25479681149E+02  0.42886372563E+01 -0.13122878714E+03  0.13374831700E+03  0.10566000000E+00 0. -1.
        -14    1    4    4    0    0  0.60310388172E+01  0.11096818563E+01 -0.29621018340E+02  0.30249124790E+02  0.00000000000E+00 0.  1.
<mgrwt>
<rscale>  0 0.81698253E+02</rscale>
<asrwt>0</asrwt>
<pdfrwt beam="1">  1        2 0.63327821E-01 0.81698253E+02</pdfrwt>
<pdfrwt beam="2">  1       -1 0.62365484E-03 0.81698253E+02</pdfrwt>
<totfact> 0.27012184E+05</totfact>
</mgrwt>
</event>
<event>
 8    1  0.1226832E-016  0.8018832E+02  0.7818608E-02  0.1328518E+00
         -1   -1    0    0    0  501 -0.00000000000E+00  0.00000000000E+00  0.15024928853E+01  0.15025013384E+01  0.50400000000E-02 0.  1.
          2   -1    0    0  501    0  0.00000000000E+00 -0.00000000000E+00 -0.10699133999E+04  0.10699133999E+04  0.25500000000E-02 0. -1.
         24    2    1    2    0    0  0.00000000000E+00  0.00000000000E+00 -0.10684109070E+04  0.10714159012E+04  0.80188323370E+02 0.  0.
         66    2    3    3    0    0 -0.28202424347E+02  0.41217838183E+01 -0.91083350122E+03  0.91128153322E+03  0.20000000072E+01 0.  0.
        -13    1    3    3    0    0  0.28202424347E+02 -0.41217838183E+01 -0.15757740577E+03  0.16013436800E+03  0.10566000000E+00 0.  1.
         13    1    4    4    0    0 -0.16778258231E+02  0.28734631278E+01 -0.53424202950E+03  0.53451316540E+03  0.10566000000E+00 0. -1.
        -13    1    4    4    0    0 -0.25525213013E+01  0.13090506975E+00 -0.70832277898E+02  0.70878454113E+02  0.10566000000E+00 0.  1.
         14    1    4    4    0    0 -0.88716448142E+01  0.11174156208E+01 -0.30575919382E+03  0.30588991370E+03  0.00000000000E+00 0. -1.
<mgrwt>
<rscale>  0 0.80188323E+02</rscale>
<asrwt>0</asrwt>
<pdfrwt beam="1">  1        2 0.16460145E+00 0.80188323E+02</pdfrwt>
<pdfrwt beam="2">  1       -1 0.23115426E-03 0.80188323E+02</pdfrwt>
<totfact> 0.35056964E+05</totfact>
</mgrwt>
</event>
<event>
 8    1  0.1226832E-016  0.7707801E+02  0.7818608E-02  0.1337554E+00
         -1   -1    0    0    0  501 -0.00000000000E+00  0.00000000000E+00  0.19049319324E+02  0.19049319991E+02  0.50400000000E-02 0.  1.
          2   -1    0    0  501    0  0.00000000000E+00 -0.00000000000E+00 -0.77968927336E+02  0.77968927377E+02  0.25500000000E-02 0. -1.
         24    2    1    2    0    0  0.35527136788E-14  0.00000000000E+00 -0.58919608012E+02  0.97018247368E+02  0.77078013169E+02 0.  0.
         66    2    3    3    0    0 -0.25394753814E+02 -0.16350804541E+02 -0.59557235228E+02  0.66807983170E+02  0.20000042244E+01 0.  0.
        -13    1    3    3    0    0  0.25394753814E+02  0.16350804541E+02  0.63762721613E+00  0.30210264198E+02  0.10566000000E+00 0.  1.
         13    1    4    4    0    0 -0.49813640329E+01 -0.38258987976E+01 -0.11928834137E+02  0.13481829889E+02  0.10566000000E+00 0. -1.
        -13    1    4    4    0    0 -0.11975029006E+01 -0.10819480840E+01 -0.33544169197E+01  0.37239631792E+01  0.10566000000E+00 0.  1.
         14    1    4    4    0    0 -0.19215886880E+02 -0.11442957660E+02 -0.44273984171E+02  0.49602190102E+02  0.00000000000E+00 0. -1.
<mgrwt>
<rscale>  0 0.77078013E+02</rscale>
<asrwt>0</asrwt>
<pdfrwt beam="1">  1        2 0.11995219E-01 0.77078013E+02</pdfrwt>
<pdfrwt beam="2">  1       -1 0.29306646E-02 0.77078013E+02</pdfrwt>
<totfact> 0.18333434E+05</totfact>
</mgrwt>
</event>
<event>
 8    1  0.1226832E-016  0.8036898E+02  0.7818608E-02  0.1328008E+00
          2   -1    0    0  501    0  0.00000000000E+00  0.00000000000E+00  0.52663308985E+03  0.52663308986E+03  0.25500000000E-02 0. -1.
         -1   -1    0    0    0  501 -0.00000000000E+00 -0.00000000000E+00 -0.30662564969E+01  0.30662606390E+01  0.50400000000E-02 0.  1.
         24    2    1    2    0    0 -0.17763568394E-14 -0.44408920985E-15  0.52356683335E+03  0.52969935049E+03  0.80368979884E+02 0.  0.
         66    2    3    3    0    0 -0.15055440687E+02 -0.38996865254E+01  0.50597672990E+03  0.50621964111E+03  0.19999990839E+01 0.  0.
        -13    1    3    3    0    0  0.15055440687E+02  0.38996865254E+01  0.17590103452E+02  0.23479709384E+02  0.10566000000E+00 0.  1.
         13    1    4    4    0    0 -0.10934831332E+02 -0.33661858857E+01  0.37729867513E+03  0.37747212236E+03  0.10566000000E+00 0. -1.
        -13    1    4    4    0    0 -0.11522289618E+01  0.17170660198E+00  0.39304034412E+02  0.39321436900E+02  0.10566000000E+00 0.  1.
        -14    1    4    4    0    0 -0.29683803923E+01 -0.70520724166E+00  0.89374020362E+02  0.89426081850E+02  0.00000000000E+00 0.  1.
<mgrwt>
<rscale>  0 0.80368980E+02</rscale>
<asrwt>0</asrwt>
<pdfrwt beam="1">  1        2 0.81020436E-01 0.80368980E+02</pdfrwt>
<pdfrwt beam="2">  1       -1 0.47173232E-03 0.80368980E+02</pdfrwt>
<totfact> 0.30582295E+05</totfact>
</mgrwt>
</event>
<event>
 8    1  0.1226832E-016  0.7143308E+02  0.7818608E-02  0.1355287E+00
          2   -1    0    0  501    0  0.00000000000E+00  0.00000000000E+00  0.50044722567E+03  0.50044722568E+03  0.25500000000E-02 0. -1.
         -1   -1    0    0    0  501 -0.00000000000E+00 -0.00000000000E+00 -0.25490598527E+01  0.25490648352E+01  0.50400000000E-02 0.  1.
         24    2    1    2    0    0  0.00000000000E+00 -0.17763568394E-14  0.49789816582E+03  0.50299629051E+03  0.71433078782E+02 0.  0.
         66    2    3    3    0    0 -0.30982537930E+02  0.12252833513E+02  0.33921352317E+03  0.34085167431E+03  0.19999989462E+01 0.  0.
        -13    1    3    3    0    0  0.30982537930E+02 -0.12252833513E+02  0.15868464265E+03  0.16214461620E+03  0.10566000000E+00 0.  1.
         13    1    4    4    0    0 -0.42191782267E+01  0.13189770234E+01  0.45150157395E+02  0.45366166271E+02  0.10566000000E+00 0. -1.
        -13    1    4    4    0    0 -0.92748905341E+01  0.30490715442E+01  0.10249162135E+03  0.10295564114E+03  0.10566000000E+00 0.  1.
        -14    1    4    4    0    0 -0.17488469169E+02  0.78847849453E+01  0.19157174442E+03  0.19252986690E+03  0.00000000000E+00 0.  1.
<mgrwt>
<rscale>  0 0.71433079E+02</rscale>
<asrwt>0</asrwt>
<pdfrwt beam="1">  1        2 0.76991797E-01 0.71433079E+02</pdfrwt>
<pdfrwt beam="2">  1       -1 0.39216387E-03 0.71433079E+02</pdfrwt>
<totfact> 0.40846836E+05</totfact>
</mgrwt>
</event>
<event>
 8    1  0.1226832E-016  0.8857417E+02  0.7818608E-02  0.1306342E+00
          2   -1    0    0  501    0  0.00000000000E+00  0.00000000000E+00  0.27921373139E+03  0.27921373140E+03  0.25500000000E-02 0. -1.
         -1   -1    0    0    0  501 -0.00000000000E+00 -0.00000000000E+00 -0.70245310895E+01  0.70245328975E+01  0.50400000000E-02 0.  1.
         24    2    1    2    0    0 -0.88817841970E-15 -0.88817841970E-15  0.27218920030E+03  0.28623826430E+03  0.88574167729E+02 0.  0.
         66    2    3    3    0    0 -0.71072735206E+01 -0.74875322851E+01  0.27526493517E+03  0.27546571653E+03  0.19999932438E+01 0.  0.
        -13    1    3    3    0    0  0.71072735206E+01  0.74875322851E+01 -0.30757348617E+01  0.10772547776E+02  0.10566000000E+00 0.  1.
         13    1    4    4    0    0 -0.40127734341E+01 -0.33552692992E+01  0.14497492254E+03  0.14506929210E+03  0.10566000000E+00 0. -1.
        -13    1    4    4    0    0 -0.13640175990E+01 -0.23818670217E+01  0.58945119042E+02  0.59009084534E+02  0.10566000000E+00 0.  1.
        -14    1    4    4    0    0 -0.17304824875E+01 -0.17503959643E+01  0.71344893587E+02  0.71387339891E+02  0.00000000000E+00 0.  1.
<mgrwt>
<rscale>  0 0.88574168E+02</rscale>
<asrwt>0</asrwt>
<pdfrwt beam="1">  1        2 0.42955958E-01 0.88574168E+02</pdfrwt>
<pdfrwt beam="2">  1       -1 0.10806973E-02 0.88574168E+02</pdfrwt>
<totfact> 0.18989232E+05</totfact>
</mgrwt>
</event>
<event>
 8    1  0.1226832E-016  0.8876611E+02  0.7818608E-02  0.1305868E+00
         -1   -1    0    0    0  501 -0.00000000000E+00  0.00000000000E+00  0.32001982661E+01  0.32002022349E+01  0.50400000000E-02 0.  1.
          2   -1    0    0  501    0  0.00000000000E+00 -0.00000000000E+00 -0.61554137836E+03  0.61554137836E+03  0.25500000000E-02 0. -1.
         24    2    1    2    0    0  0.00000000000E+00  0.22204460493E-15 -0.61234118009E+03  0.61874158060E+03  0.88766112480E+02 0.  0.
         66    2    3    3    0    0 -0.25736756857E+02  0.12862884880E+01 -0.55801801624E+03  0.55861627406E+03  0.20000006989E+01 0.  0.
        -13    1    3    3    0    0  0.25736756857E+02 -0.12862884880E+01 -0.54323163850E+02  0.60125306538E+02  0.10566000000E+00 0.  1.
         13    1    4    4    0    0 -0.50070576537E+01  0.28109051790E+00 -0.12571003795E+03  0.12581007291E+03  0.10566000000E+00 0. -1.
        -13    1    4    4    0    0 -0.12136563238E+01  0.89022627731E-02 -0.24264944307E+02  0.24295508375E+02  0.10566000000E+00 0.  1.
         14    1    4    4    0    0 -0.19516042879E+02  0.99629570732E+00 -0.40804303398E+03  0.40851069278E+03  0.00000000000E+00 0. -1.
<mgrwt>
<rscale>  0 0.88766112E+02</rscale>
<asrwt>0</asrwt>
<pdfrwt beam="1">  1        2 0.94698579E-01 0.88766112E+02</pdfrwt>
<pdfrwt beam="2">  1       -1 0.49233899E-03 0.88766112E+02</pdfrwt>
<totfact> 0.24679122E+05</totfact>
</mgrwt>
</event>
<event>
 8    1  0.1226832E-016  0.8131067E+02  0.7818608E-02  0.1325373E+00
          2   -1    0    0  501    0  0.00000000000E+00  0.00000000000E+00  0.21700070753E+03  0.21700070754E+03  0.25500000000E-02 0. -1.
         -1   -1    0    0    0  501 -0.00000000000E+00 -0.00000000000E+00 -0.76168235711E+01  0.76168252386E+01  0.50400000000E-02 0.  1.
         24    2    1    2    0    0 -0.88817841970E-15  0.71054273576E-14  0.20938388396E+03  0.22461753278E+03  0.81310670714E+02 0.  0.
         66    2    3    3    0    0 -0.44080908804E+01  0.30059928851E+02  0.17928119206E+03  0.18184822356E+03  0.19999994034E+01 0.  0.
        -13    1    3    3    0    0  0.44080908804E+01 -0.30059928851E+02  0.30102691893E+02  0.42769309218E+02  0.10566000000E+00 0.  1.
         13    1    4    4    0    0 -0.27780239332E-01  0.21025959310E+01  0.14782918282E+02  0.14932096918E+02  0.10566000000E+00 0.  1.
        -13    1    4    4    0    0 -0.32654185341E+01  0.21167971096E+02  0.12272025995E+03  0.12457535601E+03  0.10566000000E+00 0. -1.
         14    1    4    4    0    0 -0.11148921070E+01  0.67893618241E+01  0.41778013834E+02  0.42340770639E+02  0.00000000000E+00 0. -1.
<mgrwt>
<rscale>  0 0.81310671E+02</rscale>
<asrwt>0</asrwt>
<pdfrwt beam="1">  1        2 0.33384725E-01 0.81310671E+02</pdfrwt>
<pdfrwt beam="2">  1       -1 0.11718191E-02 0.81310671E+02</pdfrwt>
<totfact> 0.21744965E+05</totfact>
</mgrwt>
</event>
<event>
 8    1  0.1226832E-016  0.8038178E+02  0.7818608E-02  0.1327971E+00
          2   -1    0    0  501    0  0.00000000000E+00  0.00000000000E+00  0.39850580049E+03  0.39850580049E+03  0.25500000000E-02 0. -1.
         -1   -1    0    0    0  501 -0.00000000000E+00 -0.00000000000E+00 -0.40534086828E+01  0.40534118162E+01  0.50400000000E-02 0.  1.
         24    2    1    2    0    0 -0.35527136788E-14  0.00000000000E+00  0.39445239180E+03  0.40255921231E+03  0.80381776645E+02 0.  0.
         66    2    3    3    0    0 -0.31814242521E+02  0.16531384493E+02  0.28803033116E+03  0.29026006336E+03  0.20000026280E+01 0.  0.
        -13    1    3    3    0    0  0.31814242521E+02 -0.16531384493E+02  0.10642206064E+03  0.11229914895E+03  0.10566000000E+00 0.  1.
         13    1    4    4    0    0 -0.15268961734E+02  0.83422485835E+01  0.14034887577E+03  0.14142330924E+03  0.10566000000E+00 0. -1.
        -13    1    4    4    0    0 -0.94711918821E+00  0.80153998833E+00  0.10755329906E+02  0.10827178143E+02  0.10566000000E+00 0.  1.
         14    1    4    4    0    0 -0.15598161598E+02  0.73875959210E+01  0.13692612549E+03  0.13800957597E+03  0.00000000000E+00 0. -1.
<mgrwt>
<rscale>  0 0.80381777E+02</rscale>
<asrwt>0</asrwt>
<pdfrwt beam="1">  1        2 0.61308589E-01 0.80381777E+02</pdfrwt>
<pdfrwt beam="2">  1       -1 0.62360153E-03 0.80381777E+02</pdfrwt>
<totfact> 0.27867827E+05</totfact>
</mgrwt>
</event>
<event>
 8    1  0.1226832E-016  0.7802214E+02  0.7818608E-02  0.1334760E+00
         -1   -1    0    0    0  501 -0.00000000000E+00  0.00000000000E+00  0.47552840436E+01  0.47552867145E+01  0.50400000000E-02 0.  1.
          2   -1    0    0  501    0  0.00000000000E+00 -0.00000000000E+00 -0.32003620335E+03  0.32003620336E+03  0.25500000000E-02 0. -1.
         24    2    1    2    0    0  0.00000000000E+00  0.71054273576E-14 -0.31528091931E+03  0.32479149007E+03  0.78022137539E+02 0.  0.
         66    2    3    3    0    0 -0.19522942552E+02 -0.33621781682E+02 -0.16972879995E+03  0.17413625418E+03  0.19999995085E+01 0.  0.
        -13    1    3    3    0    0  0.19522942552E+02  0.33621781682E+02 -0.14555211936E+03  0.15065523590E+03  0.10566000000E+00 0.  1.
         13    1    4    4    0    0 -0.11551789867E+02 -0.19076996015E+02 -0.99234987961E+02  0.10171022380E+03  0.10566000000E+00 0. -1.
        -13    1    4    4    0    0 -0.93882218867E-01 -0.24091698299E+00 -0.91322130993E+00  0.95498275388E+00  0.10566000000E+00 0. -1.
         14    1    4    4    0    0 -0.78772704657E+01 -0.14303868683E+02 -0.69580590678E+02  0.71471047623E+02  0.00000000000E+00 0. -1.
<mgrwt>
<rscale>  0 0.78022138E+02</rscale>
<asrwt>0</asrwt>
<pdfrwt beam="1">  1        2 0.49236322E-01 0.78022138E+02</pdfrwt>
<pdfrwt beam="2">  1       -1 0.73158262E-03 0.78022138E+02</pdfrwt>
<totfact> 0.27863776E+05</totfact>
</mgrwt>
</event>
<event>
 8    1  0.1226832E-016  0.7671368E+02  0.7818608E-02  0.1338645E+00
          2   -1    0    0  501    0  0.00000000000E+00  0.00000000000E+00  0.19429760562E+02  0.19429760729E+02  0.25500000000E-02 0. -1.
         -1   -1    0    0    0  501 -0.00000000000E+00 -0.00000000000E+00 -0.75721312509E+02  0.75721312676E+02  0.50400000000E-02 0.  1.
         24    2    1    2    0    0  0.00000000000E+00  0.00000000000E+00 -0.56291551947E+02  0.95151073405E+02  0.76713675115E+02 0.  0.
         66    2    3    3    0    0  0.18616071070E+02 -0.19382215516E+02  0.57355752900E+01  0.27552226835E+02  0.19999998137E+01 0.  0.
        -13    1    3    3    0    0 -0.18616071070E+02  0.19382215516E+02 -0.62027127237E+02  0.67598846571E+02  0.10566000000E+00 0.  1.
         13    1    4    4    0    0  0.56342986024E+01 -0.56777284191E+01  0.16748497756E+01  0.81730169796E+01  0.10566000000E+00 0. -1.
        -13    1    4    4    0    0  0.67853326262E+01 -0.83096702162E+01  0.20885283663E+01  0.10929980454E+02  0.10566000000E+00 0.  1.
        -14    1    4    4    0    0  0.61964398413E+01 -0.53948168805E+01  0.19721971481E+01  0.84492294011E+01  0.00000000000E+00 0.  1.
<mgrwt>
<rscale>  0 0.76713675E+02</rscale>
<asrwt>0</asrwt>
<pdfrwt beam="1">  1        2 0.29891940E-02 0.76713675E+02</pdfrwt>
<pdfrwt beam="2">  1       -1 0.11649433E-01 0.76713675E+02</pdfrwt>
<totfact> 0.13919650E+05</totfact>
</mgrwt>
</event>
<event>
 8    1  0.1226832E-016  0.7814823E+02  0.7818608E-02  0.1334390E+00
         -1   -1    0    0    0  501 -0.00000000000E+00  0.00000000000E+00  0.61981104555E+01  0.61981125046E+01  0.50400000000E-02 0.  1.
          2   -1    0    0  501    0  0.00000000000E+00 -0.00000000000E+00 -0.24633091464E+03  0.24633091465E+03  0.25500000000E-02 0. -1.
         24    2    1    2    0    0 -0.17763568394E-14  0.00000000000E+00 -0.24013280418E+03  0.25252902716E+03  0.78148230382E+02 0.  0.
         66    2    3    3    0    0  0.11132405505E+02  0.69856747451E+01 -0.23896460848E+03  0.23933410582E+03  0.19999995054E+01 0.  0.
        -13    1    3    3    0    0 -0.11132405505E+02 -0.69856747451E+01 -0.11681957069E+01  0.13194921342E+02  0.10566000000E+00 0.  1.
         13    1    4    4    0    0  0.48680145244E+01  0.27440063239E+01 -0.10233842867E+03  0.10249093756E+03  0.10566000000E+00 0. -1.
        -13    1    4    4    0    0  0.17292582525E+01  0.19747840862E+01 -0.49240256985E+02  0.49310284711E+02  0.10566000000E+00 0.  1.
        -14    1    4    4    0    0  0.45351327278E+01  0.22668843350E+01 -0.87385922823E+02  0.87532883541E+02  0.00000000000E+00 0.  1.
<mgrwt>
<rscale>  0 0.78148230E+02</rscale>
<asrwt>0</asrwt>
<pdfrwt beam="1">  1        2 0.37897056E-01 0.78148230E+02</pdfrwt>
<pdfrwt beam="2">  1       -1 0.95355581E-03 0.78148230E+02</pdfrwt>
<totfact> 0.25248617E+05</totfact>
</mgrwt>
</event>
<event>
 8    1  0.1226832E-016  0.8129785E+02  0.7818608E-02  0.1325408E+00
         -1   -1    0    0    0  501 -0.00000000000E+00  0.00000000000E+00  0.47495106189E+01  0.47495132931E+01  0.50400000000E-02 0.  1.
          2   -1    0    0  501    0  0.00000000000E+00 -0.00000000000E+00 -0.34789579744E+03  0.34789579745E+03  0.25500000000E-02 0. -1.
         24    2    1    2    0    0  0.00000000000E+00 -0.71054273576E-14 -0.34314628682E+03  0.35264531075E+03  0.81297853782E+02 0.  0.
         66    2    3    3    0    0 -0.30953244835E+02 -0.26121913793E+02 -0.18530598234E+03  0.18969123553E+03  0.19999998596E+01 0.  0.
        -13    1    3    3    0    0  0.30953244835E+02  0.26121913793E+02 -0.15784030448E+03  0.16295407521E+03  0.10566000000E+00 0.  1.
         13    1    4    4    0    0 -0.26096368849E+01 -0.19599273509E+01 -0.16195727361E+02  0.16521630327E+02  0.10566000000E+00 0. -1.
        -13    1    4    4    0    0 -0.61704729173E+01 -0.59877215359E+01 -0.40411866385E+02  0.41316554236E+02  0.10566000000E+00 0.  1.
        -14    1    4    4    0    0 -0.22173135033E+02 -0.18174264906E+02 -0.12869838860E+03  0.13185305097E+03  0.00000000000E+00 0.  1.
<mgrwt>
<rscale>  0 0.81297854E+02</rscale>
<asrwt>0</asrwt>
<pdfrwt beam="1">  1        2 0.53522410E-01 0.81297854E+02</pdfrwt>
<pdfrwt beam="2">  1       -1 0.73069443E-03 0.81297854E+02</pdfrwt>
<totfact> 0.25781829E+05</totfact>
</mgrwt>
</event>
<event>
 8    1  0.1381910E-016  0.8063882E+02  0.7818608E-02  0.1327248E+00
         -1   -1    0    0    0  501 -0.00000000000E+00  0.00000000000E+00  0.10713924879E+02  0.10713926065E+02  0.50400000000E-02 0.  1.
          2   -1    0    0  501    0  0.00000000000E+00 -0.00000000000E+00 -0.15173288608E+03  0.15173288610E+03  0.25500000000E-02 0. -1.
         24    2    1    2    0    0 -0.35527136788E-14  0.17763568394E-14 -0.14101896120E+03  0.16244681217E+03  0.80638820457E+02 0.  0.
         66    2    3    3    0    0 -0.18886171078E+02  0.97108230035E+01 -0.13953754907E+03  0.14115847528E+03  0.20000003023E+01 0.  0.
        -13    1    3    3    0    0  0.18886171078E+02 -0.97108230035E+01 -0.14814121288E+01  0.21288336885E+02  0.10566000000E+00 0.  1.
         13    1    4    4    0    0 -0.12806369917E+02  0.64409760307E+01 -0.94090195259E+02  0.95175970132E+02  0.10566000000E+00 0. -1.
        -13    1    4    4    0    0 -0.38704900795E+01  0.24574912093E+01 -0.32645088629E+02  0.32965632591E+02  0.10566000000E+00 0.  1.
        -14    1    4    4    0    0 -0.22093110813E+01  0.81235576351E+00 -0.12802265184E+02  0.13016872557E+02  0.00000000000E+00 0.  1.
<mgrwt>
<rscale>  0 0.80638820E+02</rscale>
<asrwt>0</asrwt>
<pdfrwt beam="1">  1        2 0.23343519E-01 0.80638820E+02</pdfrwt>
<pdfrwt beam="2">  1       -1 0.16482963E-02 0.80638820E+02</pdfrwt>
<totfact> 0.19684477E+05</totfact>
</mgrwt>
</event>
<event>
 8    1  0.1226832E-016  0.8145417E+02  0.7818608E-02  0.1324975E+00
          2   -1    0    0  501    0  0.00000000000E+00  0.00000000000E+00  0.12137887120E+03  0.12137887122E+03  0.25500000000E-02 0. -1.
         -1   -1    0    0    0  501 -0.00000000000E+00 -0.00000000000E+00 -0.13665437940E+02  0.13665438870E+02  0.50400000000E-02 0.  1.
         24    2    1    2    0    0  0.00000000000E+00  0.17763568394E-14  0.10771343326E+03  0.13504431009E+03  0.81454171069E+02 0.  0.
         66    2    3    3    0    0 -0.24579455392E+02 -0.11643175274E+02  0.10409355160E+03  0.10760660128E+03  0.19999991446E+01 0.  0.
        -13    1    3    3    0    0  0.24579455392E+02  0.11643175274E+02  0.36198816606E+01  0.27437708817E+02  0.10566000000E+00 0.  1.
         13    1    4    4    0    0 -0.12022794513E+02 -0.58354822046E+01  0.53167576917E+02  0.54821554518E+02  0.10566000000E+00 0. -1.
        -13    1    4    4    0    0 -0.48536348755E+01 -0.28295160132E+01  0.19768351935E+02  0.20551467943E+02  0.10566000000E+00 0.  1.
         14    1    4    4    0    0 -0.77030260032E+01 -0.29781770565E+01  0.31157622745E+02  0.32233578816E+02  0.00000000000E+00 0. -1.
<mgrwt>
<rscale>  0 0.81454171E+02</rscale>
<asrwt>0</asrwt>
<pdfrwt beam="1">  1        2 0.18673673E-01 0.81454171E+02</pdfrwt>
<pdfrwt beam="2">  1       -1 0.21023751E-02 0.81454171E+02</pdfrwt>
<totfact> 0.17870497E+05</totfact>
</mgrwt>
</event>
<event>
 8    1  0.1226832E-016  0.7684306E+02  0.7818608E-02  0.1338257E+00
         -1   -1    0    0    0  501 -0.00000000000E+00  0.00000000000E+00  0.11362100659E+02  0.11362101777E+02  0.50400000000E-02 0.  1.
          2   -1    0    0  501    0  0.00000000000E+00 -0.00000000000E+00 -0.12992438031E+03  0.12992438034E+03  0.25500000000E-02 0. -1.
         24    2    1    2    0    0  0.00000000000E+00  0.88817841970E-15 -0.11856227965E+03  0.14128648212E+03  0.76843060011E+02 0.  0.
         66    2    3    3    0    0  0.86941336311E+01 -0.52024781590E+01 -0.12741420994E+03  0.12783205636E+03  0.19999999399E+01 0.  0.
        -13    1    3    3    0    0 -0.86941336311E+01  0.52024781590E+01  0.88519302866E+01  0.13454425756E+02  0.10566000000E+00 0.  1.
         13    1    4    4    0    0  0.67416090195E+01 -0.39245050701E+01 -0.95859266913E+02  0.96176198975E+02  0.10566000000E+00 0. -1.
        -13    1    4    4    0    0  0.63043044015E+00 -0.43157624991E+00 -0.16788155499E+02  0.16805862956E+02  0.10566000000E+00 0.  1.
        -14    1    4    4    0    0  0.13220941714E+01 -0.84639683901E+00 -0.14766787529E+02  0.14849994429E+02  0.00000000000E+00 0.  1.
<mgrwt>
<rscale>  0 0.76843060E+02</rscale>
<asrwt>0</asrwt>
<pdfrwt beam="1">  1        2 0.19988365E-01 0.76843060E+02</pdfrwt>
<pdfrwt beam="2">  1       -1 0.17480157E-02 0.76843060E+02</pdfrwt>
<totfact> 0.21303360E+05</totfact>
</mgrwt>
</event>
<event>
 8    1  0.1286102E-016  0.8185618E+02  0.7818608E-02  0.1323865E+00
         -1   -1    0    0    0  501 -0.00000000000E+00  0.00000000000E+00  0.48553593855E+01  0.48553620013E+01  0.50400000000E-02 0.  1.
          2   -1    0    0  501    0  0.00000000000E+00 -0.00000000000E+00 -0.34500185089E+03  0.34500185090E+03  0.25500000000E-02 0. -1.
         24    2    1    2    0    0  0.00000000000E+00  0.00000000000E+00 -0.34014649150E+03  0.34985721290E+03  0.81856177139E+02 0.  0.
         66    2    3    3    0    0  0.65296644325E+01  0.32627201251E+02 -0.27185126505E+03  0.27388735112E+03  0.20000031835E+01 0.  0.
        -13    1    3    3    0    0 -0.65296644325E+01 -0.32627201251E+02 -0.68295226450E+02  0.75969861781E+02  0.10566000000E+00 0.  1.
         13    1    4    4    0    0  0.23039780938E+01  0.11403481116E+02 -0.95513133724E+02  0.96219112314E+02  0.10566000000E+00 0. -1.
        -13    1    4    4    0    0  0.33859609229E+01  0.18376702477E+02 -0.15583825806E+03  0.15695458504E+03  0.10566000000E+00 0.  1.
        -14    1    4    4    0    0  0.83972541576E+00  0.28470176587E+01 -0.20499873267E+02  0.20713653765E+02  0.00000000000E+00 0.  1.
<mgrwt>
<rscale>  0 0.81856177E+02</rscale>
<asrwt>0</asrwt>
<pdfrwt beam="1">  1        2 0.53077189E-01 0.81856177E+02</pdfrwt>
<pdfrwt beam="2">  1       -1 0.74697884E-03 0.81856177E+02</pdfrwt>
<totfact> 0.25247650E+05</totfact>
</mgrwt>
</event>
<event>
 8    1  0.1226832E-016  0.8005037E+02  0.7818608E-02  0.1328909E+00
          2   -1    0    0  501    0  0.00000000000E+00  0.00000000000E+00  0.27355422192E+02  0.27355422311E+02  0.25500000000E-02 0. -1.
         -1   -1    0    0    0  501 -0.00000000000E+00 -0.00000000000E+00 -0.58562995717E+02  0.58562995934E+02  0.50400000000E-02 0.  1.
         24    2    1    2    0    0  0.00000000000E+00  0.00000000000E+00 -0.31207573525E+02  0.85918418245E+02  0.80050371319E+02 0.  0.
         66    2    3    3    0    0  0.22433425975E+02 -0.33046347215E+02 -0.17938111740E+02  0.43830302994E+02  0.19999856356E+01 0.  0.
        -13    1    3    3    0    0 -0.22433425975E+02  0.33046347215E+02 -0.13269461786E+02  0.42088115251E+02  0.10566000000E+00 0.  1.
         13    1    4    4    0    0  0.17599860892E+02 -0.25753882724E+02 -0.14190811884E+02  0.34269635025E+02  0.10566000000E+00 0. -1.
        -13    1    4    4    0    0  0.22239718481E+01 -0.36573842863E+01 -0.13825357481E+01  0.44994532700E+01  0.10566000000E+00 0.  1.
        -14    1    4    4    0    0  0.26095932353E+01 -0.36350802045E+01 -0.23647641080E+01  0.50612146994E+01  0.00000000000E+00 0.  1.
<mgrwt>
<rscale>  0 0.80050371E+02</rscale>
<asrwt>0</asrwt>
<pdfrwt beam="1">  1        2 0.42085265E-02 0.80050371E+02</pdfrwt>
<pdfrwt beam="2">  1       -1 0.90096917E-02 0.80050371E+02</pdfrwt>
<totfact> 0.13189407E+05</totfact>
</mgrwt>
</event>
<event>
 8    1  0.1226832E-016  0.7835075E+02  0.7818608E-02  0.1333798E+00
         -1   -1    0    0    0  501 -0.00000000000E+00  0.00000000000E+00  0.62560906164E+02  0.62560906367E+02  0.50400000000E-02 0.  1.
          2   -1    0    0  501    0  0.00000000000E+00 -0.00000000000E+00 -0.24531453262E+02  0.24531453394E+02  0.25500000000E-02 0. -1.
         24    2    1    2    0    0  0.00000000000E+00  0.35527136788E-14  0.38029452902E+02  0.87092359761E+02  0.78350748820E+02 0.  0.
         66    2    3    3    0    0  0.11292550912E+02 -0.28849804514E+02 -0.75780702345E+01  0.31957159958E+02  0.19999993823E+01 0.  0.
        -13    1    3    3    0    0 -0.11292550912E+02  0.28849804514E+02  0.45607523136E+02  0.55135199802E+02  0.10566000000E+00 0.  1.
         13    1    4    4    0    0  0.44649283533E+01 -0.10158185547E+02 -0.29961906609E+01  0.11494026332E+02  0.10566000000E+00 0. -1.
        -13    1    4    4    0    0  0.38130537047E+01 -0.11557798414E+02 -0.33268049222E+01  0.12617483020E+02  0.10566000000E+00 0.  1.
        -14    1    4    4    0    0  0.30145688535E+01 -0.71338205536E+01 -0.12550746514E+01  0.78456506068E+01  0.00000000000E+00 0.  1.
<mgrwt>
<rscale>  0 0.78350749E+02</rscale>
<asrwt>0</asrwt>
<pdfrwt beam="1">  1        2 0.37740698E-02 0.78350749E+02</pdfrwt>
<pdfrwt beam="2">  1       -1 0.96247547E-02 0.78350749E+02</pdfrwt>
<totfact> 0.13717104E+05</totfact>
</mgrwt>
</event>
<event>
 8    1  0.1226832E-016  0.7764393E+02  0.7818608E-02  0.1335874E+00
         -1   -1    0    0    0  501 -0.00000000000E+00  0.00000000000E+00  0.79340905723E+01  0.79340921731E+01  0.50400000000E-02 0.  1.
          2   -1    0    0  501    0  0.00000000000E+00 -0.00000000000E+00 -0.18995811041E+03  0.18995811043E+03  0.25500000000E-02 0. -1.
         24    2    1    2    0    0  0.22204460493E-15  0.00000000000E+00 -0.18202401984E+03  0.19789220260E+03  0.77643931200E+02 0.  0.
         66    2    3    3    0    0 -0.18163774581E+01  0.12029867991E+02 -0.18496470491E+03  0.18537518444E+03  0.19999987904E+01 0.  0.
        -13    1    3    3    0    0  0.18163774581E+01 -0.12029867991E+02  0.29406850651E+01  0.12517018161E+02  0.10566000000E+00 0.  1.
         13    1    4    4    0    0 -0.94655896572E+00  0.18936116317E+01 -0.35788079532E+02  0.35850795521E+02  0.10566000000E+00 0. -1.
        -13    1    4    4    0    0 -0.35019296286E+00  0.71283925477E+01 -0.10577985149E+03  0.10602039785E+03  0.10566000000E+00 0.  1.
         14    1    4    4    0    0 -0.51962552956E+00  0.30078638117E+01 -0.43396773884E+02  0.43503991069E+02  0.00000000000E+00 0. -1.
<mgrwt>
<rscale>  0 0.77643931E+02</rscale>
<asrwt>0</asrwt>
<pdfrwt beam="1">  1        2 0.29224321E-01 0.77643931E+02</pdfrwt>
<pdfrwt beam="2">  1       -1 0.12206296E-02 0.77643931E+02</pdfrwt>
<totfact> 0.23446703E+05</totfact>
</mgrwt>
</event>
<event>
 8    1  0.1226832E-016  0.7977675E+02  0.7818608E-02  0.1329686E+00
         -1   -1    0    0    0  501 -0.00000000000E+00  0.00000000000E+00  0.56009890498E+01  0.56009913174E+01  0.50400000000E-02 0.  1.
          2   -1    0    0  501    0  0.00000000000E+00 -0.00000000000E+00 -0.28407162182E+03  0.28407162183E+03  0.25500000000E-02 0. -1.
         24    2    1    2    0    0  0.00000000000E+00  0.00000000000E+00 -0.27847063277E+03  0.28967261315E+03  0.79776747822E+02 0.  0.
         66    2    3    3    0    0 -0.14153125428E+02 -0.24985378692E+02 -0.23971920014E+03  0.24144124573E+03  0.20000295358E+01 0.  0.
        -13    1    3    3    0    0  0.14153125428E+02  0.24985378692E+02 -0.38751432632E+02  0.48231367416E+02  0.10566000000E+00 0.  1.
         13    1    4    4    0    0 -0.36930692514E+01 -0.56342550906E+01 -0.59174674401E+02  0.59557005008E+02  0.10566000000E+00 0. -1.
        -13    1    4    4    0    0 -0.35233565201E+01 -0.77396568784E+01 -0.67821941803E+02  0.68353078085E+02  0.10566000000E+00 0.  1.
         14    1    4    4    0    0 -0.69366996570E+01 -0.11611466723E+02 -0.11272258394E+03  0.11353116264E+03  0.00000000000E+00 0. -1.
<mgrwt>
<rscale>  0 0.79776748E+02</rscale>
<asrwt>0</asrwt>
<pdfrwt beam="1">  1        2 0.43703315E-01 0.79776748E+02</pdfrwt>
<pdfrwt beam="2">  1       -1 0.86169102E-03 0.79776748E+02</pdfrwt>
<totfact> 0.25179504E+05</totfact>
</mgrwt>
</event>
<event>
 8    1  0.1226832E-016  0.7536245E+02  0.7818608E-02  0.1342752E+00
         -1   -1    0    0    0  501 -0.00000000000E+00  0.00000000000E+00  0.99699599692E+00  0.99700873591E+00  0.50400000000E-02 0.  1.
          2   -1    0    0  501    0  0.00000000000E+00 -0.00000000000E+00 -0.14241436356E+04  0.14241436356E+04  0.25500000000E-02 0. -1.
         24    2    1    2    0    0  0.00000000000E+00  0.00000000000E+00 -0.14231466396E+04  0.14251406443E+04  0.75362446424E+02 0.  0.
         66    2    3    3    0    0  0.42907178567E+01 -0.10493968644E+02 -0.13910981342E+04  0.13911457697E+04  0.19999996709E+01 0.  0.
        -13    1    3    3    0    0 -0.42907178567E+01  0.10493968644E+02 -0.32048505390E+02  0.33994874605E+02  0.10566000000E+00 0.  1.
         13    1    4    4    0    0  0.74862591148E-01 -0.74960513317E+00 -0.72402499604E+02  0.72406495739E+02  0.10566000000E+00 0.  1.
        -13    1    4    4    0    0  0.39455110268E+01 -0.96736231387E+01 -0.12871017339E+04  0.12871441375E+04  0.10566000000E+00 0. -1.
        -14    1    4    4    0    0  0.27034423872E+00 -0.70740371866E-01 -0.31593900662E+02  0.31595136481E+02  0.00000000000E+00 0.  1.
<mgrwt>
<rscale>  0 0.75362446E+02</rscale>
<asrwt>0</asrwt>
<pdfrwt beam="1">  1        2 0.21909739E+00 0.75362446E+02</pdfrwt>
<pdfrwt beam="2">  1       -1 0.15338612E-03 0.75362446E+02</pdfrwt>
<totfact> 0.39505001E+05</totfact>
</mgrwt>
</event>
<event>
 8    1  0.1226832E-016  0.7923107E+02  0.7818608E-02  0.1331248E+00
          2   -1    0    0  501    0  0.00000000000E+00  0.00000000000E+00  0.37766946910E+03  0.37766946911E+03  0.25500000000E-02 0. -1.
         -1   -1    0    0    0  501 -0.00000000000E+00 -0.00000000000E+00 -0.41554588704E+01  0.41554619268E+01  0.50400000000E-02 0.  1.
         24    2    1    2    0    0  0.00000000000E+00  0.00000000000E+00  0.37351401023E+03  0.38182493103E+03  0.79231067911E+02 0.  0.
         66    2    3    3    0    0 -0.14837480046E+02 -0.15020233271E+02  0.34827178518E+03  0.34891688778E+03  0.20000001850E+01 0.  0.
        -13    1    3    3    0    0  0.14837480046E+02  0.15020233271E+02  0.25242225044E+02  0.32908043254E+02  0.10566000000E+00 0.  1.
         13    1    4    4    0    0 -0.10429826861E+02 -0.96078525583E+01  0.22344312534E+03  0.22389268309E+03  0.10566000000E+00 0. -1.
        -13    1    4    4    0    0 -0.15924241781E+01 -0.18533256183E+01  0.46252210170E+02  0.46316829989E+02  0.10566000000E+00 0.  1.
         14    1    4    4    0    0 -0.28152290066E+01 -0.35590550942E+01  0.78576449679E+02  0.78707374697E+02  0.00000000000E+00 0. -1.
<mgrwt>
<rscale>  0 0.79231068E+02</rscale>
<asrwt>0</asrwt>
<pdfrwt beam="1">  1        2 0.58102998E-01 0.79231068E+02</pdfrwt>
<pdfrwt beam="2">  1       -1 0.63930157E-03 0.79231068E+02</pdfrwt>
<totfact> 0.28395478E+05</totfact>
</mgrwt>
</event>
<event>
 8    1  0.1226832E-016  0.7939165E+02  0.7818608E-02  0.1330787E+00
          2   -1    0    0  501    0  0.00000000000E+00  0.00000000000E+00  0.84233007361E+02  0.84233007399E+02  0.25500000000E-02 0. -1.
         -1   -1    0    0    0  501 -0.00000000000E+00 -0.00000000000E+00 -0.18707139533E+02  0.18707140212E+02  0.50400000000E-02 0.  1.
         24    2    1    2    0    0  0.35527136788E-14  0.00000000000E+00  0.65525867828E+02  0.10294014761E+03  0.79391653438E+02 0.  0.
         66    2    3    3    0    0 -0.15634802455E+02  0.23153439084E+02  0.69301762748E+02  0.74747997361E+02  0.20000000649E+01 0.  0.
        -13    1    3    3    0    0  0.15634802455E+02 -0.23153439084E+02 -0.37758949202E+01  0.28192150250E+02  0.10566000000E+00 0.  1.
         13    1    4    4    0    0 -0.68364293354E+01  0.10489111710E+02  0.30693503098E+02  0.33149065251E+02  0.10566000000E+00 0. -1.
        -13    1    4    4    0    0 -0.70705357194E+01  0.10274623698E+02  0.32637882766E+02  0.34939990312E+02  0.10566000000E+00 0.  1.
         14    1    4    4    0    0 -0.17278374003E+01  0.23897036767E+01  0.59703768836E+01  0.66589417985E+01  0.00000000000E+00 0. -1.
<mgrwt>
<rscale>  0 0.79391653E+02</rscale>
<asrwt>0</asrwt>
<pdfrwt beam="1">  1        2 0.12958924E-01 0.79391653E+02</pdfrwt>
<pdfrwt beam="2">  1       -1 0.28780215E-02 0.79391653E+02</pdfrwt>
<totfact> 0.17271560E+05</totfact>
</mgrwt>
</event>
<event>
 8    1  0.1226832E-016  0.7945819E+02  0.7818608E-02  0.1330596E+00
         -1   -1    0    0    0  501 -0.00000000000E+00  0.00000000000E+00  0.34775556995E+02  0.34775557361E+02  0.50400000000E-02 0.  1.
          2   -1    0    0  501    0  0.00000000000E+00 -0.00000000000E+00 -0.45388230468E+02  0.45388230540E+02  0.25500000000E-02 0. -1.
         24    2    1    2    0    0 -0.35527136788E-14  0.35527136788E-14 -0.10612673473E+02  0.80163787900E+02  0.79458190593E+02 0.  0.
         66    2    3    3    0    0  0.27258264776E+02 -0.24506973376E+02 -0.20702677905E+02  0.42145054411E+02  0.19999990588E+01 0.  0.
        -13    1    3    3    0    0 -0.27258264776E+02  0.24506973376E+02  0.10090004433E+02  0.38018733489E+02  0.10566000000E+00 0.  1.
         13    1    4    4    0    0  0.82923782414E+01 -0.73382395248E+01 -0.67564760448E+01  0.12972063398E+02  0.10566000000E+00 0. -1.
        -13    1    4    4    0    0  0.17723791640E+01 -0.18145064652E+01 -0.18445095687E+01  0.31380154872E+01  0.10566000000E+00 0.  1.
        -14    1    4    4    0    0  0.17193507371E+02 -0.15354227386E+02 -0.12101692292E+02  0.26034975526E+02  0.00000000000E+00 0.  1.
<mgrwt>
<rscale>  0 0.79458191E+02</rscale>
<asrwt>0</asrwt>
<pdfrwt beam="1">  1        2 0.69828047E-02 0.79458191E+02</pdfrwt>
<pdfrwt beam="2">  1       -1 0.53500857E-02 0.79458191E+02</pdfrwt>
<totfact> 0.14911721E+05</totfact>
</mgrwt>
</event>
<event>
 8    1  0.1226832E-016  0.7699593E+02  0.7818608E-02  0.1337799E+00
         -1   -1    0    0    0  501 -0.00000000000E+00  0.00000000000E+00  0.16885846241E+01  0.16885921457E+01  0.50400000000E-02 0.  1.
          2   -1    0    0  501    0  0.00000000000E+00 -0.00000000000E+00 -0.87771144287E+03  0.87771144287E+03  0.25500000000E-02 0. -1.
         24    2    1    2    0    0  0.44408920985E-15  0.00000000000E+00 -0.87602285824E+03  0.87940003502E+03  0.76995931210E+02 0.  0.
         66    2    3    3    0    0  0.33620171890E+01 -0.19266805111E+02 -0.81669287752E+03  0.81692947622E+03  0.19999998485E+01 0.  0.
        -13    1    3    3    0    0 -0.33620171890E+01  0.19266805111E+02 -0.59329980726E+02  0.62470558792E+02  0.10566000000E+00 0.  1.
         13    1    4    4    0    0  0.22622851181E+01 -0.11513582896E+02 -0.46611034425E+03  0.46625802374E+03  0.10566000000E+00 0. -1.
        -13    1    4    4    0    0  0.90026931112E+00 -0.49950882841E+01 -0.24591091141E+03  0.24596330805E+03  0.10566000000E+00 0.  1.
         14    1    4    4    0    0  0.19946275985E+00 -0.27581339308E+01 -0.10467162186E+03  0.10470814443E+03  0.00000000000E+00 0. -1.
<mgrwt>
<rscale>  0 0.76995931E+02</rscale>
<asrwt>0</asrwt>
<pdfrwt beam="1">  1        2 0.13503217E+00 0.76995931E+02</pdfrwt>
<pdfrwt beam="2">  1       -1 0.25978353E-03 0.76995931E+02</pdfrwt>
<totfact> 0.38477570E+05</totfact>
</mgrwt>
</event>
<event>
 8    1  0.1226832E-016  0.8030553E+02  0.7818608E-02  0.1328187E+00
         -1   -1    0    0    0  501 -0.00000000000E+00  0.00000000000E+00  0.12380454188E+03  0.12380454198E+03  0.50400000000E-02 0.  1.
          2   -1    0    0  501    0  0.00000000000E+00 -0.00000000000E+00 -0.13022497805E+02  0.13022498054E+02  0.25500000000E-02 0. -1.
         24    2    1    2    0    0  0.00000000000E+00  0.00000000000E+00  0.11078204407E+03  0.13682704004E+03  0.80305526558E+02 0.  0.
         66    2    3    3    0    0 -0.18824869086E+02 -0.34806821419E+02  0.44078623024E+02  0.59269009780E+02  0.19999997982E+01 0.  0.
        -13    1    3    3    0    0  0.18824869086E+02  0.34806821419E+02  0.66703421051E+02  0.77558030257E+02  0.10566000000E+00 0.  1.
         13    1    4    4    0    0 -0.14783592475E+02 -0.27764902792E+02  0.34147504885E+02  0.46427445411E+02  0.10566000000E+00 0. -1.
        -13    1    4    4    0    0 -0.16174621700E+01 -0.29231424595E+01  0.45304639986E+01  0.56300278674E+01  0.10566000000E+00 0.  1.
        -14    1    4    4    0    0 -0.24238144404E+01 -0.41187761679E+01  0.54006541406E+01  0.72115365013E+01  0.00000000000E+00 0.  1.
<mgrwt>
<rscale>  0 0.80305527E+02</rscale>
<asrwt>0</asrwt>
<pdfrwt beam="1">  1        2 0.20034611E-02 0.80305527E+02</pdfrwt>
<pdfrwt beam="2">  1       -1 0.19046853E-01 0.80305527E+02</pdfrwt>
<totfact> 0.11195037E+05</totfact>
</mgrwt>
</event>
<event>
 8    1  0.1226832E-016  0.7984723E+02  0.7818608E-02  0.1329486E+00
         -1   -1    0    0    0  501 -0.00000000000E+00  0.00000000000E+00  0.56029554498E+01  0.56029577166E+01  0.50400000000E-02 0.  1.
          2   -1    0    0  501    0  0.00000000000E+00 -0.00000000000E+00 -0.28447395600E+03  0.28447395601E+03  0.25500000000E-02 0. -1.
         24    2    1    2    0    0  0.22204460493E-15  0.71054273576E-14 -0.27887100055E+03  0.29007691372E+03  0.79847234955E+02 0.  0.
         66    2    3    3    0    0  0.18089506555E+01  0.37556505124E+02 -0.18800892434E+03  0.19174232451E+03  0.19999991943E+01 0.  0.
        -13    1    3    3    0    0 -0.18089506555E+01 -0.37556505124E+02 -0.90862076202E+02  0.98334589212E+02  0.10566000000E+00 0.  1.
         13    1    4    4    0    0  0.47581647680E-01  0.26036447182E+01 -0.12629735661E+02  0.12895837186E+02  0.10566000000E+00 0. -1.
        -13    1    4    4    0    0  0.22270082179E+00  0.20676082582E+02 -0.10546189096E+03  0.10746986366E+03  0.10566000000E+00 0.  1.
        -14    1    4    4    0    0  0.15386681860E+01  0.14276777824E+02 -0.69917297727E+02  0.71376623668E+02  0.00000000000E+00 0.  1.
<mgrwt>
<rscale>  0 0.79847235E+02</rscale>
<asrwt>0</asrwt>
<pdfrwt beam="1">  1        2 0.43765213E-01 0.79847235E+02</pdfrwt>
<pdfrwt beam="2">  1       -1 0.86199354E-03 0.79847235E+02</pdfrwt>
<totfact> 0.25134121E+05</totfact>
</mgrwt>
</event>
<event>
 8    1  0.1226832E-016  0.7865717E+02  0.7818608E-02  0.1332906E+00
          2   -1    0    0  501    0  0.00000000000E+00  0.00000000000E+00  0.64491669216E+03  0.64491669217E+03  0.25500000000E-02 0. -1.
         -1   -1    0    0    0  501 -0.00000000000E+00 -0.00000000000E+00 -0.23983497311E+01  0.23983550268E+01  0.50400000000E-02 0.  1.
         24    2    1    2    0    0 -0.17763568394E-14  0.35527136788E-14  0.64251834243E+03  0.64731504719E+03  0.78657167273E+02 0.  0.
         66    2    3    3    0    0 -0.54948055860E+01  0.26892339081E+02  0.55297079614E+03  0.55365521054E+03  0.19999986164E+01 0.  0.
        -13    1    3    3    0    0  0.54948055860E+01 -0.26892339081E+02  0.89547546294E+02  0.93659836648E+02  0.10566000000E+00 0.  1.
         13    1    4    4    0    0 -0.15158817897E+01  0.98239755173E+01  0.20437898401E+03  0.20462059686E+03  0.10566000000E+00 0. -1.
        -13    1    4    4    0    0 -0.27384174695E+01  0.11023412893E+02  0.23766121297E+03  0.23793250697E+03  0.10566000000E+00 0.  1.
         14    1    4    4    0    0 -0.12405063268E+01  0.60449506706E+01  0.11093059916E+03  0.11110210671E+03  0.00000000000E+00 0. -1.
<mgrwt>
<rscale>  0 0.78657167E+02</rscale>
<asrwt>0</asrwt>
<pdfrwt beam="1">  1        2 0.99217967E-01 0.78657167E+02</pdfrwt>
<pdfrwt beam="2">  1       -1 0.36897724E-03 0.78657167E+02</pdfrwt>
<totfact> 0.34266140E+05</totfact>
</mgrwt>
</event>
<event>
 8    1  0.1226832E-016  0.8031479E+02  0.7818608E-02  0.1328160E+00
          2   -1    0    0  501    0  0.00000000000E+00  0.00000000000E+00  0.52119757217E+03  0.52119757217E+03  0.25500000000E-02 0. -1.
         -1   -1    0    0    0  501 -0.00000000000E+00 -0.00000000000E+00 -0.30940572569E+01  0.30940613618E+01  0.50400000000E-02 0.  1.
         24    2    1    2    0    0  0.00000000000E+00 -0.71054273576E-14  0.51810351491E+03  0.52429163353E+03  0.80314785891E+02 0.  0.
         66    2    3    3    0    0 -0.18969204246E+02  0.29747336280E+02  0.38407809448E+03  0.38570029467E+03  0.19999790733E+01 0.  0.
        -13    1    3    3    0    0  0.18969204246E+02 -0.29747336280E+02  0.13402542042E+03  0.13859133887E+03  0.10566000000E+00 0.  1.
         13    1    4    4    0    0 -0.11545461726E+02  0.17972764774E+02  0.23452169599E+03  0.23549257953E+03  0.10566000000E+00 0. -1.
        -13    1    4    4    0    0 -0.30567234756E+00  0.23067903299E+00  0.55037871246E+01  0.55181052137E+01  0.10566000000E+00 0. -1.
        -14    1    4    4    0    0 -0.71180701722E+01  0.11543892474E+02  0.14405261137E+03  0.14468960992E+03  0.00000000000E+00 0.  1.
<mgrwt>
<rscale>  0 0.80314786E+02</rscale>
<asrwt>0</asrwt>
<pdfrwt beam="1">  1        2 0.80184257E-01 0.80314786E+02</pdfrwt>
<pdfrwt beam="2">  1       -1 0.47600904E-03 0.80314786E+02</pdfrwt>
<totfact> 0.30537809E+05</totfact>
</mgrwt>
</event>
<event>
 8    1  0.1226832E-016  0.7865884E+02  0.7818608E-02  0.1332901E+00
          2   -1    0    0  501    0  0.00000000000E+00  0.00000000000E+00  0.45495322790E+03  0.45495322791E+03  0.25500000000E-02 0. -1.
         -1   -1    0    0    0  501 -0.00000000000E+00 -0.00000000000E+00 -0.33999149479E+01  0.33999186836E+01  0.50400000000E-02 0.  1.
         24    2    1    2    0    0  0.17763568394E-14  0.00000000000E+00  0.45155331295E+03  0.45835314659E+03  0.78658836450E+02 0.  0.
         66    2    3    3    0    0  0.14243219580E+02 -0.34584833587E+02  0.29628751129E+03  0.29864572551E+03  0.20000002677E+01 0.  0.
        -13    1    3    3    0    0 -0.14243219580E+02  0.34584833587E+02  0.15526580166E+03  0.15970742108E+03  0.10566000000E+00 0.  1.
         13    1    4    4    0    0  0.98709763141E+01 -0.22738246899E+02  0.20122653898E+03  0.20274761454E+03  0.10566000000E+00 0. -1.
        -13    1    4    4    0    0  0.62732261760E+00 -0.14995510640E+01  0.13643464109E+02  0.13740358947E+02  0.10566000000E+00 0. -1.
         14    1    4    4    0    0  0.37449206486E+01 -0.10347035624E+02  0.81417508195E+02  0.82157752023E+02  0.00000000000E+00 0. -1.
<mgrwt>
<rscale>  0 0.78658836E+02</rscale>
<asrwt>0</asrwt>
<pdfrwt beam="1">  1        2 0.69992835E-01 0.78658836E+02</pdfrwt>
<pdfrwt beam="2">  1       -1 0.52306390E-03 0.78658836E+02</pdfrwt>
<totfact> 0.30856759E+05</totfact>
</mgrwt>
</event>
<event>
 8    1  0.1226832E-016  0.7950834E+02  0.7818608E-02  0.1330453E+00
          2   -1    0    0  501    0  0.00000000000E+00  0.00000000000E+00  0.35501740998E+01  0.35501750156E+01  0.25500000000E-02 0. -1.
         -1   -1    0    0    0  501 -0.00000000000E+00 -0.00000000000E+00 -0.44515954928E+03  0.44515954931E+03  0.50400000000E-02 0.  1.
         24    2    1    2    0    0  0.00000000000E+00  0.44408920985E-15 -0.44160937518E+03  0.44870972432E+03  0.79508342053E+02 0.  0.
         66    2    3    3    0    0  0.39478886493E+02  0.34987344493E+01 -0.20542111750E+03  0.20921916532E+03  0.20000003404E+01 0.  0.
        -13    1    3    3    0    0 -0.39478886493E+02 -0.34987344493E+01 -0.23618825768E+03  0.23949055900E+03  0.10566000000E+00 0.  1.
         13    1    4    4    0    0  0.21846938363E+02  0.17470134204E+01 -0.10885962557E+03  0.11104400036E+03  0.10566000000E+00 0. -1.
        -13    1    4    4    0    0  0.44567852683E+01  0.32368980735E+00 -0.25354201280E+02  0.25745182008E+02  0.10566000000E+00 0.  1.
        -14    1    4    4    0    0  0.13175162861E+02  0.14280312215E+01 -0.71207290647E+02  0.72429982955E+02  0.00000000000E+00 0.  1.
<mgrwt>
<rscale>  0 0.79508342E+02</rscale>
<asrwt>0</asrwt>
<pdfrwt beam="1">  1        2 0.54618105E-03 0.79508342E+02</pdfrwt>
<pdfrwt beam="2">  1       -1 0.68486041E-01 0.79508342E+02</pdfrwt>
<totfact> 0.72701385E+04</totfact>
</mgrwt>
</event>
<event>
 8    1  0.1226832E-016  0.7330936E+02  0.7818608E-02  0.1349188E+00
          2   -1    0    0  501    0  0.00000000000E+00  0.00000000000E+00  0.10918788307E+03  0.10918788310E+03  0.25500000000E-02 0. -1.
         -1   -1    0    0    0  501 -0.00000000000E+00 -0.00000000000E+00 -0.12305077191E+02  0.12305078223E+02  0.50400000000E-02 0.  1.
         24    2    1    2    0    0  0.00000000000E+00  0.00000000000E+00  0.96882805884E+02  0.12149296133E+03  0.73309355311E+02 0.  0.
         66    2    3    3    0    0 -0.15381338966E+02 -0.97334501009E+01  0.10115215778E+03  0.10279632610E+03  0.19999988267E+01 0.  0.
        -13    1    3    3    0    0  0.15381338966E+02  0.97334501009E+01 -0.42693519009E+01  0.18696635230E+02  0.10566000000E+00 0.  1.
         13    1    4    4    0    0 -0.13483252804E+01 -0.12285932076E+01  0.90122097442E+01  0.91955701748E+01  0.10566000000E+00 0. -1.
        -13    1    4    4    0    0 -0.30662999583E+01 -0.25028133414E+01  0.20736640827E+02  0.21111269665E+02  0.10566000000E+00 0.  1.
        -14    1    4    4    0    0 -0.10966713727E+02 -0.60020435519E+01  0.71403307213E+02  0.72489486257E+02  0.00000000000E+00 0.  1.
<mgrwt>
<rscale>  0 0.73309355E+02</rscale>
<asrwt>0</asrwt>
<pdfrwt beam="1">  1        2 0.16798137E-01 0.73309355E+02</pdfrwt>
<pdfrwt beam="2">  1       -1 0.18930888E-02 0.73309355E+02</pdfrwt>
<totfact> 0.22923146E+05</totfact>
</mgrwt>
</event>
<event>
 8    1  0.1307419E-016  0.8432384E+02  0.7818608E-02  0.1317210E+00
          2   -1    0    0  501    0  0.00000000000E+00  0.00000000000E+00  0.10261148162E+03  0.10261148165E+03  0.25500000000E-02 0. -1.
         -1   -1    0    0    0  501 -0.00000000000E+00 -0.00000000000E+00 -0.17323862936E+02  0.17323863669E+02  0.50400000000E-02 0.  1.
         24    2    1    2    0    0  0.00000000000E+00 -0.71054273576E-14  0.85287618686E+02  0.11993534532E+03  0.84323835043E+02 0.  0.
         66    2    3    3    0    0 -0.12352399137E+02 -0.24312340699E+02  0.88358271704E+02  0.92492463755E+02  0.19999995883E+01 0.  0.
        -13    1    3    3    0    0  0.12352399137E+02  0.24312340699E+02 -0.30706530178E+01  0.27442881567E+02  0.10566000000E+00 0.  1.
         13    1    4    4    0    0 -0.85708517795E+01 -0.17264579820E+02  0.61959857943E+02  0.64888830911E+02  0.10566000000E+00 0. -1.
        -13    1    4    4    0    0 -0.29669167222E+01 -0.59110979334E+01  0.22895702461E+02  0.23832079826E+02  0.10566000000E+00 0.  1.
        -14    1    4    4    0    0 -0.81463063511E+00 -0.11366629458E+01  0.35027112991E+01  0.37715530182E+01  0.00000000000E+00 0.  1.
<mgrwt>
<rscale>  0 0.84323835E+02</rscale>
<asrwt>0</asrwt>
<pdfrwt beam="1">  1        2 0.15786381E-01 0.84323835E+02</pdfrwt>
<pdfrwt beam="2">  1       -1 0.26652098E-02 0.84323835E+02</pdfrwt>
<totfact> 0.15501227E+05</totfact>
</mgrwt>
</event>
<event>
 8    1  0.1226832E-016  0.8762775E+02  0.7818608E-02  0.1308700E+00
          2   -1    0    0  501    0  0.00000000000E+00  0.00000000000E+00  0.97940475499E+02  0.97940475532E+02  0.25500000000E-02 0. -1.
         -1   -1    0    0    0  501 -0.00000000000E+00 -0.00000000000E+00 -0.19600227147E+02  0.19600227795E+02  0.50400000000E-02 0.  1.
         24    2    1    2    0    0  0.44408920985E-15  0.00000000000E+00  0.78340248352E+02  0.11754070333E+03  0.87627749183E+02 0.  0.
         66    2    3    3    0    0  0.34114377380E+01  0.37427669092E+02  0.69339315562E+02  0.78894923788E+02  0.19999989183E+01 0.  0.
        -13    1    3    3    0    0 -0.34114377380E+01 -0.37427669092E+02  0.90009327892E+01  0.38645779540E+02  0.10566000000E+00 0.  1.
         13    1    4    4    0    0  0.75905374339E+00  0.12902405921E+02  0.22504736434E+02  0.25952313329E+02  0.10566000000E+00 0. -1.
        -13    1    4    4    0    0  0.20091211054E+01  0.20578618957E+02  0.39824014816E+02  0.44871811261E+02  0.10566000000E+00 0.  1.
        -14    1    4    4    0    0  0.64326288924E+00  0.39466442143E+01  0.70105643132E+01  0.80707991976E+01  0.00000000000E+00 0.  1.
<mgrwt>
<rscale>  0 0.87627749E+02</rscale>
<asrwt>0</asrwt>
<pdfrwt beam="1">  1        2 0.15067765E-01 0.87627749E+02</pdfrwt>
<pdfrwt beam="2">  1       -1 0.30154197E-02 0.87627749E+02</pdfrwt>
<totfact> 0.13787711E+05</totfact>
</mgrwt>
</event>
<event>
 8    1  0.1226832E-016  0.7914095E+02  0.7818608E-02  0.1331507E+00
         -1   -1    0    0    0  501 -0.00000000000E+00  0.00000000000E+00  0.37850081976E+01  0.37850115531E+01  0.50400000000E-02 0.  1.
          2   -1    0    0  501    0  0.00000000000E+00 -0.00000000000E+00 -0.41369042989E+03  0.41369042990E+03  0.25500000000E-02 0. -1.
         24    2    1    2    0    0 -0.71054273576E-14 -0.17763568394E-14 -0.40990542170E+03  0.41747544145E+03  0.79140946936E+02 0.  0.
         66    2    3    3    0    0 -0.32505223953E+02 -0.14738846425E+02 -0.29491385361E+03  0.29707238887E+03  0.19999990395E+01 0.  0.
        -13    1    3    3    0    0  0.32505223953E+02  0.14738846425E+02 -0.11499156808E+03  0.12040305259E+03  0.10566000000E+00 0.  1.
         13    1    4    4    0    0 -0.25782310661E+01 -0.88229748761E+00 -0.25798997117E+02  0.25942728087E+02  0.10566000000E+00 0.  1.
        -13    1    4    4    0    0 -0.96753130806E+01 -0.47320416634E+01 -0.90856522171E+02  0.91492746633E+02  0.10566000000E+00 0. -1.
         14    1    4    4    0    0 -0.20251679806E+02 -0.91245072742E+01 -0.17825833432E+03  0.17963691415E+03  0.00000000000E+00 0. -1.
<mgrwt>
<rscale>  0 0.79140947E+02</rscale>
<asrwt>0</asrwt>
<pdfrwt beam="1">  1        2 0.63644646E-01 0.79140947E+02</pdfrwt>
<pdfrwt beam="2">  1       -1 0.58230954E-03 0.79140947E+02</pdfrwt>
<totfact> 0.29403215E+05</totfact>
</mgrwt>
</event>
<event>
 8    1  0.1226832E-016  0.8100708E+02  0.7818608E-02  0.1326218E+00
         -1   -1    0    0    0  501 -0.00000000000E+00  0.00000000000E+00  0.16481677201E+02  0.16481677971E+02  0.50400000000E-02 0.  1.
          2   -1    0    0  501    0  0.00000000000E+00 -0.00000000000E+00 -0.99536988894E+02  0.99536988927E+02  0.25500000000E-02 0. -1.
         24    2    1    2    0    0  0.35527136788E-14 -0.88817841970E-15 -0.83055311693E+02  0.11601866690E+03  0.81007075421E+02 0.  0.
         66    2    3    3    0    0 -0.18520291164E+02  0.54549042528E+01 -0.92507461006E+02  0.94521889096E+02  0.20000027896E+01 0.  0.
        -13    1    3    3    0    0  0.18520291164E+02 -0.54549042528E+01  0.94521493130E+01  0.21496777802E+02  0.10566000000E+00 0.  1.
         13    1    4    4    0    0 -0.41482331630E+01  0.99794219996E+00 -0.23764889818E+02  0.24145079811E+02  0.10566000000E+00 0. -1.
        -13    1    4    4    0    0 -0.24617638673E+01  0.10429169285E+01 -0.11142991405E+02  0.11459728555E+02  0.10566000000E+00 0.  1.
        -14    1    4    4    0    0 -0.11910294134E+02  0.34140451244E+01 -0.57599579783E+02  0.58917080730E+02  0.00000000000E+00 0.  1.
<mgrwt>
<rscale>  0 0.81007075E+02</rscale>
<asrwt>0</asrwt>
<pdfrwt beam="1">  1        2 0.15313383E-01 0.81007075E+02</pdfrwt>
<pdfrwt beam="2">  1       -1 0.25356428E-02 0.81007075E+02</pdfrwt>
<totfact> 0.17118934E+05</totfact>
</mgrwt>
</event>
<event>
 8    1  0.1226832E-016  0.8008417E+02  0.7818608E-02  0.1328813E+00
          2   -1    0    0  501    0  0.00000000000E+00  0.00000000000E+00  0.39045571765E+03  0.39045571766E+03  0.25500000000E-02 0. -1.
         -1   -1    0    0    0  501 -0.00000000000E+00 -0.00000000000E+00 -0.41064017933E+01  0.41064048862E+01  0.50400000000E-02 0.  1.
         24    2    1    2    0    0  0.35527136788E-14  0.44408920985E-15  0.38634931585E+03  0.39456212254E+03  0.80084172493E+02 0.  0.
         66    2    3    3    0    0 -0.29185958318E+02 -0.16460102596E+01  0.32793687734E+03  0.32924326117E+03  0.19999997382E+01 0.  0.
        -13    1    3    3    0    0  0.29185958318E+02  0.16460102596E+01  0.58412438517E+02  0.65318861367E+02  0.10566000000E+00 0.  1.
         13    1    4    4    0    0 -0.11532766521E+02 -0.45005699244E+00  0.12280745740E+03  0.12334865225E+03  0.10566000000E+00 0. -1.
        -13    1    4    4    0    0 -0.91045625311E+01 -0.11104217651E+01  0.11007153892E+03  0.11045307121E+03  0.10566000000E+00 0.  1.
        -14    1    4    4    0    0 -0.85486292663E+01 -0.85531502074E-01  0.95057881019E+02  0.95441537717E+02  0.00000000000E+00 0.  1.
<mgrwt>
<rscale>  0 0.80084172E+02</rscale>
<asrwt>0</asrwt>
<pdfrwt beam="1">  1        2 0.60070114E-01 0.80084172E+02</pdfrwt>
<pdfrwt beam="2">  1       -1 0.63175433E-03 0.80084172E+02</pdfrwt>
<totfact> 0.27938489E+05</totfact>
</mgrwt>
</event>
<event>
 8    1  0.1226832E-016  0.7848890E+02  0.7818608E-02  0.1333395E+00
         -1   -1    0    0    0  501 -0.00000000000E+00  0.00000000000E+00  0.10925083178E+03  0.10925083190E+03  0.50400000000E-02 0.  1.
          2   -1    0    0  501    0  0.00000000000E+00 -0.00000000000E+00 -0.14097163824E+02  0.14097164055E+02  0.25500000000E-02 0. -1.
         24    2    1    2    0    0 -0.88817841970E-15  0.00000000000E+00  0.95153667960E+02  0.12334799595E+03  0.78488900998E+02 0.  0.
         66    2    3    3    0    0  0.68639981773E+01 -0.37563263848E+02  0.61664633011E+02  0.72557840534E+02  0.19999991528E+01 0.  0.
        -13    1    3    3    0    0 -0.68639981773E+01  0.37563263848E+02  0.33489034949E+02  0.50790155421E+02  0.10566000000E+00 0.  1.
         13    1    4    4    0    0  0.19421789236E+01 -0.12328575102E+02  0.18971875336E+02  0.22709228098E+02  0.10566000000E+00 0. -1.
        -13    1    4    4    0    0  0.32408361428E+01 -0.16389236781E+02  0.28731648533E+02  0.33235957826E+02  0.10566000000E+00 0.  1.
        -14    1    4    4    0    0  0.16809831109E+01 -0.88454519652E+01  0.13961109143E+02  0.16612654610E+02  0.00000000000E+00 0.  1.
<mgrwt>
<rscale>  0 0.78488901E+02</rscale>
<asrwt>0</asrwt>
<pdfrwt beam="1">  1        2 0.21687944E-02 0.78488901E+02</pdfrwt>
<pdfrwt beam="2">  1       -1 0.16807821E-01 0.78488901E+02</pdfrwt>
<totfact> 0.12195195E+05</totfact>
</mgrwt>
</event>
<event>
 8    1  0.1226832E-016  0.8078335E+02  0.7818608E-02  0.1326843E+00
          2   -1    0    0  501    0  0.00000000000E+00  0.00000000000E+00  0.94679079878E+03  0.94679079878E+03  0.25500000000E-02 0. -1.
         -1   -1    0    0    0  501 -0.00000000000E+00 -0.00000000000E+00 -0.17231726792E+01  0.17231800497E+01  0.50400000000E-02 0.  1.
         24    2    1    2    0    0  0.88817841970E-15  0.35527136788E-14  0.94506762610E+03  0.94851397883E+03  0.80783353100E+02 0.  0.
         66    2    3    3    0    0  0.51264025665E+01  0.19547458321E+02  0.88311872491E+03  0.88335217520E+03  0.20000030275E+01 0.  0.
        -13    1    3    3    0    0 -0.51264025665E+01 -0.19547458321E+02  0.61948901191E+02  0.65161803635E+02  0.10566000000E+00 0.  1.
         13    1    4    4    0    0  0.40261788379E+01  0.14643068910E+02  0.65060876213E+03  0.65078598794E+03  0.10566000000E+00 0. -1.
        -13    1    4    4    0    0  0.82651154774E+00  0.18227122413E+01  0.82681210429E+02  0.82705496331E+02  0.10566000000E+00 0.  1.
         14    1    4    4    0    0  0.27371218092E+00  0.30816771694E+01  0.14982875235E+03  0.14986069093E+03  0.00000000000E+00 0. -1.
<mgrwt>
<rscale>  0 0.80783353E+02</rscale>
<asrwt>0</asrwt>
<pdfrwt beam="1">  1        2 0.14566033E+00 0.80783353E+02</pdfrwt>
<pdfrwt beam="2">  1       -1 0.26510368E-03 0.80783353E+02</pdfrwt>
<totfact> 0.34236923E+05</totfact>
</mgrwt>
</event>
<event>
 8    1  0.1226832E-016  0.7955055E+02  0.7818608E-02  0.1330332E+00
         -1   -1    0    0    0  501 -0.00000000000E+00  0.00000000000E+00  0.22671805214E+02  0.22671805774E+02  0.50400000000E-02 0.  1.
          2   -1    0    0  501    0  0.00000000000E+00 -0.00000000000E+00 -0.69781489438E+02  0.69781489484E+02  0.25500000000E-02 0. -1.
         24    2    1    2    0    0 -0.88817841970E-15  0.00000000000E+00 -0.47109684224E+02  0.92453295258E+02  0.79550546550E+02 0.  0.
         66    2    3    3    0    0  0.68732584197E+01  0.39138156285E+02 -0.24749454844E+02  0.46856935967E+02  0.19999936019E+01 0.  0.
        -13    1    3    3    0    0 -0.68732584197E+01 -0.39138156285E+02 -0.22360229380E+02  0.45596359292E+02  0.10566000000E+00 0.  1.
         13    1    4    4    0    0  0.33780237527E+01  0.17616779649E+02 -0.11030294220E+02  0.21058027550E+02  0.10566000000E+00 0. -1.
        -13    1    4    4    0    0  0.17148180288E+01  0.13604370516E+02 -0.91695992189E+01  0.16495824074E+02  0.10566000000E+00 0.  1.
        -14    1    4    4    0    0  0.17804166383E+01  0.79170061198E+01 -0.45495614055E+01  0.93030843428E+01  0.00000000000E+00 0.  1.
<mgrwt>
<rscale>  0 0.79550547E+02</rscale>
<asrwt>0</asrwt>
<pdfrwt beam="1">  1        2 0.10735614E-01 0.79550547E+02</pdfrwt>
<pdfrwt beam="2">  1       -1 0.34879701E-02 0.79550547E+02</pdfrwt>
<totfact> 0.16382064E+05</totfact>
</mgrwt>
</event>
<event>
 8    1  0.1226832E-016  0.8037954E+02  0.7818608E-02  0.1327978E+00
         -1   -1    0    0    0  501 -0.00000000000E+00  0.00000000000E+00  0.55456945644E+01  0.55456968546E+01  0.50400000000E-02 0.  1.
          2   -1    0    0  501    0  0.00000000000E+00 -0.00000000000E+00 -0.29125609341E+03  0.29125609342E+03  0.25500000000E-02 0. -1.
         24    2    1    2    0    0  0.00000000000E+00  0.00000000000E+00 -0.28571039885E+03  0.29680179028E+03  0.80379541566E+02 0.  0.
         66    2    3    3    0    0  0.26993110525E+02  0.42094268405E+01 -0.25166023843E+03  0.25314664306E+03  0.19999989889E+01 0.  0.
        -13    1    3    3    0    0 -0.26993110525E+02 -0.42094268405E+01 -0.34050160421E+02  0.43655147220E+02  0.10566000000E+00 0.  1.
         13    1    4    4    0    0  0.72800348022E+01  0.16702033399E+01 -0.73106144158E+02  0.73486787680E+02  0.10566000000E+00 0. -1.
        -13    1    4    4    0    0  0.27476653213E+01  0.64610245378E+00 -0.27051441857E+02  0.27198507012E+02  0.10566000000E+00 0. -1.
         14    1    4    4    0    0  0.16965410401E+02  0.18931210468E+01 -0.15150265241E+03  0.15246134836E+03  0.00000000000E+00 0. -1.
<mgrwt>
<rscale>  0 0.80379542E+02</rscale>
<asrwt>0</asrwt>
<pdfrwt beam="1">  1        2 0.44808618E-01 0.80379542E+02</pdfrwt>
<pdfrwt beam="2">  1       -1 0.85318419E-03 0.80379542E+02</pdfrwt>
<totfact> 0.24911552E+05</totfact>
</mgrwt>
</event>
<event>
 8    1  0.1226832E-016  0.7969449E+02  0.7818608E-02  0.1329921E+00
         -1   -1    0    0    0  501 -0.00000000000E+00  0.00000000000E+00  0.11065132364E+01  0.11065247146E+01  0.50400000000E-02 0.  1.
          2   -1    0    0  501    0  0.00000000000E+00 -0.00000000000E+00 -0.14349533002E+04  0.14349533002E+04  0.25500000000E-02 0. -1.
         24    2    1    2    0    0  0.00000000000E+00  0.00000000000E+00 -0.14338467870E+04  0.14360598250E+04  0.79694493251E+02 0.  0.
         66    2    3    3    0    0  0.10695988215E+02  0.19417607584E+02 -0.13134781951E+04  0.13136667829E+04  0.20000009864E+01 0.  0.
        -13    1    3    3    0    0 -0.10695988215E+02 -0.19417607584E+02 -0.12036859192E+03  0.12239304201E+03  0.10566000000E+00 0.  1.
         13    1    4    4    0    0  0.17276684465E+01  0.29697277720E+01 -0.18315185301E+03  0.18318410560E+03  0.10566000000E+00 0. -1.
        -13    1    4    4    0    0  0.62215942208E+00  0.15734245199E+01 -0.81118944722E+02  0.81136656968E+02  0.10566000000E+00 0.  1.
         14    1    4    4    0    0  0.83461603465E+01  0.14874455292E+02 -0.10492073973E+04  0.10493460204E+04  0.00000000000E+00 0. -1.
<mgrwt>
<rscale>  0 0.79694493E+02</rscale>
<asrwt>0</asrwt>
<pdfrwt beam="1">  1        2 0.22076056E+00 0.79694493E+02</pdfrwt>
<pdfrwt beam="2">  1       -1 0.17023484E-03 0.79694493E+02</pdfrwt>
<totfact> 0.34101722E+05</totfact>
</mgrwt>
</event>
<event>
 8    1  0.1226832E-016  0.8010017E+02  0.7818608E-02  0.1328767E+00
          2   -1    0    0  501    0  0.00000000000E+00  0.00000000000E+00  0.13451501315E+02  0.13451501557E+02  0.25500000000E-02 0. -1.
         -1   -1    0    0    0  501 -0.00000000000E+00 -0.00000000000E+00 -0.11924387223E+03  0.11924387234E+03  0.50400000000E-02 0.  1.
         24    2    1    2    0    0  0.00000000000E+00  0.00000000000E+00 -0.10579237092E+03  0.13269537390E+03  0.80100165474E+02 0.  0.
         66    2    3    3    0    0  0.21352325790E+02 -0.25760501795E+02 -0.16540790686E+02  0.37378108895E+02  0.19999996633E+01 0.  0.
        -13    1    3    3    0    0 -0.21352325790E+02  0.25760501795E+02 -0.89251580233E+02  0.95317265002E+02  0.10566000000E+00 0.  1.
         13    1    4    4    0    0  0.11636275561E+02 -0.14982217639E+02 -0.96177660043E+01  0.21269281635E+02  0.10566000000E+00 0. -1.
        -13    1    4    4    0    0  0.86755908921E+01 -0.91560813554E+01 -0.61352354193E+01  0.14026830747E+02  0.10566000000E+00 0.  1.
         14    1    4    4    0    0  0.10404593365E+01 -0.16222028011E+01 -0.78778926238E+00  0.20819965132E+01  0.00000000000E+00 0. -1.
<mgrwt>
<rscale>  0 0.80100165E+02</rscale>
<asrwt>0</asrwt>
<pdfrwt beam="1">  1        2 0.20694618E-02 0.80100165E+02</pdfrwt>
<pdfrwt beam="2">  1       -1 0.18345211E-01 0.80100165E+02</pdfrwt>
<totfact> 0.11365189E+05</totfact>
</mgrwt>
</event>
<event>
 8    1  0.1226832E-016  0.7802619E+02  0.7818608E-02  0.1334748E+00
         -1   -1    0    0    0  501 -0.00000000000E+00  0.00000000000E+00  0.44717171149E+02  0.44717171433E+02  0.50400000000E-02 0.  1.
          2   -1    0    0  501    0  0.00000000000E+00 -0.00000000000E+00 -0.34036627927E+02  0.34036628022E+02  0.25500000000E-02 0. -1.
         24    2    1    2    0    0  0.00000000000E+00  0.17763568394E-14  0.10680543223E+02  0.78753799455E+02  0.78026193840E+02 0.  0.
         66    2    3    3    0    0  0.37549526537E+02 -0.10441636093E+02  0.43233538868E+01  0.39264310629E+02  0.19999982133E+01 0.  0.
        -13    1    3    3    0    0 -0.37549526537E+02  0.10441636093E+02  0.63571893360E+01  0.39489488826E+02  0.10566000000E+00 0.  1.
         13    1    4    4    0    0  0.22450783900E+02 -0.65621336445E+01  0.20250396722E+01  0.23477888436E+02  0.10566000000E+00 0. -1.
        -13    1    4    4    0    0  0.93901299854E+01 -0.23655196700E+01  0.96677164241E+00  0.97322163917E+01  0.10566000000E+00 0.  1.
        -14    1    4    4    0    0  0.57086126518E+01 -0.15139827782E+01  0.13315425722E+01  0.60542058011E+01  0.00000000000E+00 0.  1.
<mgrwt>
<rscale>  0 0.78026194E+02</rscale>
<asrwt>0</asrwt>
<pdfrwt beam="1">  1        2 0.52364043E-02 0.78026194E+02</pdfrwt>
<pdfrwt beam="2">  1       -1 0.68795648E-02 0.78026194E+02</pdfrwt>
<totfact> 0.14788741E+05</totfact>
</mgrwt>
</event>
<event>
 8    1  0.1226832E-016  0.8160459E+02  0.7818608E-02  0.1324559E+00
         -1   -1    0    0    0  501 -0.00000000000E+00  0.00000000000E+00  0.87979798574E+01  0.87979813010E+01  0.50400000000E-02 0.  1.
          2   -1    0    0  501    0  0.00000000000E+00 -0.00000000000E+00 -0.18922834318E+03  0.18922834319E+03  0.25500000000E-02 0. -1.
         24    2    1    2    0    0  0.00000000000E+00  0.00000000000E+00 -0.18043036332E+03  0.19802632450E+03  0.81604590468E+02 0.  0.
         66    2    3    3    0    0 -0.13257870058E+02  0.38548978882E+02 -0.92728920431E+02  0.10131361003E+03  0.20000001850E+01 0.  0.
        -13    1    3    3    0    0  0.13257870058E+02 -0.38548978882E+02 -0.87701442888E+02  0.96712714470E+02  0.10566000000E+00 0.  1.
         13    1    4    4    0    0 -0.75306257813E+01  0.22748413597E+02 -0.52988679859E+02  0.58155068593E+02  0.10566000000E+00 0. -1.
        -13    1    4    4    0    0 -0.73357960794E+00  0.20599125530E+01 -0.44326206418E+01  0.49437504545E+01  0.10566000000E+00 0.  1.
        -14    1    4    4    0    0 -0.49936646690E+01  0.13740652732E+02 -0.35307619931E+02  0.38214790978E+02  0.00000000000E+00 0.  1.
<mgrwt>
<rscale>  0 0.81604590E+02</rscale>
<asrwt>0</asrwt>
<pdfrwt beam="1">  1        2 0.29112050E-01 0.81604590E+02</pdfrwt>
<pdfrwt beam="2">  1       -1 0.13535356E-02 0.81604590E+02</pdfrwt>
<totfact> 0.20533810E+05</totfact>
</mgrwt>
</event>
<event>
 8    1  0.1226832E-016  0.7991866E+02  0.7818608E-02  0.1329282E+00
         -1   -1    0    0    0  501 -0.00000000000E+00  0.00000000000E+00  0.27237636846E+03  0.27237636851E+03  0.50400000000E-02 0.  1.
          2   -1    0    0  501    0  0.00000000000E+00 -0.00000000000E+00 -0.58622858064E+01  0.58622863610E+01  0.25500000000E-02 0. -1.
         24    2    1    2    0    0  0.71054273576E-14 -0.44408920985E-15  0.26651408266E+03  0.27823865487E+03  0.79918663714E+02 0.  0.
         66    2    3    3    0    0  0.39397844849E+02 -0.39257889492E+01  0.15147804399E+03  0.15657969156E+03  0.20000001070E+01 0.  0.
        -13    1    3    3    0    0 -0.39397844849E+02  0.39257889492E+01  0.11503603867E+03  0.12165896331E+03  0.10566000000E+00 0.  1.
         13    1    4    4    0    0  0.17656915160E+02 -0.12265911278E+01  0.67835844337E+02  0.70106947727E+02  0.10566000000E+00 0. -1.
        -13    1    4    4    0    0  0.77621348662E+01 -0.13995067435E+01  0.28500968703E+02  0.29572381335E+02  0.10566000000E+00 0.  1.
        -14    1    4    4    0    0  0.13978794823E+02 -0.12996910779E+01  0.55141230949E+02  0.56900362496E+02  0.00000000000E+00 0.  1.
<mgrwt>
<rscale>  0 0.79918664E+02</rscale>
<asrwt>0</asrwt>
<pdfrwt beam="1">  1        2 0.90189045E-03 0.79918664E+02</pdfrwt>
<pdfrwt beam="2">  1       -1 0.41904044E-01 0.79918664E+02</pdfrwt>
<totfact> 0.89991846E+04</totfact>
</mgrwt>
</event>
<event>
 8    1  0.1226832E-016  0.7867578E+02  0.7818608E-02  0.1332852E+00
          2   -1    0    0  501    0  0.00000000000E+00  0.00000000000E+00  0.14061125369E+03  0.14061125372E+03  0.25500000000E-02 0. -1.
         -1   -1    0    0    0  501 -0.00000000000E+00 -0.00000000000E+00 -0.11005302383E+02  0.11005303537E+02  0.50400000000E-02 0.  1.
         24    2    1    2    0    0 -0.35527136788E-14  0.00000000000E+00  0.12960595131E+03  0.15161655725E+03  0.78675776565E+02 0.  0.
         66    2    3    3    0    0  0.18659688915E+02 -0.58154781026E+01  0.13057743361E+03  0.13204722620E+03  0.20000005279E+01 0.  0.
        -13    1    3    3    0    0 -0.18659688915E+02  0.58154781026E+01 -0.97148230279E+00  0.19569331053E+02  0.10566000000E+00 0.  1.
         13    1    4    4    0    0  0.87463194808E-01 -0.53095666364E-01  0.94254209339E+00  0.95394894708E+00  0.10566000000E+00 0.  1.
        -13    1    4    4    0    0  0.13439187149E+01 -0.34162938484E+00  0.71541284420E+01  0.72880412972E+01  0.10566000000E+00 0.  1.
         14    1    4    4    0    0  0.17228307005E+02 -0.54207530514E+01  0.12248076308E+03  0.12380523595E+03  0.00000000000E+00 0. -1.
<mgrwt>
<rscale>  0 0.78675777E+02</rscale>
<asrwt>0</asrwt>
<pdfrwt beam="1">  1        2 0.21632502E-01 0.78675777E+02</pdfrwt>
<pdfrwt beam="2">  1       -1 0.16931234E-02 0.78675777E+02</pdfrwt>
<totfact> 0.20510056E+05</totfact>
</mgrwt>
</event>
<event>
 8    1  0.1226832E-016  0.8017592E+02  0.7818608E-02  0.1328553E+00
         -1   -1    0    0    0  501 -0.00000000000E+00  0.00000000000E+00  0.18231812061E+02  0.18231812757E+02  0.50400000000E-02 0.  1.
          2   -1    0    0  501    0  0.00000000000E+00 -0.00000000000E+00 -0.88145076526E+02  0.88145076562E+02  0.25500000000E-02 0. -1.
         24    2    1    2    0    0 -0.71054273576E-14  0.00000000000E+00 -0.69913264465E+02  0.10637688932E+03  0.80175919285E+02 0.  0.
         66    2    3    3    0    0 -0.37066385935E+02 -0.15089569661E+02 -0.32521974618E+02  0.51607081950E+02  0.19999988711E+01 0.  0.
        -13    1    3    3    0    0  0.37066385935E+02  0.15089569661E+02 -0.37391289847E+02  0.54769807369E+02  0.10566000000E+00 0.  1.
         13    1    4    4    0    0 -0.65946358783E+01 -0.28834782878E+01 -0.65457823432E+01  0.97294449956E+01  0.10566000000E+00 0. -1.
        -13    1    4    4    0    0 -0.83330013690E+01 -0.27883915530E+01 -0.71170137540E+01  0.11308275204E+02  0.10566000000E+00 0.  1.
        -14    1    4    4    0    0 -0.22138748688E+02 -0.94176998205E+01 -0.18859178521E+02  0.30569361751E+02  0.00000000000E+00 0.  1.
<mgrwt>
<rscale>  0 0.80175919E+02</rscale>
<asrwt>0</asrwt>
<pdfrwt beam="1">  1        2 0.13560781E-01 0.80175919E+02</pdfrwt>
<pdfrwt beam="2">  1       -1 0.28048943E-02 0.80175919E+02</pdfrwt>
<totfact> 0.17024084E+05</totfact>
</mgrwt>
</event>
<event>
 8    1  0.1226832E-016  0.8033469E+02  0.7818608E-02  0.1328104E+00
         -1   -1    0    0    0  501 -0.00000000000E+00  0.00000000000E+00  0.32111646704E+02  0.32111647100E+02  0.50400000000E-02 0.  1.
          2   -1    0    0  501    0  0.00000000000E+00 -0.00000000000E+00 -0.50243932409E+02  0.50243932473E+02  0.25500000000E-02 0. -1.
         24    2    1    2    0    0  0.00000000000E+00  0.35527136788E-14 -0.18132285705E+02  0.82355579573E+02  0.80334685547E+02 0.  0.
         66    2    3    3    0    0  0.21224118608E+02  0.24891090338E+02  0.14781164312E+02  0.35951528619E+02  0.20000006767E+01 0.  0.
        -13    1    3    3    0    0 -0.21224118608E+02 -0.24891090338E+02 -0.32913450017E+02  0.46404050954E+02  0.10566000000E+00 0.  1.
         13    1    4    4    0    0  0.40453237934E+01  0.41536680239E+01  0.22047037653E+01  0.62039894724E+01  0.10566000000E+00 0. -1.
        -13    1    4    4    0    0  0.27073880244E+01  0.26007067477E+01  0.17421335233E+01  0.41400264191E+01  0.10566000000E+00 0.  1.
        -14    1    4    4    0    0  0.14471406790E+02  0.18136715566E+02  0.10834327024E+02  0.25607512727E+02  0.00000000000E+00 0.  1.
<mgrwt>
<rscale>  0 0.80334686E+02</rscale>
<asrwt>0</asrwt>
<pdfrwt beam="1">  1        2 0.77298358E-02 0.80334686E+02</pdfrwt>
<pdfrwt beam="2">  1       -1 0.49402534E-02 0.80334686E+02</pdfrwt>
<totfact> 0.14788733E+05</totfact>
</mgrwt>
</event>
<event>
 8    1  0.1226832E-016  0.8104756E+02  0.7818608E-02  0.1326105E+00
          2   -1    0    0  501    0  0.00000000000E+00  0.00000000000E+00  0.11794094012E+04  0.11794094012E+04  0.25500000000E-02 0. -1.
         -1   -1    0    0    0  501 -0.00000000000E+00 -0.00000000000E+00 -0.13923676962E+01  0.13923768179E+01  0.50400000000E-02 0.  1.
         24    2    1    2    0    0  0.00000000000E+00  0.35527136788E-14  0.11780170335E+04  0.11808017780E+04  0.81047564747E+02 0.  0.
         66    2    3    3    0    0 -0.23248396457E+02 -0.14452126819E+02  0.10242087278E+04  0.10245764344E+04  0.20000033972E+01 0.  0.
        -13    1    3    3    0    0  0.23248396457E+02  0.14452126819E+02  0.15380830571E+03  0.15622534358E+03  0.10566000000E+00 0.  1.
         13    1    4    4    0    0 -0.35570880414E+01 -0.26151173561E+01  0.17367551895E+03  0.17373165733E+03  0.10566000000E+00 0. -1.
        -13    1    4    4    0    0 -0.66716710829E+01 -0.48054762023E+01  0.31135426110E+03  0.31146282421E+03  0.10566000000E+00 0.  1.
         14    1    4    4    0    0 -0.13019637333E+02 -0.70315332608E+01  0.53917894772E+03  0.53938195287E+03  0.00000000000E+00 0. -1.
<mgrwt>
<rscale>  0 0.81047565E+02</rscale>
<asrwt>0</asrwt>
<pdfrwt beam="1">  1        2 0.18144820E+00 0.81047565E+02</pdfrwt>
<pdfrwt beam="2">  1       -1 0.21421041E-03 0.81047565E+02</pdfrwt>
<totfact> 0.33933450E+05</totfact>
</mgrwt>
</event>
<event>
 8    1  0.1226832E-016  0.7982921E+02  0.7818608E-02  0.1329537E+00
          2   -1    0    0  501    0  0.00000000000E+00  0.00000000000E+00  0.37343545593E+02  0.37343545680E+02  0.25500000000E-02 0. -1.
         -1   -1    0    0    0  501 -0.00000000000E+00 -0.00000000000E+00 -0.42662683199E+02  0.42662683497E+02  0.50400000000E-02 0.  1.
         24    2    1    2    0    0  0.00000000000E+00  0.00000000000E+00 -0.53191376063E+01  0.80006229177E+02  0.79829214466E+02 0.  0.
         66    2    3    3    0    0  0.18044879197E+02  0.20399262432E+02  0.26548260980E+02  0.38086188270E+02  0.20000007088E+01 0.  0.
        -13    1    3    3    0    0 -0.18044879197E+02 -0.20399262432E+02 -0.31867398587E+02  0.41920040908E+02  0.10566000000E+00 0.  1.
         13    1    4    4    0    0  0.42864333881E+01  0.47509756648E+01  0.65522050732E+01  0.91590303152E+01  0.10566000000E+00 0. -1.
        -13    1    4    4    0    0  0.73685909250E+01  0.96083200976E+01  0.11418462114E+02  0.16643568981E+02  0.10566000000E+00 0.  1.
         14    1    4    4    0    0  0.63898548841E+01  0.60399666691E+01  0.85775937926E+01  0.12283588974E+02  0.00000000000E+00 0. -1.
<mgrwt>
<rscale>  0 0.79829214E+02</rscale>
<asrwt>0</asrwt>
<pdfrwt beam="1">  1        2 0.57451609E-02 0.79829214E+02</pdfrwt>
<pdfrwt beam="2">  1       -1 0.65634898E-02 0.79829214E+02</pdfrwt>
<totfact> 0.14140149E+05</totfact>
</mgrwt>
</event>
<event>
 8    1  0.1226832E-016  0.7971640E+02  0.7818608E-02  0.1329858E+00
          2   -1    0    0  501    0  0.00000000000E+00  0.00000000000E+00  0.41599653693E+01  0.41599661508E+01  0.25500000000E-02 0. -1.
         -1   -1    0    0    0  501 -0.00000000000E+00 -0.00000000000E+00 -0.38189647562E+03  0.38189647565E+03  0.50400000000E-02 0.  1.
         24    2    1    2    0    0  0.00000000000E+00  0.00000000000E+00 -0.37773651025E+03  0.38605644180E+03  0.79716404096E+02 0.  0.
         66    2    3    3    0    0 -0.36858515586E+02  0.53653602289E+01 -0.25736125761E+03  0.26005029166E+03  0.20000031520E+01 0.  0.
        -13    1    3    3    0    0  0.36858515586E+02 -0.53653602289E+01 -0.12037525264E+03  0.12600615014E+03  0.10566000000E+00 0.  1.
         13    1    4    4    0    0 -0.55606386117E+01  0.99346908327E+00 -0.38702045682E+02  0.39112238322E+02  0.10566000000E+00 0. -1.
        -13    1    4    4    0    0 -0.22662565732E+02  0.33787992843E+01 -0.16365839858E+03  0.16525462402E+03  0.10566000000E+00 0.  1.
        -14    1    4    4    0    0 -0.86353112428E+01  0.99309186134E+00 -0.55000813349E+02  0.55683429319E+02  0.00000000000E+00 0.  1.
<mgrwt>
<rscale>  0 0.79716404E+02</rscale>
<asrwt>0</asrwt>
<pdfrwt beam="1">  1        2 0.63999503E-03 0.79716404E+02</pdfrwt>
<pdfrwt beam="2">  1       -1 0.58753277E-01 0.79716404E+02</pdfrwt>
<totfact> 0.78301352E+04</totfact>
</mgrwt>
</event>
<event>
 8    1  0.1226832E-016  0.7985618E+02  0.7818608E-02  0.1329460E+00
          2   -1    0    0  501    0  0.00000000000E+00  0.00000000000E+00  0.11977826603E+04  0.11977826603E+04  0.25500000000E-02 0. -1.
         -1   -1    0    0    0  501 -0.00000000000E+00 -0.00000000000E+00 -0.13309982859E+01  0.13310078282E+01  0.50400000000E-02 0.  1.
         24    2    1    2    0    0  0.00000000000E+00  0.17763568394E-14  0.11964516620E+04  0.11991136681E+04  0.79856180486E+02 0.  0.
         66    2    3    3    0    0  0.12375854012E+02  0.15844441396E+02  0.11161678014E+04  0.11163506479E+04  0.19999997894E+01 0.  0.
        -13    1    3    3    0    0 -0.12375854012E+02 -0.15844441396E+02  0.80283860550E+02  0.82763020212E+02  0.10566000000E+00 0.  1.
         13    1    4    4    0    0  0.51477796318E+01  0.65984221130E+01  0.44362832880E+03  0.44370727298E+03  0.10566000000E+00 0.  1.
        -13    1    4    4    0    0  0.61301629162E+01  0.85492592627E+01  0.60188885603E+03  0.60198079280E+03  0.10566000000E+00 0. -1.
        -14    1    4    4    0    0  0.10979114636E+01  0.69676002058E+00  0.70650616603E+02  0.70662582110E+02  0.00000000000E+00 0.  1.
<mgrwt>
<rscale>  0 0.79856180E+02</rscale>
<asrwt>0</asrwt>
<pdfrwt beam="1">  1        2 0.18427385E+00 0.79856180E+02</pdfrwt>
<pdfrwt beam="2">  1       -1 0.20477016E-03 0.79856180E+02</pdfrwt>
<totfact> 0.35209253E+05</totfact>
</mgrwt>
</event>
<event>
 8    1  0.1226832E-016  0.7866470E+02  0.7818608E-02  0.1332884E+00
          2   -1    0    0  501    0  0.00000000000E+00  0.00000000000E+00  0.12998686260E+04  0.12998686260E+04  0.25500000000E-02 0. -1.
         -1   -1    0    0    0  501 -0.00000000000E+00 -0.00000000000E+00 -0.11901409317E+01  0.11901516033E+01  0.50400000000E-02 0.  1.
         24    2    1    2    0    0  0.35527136788E-14  0.11102230246E-15  0.12986784851E+04  0.13010587776E+04  0.78664701142E+02 0.  0.
         66    2    3    3    0    0  0.23946951886E+02  0.51837569684E+00  0.11652172798E+04  0.11654651580E+04  0.20000027569E+01 0.  0.
        -13    1    3    3    0    0 -0.23946951886E+02 -0.51837569684E+00  0.13346120522E+03  0.13559361962E+03  0.10566000000E+00 0.  1.
         13    1    4    4    0    0  0.15794262011E+02  0.91046063765E+00  0.78421043174E+03  0.78437000202E+03  0.10566000000E+00 0. -1.
        -13    1    4    4    0    0  0.26296539244E+01  0.21837718185E+00  0.12973347074E+03  0.12976034588E+03  0.10566000000E+00 0.  1.
        -14    1    4    4    0    0  0.55230359512E+01 -0.61046212266E+00  0.25127337735E+03  0.25133481007E+03  0.00000000000E+00 0.  1.
<mgrwt>
<rscale>  0 0.78664701E+02</rscale>
<asrwt>0</asrwt>
<pdfrwt beam="1">  1        2 0.19998027E+00 0.78664701E+02</pdfrwt>
<pdfrwt beam="2">  1       -1 0.18309899E-03 0.78664701E+02</pdfrwt>
<totfact> 0.36163046E+05</totfact>
</mgrwt>
</event>
<event>
 8    1  0.1226832E-016  0.7936426E+02  0.7818608E-02  0.1330865E+00
         -1   -1    0    0    0  501 -0.00000000000E+00  0.00000000000E+00  0.20426044313E+02  0.20426044935E+02  0.50400000000E-02 0.  1.
          2   -1    0    0  501    0  0.00000000000E+00 -0.00000000000E+00 -0.77091357874E+02  0.77091357916E+02  0.25500000000E-02 0. -1.
         24    2    1    2    0    0  0.17763568394E-14 -0.17763568394E-14 -0.56665313561E+02  0.97517402851E+02  0.79364262094E+02 0.  0.
         66    2    3    3    0    0 -0.10968496127E+02  0.99206220490E+01 -0.73562924387E+02  0.75061511312E+02  0.19999967451E+01 0.  0.
        -13    1    3    3    0    0  0.10968496127E+02 -0.99206220490E+01  0.16897610826E+02  0.22455891538E+02  0.10566000000E+00 0.  1.
         13    1    4    4    0    0 -0.32225276039E+01  0.28947076746E+01 -0.22606002969E+02  0.23017527038E+02  0.10566000000E+00 0. -1.
        -13    1    4    4    0    0 -0.31137640881E+01  0.36509458907E+01 -0.25778412257E+02  0.26221415583E+02  0.10566000000E+00 0.  1.
         14    1    4    4    0    0 -0.46322044353E+01  0.33749684836E+01 -0.25178509161E+02  0.25822568691E+02  0.00000000000E+00 0. -1.
<mgrwt>
<rscale>  0 0.79364262E+02</rscale>
<asrwt>0</asrwt>
<pdfrwt beam="1">  1        2 0.11860209E-01 0.79364262E+02</pdfrwt>
<pdfrwt beam="2">  1       -1 0.31424685E-02 0.79364262E+02</pdfrwt>
<totfact> 0.16898479E+05</totfact>
</mgrwt>
</event>
<event>
 8    1  0.1226832E-016  0.7990193E+02  0.7818608E-02  0.1329330E+00
         -1   -1    0    0    0  501 -0.00000000000E+00  0.00000000000E+00  0.22003303539E+02  0.22003304116E+02  0.50400000000E-02 0.  1.
          2   -1    0    0  501    0  0.00000000000E+00 -0.00000000000E+00 -0.72538184599E+02  0.72538184644E+02  0.25500000000E-02 0. -1.
         24    2    1    2    0    0  0.00000000000E+00  0.00000000000E+00 -0.50534881061E+02  0.94541488760E+02  0.79901932975E+02 0.  0.
         66    2    3    3    0    0 -0.32392534743E+02  0.51434994845E+01 -0.52221746296E+02  0.61699616517E+02  0.19999995205E+01 0.  0.
        -13    1    3    3    0    0  0.32392534743E+02 -0.51434994845E+01  0.16868652358E+01  0.32841872243E+02  0.10566000000E+00 0.  1.
         13    1    4    4    0    0 -0.22985766463E+02  0.34856182083E+01 -0.36963543680E+02  0.43667032412E+02  0.10566000000E+00 0. -1.
        -13    1    4    4    0    0 -0.32892185372E+01  0.10111851550E+01 -0.49820769712E+01  0.60558821806E+01  0.10566000000E+00 0.  1.
        -14    1    4    4    0    0 -0.61175497434E+01  0.64669612117E+00 -0.10276125645E+02  0.11976701925E+02  0.00000000000E+00 0.  1.
<mgrwt>
<rscale>  0 0.79901933E+02</rscale>
<asrwt>0</asrwt>
<pdfrwt beam="1">  1        2 0.11159721E-01 0.79901933E+02</pdfrwt>
<pdfrwt beam="2">  1       -1 0.33851237E-02 0.79901933E+02</pdfrwt>
<totfact> 0.16342619E+05</totfact>
</mgrwt>
</event>
<event>
 8    1  0.1226832E-016  0.8024372E+02  0.7818608E-02  0.1328361E+00
         -1   -1    0    0    0  501 -0.00000000000E+00  0.00000000000E+00  0.78363822425E+01  0.78363838633E+01  0.50400000000E-02 0.  1.
          2   -1    0    0  501    0  0.00000000000E+00 -0.00000000000E+00 -0.20542174370E+03  0.20542174372E+03  0.25500000000E-02 0. -1.
         24    2    1    2    0    0  0.00000000000E+00  0.00000000000E+00 -0.19758536146E+03  0.21325812758E+03  0.80243715743E+02 0.  0.
         66    2    3    3    0    0 -0.55403609209E+01  0.36659287964E+02 -0.13943473058E+03  0.14429360026E+03  0.19999975474E+01 0.  0.
        -13    1    3    3    0    0  0.55403609209E+01 -0.36659287964E+02 -0.58150630872E+02  0.68964527317E+02  0.10566000000E+00 0.  1.
         13    1    4    4    0    0 -0.50213097800E+00  0.46132458298E+01 -0.16863417055E+02  0.17490573787E+02  0.10566000000E+00 0. -1.
        -13    1    4    4    0    0 -0.28699719055E+01  0.20849532395E+02 -0.76680856884E+02  0.79516694577E+02  0.10566000000E+00 0.  1.
        -14    1    4    4    0    0 -0.21682580375E+01  0.11196509739E+02 -0.45890456646E+02  0.47286331899E+02  0.00000000000E+00 0.  1.
<mgrwt>
<rscale>  0 0.80243716E+02</rscale>
<asrwt>0</asrwt>
<pdfrwt beam="1">  1        2 0.31603341E-01 0.80243716E+02</pdfrwt>
<pdfrwt beam="2">  1       -1 0.12055976E-02 0.80243716E+02</pdfrwt>
<totfact> 0.22086987E+05</totfact>
</mgrwt>
</event>
<event>
 8    1  0.1226832E-016  0.7882190E+02  0.7818608E-02  0.1332428E+00
         -1   -1    0    0    0  501 -0.00000000000E+00  0.00000000000E+00  0.17064745046E+02  0.17064745790E+02  0.50400000000E-02 0.  1.
          2   -1    0    0  501    0  0.00000000000E+00 -0.00000000000E+00 -0.91019409931E+02  0.91019409967E+02  0.25500000000E-02 0. -1.
         24    2    1    2    0    0  0.00000000000E+00  0.71054273576E-14 -0.73954664885E+02  0.10808415576E+03  0.78821902206E+02 0.  0.
         66    2    3    3    0    0 -0.33764986724E+01 -0.32247353429E+02 -0.67660766008E+02  0.75055124988E+02  0.19999959156E+01 0.  0.
        -13    1    3    3    0    0  0.33764986724E+01  0.32247353429E+02 -0.62938988770E+01  0.33029030769E+02  0.10566000000E+00 0.  1.
         13    1    4    4    0    0 -0.23266668280E+01 -0.17268693919E+02 -0.36012033316E+02  0.40006235461E+02  0.10566000000E+00 0. -1.
        -13    1    4    4    0    0  0.15481943651E+00 -0.14186380299E+01 -0.25774692714E+01  0.29480527130E+01  0.10566000000E+00 0.  1.
        -14    1    4    4    0    0 -0.12046512808E+01 -0.13560021480E+02 -0.29071263421E+02  0.32100836814E+02  0.00000000000E+00 0.  1.
<mgrwt>
<rscale>  0 0.78821902E+02</rscale>
<asrwt>0</asrwt>
<pdfrwt beam="1">  1        2 0.14002986E-01 0.78821902E+02</pdfrwt>
<pdfrwt beam="2">  1       -1 0.26253455E-02 0.78821902E+02</pdfrwt>
<totfact> 0.17974516E+05</totfact>
</mgrwt>
</event>
<event>
 8    1  0.1226832E-016  0.7928984E+02  0.7818608E-02  0.1331079E+00
          2   -1    0    0  501    0  0.00000000000E+00  0.00000000000E+00  0.18849729724E+02  0.18849729897E+02  0.25500000000E-02 0. -1.
         -1   -1    0    0    0  501 -0.00000000000E+00 -0.00000000000E+00 -0.83381559648E+02  0.83381559800E+02  0.50400000000E-02 0.  1.
         24    2    1    2    0    0 -0.35527136788E-14  0.00000000000E+00 -0.64531829924E+02  0.10223128970E+03  0.79289844998E+02 0.  0.
         66    2    3    3    0    0 -0.16442408029E+02 -0.22200531703E+02  0.43293742290E+01  0.28034975833E+02  0.19999997678E+01 0.  0.
        -13    1    3    3    0    0  0.16442408029E+02  0.22200531703E+02 -0.68861204153E+02  0.74196313864E+02  0.10566000000E+00 0.  1.
         13    1    4    4    0    0 -0.13640317616E+02 -0.18619738872E+02  0.30597687225E+01  0.23283605584E+02  0.10566000000E+00 0. -1.
        -13    1    4    4    0    0 -0.14406278668E+01 -0.19427368556E+01  0.93537731607E+00  0.25953284763E+01  0.10566000000E+00 0.  1.
        -14    1    4    4    0    0 -0.13614625458E+01 -0.16380559751E+01  0.33422819042E+00  0.21560417724E+01  0.00000000000E+00 0.  1.
<mgrwt>
<rscale>  0 0.79289845E+02</rscale>
<asrwt>0</asrwt>
<pdfrwt beam="1">  1        2 0.28999585E-02 0.79289845E+02</pdfrwt>
<pdfrwt beam="2">  1       -1 0.12827932E-01 0.79289845E+02</pdfrwt>
<totfact> 0.12586223E+05</totfact>
</mgrwt>
</event>
<event>
 8    1  0.1226832E-016  0.7911418E+02  0.7818608E-02  0.1331584E+00
         -1   -1    0    0    0  501 -0.00000000000E+00  0.00000000000E+00  0.53857882648E+02  0.53857882884E+02  0.50400000000E-02 0.  1.
          2   -1    0    0  501    0  0.00000000000E+00 -0.00000000000E+00 -0.29053561552E+02  0.29053561664E+02  0.25500000000E-02 0. -1.
         24    2    1    2    0    0  0.00000000000E+00 -0.44408920985E-15  0.24804321096E+02  0.82911444548E+02  0.79114178831E+02 0.  0.
         66    2    3    3    0    0  0.31177926724E+02  0.11414011890E+01 -0.13032591721E+02  0.33870552968E+02  0.19999999627E+01 0.  0.
        -13    1    3    3    0    0 -0.31177926724E+02 -0.11414011890E+01  0.37836912817E+02  0.49040891581E+02  0.10566000000E+00 0.  1.
         13    1    4    4    0    0  0.17366922043E+02  0.47173595164E+00 -0.75343183989E+01  0.18936991150E+02  0.10566000000E+00 0. -1.
        -13    1    4    4    0    0  0.76667190764E+01 -0.24031099431E+00 -0.29116059567E+01  0.82051778807E+01  0.10566000000E+00 0.  1.
        -14    1    4    4    0    0  0.61442856056E+01  0.90997623167E+00 -0.25866673653E+01  0.67283839370E+01  0.00000000000E+00 0.  1.
<mgrwt>
<rscale>  0 0.79114179E+02</rscale>
<asrwt>0</asrwt>
<pdfrwt beam="1">  1        2 0.44697787E-02 0.79114179E+02</pdfrwt>
<pdfrwt beam="2">  1       -1 0.82858281E-02 0.79114179E+02</pdfrwt>
<totfact> 0.13794591E+05</totfact>
</mgrwt>
</event>
<event>
 8    1  0.1226832E-016  0.7927319E+02  0.7818608E-02  0.1331127E+00
          2   -1    0    0  501    0  0.00000000000E+00  0.00000000000E+00  0.71446152331E+03  0.71446152332E+03  0.25500000000E-02 0. -1.
         -1   -1    0    0    0  501 -0.00000000000E+00 -0.00000000000E+00 -0.21989393638E+01  0.21989451397E+01  0.50400000000E-02 0.  1.
         24    2    1    2    0    0  0.17763568394E-14  0.00000000000E+00  0.71226258395E+03  0.71666046846E+03  0.79273189385E+02 0.  0.
         66    2    3    3    0    0  0.12830387452E+02 -0.44158845553E+00  0.69512966180E+03  0.69525107734E+03  0.19999967066E+01 0.  0.
        -13    1    3    3    0    0 -0.12830387452E+02  0.44158845553E+00  0.17132922146E+02  0.21409391114E+02  0.10566000000E+00 0.  1.
         13    1    4    4    0    0  0.34542189987E+01 -0.98694763946E+00  0.19029476469E+03  0.19032870075E+03  0.10566000000E+00 0. -1.
        -13    1    4    4    0    0  0.75364763863E+01  0.33590903347E+00  0.40971550845E+03  0.40978496841E+03  0.10566000000E+00 0.  1.
         14    1    4    4    0    0  0.18396920675E+01  0.20945015046E+00  0.95119388661E+02  0.95137408182E+02  0.00000000000E+00 0. -1.
<mgrwt>
<rscale>  0 0.79273189E+02</rscale>
<asrwt>0</asrwt>
<pdfrwt beam="1">  1        2 0.10991729E+00 0.79273189E+02</pdfrwt>
<pdfrwt beam="2">  1       -1 0.33829840E-03 0.79273189E+02</pdfrwt>
<totfact> 0.34412341E+05</totfact>
</mgrwt>
</event>
<event>
 8    1  0.1226832E-016  0.8081244E+02  0.7818608E-02  0.1326762E+00
         -1   -1    0    0    0  501 -0.00000000000E+00  0.00000000000E+00  0.74761023784E+01  0.74761040772E+01  0.50400000000E-02 0.  1.
          2   -1    0    0  501    0  0.00000000000E+00 -0.00000000000E+00 -0.21838417423E+03  0.21838417425E+03  0.25500000000E-02 0. -1.
         24    2    1    2    0    0  0.00000000000E+00  0.00000000000E+00 -0.21090807185E+03  0.22586027832E+03  0.80812440575E+02 0.  0.
         66    2    3    3    0    0 -0.38505438031E+02 -0.50806284543E+01 -0.74625821695E+02  0.84151617982E+02  0.20000005069E+01 0.  0.
        -13    1    3    3    0    0  0.38505438031E+02  0.50806284543E+01 -0.13628225016E+03  0.14170866034E+03  0.10566000000E+00 0.  1.
         13    1    4    4    0    0 -0.28695521435E+02 -0.42038266931E+01 -0.54215255307E+02  0.61485040305E+02  0.10566000000E+00 0. -1.
        -13    1    4    4    0    0 -0.92920974963E+01 -0.79173127649E+00 -0.19118128196E+02  0.21271669047E+02  0.10566000000E+00 0.  1.
         14    1    4    4    0    0 -0.51781909938E+00 -0.85070484740E-01 -0.12924381921E+01  0.13949086305E+01  0.00000000000E+00 0. -1.
<mgrwt>
<rscale>  0 0.80812441E+02</rscale>
<asrwt>0</asrwt>
<pdfrwt beam="1">  1        2 0.33597560E-01 0.80812441E+02</pdfrwt>
<pdfrwt beam="2">  1       -1 0.11501699E-02 0.80812441E+02</pdfrwt>
<totfact> 0.22150089E+05</totfact>
</mgrwt>
</event>
<event>
 8    1  0.1226832E-016  0.8497002E+02  0.7818608E-02  0.1315511E+00
         -1   -1    0    0    0  501 -0.00000000000E+00  0.00000000000E+00  0.77481174335E+01  0.77481190727E+01  0.50400000000E-02 0.  1.
          2   -1    0    0  501    0  0.00000000000E+00 -0.00000000000E+00 -0.23295670246E+03  0.23295670247E+03  0.25500000000E-02 0. -1.
         24    2    1    2    0    0  0.00000000000E+00  0.88817841970E-15 -0.22520858503E+03  0.24070482155E+03  0.84970020279E+02 0.  0.
         66    2    3    3    0    0  0.20107331271E+02 -0.60043602727E+01 -0.21723611235E+03  0.21825646754E+03  0.19999996408E+01 0.  0.
        -13    1    3    3    0    0 -0.20107331271E+02  0.60043602727E+01 -0.79724726716E+01  0.22448354007E+02  0.10566000000E+00 0.  1.
         13    1    4    4    0    0  0.12196666750E+02 -0.34015610407E+01 -0.13547036191E+03  0.13606086659E+03  0.10566000000E+00 0. -1.
        -13    1    4    4    0    0  0.44128583146E+00  0.19710235489E-02 -0.30855070517E+01  0.31186944178E+01  0.10566000000E+00 0. -1.
         14    1    4    4    0    0  0.74693786885E+01 -0.26047702555E+01 -0.78680243396E+02  0.79076906534E+02  0.00000000000E+00 0. -1.
<mgrwt>
<rscale>  0 0.84970020E+02</rscale>
<asrwt>0</asrwt>
<pdfrwt beam="1">  1        2 0.35839487E-01 0.84970020E+02</pdfrwt>
<pdfrwt beam="2">  1       -1 0.11920184E-02 0.84970020E+02</pdfrwt>
<totfact> 0.19850567E+05</totfact>
</mgrwt>
</event>
<event>
 8    1  0.1226832E-016  0.7984013E+02  0.7818608E-02  0.1329506E+00
         -1   -1    0    0    0  501 -0.00000000000E+00  0.00000000000E+00  0.90331559807E+01  0.90331573867E+01  0.50400000000E-02 0.  1.
          2   -1    0    0  501    0  0.00000000000E+00 -0.00000000000E+00 -0.17641800011E+03  0.17641800013E+03  0.25500000000E-02 0. -1.
         24    2    1    2    0    0  0.00000000000E+00 -0.71054273576E-14 -0.16738484413E+03  0.18545115752E+03  0.79840126375E+02 0.  0.
         66    2    3    3    0    0  0.23851342923E+01  0.29915080659E+02 -0.14480371137E+03  0.14789427217E+03  0.19999991065E+01 0.  0.
        -13    1    3    3    0    0 -0.23851342923E+01 -0.29915080659E+02 -0.22581132759E+02  0.37556885349E+02  0.10566000000E+00 0.  1.
         13    1    4    4    0    0  0.10232288032E+01  0.91774001397E+01 -0.46285565461E+02  0.47197843219E+02  0.10566000000E+00 0. -1.
        -13    1    4    4    0    0  0.98575294238E+00  0.55082088298E+01 -0.26151746802E+02  0.26743917032E+02  0.10566000000E+00 0.  1.
         14    1    4    4    0    0  0.37615254667E+00  0.15229471689E+02 -0.72366399110E+02  0.73952511917E+02  0.00000000000E+00 0. -1.
<mgrwt>
<rscale>  0 0.79840126E+02</rscale>
<asrwt>0</asrwt>
<pdfrwt beam="1">  1        2 0.27141228E-01 0.79840126E+02</pdfrwt>
<pdfrwt beam="2">  1       -1 0.13897165E-02 0.79840126E+02</pdfrwt>
<totfact> 0.21242191E+05</totfact>
</mgrwt>
</event>
<event>
 8    1  0.1226832E-016  0.8126625E+02  0.7818608E-02  0.1325496E+00
         -1   -1    0    0    0  501 -0.00000000000E+00  0.00000000000E+00  0.22889191587E+02  0.22889192142E+02  0.50400000000E-02 0.  1.
          2   -1    0    0  501    0  0.00000000000E+00 -0.00000000000E+00 -0.72132326704E+02  0.72132326749E+02  0.25500000000E-02 0. -1.
         24    2    1    2    0    0  0.00000000000E+00  0.00000000000E+00 -0.49243135117E+02  0.95021518891E+02  0.81266245738E+02 0.  0.
         66    2    3    3    0    0 -0.40558065330E+02 -0.18871332171E+01 -0.23787004703E+02  0.47099251888E+02  0.20000001256E+01 0.  0.
        -13    1    3    3    0    0  0.40558065330E+02  0.18871332171E+01 -0.25456130413E+02  0.47922267004E+02  0.10566000000E+00 0.  1.
         13    1    4    4    0    0 -0.89142829288E+01 -0.78118060082E+00 -0.47718696680E+01  0.10141823674E+02  0.10566000000E+00 0.  1.
        -13    1    4    4    0    0 -0.81260680681E+01 -0.68289203477E+00 -0.44295134244E+01  0.92806830024E+01  0.10566000000E+00 0. -1.
         14    1    4    4    0    0 -0.23517714334E+02 -0.42306058155E+00 -0.14585621611E+02  0.27676745212E+02  0.00000000000E+00 0. -1.
<mgrwt>
<rscale>  0 0.81266246E+02</rscale>
<asrwt>0</asrwt>
<pdfrwt beam="1">  1        2 0.11097281E-01 0.81266246E+02</pdfrwt>
<pdfrwt beam="2">  1       -1 0.35214142E-02 0.81266246E+02</pdfrwt>
<totfact> 0.15588926E+05</totfact>
</mgrwt>
</event>
<event>
 8    1  0.1226832E-016  0.8234918E+02  0.7818608E-02  0.1322514E+00
          2   -1    0    0  501    0  0.00000000000E+00  0.00000000000E+00  0.62535247992E+02  0.62535248044E+02  0.25500000000E-02 0. -1.
         -1   -1    0    0    0  501 -0.00000000000E+00 -0.00000000000E+00 -0.27110262750E+02  0.27110263219E+02  0.50400000000E-02 0.  1.
         24    2    1    2    0    0  0.22204460493E-15  0.35527136788E-14  0.35424985242E+02  0.89645511263E+02  0.82349184028E+02 0.  0.
         66    2    3    3    0    0  0.10554710505E+01  0.26467852288E+02  0.52004046937E+02  0.58395908472E+02  0.20000011212E+01 0.  0.
        -13    1    3    3    0    0 -0.10554710505E+01 -0.26467852288E+02 -0.16579061696E+02  0.31249602791E+02  0.10566000000E+00 0.  1.
         13    1    4    4    0    0  0.17108224425E-01  0.19628832438E+01  0.38789602141E+01  0.43486434320E+01  0.10566000000E+00 0. -1.
        -13    1    4    4    0    0  0.13270132177E+01  0.22926023310E+02  0.45579430548E+02  0.51037820898E+02  0.10566000000E+00 0.  1.
        -14    1    4    4    0    0 -0.28865039153E+00  0.15789457335E+01  0.25456561753E+01  0.30094441415E+01  0.00000000000E+00 0.  1.
<mgrwt>
<rscale>  0 0.82349184E+02</rscale>
<asrwt>0</asrwt>
<pdfrwt beam="1">  1        2 0.96208074E-02 0.82349184E+02</pdfrwt>
<pdfrwt beam="2">  1       -1 0.41708097E-02 0.82349184E+02</pdfrwt>
<totfact> 0.14526082E+05</totfact>
</mgrwt>
</event>
<event>
 8    1  0.1391062E-016  0.8124819E+02  0.7818608E-02  0.1325546E+00
         -1   -1    0    0    0  501 -0.00000000000E+00  0.00000000000E+00  0.60487942981E+02  0.60487943191E+02  0.50400000000E-02 0.  1.
          2   -1    0    0  501    0  0.00000000000E+00 -0.00000000000E+00 -0.27283405496E+02  0.27283405615E+02  0.25500000000E-02 0. -1.
         24    2    1    2    0    0  0.71054273576E-14  0.00000000000E+00  0.33204537485E+02  0.87771348807E+02  0.81248189898E+02 0.  0.
         66    2    3    3    0    0  0.38006065807E+02  0.49810262001E+01  0.21574150869E+01  0.38443804439E+02  0.19999999371E+01 0.  0.
        -13    1    3    3    0    0 -0.38006065807E+02 -0.49810262001E+01  0.31047122398E+02  0.49327544368E+02  0.10566000000E+00 0.  1.
         13    1    4    4    0    0  0.23070706456E+02  0.30898213362E+01  0.14205998326E+01  0.23320243570E+02  0.10566000000E+00 0. -1.
        -13    1    4    4    0    0  0.13004808492E+02  0.18687119129E+01  0.29077904480E+00  0.13142025894E+02  0.10566000000E+00 0.  1.
        -14    1    4    4    0    0  0.19305508596E+01  0.22492950993E-01  0.44603620951E+00  0.19815349743E+01  0.00000000000E+00 0.  1.
<mgrwt>
<rscale>  0 0.81248190E+02</rscale>
<asrwt>0</asrwt>
<pdfrwt beam="1">  1        2 0.41974471E-02 0.81248190E+02</pdfrwt>
<pdfrwt beam="2">  1       -1 0.93058373E-02 0.81248190E+02</pdfrwt>
<totfact> 0.12641519E+05</totfact>
</mgrwt>
</event>
<event>
 8    1  0.1226832E-016  0.7875971E+02  0.7818608E-02  0.1332608E+00
         -1   -1    0    0    0  501 -0.00000000000E+00  0.00000000000E+00  0.11395145761E+01  0.11395257218E+01  0.50400000000E-02 0.  1.
          2   -1    0    0  501    0  0.00000000000E+00 -0.00000000000E+00 -0.13609000439E+04  0.13609000439E+04  0.25500000000E-02 0. -1.
         24    2    1    2    0    0  0.00000000000E+00 -0.35527136788E-14 -0.13597605294E+04  0.13620395697E+04  0.78759711242E+02 0.  0.
         66    2    3    3    0    0 -0.37415646626E+01 -0.18645136886E+02 -0.12761638555E+04  0.12763071051E+04  0.20000003994E+01 0.  0.
        -13    1    3    3    0    0  0.37415646626E+01  0.18645136886E+02 -0.83596673877E+02  0.85732464580E+02  0.10566000000E+00 0.  1.
         13    1    4    4    0    0 -0.18316134132E+01 -0.73639822620E+01 -0.52399714291E+03  0.52405209663E+03  0.10566000000E+00 0. -1.
        -13    1    4    4    0    0 -0.90651406557E+00 -0.69399783214E+01 -0.41822297371E+03  0.41828154629E+03  0.10566000000E+00 0.  1.
        -14    1    4    4    0    0 -0.10034371839E+01 -0.43411763026E+01 -0.33394373885E+03  0.33397346215E+03  0.00000000000E+00 0.  1.
<mgrwt>
<rscale>  0 0.78759711E+02</rscale>
<asrwt>0</asrwt>
<pdfrwt beam="1">  1        2 0.20936794E+00 0.78759711E+02</pdfrwt>
<pdfrwt beam="2">  1       -1 0.17531188E-03 0.78759711E+02</pdfrwt>
<totfact> 0.35688165E+05</totfact>
</mgrwt>
</event>
<event>
 8    1  0.1226832E-016  0.8075403E+02  0.7818608E-02  0.1326925E+00
          2   -1    0    0  501    0  0.00000000000E+00  0.00000000000E+00  0.47424552122E+03  0.47424552123E+03  0.25500000000E-02 0. -1.
         -1   -1    0    0    0  501 -0.00000000000E+00 -0.00000000000E+00 -0.34376763985E+01  0.34376800931E+01  0.50400000000E-02 0.  1.
         24    2    1    2    0    0  0.00000000000E+00  0.00000000000E+00  0.47080784483E+03  0.47768320132E+03  0.80754034437E+02 0.  0.
         66    2    3    3    0    0 -0.18100919168E+02 -0.27848709308E+02  0.37109764839E+03  0.37258644437E+03  0.20000008711E+01 0.  0.
        -13    1    3    3    0    0  0.18100919168E+02  0.27848709308E+02  0.99710196437E+02  0.10509675695E+03  0.10566000000E+00 0.  1.
         13    1    4    4    0    0 -0.10118948434E+02 -0.14442705633E+02  0.20224070182E+03  0.20300812176E+03  0.10566000000E+00 0. -1.
        -13    1    4    4    0    0 -0.11345321560E+01 -0.16755381490E+01  0.19471207658E+02  0.19576355202E+02  0.10566000000E+00 0.  1.
         14    1    4    4    0    0 -0.68474385774E+01 -0.11730465526E+02  0.14938573891E+03  0.15000196741E+03  0.00000000000E+00 0. -1.
<mgrwt>
<rscale>  0 0.80754034E+02</rscale>
<asrwt>0</asrwt>
<pdfrwt beam="1">  1        2 0.72960837E-01 0.80754034E+02</pdfrwt>
<pdfrwt beam="2">  1       -1 0.52887367E-03 0.80754034E+02</pdfrwt>
<totfact> 0.29211449E+05</totfact>
</mgrwt>
</event>
<event>
 8    1  0.1226832E-016  0.7969445E+02  0.7818608E-02  0.1329921E+00
         -1   -1    0    0    0  501 -0.00000000000E+00  0.00000000000E+00  0.28664654641E+01  0.28664698950E+01  0.50400000000E-02 0.  1.
          2   -1    0    0  501    0  0.00000000000E+00 -0.00000000000E+00 -0.55392258282E+03  0.55392258283E+03  0.25500000000E-02 0. -1.
         24    2    1    2    0    0  0.35527136788E-14  0.35527136788E-14 -0.55105611736E+03  0.55678905272E+03  0.79694446196E+02 0.  0.
         66    2    3    3    0    0 -0.16495776702E+02 -0.22152616524E+02 -0.47612458685E+03  0.47692920990E+03  0.19999954650E+01 0.  0.
        -13    1    3    3    0    0  0.16495776702E+02  0.22152616524E+02 -0.74931530506E+02  0.79859842824E+02  0.10566000000E+00 0.  1.
         13    1    4    4    0    0 -0.85219060876E+01 -0.11232553025E+02 -0.23425711417E+03  0.23468105982E+03  0.10566000000E+00 0. -1.
        -13    1    4    4    0    0 -0.18116665417E+01 -0.18097006997E+01 -0.50145423302E+02  0.50210873269E+02  0.10566000000E+00 0.  1.
        -14    1    4    4    0    0 -0.61622040729E+01 -0.91103628001E+01 -0.19172204938E+03  0.19203727682E+03  0.00000000000E+00 0.  1.
<mgrwt>
<rscale>  0 0.79694446E+02</rscale>
<asrwt>0</asrwt>
<pdfrwt beam="1">  1        2 0.85218774E-01 0.79694446E+02</pdfrwt>
<pdfrwt beam="2">  1       -1 0.44099547E-03 0.79694446E+02</pdfrwt>
<totfact> 0.31744559E+05</totfact>
</mgrwt>
</event>
<event>
 8    1  0.1226832E-016  0.8329635E+02  0.7818608E-02  0.1319949E+00
          2   -1    0    0  501    0  0.00000000000E+00  0.00000000000E+00  0.85924157594E+02  0.85924157632E+02  0.25500000000E-02 0. -1.
         -1   -1    0    0    0  501 -0.00000000000E+00 -0.00000000000E+00 -0.20187224360E+02  0.20187224989E+02  0.50400000000E-02 0.  1.
         24    2    1    2    0    0  0.00000000000E+00  0.71054273576E-14  0.65736933234E+02  0.10611138262E+03  0.83296345243E+02 0.  0.
         66    2    3    3    0    0 -0.12243918313E+01  0.41503483629E+02  0.29167441233E+02  0.50781669104E+02  0.20000000567E+01 0.  0.
        -13    1    3    3    0    0  0.12243918313E+01 -0.41503483629E+02  0.36569492000E+02  0.55329713517E+02  0.10566000000E+00 0.  1.
         13    1    4    4    0    0  0.69623322884E-01  0.10140330122E+02  0.73322252920E+01  0.12514145363E+02  0.10566000000E+00 0. -1.
        -13    1    4    4    0    0 -0.25924369371E+00  0.19603691666E+02  0.13036024078E+02  0.23544023064E+02  0.10566000000E+00 0.  1.
         14    1    4    4    0    0 -0.10347714605E+01  0.11759461840E+02  0.87991918630E+01  0.14723500677E+02  0.00000000000E+00 0. -1.
<mgrwt>
<rscale>  0 0.83296345E+02</rscale>
<asrwt>0</asrwt>
<pdfrwt beam="1">  1        2 0.13219101E-01 0.83296345E+02</pdfrwt>
<pdfrwt beam="2">  1       -1 0.31057269E-02 0.83296345E+02</pdfrwt>
<totfact> 0.15254298E+05</totfact>
</mgrwt>
</event>
<event>
 8    1  0.1226832E-016  0.7857891E+02  0.7818608E-02  0.1333133E+00
          2   -1    0    0  501    0  0.00000000000E+00  0.00000000000E+00  0.15181676917E+03  0.15181676919E+03  0.25500000000E-02 0. -1.
         -1   -1    0    0    0  501 -0.00000000000E+00 -0.00000000000E+00 -0.10167923473E+02  0.10167924722E+02  0.50400000000E-02 0.  1.
         24    2    1    2    0    0  0.00000000000E+00  0.00000000000E+00  0.14164884569E+03  0.16198469391E+03  0.78578913041E+02 0.  0.
         66    2    3    3    0    0  0.19888930341E+02  0.32190835530E+02  0.92474581078E+02  0.99936817986E+02  0.20000003081E+01 0.  0.
        -13    1    3    3    0    0 -0.19888930341E+02 -0.32190835530E+02  0.49174264615E+02  0.62047875924E+02  0.10566000000E+00 0.  1.
         13    1    4    4    0    0  0.11619344618E+02  0.18855303056E+02  0.55810059600E+02  0.60044196550E+02  0.10566000000E+00 0. -1.
        -13    1    4    4    0    0  0.36627937919E+00  0.95668185351E+00  0.26332825051E+01  0.28274973987E+01  0.10566000000E+00 0.  1.
        -14    1    4    4    0    0  0.79033063438E+01  0.12378850620E+02  0.34031238973E+02  0.37065124037E+02  0.00000000000E+00 0.  1.
<mgrwt>
<rscale>  0 0.78578913E+02</rscale>
<asrwt>0</asrwt>
<pdfrwt beam="1">  1        2 0.23356428E-01 0.78578913E+02</pdfrwt>
<pdfrwt beam="2">  1       -1 0.15642959E-02 0.78578913E+02</pdfrwt>
<totfact> 0.21086200E+05</totfact>
</mgrwt>
</event>
<event>
 8    1  0.1226832E-016  0.8051619E+02  0.7818608E-02  0.1327593E+00
          2   -1    0    0  501    0  0.00000000000E+00  0.00000000000E+00  0.63178936984E+03  0.63178936985E+03  0.25500000000E-02 0. -1.
         -1   -1    0    0    0  501 -0.00000000000E+00 -0.00000000000E+00 -0.25652737077E+01  0.25652786588E+01  0.50400000000E-02 0.  1.
         24    2    1    2    0    0 -0.35527136788E-14 -0.35527136788E-14  0.62922409613E+03  0.63435464850E+03  0.80516190453E+02 0.  0.
         66    2    3    3    0    0 -0.27569396652E+02 -0.21925315313E+02  0.46796648709E+03  0.46929460270E+03  0.19999997263E+01 0.  0.
        -13    1    3    3    0    0  0.27569396652E+02  0.21925315313E+02  0.16125760904E+03  0.16506004581E+03  0.10566000000E+00 0.  1.
         13    1    4    4    0    0 -0.18780763147E+02 -0.14181081121E+02  0.31906481915E+03  0.31993153972E+03  0.10566000000E+00 0. -1.
        -13    1    4    4    0    0 -0.76262999225E+01 -0.64701248851E+01  0.12545867345E+03  0.12585671565E+03  0.10566000000E+00 0.  1.
        -14    1    4    4    0    0 -0.11623335827E+01 -0.12741093072E+01  0.23442994494E+02  0.23506347328E+02  0.00000000000E+00 0.  1.
<mgrwt>
<rscale>  0 0.80516190E+02</rscale>
<asrwt>0</asrwt>
<pdfrwt beam="1">  1        2 0.97198440E-01 0.80516190E+02</pdfrwt>
<pdfrwt beam="2">  1       -1 0.39465757E-03 0.80516190E+02</pdfrwt>
<totfact> 0.32075236E+05</totfact>
</mgrwt>
</event>
<event>
 8    1  0.1267059E-016  0.8074202E+02  0.7818608E-02  0.1326959E+00
          2   -1    0    0  501    0  0.00000000000E+00  0.00000000000E+00  0.28120109898E+03  0.28120109899E+03  0.25500000000E-02 0. -1.
         -1   -1    0    0    0  501 -0.00000000000E+00 -0.00000000000E+00 -0.57959160938E+01  0.57959182851E+01  0.50400000000E-02 0.  1.
         24    2    1    2    0    0  0.00000000000E+00  0.00000000000E+00  0.27540518288E+03  0.28699701728E+03  0.80742016107E+02 0.  0.
         66    2    3    3    0    0 -0.27004629588E+02  0.29324324596E+02  0.11568964144E+03  0.12238161285E+03  0.19999985638E+01 0.  0.
        -13    1    3    3    0    0  0.27004629588E+02 -0.29324324596E+02  0.15971554145E+03  0.16461540443E+03  0.10566000000E+00 0.  1.
         13    1    4    4    0    0 -0.11502950432E+02  0.13063085925E+02  0.50394486945E+02  0.53315828429E+02  0.10566000000E+00 0. -1.
        -13    1    4    4    0    0 -0.61661548924E+01  0.74351495562E+01  0.27676493633E+02  0.29313859844E+02  0.10566000000E+00 0.  1.
        -14    1    4    4    0    0 -0.93355242629E+01  0.88260891145E+01  0.37618660861E+02  0.39751924574E+02  0.00000000000E+00 0.  1.
<mgrwt>
<rscale>  0 0.80742016E+02</rscale>
<asrwt>0</asrwt>
<pdfrwt beam="1">  1        2 0.43261702E-01 0.80742016E+02</pdfrwt>
<pdfrwt beam="2">  1       -1 0.89167969E-03 0.80742016E+02</pdfrwt>
<totfact> 0.24307392E+05</totfact>
</mgrwt>
</event>
<event>
 8    1  0.1226832E-016  0.7638302E+02  0.7818608E-02  0.1339641E+00
          2   -1    0    0  501    0  0.00000000000E+00  0.00000000000E+00  0.13639116549E+04  0.13639116549E+04  0.25500000000E-02 0. -1.
         -1   -1    0    0    0  501 -0.00000000000E+00 -0.00000000000E+00 -0.10694119754E+01  0.10694238518E+01  0.50400000000E-02 0.  1.
         24    2    1    2    0    0  0.00000000000E+00  0.44408920985E-15  0.13628422429E+04  0.13649810787E+04  0.76383023355E+02 0.  0.
         66    2    3    3    0    0 -0.15480774982E+02  0.28777849049E+01  0.13031567010E+04  0.13032533612E+04  0.19999954363E+01 0.  0.
        -13    1    3    3    0    0  0.15480774982E+02 -0.28777849049E+01  0.59685541891E+02  0.61727717557E+02  0.10566000000E+00 0.  1.
         13    1    4    4    0    0 -0.89948763798E+00  0.46667710065E+00  0.11171795629E+03  0.11172260196E+03  0.10566000000E+00 0. -1.
        -13    1    4    4    0    0 -0.12977795921E+02  0.23891071801E+01  0.10738472604E+04  0.10739283406E+04  0.10566000000E+00 0. -1.
         14    1    4    4    0    0 -0.16034914225E+01  0.22000624157E-01  0.11759148434E+03  0.11760241859E+03  0.00000000000E+00 0. -1.
<mgrwt>
<rscale>  0 0.76383023E+02</rscale>
<asrwt>0</asrwt>
<pdfrwt beam="1">  1        2 0.20983317E+00 0.76383023E+02</pdfrwt>
<pdfrwt beam="2">  1       -1 0.16452536E-03 0.76383023E+02</pdfrwt>
<totfact> 0.38613523E+05</totfact>
</mgrwt>
</event>
<event>
 8    1  0.1226832E-016  0.8012623E+02  0.7818608E-02  0.1328694E+00
          2   -1    0    0  501    0  0.00000000000E+00  0.00000000000E+00  0.47399860161E+02  0.47399860230E+02  0.25500000000E-02 0. -1.
         -1   -1    0    0    0  501 -0.00000000000E+00 -0.00000000000E+00 -0.33861983852E+02  0.33861984227E+02  0.50400000000E-02 0.  1.
         24    2    1    2    0    0 -0.35527136788E-14 -0.35527136788E-14  0.13537876309E+02  0.81261844457E+02  0.80126233342E+02 0.  0.
         66    2    3    3    0    0  0.21770845487E+02  0.29803676604E+02  0.22511442043E+02  0.43278099271E+02  0.20000003300E+01 0.  0.
        -13    1    3    3    0    0 -0.21770845487E+02 -0.29803676604E+02 -0.89735657337E+01  0.37983745186E+02  0.10566000000E+00 0.  1.
         13    1    4    4    0    0  0.51979679947E+01  0.62938013762E+01  0.43627051426E+01  0.92560881172E+01  0.10566000000E+00 0. -1.
        -13    1    4    4    0    0  0.11349048178E+01  0.19703355144E+01  0.14015838592E+01  0.26731689686E+01  0.10566000000E+00 0.  1.
         14    1    4    4    0    0  0.15437972674E+02  0.21539539713E+02  0.16747153041E+02  0.31348842185E+02  0.00000000000E+00 0. -1.
<mgrwt>
<rscale>  0 0.80126233E+02</rscale>
<asrwt>0</asrwt>
<pdfrwt beam="1">  1        2 0.72922861E-02 0.80126233E+02</pdfrwt>
<pdfrwt beam="2">  1       -1 0.52095361E-02 0.80126233E+02</pdfrwt>
<totfact> 0.14707841E+05</totfact>
</mgrwt>
</event>
<event>
 8    1  0.1226832E-016  0.7990001E+02  0.7818608E-02  0.1329335E+00
         -1   -1    0    0    0  501 -0.00000000000E+00  0.00000000000E+00  0.41744040040E+01  0.41744070466E+01  0.50400000000E-02 0.  1.
          2   -1    0    0  501    0  0.00000000000E+00 -0.00000000000E+00 -0.38233055730E+03  0.38233055731E+03  0.25500000000E-02 0. -1.
         24    2    1    2    0    0  0.00000000000E+00  0.00000000000E+00 -0.37815615329E+03  0.38650496435E+03  0.79900007481E+02 0.  0.
         66    2    3    3    0    0  0.20800876000E+02  0.18396743455E+02 -0.32796022348E+03  0.32913982559E+03  0.19999968927E+01 0.  0.
        -13    1    3    3    0    0 -0.20800876000E+02 -0.18396743455E+02 -0.50195929809E+02  0.57365138765E+02  0.10566000000E+00 0.  1.
         13    1    4    4    0    0  0.15409808946E+02  0.13871881038E+02 -0.25241586112E+03  0.25326600523E+03  0.10566000000E+00 0. -1.
        -13    1    4    4    0    0  0.10039716612E+01  0.98754546051E+00 -0.13238352321E+02  0.13313464664E+02  0.10566000000E+00 0.  1.
         14    1    4    4    0    0  0.43870953933E+01  0.35373169561E+01 -0.62306010043E+02  0.62560355695E+02  0.00000000000E+00 0. -1.
<mgrwt>
<rscale>  0 0.79900007E+02</rscale>
<asrwt>0</asrwt>
<pdfrwt beam="1">  1        2 0.58820058E-01 0.79900007E+02</pdfrwt>
<pdfrwt beam="2">  1       -1 0.64221654E-03 0.79900007E+02</pdfrwt>
<totfact> 0.27899430E+05</totfact>
</mgrwt>
</event>
<event>
 8    1  0.1226832E-016  0.7816060E+02  0.7818608E-02  0.1334354E+00
          2   -1    0    0  501    0  0.00000000000E+00  0.00000000000E+00  0.15120705549E+03  0.15120705551E+03  0.25500000000E-02 0. -1.
         -1   -1    0    0    0  501 -0.00000000000E+00 -0.00000000000E+00 -0.10100518765E+02  0.10100520023E+02  0.50400000000E-02 0.  1.
         24    2    1    2    0    0  0.17763568394E-14  0.71054273576E-14  0.14110653673E+03  0.16130757554E+03  0.78160598887E+02 0.  0.
         66    2    3    3    0    0  0.11948881702E+02 -0.36452761147E+02  0.85720826278E+02  0.93934230250E+02  0.19999964267E+01 0.  0.
        -13    1    3    3    0    0 -0.11948881702E+02  0.36452761147E+02  0.55385710450E+02  0.67373345288E+02  0.10566000000E+00 0.  1.
         13    1    4    4    0    0  0.12394098913E+01 -0.26302916955E+01  0.61694377110E+01  0.68211213878E+01  0.10566000000E+00 0. -1.
        -13    1    4    4    0    0  0.22323578393E+00 -0.67465103453E+00  0.12852245519E+01  0.14723975068E+01  0.10566000000E+00 0. -1.
         14    1    4    4    0    0  0.10486236027E+02 -0.33147818417E+02  0.78266164015E+02  0.85640711355E+02  0.00000000000E+00 0. -1.
<mgrwt>
<rscale>  0 0.78160599E+02</rscale>
<asrwt>0</asrwt>
<pdfrwt beam="1">  1        2 0.23262623E-01 0.78160599E+02</pdfrwt>
<pdfrwt beam="2">  1       -1 0.15539261E-02 0.78160599E+02</pdfrwt>
<totfact> 0.21358543E+05</totfact>
</mgrwt>
</event>
<event>
 8    1  0.1226832E-016  0.8028379E+02  0.7818608E-02  0.1328248E+00
          2   -1    0    0  501    0  0.00000000000E+00  0.00000000000E+00  0.36167316782E+03  0.36167316783E+03  0.25500000000E-02 0. -1.
         -1   -1    0    0    0  501 -0.00000000000E+00 -0.00000000000E+00 -0.44553245771E+01  0.44553274278E+01  0.50400000000E-02 0.  1.
         24    2    1    2    0    0 -0.17763568394E-14  0.00000000000E+00  0.35721784325E+03  0.36612849526E+03  0.80283793558E+02 0.  0.
         66    2    3    3    0    0 -0.13614221052E+02  0.12685537478E+02  0.34079743051E+03  0.34131094110E+03  0.19999994902E+01 0.  0.
        -13    1    3    3    0    0  0.13614221052E+02 -0.12685537478E+02  0.16420412738E+02  0.24817554160E+02  0.10566000000E+00 0.  1.
         13    1    4    4    0    0 -0.46404526908E+01  0.43420854882E+01  0.10152856125E+03  0.10172731895E+03  0.10566000000E+00 0. -1.
        -13    1    4    4    0    0 -0.27189886206E+01  0.28623454901E+01  0.81845401953E+02  0.81940630371E+02  0.10566000000E+00 0.  1.
         14    1    4    4    0    0 -0.62547797405E+01  0.54811064992E+01  0.15742346730E+03  0.15764299178E+03  0.00000000000E+00 0. -1.
<mgrwt>
<rscale>  0 0.80283794E+02</rscale>
<asrwt>0</asrwt>
<pdfrwt beam="1">  1        2 0.55642031E-01 0.80283794E+02</pdfrwt>
<pdfrwt beam="2">  1       -1 0.68543471E-03 0.80283794E+02</pdfrwt>
<totfact> 0.27014915E+05</totfact>
</mgrwt>
</event>
<event>
 8    1  0.1226832E-016  0.8189235E+02  0.7818608E-02  0.1323765E+00
         -1   -1    0    0    0  501 -0.00000000000E+00  0.00000000000E+00  0.38173083231E+02  0.38173083563E+02  0.50400000000E-02 0.  1.
          2   -1    0    0  501    0  0.00000000000E+00 -0.00000000000E+00 -0.43920717728E+02  0.43920717802E+02  0.25500000000E-02 0. -1.
         24    2    1    2    0    0  0.00000000000E+00  0.71054273576E-14 -0.57476344973E+01  0.82093801365E+02  0.81892349584E+02 0.  0.
         66    2    3    3    0    0  0.27479658912E+00 -0.34718738803E+02 -0.24587936884E+02  0.42591466051E+02  0.20000007446E+01 0.  0.
        -13    1    3    3    0    0 -0.27479658912E+00  0.34718738803E+02  0.18840302387E+02  0.39502335314E+02  0.10566000000E+00 0.  1.
         13    1    4    4    0    0 -0.12811349329E+00 -0.48034604132E+01 -0.41112787221E+01  0.63248258296E+01  0.10566000000E+00 0. -1.
        -13    1    4    4    0    0  0.79753953877E-01 -0.42864793792E+01 -0.33233444678E+01  0.54254998524E+01  0.10566000000E+00 0.  1.
         14    1    4    4    0    0  0.32315612853E+00 -0.25628799010E+02 -0.17153313694E+02  0.30841140369E+02  0.00000000000E+00 0. -1.
<mgrwt>
<rscale>  0 0.81892350E+02</rscale>
<asrwt>0</asrwt>
<pdfrwt beam="1">  1        2 0.67570335E-02 0.81892350E+02</pdfrwt>
<pdfrwt beam="2">  1       -1 0.58727821E-02 0.81892350E+02</pdfrwt>
<totfact> 0.13627052E+05</totfact>
</mgrwt>
</event>
<event>
 8    1  0.1226832E-016  0.8319061E+02  0.7818608E-02  0.1320233E+00
          2   -1    0    0  501    0  0.00000000000E+00  0.00000000000E+00  0.11788033866E+02  0.11788034141E+02  0.25500000000E-02 0. -1.
         -1   -1    0    0    0  501 -0.00000000000E+00 -0.00000000000E+00 -0.14677334924E+03  0.14677334933E+03  0.50400000000E-02 0.  1.
         24    2    1    2    0    0  0.71054273576E-14  0.00000000000E+00 -0.13498531538E+03  0.15856138347E+03  0.83190606205E+02 0.  0.
         66    2    3    3    0    0  0.33589015996E+02 -0.22980320176E+02 -0.51375781665E+02  0.65572769100E+02  0.19999987084E+01 0.  0.
        -13    1    3    3    0    0 -0.33589015996E+02  0.22980320176E+02 -0.83609533714E+02  0.92988614372E+02  0.10566000000E+00 0.  1.
         13    1    4    4    0    0  0.19003459601E+02 -0.13164280302E+02 -0.30041804393E+02  0.37907135580E+02  0.10566000000E+00 0. -1.
        -13    1    4    4    0    0  0.66725541891E+01 -0.51145684928E+01 -0.99955093990E+01  0.13061514554E+02  0.10566000000E+00 0.  1.
        -14    1    4    4    0    0  0.79130022055E+01 -0.47014713812E+01 -0.11338467873E+02  0.14604118966E+02  0.00000000000E+00 0.  1.
<mgrwt>
<rscale>  0 0.83190606E+02</rscale>
<asrwt>0</asrwt>
<pdfrwt beam="1">  1        2 0.18135438E-02 0.83190606E+02</pdfrwt>
<pdfrwt beam="2">  1       -1 0.22580514E-01 0.83190606E+02</pdfrwt>
<totfact> 0.98262890E+04</totfact>
</mgrwt>
</event>
<event>
 8    1  0.1226832E-016  0.8065135E+02  0.7818608E-02  0.1327213E+00
         -1   -1    0    0    0  501 -0.00000000000E+00  0.00000000000E+00  0.50022354109E+02  0.50022354363E+02  0.50400000000E-02 0.  1.
          2   -1    0    0  501    0  0.00000000000E+00 -0.00000000000E+00 -0.32508670421E+02  0.32508670521E+02  0.25500000000E-02 0. -1.
         24    2    1    2    0    0  0.35527136788E-14 -0.14210854715E-13  0.17513683689E+02  0.82531024884E+02  0.80651354310E+02 0.  0.
         66    2    3    3    0    0  0.13272585333E+02 -0.38030244221E+02  0.10094190011E+02  0.41573473109E+02  0.19999993563E+01 0.  0.
        -13    1    3    3    0    0 -0.13272585333E+02  0.38030244221E+02  0.74194936781E+01  0.40957551775E+02  0.10566000000E+00 0.  1.
         13    1    4    4    0    0  0.67951853812E+01 -0.20410611534E+02  0.58813074173E+01  0.22301761109E+02  0.10566000000E+00 0. -1.
        -13    1    4    4    0    0  0.41377917063E+01 -0.11109144959E+02  0.21138085579E+01  0.12042166441E+02  0.10566000000E+00 0.  1.
        -14    1    4    4    0    0  0.23396082458E+01 -0.65104877273E+01  0.20990740354E+01  0.72295455595E+01  0.00000000000E+00 0.  1.
<mgrwt>
<rscale>  0 0.80651354E+02</rscale>
<asrwt>0</asrwt>
<pdfrwt beam="1">  1        2 0.50013340E-02 0.80651354E+02</pdfrwt>
<pdfrwt beam="2">  1       -1 0.76957468E-02 0.80651354E+02</pdfrwt>
<totfact> 0.13364743E+05</totfact>
</mgrwt>
</event>
<event>
 8    1  0.1226832E-016  0.8034377E+02  0.7818608E-02  0.1328079E+00
          2   -1    0    0  501    0  0.00000000000E+00  0.00000000000E+00  0.30354351811E+02  0.30354351918E+02  0.25500000000E-02 0. -1.
         -1   -1    0    0    0  501 -0.00000000000E+00 -0.00000000000E+00 -0.53164709308E+02  0.53164709547E+02  0.50400000000E-02 0.  1.
         24    2    1    2    0    0  0.88817841970E-15  0.00000000000E+00 -0.22810357497E+02  0.83519061465E+02  0.80343769011E+02 0.  0.
         66    2    3    3    0    0 -0.74483237424E+01 -0.20121610739E+02  0.23861394004E+02  0.32151559116E+02  0.19999711277E+01 0.  0.
        -13    1    3    3    0    0  0.74483237424E+01  0.20121610739E+02 -0.46671751501E+02  0.51367502348E+02  0.10566000000E+00 0.  1.
         13    1    4    4    0    0 -0.98091495623E+00 -0.29127386877E+01  0.38791207336E+01  0.49502507528E+01  0.10566000000E+00 0. -1.
        -13    1    4    4    0    0 -0.14203728981E+01 -0.24121280008E+01  0.35163033170E+01  0.44957061419E+01  0.10566000000E+00 0.  1.
         14    1    4    4    0    0 -0.50470358881E+01 -0.14796744051E+02  0.16465969953E+02  0.22705602222E+02  0.00000000000E+00 0. -1.
<mgrwt>
<rscale>  0 0.80343769E+02</rscale>
<asrwt>0</asrwt>
<pdfrwt beam="1">  1        2 0.46699003E-02 0.80343769E+02</pdfrwt>
<pdfrwt beam="2">  1       -1 0.81791861E-02 0.80343769E+02</pdfrwt>
<totfact> 0.13325384E+05</totfact>
</mgrwt>
</event>
<event>
 8    1  0.1226832E-016  0.8396431E+02  0.7818608E-02  0.1318163E+00
          2   -1    0    0  501    0  0.00000000000E+00  0.00000000000E+00  0.21084235546E+03  0.21084235548E+03  0.25500000000E-02 0. -1.
         -1   -1    0    0    0  501 -0.00000000000E+00 -0.00000000000E+00 -0.83593307991E+01  0.83593323185E+01  0.50400000000E-02 0.  1.
         24    2    1    2    0    0  0.00000000000E+00  0.00000000000E+00  0.20248302466E+03  0.21920168780E+03  0.83964305845E+02 0.  0.
         66    2    3    3    0    0 -0.16273397361E+02 -0.32481401609E+02  0.15609958555E+03  0.16028395277E+03  0.19999990292E+01 0.  0.
        -13    1    3    3    0    0  0.16273397361E+02  0.32481401609E+02  0.46383439116E+02  0.58917735025E+02  0.10566000000E+00 0.  1.
         13    1    4    4    0    0 -0.41323339805E+01 -0.91730468888E+01  0.46477012328E+02  0.47553599363E+02  0.10566000000E+00 0. -1.
        -13    1    4    4    0    0 -0.56681169201E+01 -0.10339591845E+02  0.49702320744E+02  0.51081959246E+02  0.10566000000E+00 0.  1.
         14    1    4    4    0    0 -0.64729464604E+01 -0.12968762874E+02  0.59920252476E+02  0.61648394165E+02  0.00000000000E+00 0. -1.
<mgrwt>
<rscale>  0 0.83964306E+02</rscale>
<asrwt>0</asrwt>
<pdfrwt beam="1">  1        2 0.32437283E-01 0.83964306E+02</pdfrwt>
<pdfrwt beam="2">  1       -1 0.12860511E-02 0.83964306E+02</pdfrwt>
<totfact> 0.19772684E+05</totfact>
</mgrwt>
</event>
<event>
 8    1  0.1226832E-016  0.7643105E+02  0.7818608E-02  0.1339496E+00
          2   -1    0    0  501    0  0.00000000000E+00  0.00000000000E+00  0.28594836266E+02  0.28594836379E+02  0.25500000000E-02 0. -1.
         -1   -1    0    0    0  501 -0.00000000000E+00 -0.00000000000E+00 -0.51073080952E+02  0.51073081201E+02  0.50400000000E-02 0.  1.
         24    2    1    2    0    0 -0.35527136788E-14 -0.17763568394E-14 -0.22478244687E+02  0.79667917581E+02  0.76431051330E+02 0.  0.
         66    2    3    3    0    0  0.26206156252E+02 -0.11641924452E+02  0.15042845954E+02  0.32443554829E+02  0.20000012809E+01 0.  0.
        -13    1    3    3    0    0 -0.26206156252E+02  0.11641924452E+02 -0.37521090640E+02  0.47224362752E+02  0.10566000000E+00 0.  1.
         13    1    4    4    0    0  0.54144467102E+01 -0.23925353887E+01  0.26068456914E+01  0.64689463793E+01  0.10566000000E+00 0. -1.
        -13    1    4    4    0    0  0.22136141792E+00 -0.86676165598E-01  0.28807095596E+00  0.38815273578E+00  0.10566000000E+00 0. -1.
         14    1    4    4    0    0  0.20570348123E+02 -0.91627128976E+01  0.12147929306E+02  0.25586455714E+02  0.00000000000E+00 0. -1.
<mgrwt>
<rscale>  0 0.76431051E+02</rscale>
<asrwt>0</asrwt>
<pdfrwt beam="1">  1        2 0.43992056E-02 0.76431051E+02</pdfrwt>
<pdfrwt beam="2">  1       -1 0.78573971E-02 0.76431051E+02</pdfrwt>
<totfact> 0.15144659E+05</totfact>
</mgrwt>
</event>
<event>
 8    1  0.1226832E-016  0.7976149E+02  0.7818608E-02  0.1329730E+00
         -1   -1    0    0    0  501 -0.00000000000E+00  0.00000000000E+00  0.12630574466E+02  0.12630575472E+02  0.50400000000E-02 0.  1.
          2   -1    0    0  501    0  0.00000000000E+00 -0.00000000000E+00 -0.12592251849E+03  0.12592251851E+03  0.25500000000E-02 0. -1.
         24    2    1    2    0    0  0.00000000000E+00  0.00000000000E+00 -0.11329194402E+03  0.13855309398E+03  0.79761489910E+02 0.  0.
         66    2    3    3    0    0  0.22244542323E+02  0.60059737912E+01 -0.11317246299E+03  0.11551146157E+03  0.19999978401E+01 0.  0.
        -13    1    3    3    0    0 -0.22244542323E+02 -0.60059737912E+01 -0.11948102926E+00  0.23041632409E+02  0.10566000000E+00 0.  1.
         13    1    4    4    0    0  0.66205202481E+01  0.24700529211E+01 -0.35205790108E+02  0.35908094783E+02  0.10566000000E+00 0. -1.
        -13    1    4    4    0    0  0.14984043561E+02  0.35139287771E+01 -0.75653830300E+02  0.77203513262E+02  0.10566000000E+00 0.  1.
        -14    1    4    4    0    0  0.63997851416E+00  0.21992092929E-01 -0.23128425814E+01  0.23998535282E+01  0.00000000000E+00 0.  1.
<mgrwt>
<rscale>  0 0.79761490E+02</rscale>
<asrwt>0</asrwt>
<pdfrwt beam="1">  1        2 0.19372694E-01 0.79761490E+02</pdfrwt>
<pdfrwt beam="2">  1       -1 0.19431655E-02 0.79761490E+02</pdfrwt>
<totfact> 0.19111845E+05</totfact>
</mgrwt>
</event>
<event>
 8    1  0.1226832E-016  0.8334378E+02  0.7818608E-02  0.1319821E+00
         -1   -1    0    0    0  501 -0.00000000000E+00  0.00000000000E+00  0.53327586410E+01  0.53327610227E+01  0.50400000000E-02 0.  1.
          2   -1    0    0  501    0  0.00000000000E+00 -0.00000000000E+00 -0.32563745931E+03  0.32563745932E+03  0.25500000000E-02 0. -1.
         24    2    1    2    0    0 -0.71054273576E-14 -0.35527136788E-14 -0.32030470067E+03  0.33097022035E+03  0.83343778910E+02 0.  0.
         66    2    3    3    0    0 -0.28453124207E+02 -0.30404835141E+02 -0.15741647567E+03  0.16284342508E+03  0.20000007891E+01 0.  0.
        -13    1    3    3    0    0  0.28453124207E+02  0.30404835141E+02 -0.16288822501E+03  0.16812679527E+03  0.10566000000E+00 0.  1.
         13    1    4    4    0    0 -0.37826346261E+01 -0.36535506485E+01 -0.20885513463E+02  0.21537701682E+02  0.10566000000E+00 0. -1.
        -13    1    4    4    0    0 -0.49846016076E+01 -0.59640146927E+01 -0.31099948067E+02  0.32056725632E+02  0.10566000000E+00 0.  1.
         14    1    4    4    0    0 -0.19685887973E+02 -0.20787269800E+02 -0.10543101414E+03  0.10924899776E+03  0.00000000000E+00 0. -1.
<mgrwt>
<rscale>  0 0.83343779E+02</rscale>
<asrwt>0</asrwt>
<pdfrwt beam="1">  1        2 0.50098055E-01 0.83343779E+02</pdfrwt>
<pdfrwt beam="2">  1       -1 0.82042485E-03 0.83343779E+02</pdfrwt>
<totfact> 0.23585486E+05</totfact>
</mgrwt>
</event>
<event>
 8    1  0.1226832E-016  0.7967097E+02  0.7818608E-02  0.1329988E+00
         -1   -1    0    0    0  501 -0.00000000000E+00  0.00000000000E+00  0.54658487270E+02  0.54658487502E+02  0.50400000000E-02 0.  1.
          2   -1    0    0  501    0  0.00000000000E+00 -0.00000000000E+00 -0.29032375301E+02  0.29032375413E+02  0.25500000000E-02 0. -1.
         24    2    1    2    0    0  0.00000000000E+00  0.00000000000E+00  0.25626111969E+02  0.83690862916E+02  0.79670966612E+02 0.  0.
         66    2    3    3    0    0  0.32005355475E+01  0.95178362965E+01 -0.27645707382E+02  0.29480803549E+02  0.20000014188E+01 0.  0.
        -13    1    3    3    0    0 -0.32005355475E+01 -0.95178362965E+01  0.53271819351E+02  0.54210059367E+02  0.10566000000E+00 0.  1.
         13    1    4    4    0    0  0.13970235679E+00  0.23285610879E+01 -0.76246675311E+01  0.79742355423E+01  0.10566000000E+00 0. -1.
        -13    1    4    4    0    0  0.11362030834E+01  0.29564815362E+01 -0.91341411665E+01  0.96682697214E+01  0.10566000000E+00 0.  1.
        -14    1    4    4    0    0  0.19246301073E+01  0.42327936725E+01 -0.10886898684E+02  0.11838298285E+02  0.00000000000E+00 0.  1.
<mgrwt>
<rscale>  0 0.79670967E+02</rscale>
<asrwt>0</asrwt>
<pdfrwt beam="1">  1        2 0.44665193E-02 0.79670967E+02</pdfrwt>
<pdfrwt beam="2">  1       -1 0.84089980E-02 0.79670967E+02</pdfrwt>
<totfact> 0.13524045E+05</totfact>
</mgrwt>
</event>
<event>
 8    1  0.1372701E-016  0.8538917E+02  0.7818608E-02  0.1314418E+00
          2   -1    0    0  501    0  0.00000000000E+00  0.00000000000E+00  0.11935713535E+02  0.11935713808E+02  0.25500000000E-02 0. -1.
         -1   -1    0    0    0  501 -0.00000000000E+00 -0.00000000000E+00 -0.15272046311E+03  0.15272046320E+03  0.50400000000E-02 0.  1.
         24    2    1    2    0    0  0.00000000000E+00  0.17763568394E-14 -0.14078474958E+03  0.16465617700E+03  0.85389173271E+02 0.  0.
         66    2    3    3    0    0  0.20011408717E+02  0.14243734981E+02 -0.31477003066E+01  0.24844485929E+02  0.19999997013E+01 0.  0.
        -13    1    3    3    0    0 -0.20011408717E+02 -0.14243734981E+02 -0.13763704927E+03  0.13981169108E+03  0.10566000000E+00 0.  1.
         13    1    4    4    0    0  0.83526585466E+01  0.59383495555E+01 -0.91773334707E+00  0.10290009658E+02  0.10566000000E+00 0. -1.
        -13    1    4    4    0    0  0.55254321654E+01  0.34648571744E+01 -0.43292995936E+00  0.65371422073E+01  0.10566000000E+00 0.  1.
        -14    1    4    4    0    0  0.61333180052E+01  0.48405282513E+01 -0.17970370002E+01  0.80173340634E+01  0.00000000000E+00 0.  1.
<mgrwt>
<rscale>  0 0.85389173E+02</rscale>
<asrwt>0</asrwt>
<pdfrwt beam="1">  1        2 0.18362637E-02 0.85389173E+02</pdfrwt>
<pdfrwt beam="2">  1       -1 0.23495455E-01 0.85389173E+02</pdfrwt>
<totfact> 0.91048022E+04</totfact>
</mgrwt>
</event>
<event>
 8    1  0.1226832E-016  0.7974627E+02  0.7818608E-02  0.1329773E+00
         -1   -1    0    0    0  501 -0.00000000000E+00  0.00000000000E+00  0.74136073948E+02  0.74136074120E+02  0.50400000000E-02 0.  1.
          2   -1    0    0  501    0  0.00000000000E+00 -0.00000000000E+00 -0.21445252001E+02  0.21445252152E+02  0.25500000000E-02 0. -1.
         24    2    1    2    0    0  0.88817841970E-15  0.00000000000E+00  0.52690821948E+02  0.95581326272E+02  0.79746267714E+02 0.  0.
         66    2    3    3    0    0  0.72929556981E+01  0.33484839009E+02  0.19911775191E+01  0.34385846410E+02  0.19999997977E+01 0.  0.
        -13    1    3    3    0    0 -0.72929556981E+01 -0.33484839009E+02  0.50699644429E+02  0.61195479862E+02  0.10566000000E+00 0.  1.
         13    1    4    4    0    0  0.44431472542E+01  0.19165772394E+02  0.13561547652E+01  0.19721022001E+02  0.10566000000E+00 0. -1.
        -13    1    4    4    0    0  0.16077866024E+01  0.68573092351E+01 -0.25203622096E+00  0.70485710607E+01  0.10566000000E+00 0.  1.
        -14    1    4    4    0    0  0.12420218414E+01  0.74617573795E+01  0.88705897484E+00  0.76162533486E+01  0.00000000000E+00 0.  1.
<mgrwt>
<rscale>  0 0.79746268E+02</rscale>
<asrwt>0</asrwt>
<pdfrwt beam="1">  1        2 0.32992696E-02 0.79746268E+02</pdfrwt>
<pdfrwt beam="2">  1       -1 0.11405550E-01 0.79746268E+02</pdfrwt>
<totfact> 0.12706035E+05</totfact>
</mgrwt>
</event>
<event>
 8    1  0.1226832E-016  0.7946796E+02  0.7818608E-02  0.1330568E+00
          2   -1    0    0  501    0  0.00000000000E+00  0.00000000000E+00  0.44090109091E+03  0.44090109092E+03  0.25500000000E-02 0. -1.
         -1   -1    0    0    0  501 -0.00000000000E+00 -0.00000000000E+00 -0.35808219950E+01  0.35808255419E+01  0.50400000000E-02 0.  1.
         24    2    1    2    0    0  0.00000000000E+00  0.00000000000E+00  0.43732026892E+03  0.44448191646E+03  0.79467958672E+02 0.  0.
         66    2    3    3    0    0 -0.34524077764E+01 -0.22000972646E+02  0.40268022869E+03  0.40330054364E+03  0.20000005865E+01 0.  0.
        -13    1    3    3    0    0  0.34524077764E+01  0.22000972646E+02  0.34640040228E+02  0.41181372826E+02  0.10566000000E+00 0.  1.
         13    1    4    4    0    0 -0.40924372976E+00 -0.42821226853E+01  0.69101662102E+02  0.69235503352E+02  0.10566000000E+00 0. -1.
        -13    1    4    4    0    0 -0.27250314204E+01 -0.12759851939E+02  0.23810953348E+03  0.23846677067E+03  0.10566000000E+00 0.  1.
         14    1    4    4    0    0 -0.31813262624E+00 -0.49589980215E+01  0.95469033112E+02  0.95598269614E+02  0.00000000000E+00 0. -1.
<mgrwt>
<rscale>  0 0.79467959E+02</rscale>
<asrwt>0</asrwt>
<pdfrwt beam="1">  1        2 0.67830967E-01 0.79467959E+02</pdfrwt>
<pdfrwt beam="2">  1       -1 0.55089573E-03 0.79467959E+02</pdfrwt>
<totfact> 0.29729669E+05</totfact>
</mgrwt>
</event>
<event>
 8    1  0.1226832E-016  0.7982083E+02  0.7818608E-02  0.1329561E+00
         -1   -1    0    0    0  501 -0.00000000000E+00  0.00000000000E+00  0.25988319561E+03  0.25988319565E+03  0.50400000000E-02 0.  1.
          2   -1    0    0  501    0  0.00000000000E+00 -0.00000000000E+00 -0.61290655814E+01  0.61290661119E+01  0.25500000000E-02 0. -1.
         24    2    1    2    0    0  0.00000000000E+00  0.00000000000E+00  0.25375413002E+03  0.26601226177E+03  0.79820830024E+02 0.  0.
         66    2    3    3    0    0 -0.29800947355E+02  0.26456043542E+02  0.13255050844E+03  0.13842563335E+03  0.19999939407E+01 0.  0.
        -13    1    3    3    0    0  0.29800947355E+02 -0.26456043542E+02  0.12120362158E+03  0.12758662842E+03  0.10566000000E+00 0.  1.
         13    1    4    4    0    0 -0.86720967919E+01  0.81035847536E+01  0.39839005822E+02  0.41569591020E+02  0.10566000000E+00 0. -1.
        -13    1    4    4    0    0 -0.14076332011E+02  0.13052263619E+02  0.62251788792E+02  0.65144463159E+02  0.10566000000E+00 0.  1.
         14    1    4    4    0    0 -0.70525185519E+01  0.53001951687E+01  0.30459713829E+02  0.31711579167E+02  0.00000000000E+00 0. -1.
<mgrwt>
<rscale>  0 0.79820830E+02</rscale>
<asrwt>0</asrwt>
<pdfrwt beam="1">  1        2 0.94293344E-03 0.79820830E+02</pdfrwt>
<pdfrwt beam="2">  1       -1 0.39982020E-01 0.79820830E+02</pdfrwt>
<totfact> 0.91856780E+04</totfact>
</mgrwt>
</event>
<event>
 8    1  0.1226832E-016  0.7904953E+02  0.7818608E-02  0.1331771E+00
         -1   -1    0    0    0  501 -0.00000000000E+00  0.00000000000E+00  0.29300677767E+02  0.29300678201E+02  0.50400000000E-02 0.  1.
          2   -1    0    0  501    0  0.00000000000E+00 -0.00000000000E+00 -0.53316411017E+02  0.53316411078E+02  0.25500000000E-02 0. -1.
         24    2    1    2    0    0  0.17763568394E-14  0.00000000000E+00 -0.24015733249E+02  0.82617089278E+02  0.79049528761E+02 0.  0.
         66    2    3    3    0    0 -0.98240311394E+01  0.11287821783E+02 -0.50220391895E+02  0.52440578426E+02  0.19999987757E+01 0.  0.
        -13    1    3    3    0    0  0.98240311394E+01 -0.11287821783E+02  0.26204658646E+02  0.30176510852E+02  0.10566000000E+00 0.  1.
         13    1    4    4    0    0 -0.54342598859E+01  0.54527641017E+01 -0.23151978456E+02  0.24398546828E+02  0.10566000000E+00 0. -1.
        -13    1    4    4    0    0 -0.24126726924E+01  0.28698374463E+01 -0.13132183421E+02  0.13657318988E+02  0.10566000000E+00 0.  1.
        -14    1    4    4    0    0 -0.19770985610E+01  0.29652202352E+01 -0.13936230017E+02  0.14384712610E+02  0.00000000000E+00 0.  1.
<mgrwt>
<rscale>  0 0.79049529E+02</rscale>
<asrwt>0</asrwt>
<pdfrwt beam="1">  1        2 0.82025248E-02 0.79049529E+02</pdfrwt>
<pdfrwt beam="2">  1       -1 0.45077966E-02 0.79049529E+02</pdfrwt>
<totfact> 0.15658192E+05</totfact>
</mgrwt>
</event>
<event>
 8    1  0.1226832E-016  0.8010415E+02  0.7818608E-02  0.1328756E+00
         -1   -1    0    0    0  501 -0.00000000000E+00  0.00000000000E+00  0.33251354898E+02  0.33251355280E+02  0.50400000000E-02 0.  1.
          2   -1    0    0  501    0  0.00000000000E+00 -0.00000000000E+00 -0.48243705080E+02  0.48243705147E+02  0.25500000000E-02 0. -1.
         24    2    1    2    0    0  0.00000000000E+00  0.35527136788E-14 -0.14992350182E+02  0.81495060427E+02  0.80104146647E+02 0.  0.
         66    2    3    3    0    0  0.23428461097E+02 -0.30019451233E+02 -0.20048002592E+02  0.43081117294E+02  0.20000043997E+01 0.  0.
        -13    1    3    3    0    0 -0.23428461097E+02  0.30019451233E+02  0.50556524104E+01  0.38413943134E+02  0.10566000000E+00 0.  1.
         13    1    4    4    0    0  0.14301782930E+02 -0.18885630221E+02 -0.11710087231E+02  0.26426224301E+02  0.10566000000E+00 0. -1.
        -13    1    4    4    0    0  0.49914442438E+01 -0.61742570182E+01 -0.50325789161E+01  0.94007435849E+01  0.10566000000E+00 0.  1.
        -14    1    4    4    0    0  0.41352339234E+01 -0.49595639940E+01 -0.33053364450E+01  0.72541494075E+01  0.00000000000E+00 0.  1.
<mgrwt>
<rscale>  0 0.80104147E+02</rscale>
<asrwt>0</asrwt>
<pdfrwt beam="1">  1        2 0.74221085E-02 0.80104147E+02</pdfrwt>
<pdfrwt beam="2">  1       -1 0.51155931E-02 0.80104147E+02</pdfrwt>
<totfact> 0.14774924E+05</totfact>
</mgrwt>
</event>
<event>
 8    1  0.1226832E-016  0.7543969E+02  0.7818608E-02  0.1342515E+00
          2   -1    0    0  501    0  0.00000000000E+00  0.00000000000E+00  0.46524295048E+02  0.46524295118E+02  0.25500000000E-02 0. -1.
         -1   -1    0    0    0  501 -0.00000000000E+00 -0.00000000000E+00 -0.30581585986E+02  0.30581586401E+02  0.50400000000E-02 0.  1.
         24    2    1    2    0    0  0.00000000000E+00  0.00000000000E+00  0.15942709063E+02  0.77105881519E+02  0.75439691096E+02 0.  0.
         66    2    3    3    0    0 -0.46433680032E+01  0.12464224439E+02  0.44024352094E+02  0.46033263402E+02  0.20000012164E+01 0.  0.
        -13    1    3    3    0    0  0.46433680032E+01 -0.12464224439E+02 -0.28081643031E+02  0.31072618117E+02  0.10566000000E+00 0.  1.
         13    1    4    4    0    0 -0.20700990291E+01  0.57523541332E+01  0.20664841490E+02  0.21550446072E+02  0.10566000000E+00 0. -1.
        -13    1    4    4    0    0  0.15986949443E+00  0.28159137907E+00  0.94186137153E+00  0.10015582054E+01  0.10566000000E+00 0.  1.
         14    1    4    4    0    0 -0.27331384686E+01  0.64302789269E+01  0.22417649233E+02  0.23481259125E+02  0.00000000000E+00 0. -1.
<mgrwt>
<rscale>  0 0.75439691E+02</rscale>
<asrwt>0</asrwt>
<pdfrwt beam="1">  1        2 0.71575838E-02 0.75439691E+02</pdfrwt>
<pdfrwt beam="2">  1       -1 0.47048595E-02 0.75439691E+02</pdfrwt>
<totfact> 0.17275142E+05</totfact>
</mgrwt>
</event>
<event>
 8    1  0.1226832E-016  0.7961899E+02  0.7818608E-02  0.1330136E+00
          2   -1    0    0  501    0  0.00000000000E+00  0.00000000000E+00  0.57590342937E+03  0.57590342938E+03  0.25500000000E-02 0. -1.
         -1   -1    0    0    0  501 -0.00000000000E+00 -0.00000000000E+00 -0.27518405444E+01  0.27518451598E+01  0.50400000000E-02 0.  1.
         24    2    1    2    0    0  0.00000000000E+00  0.00000000000E+00  0.57315158883E+03  0.57865527453E+03  0.79618986268E+02 0.  0.
         66    2    3    3    0    0  0.28319724244E+02 -0.20875347717E+02  0.42175036246E+03  0.42321998436E+03  0.20000002702E+01 0.  0.
        -13    1    3    3    0    0 -0.28319724244E+02  0.20875347717E+02  0.15140122637E+03  0.15543529018E+03  0.10566000000E+00 0.  1.
         13    1    4    4    0    0  0.34452186697E+01 -0.25391055987E+01  0.51874650337E+02  0.52051004798E+02  0.10566000000E+00 0. -1.
        -13    1    4    4    0    0  0.18324926151E+02 -0.12660914729E+02  0.27179282564E+03  0.27270396571E+03  0.10566000000E+00 0.  1.
        -14    1    4    4    0    0  0.65495794239E+01 -0.56753273890E+01  0.98082886481E+02  0.98465013848E+02  0.00000000000E+00 0.  1.
<mgrwt>
<rscale>  0 0.79618986E+02</rscale>
<asrwt>0</asrwt>
<pdfrwt beam="1">  1        2 0.88600575E-01 0.79618986E+02</pdfrwt>
<pdfrwt beam="2">  1       -1 0.42336022E-03 0.79618986E+02</pdfrwt>
<totfact> 0.32188963E+05</totfact>
</mgrwt>
</event>
<event>
 8    1  0.1226832E-016  0.7917509E+02  0.7818608E-02  0.1331409E+00
         -1   -1    0    0    0  501 -0.00000000000E+00  0.00000000000E+00  0.77748038822E+02  0.77748038986E+02  0.50400000000E-02 0.  1.
          2   -1    0    0  501    0  0.00000000000E+00 -0.00000000000E+00 -0.20157085222E+02  0.20157085383E+02  0.25500000000E-02 0. -1.
         24    2    1    2    0    0  0.00000000000E+00  0.00000000000E+00  0.57590953601E+02  0.97905124369E+02  0.79175093565E+02 0.  0.
         66    2    3    3    0    0  0.50532055947E+01  0.39237576047E+02  0.28546721479E+02  0.48826607231E+02  0.20000014178E+01 0.  0.
        -13    1    3    3    0    0 -0.50532055947E+01 -0.39237576047E+02  0.29044232122E+02  0.49078517137E+02  0.10566000000E+00 0.  1.
         13    1    4    4    0    0  0.35680315297E+00  0.17624953531E+01  0.12147089454E+01  0.21726436011E+01  0.10566000000E+00 0. -1.
        -13    1    4    4    0    0  0.43126961282E+00  0.47537209451E+01  0.27894073858E+01  0.55295401167E+01  0.10566000000E+00 0. -1.
        -14    1    4    4    0    0  0.42651328289E+01  0.32721359749E+02  0.24542605148E+02  0.41124423513E+02  0.00000000000E+00 0.  1.
<mgrwt>
<rscale>  0 0.79175094E+02</rscale>
<asrwt>0</asrwt>
<pdfrwt beam="1">  1        2 0.31010901E-02 0.79175094E+02</pdfrwt>
<pdfrwt beam="2">  1       -1 0.11961237E-01 0.79175094E+02</pdfrwt>
<totfact> 0.12810544E+05</totfact>
</mgrwt>
</event>
<event>
 8    1  0.1226832E-016  0.8031617E+02  0.7818608E-02  0.1328157E+00
         -1   -1    0    0    0  501 -0.00000000000E+00  0.00000000000E+00  0.18877335046E+02  0.18877335719E+02  0.50400000000E-02 0.  1.
          2   -1    0    0  501    0  0.00000000000E+00 -0.00000000000E+00 -0.85428988480E+02  0.85428988518E+02  0.25500000000E-02 0. -1.
         24    2    1    2    0    0  0.00000000000E+00  0.00000000000E+00 -0.66551653434E+02  0.10430632424E+03  0.80316167120E+02 0.  0.
         66    2    3    3    0    0 -0.16353343799E+02 -0.35101236956E+02 -0.46987523732E+02  0.60920900137E+02  0.19999994234E+01 0.  0.
        -13    1    3    3    0    0  0.16353343799E+02  0.35101236956E+02 -0.19564129702E+02  0.43385424100E+02  0.10566000000E+00 0.  1.
         13    1    4    4    0    0 -0.38192042388E+01 -0.98435211332E+01 -0.12261839678E+02  0.16181628646E+02  0.10566000000E+00 0. -1.
        -13    1    4    4    0    0 -0.93211652863E+01 -0.18712010701E+02 -0.26299672836E+02  0.33596241190E+02  0.10566000000E+00 0.  1.
        -14    1    4    4    0    0 -0.32129742739E+01 -0.65457051218E+01 -0.84260112174E+01  0.11143030300E+02  0.00000000000E+00 0.  1.
<mgrwt>
<rscale>  0 0.80316167E+02</rscale>
<asrwt>0</asrwt>
<pdfrwt beam="1">  1        2 0.13142921E-01 0.80316167E+02</pdfrwt>
<pdfrwt beam="2">  1       -1 0.29042055E-02 0.80316167E+02</pdfrwt>
<totfact> 0.16804039E+05</totfact>
</mgrwt>
</event>
<event>
 8    1  0.1226832E-016  0.8171461E+02  0.7818608E-02  0.1324255E+00
         -1   -1    0    0    0  501 -0.00000000000E+00  0.00000000000E+00  0.74942399977E+00  0.74944094699E+00  0.50400000000E-02 0.  1.
          2   -1    0    0  501    0  0.00000000000E+00 -0.00000000000E+00 -0.22274444542E+04  0.22274444542E+04  0.25500000000E-02 0. -1.
         24    2    1    2    0    0  0.00000000000E+00 -0.11102230246E-15 -0.22266950302E+04  0.22281938951E+04  0.81714606151E+02 0.  0.
         66    2    3    3    0    0  0.12659007362E+02  0.97376824905E+00 -0.21722483589E+04  0.21722863834E+04  0.20000003343E+01 0.  0.
        -13    1    3    3    0    0 -0.12659007362E+02 -0.97376824905E+00 -0.54446671315E+02  0.55907511779E+02  0.10566000000E+00 0.  1.
         13    1    4    4    0    0  0.34989059991E+00  0.16861015965E+00 -0.78807222041E+02  0.78808249966E+02  0.10566000000E+00 0. -1.
        -13    1    4    4    0    0  0.58222920073E+01  0.96259736711E+00 -0.10957488793E+04  0.10957647755E+04  0.10566000000E+00 0.  1.
         14    1    4    4    0    0  0.64868247544E+01 -0.15743927771E+00 -0.99769225755E+03  0.99771335787E+03  0.00000000000E+00 0. -1.
<mgrwt>
<rscale>  0 0.81714606E+02</rscale>
<asrwt>0</asrwt>
<pdfrwt beam="1">  1        2 0.34267846E+00 0.81714606E+02</pdfrwt>
<pdfrwt beam="2">  1       -1 0.11529909E-03 0.81714606E+02</pdfrwt>
<totfact> 0.23398644E+05</totfact>
</mgrwt>
</event>
<event>
 8    1  0.1226832E-016  0.7739378E+02  0.7818608E-02  0.1336615E+00
         -1   -1    0    0    0  501 -0.00000000000E+00  0.00000000000E+00  0.28435185060E+03  0.28435185064E+03  0.50400000000E-02 0.  1.
          2   -1    0    0  501    0  0.00000000000E+00 -0.00000000000E+00 -0.52661835434E+01  0.52661841608E+01  0.25500000000E-02 0. -1.
         24    2    1    2    0    0 -0.35527136788E-14 -0.35527136788E-14  0.27908566705E+03  0.28961803480E+03  0.77393775771E+02 0.  0.
         66    2    3    3    0    0  0.29992307301E+02  0.19462224604E+02  0.84494458511E+02  0.91769440444E+02  0.19999991095E+01 0.  0.
        -13    1    3    3    0    0 -0.29992307301E+02 -0.19462224604E+02  0.19459120854E+03  0.19784859436E+03  0.10566000000E+00 0.  1.
         13    1    4    4    0    0  0.51247438705E+01  0.36589325391E+01  0.16097071427E+02  0.17285186132E+02  0.10566000000E+00 0.  1.
        -13    1    4    4    0    0  0.22003823954E+02  0.13620206553E+02  0.60700755083E+02  0.65986901176E+02  0.10566000000E+00 0. -1.
         14    1    4    4    0    0  0.28637394769E+01  0.21830855119E+01  0.76966320006E+01  0.84973531347E+01  0.00000000000E+00 0. -1.
<mgrwt>
<rscale>  0 0.77393776E+02</rscale>
<asrwt>0</asrwt>
<pdfrwt beam="1">  1        2 0.81018171E-03 0.77393776E+02</pdfrwt>
<pdfrwt beam="2">  1       -1 0.43746461E-01 0.77393776E+02</pdfrwt>
<totfact> 0.96102304E+04</totfact>
</mgrwt>
</event>
<event>
 8    1  0.1226832E-016  0.7973006E+02  0.7818608E-02  0.1329819E+00
         -1   -1    0    0    0  501 -0.00000000000E+00  0.00000000000E+00  0.34582709045E+02  0.34582709412E+02  0.50400000000E-02 0.  1.
          2   -1    0    0  501    0  0.00000000000E+00 -0.00000000000E+00 -0.45954201553E+02  0.45954201624E+02  0.25500000000E-02 0. -1.
         24    2    1    2    0    0  0.00000000000E+00 -0.88817841970E-15 -0.11371492508E+02  0.80536911036E+02  0.79730064577E+02 0.  0.
         66    2    3    3    0    0 -0.14001344401E+02 -0.78928636758E+01 -0.42512035527E+02  0.45492945427E+02  0.19999942376E+01 0.  0.
        -13    1    3    3    0    0  0.14001344401E+02  0.78928636758E+01  0.31140543019E+02  0.35043965609E+02  0.10566000000E+00 0.  1.
         13    1    4    4    0    0 -0.56369694367E+01 -0.38727854958E+01 -0.19738883866E+02  0.20890394736E+02  0.10566000000E+00 0. -1.
        -13    1    4    4    0    0 -0.12707314105E+01 -0.54383749341E+00 -0.40678594760E+01  0.42975763273E+01  0.10566000000E+00 0.  1.
         14    1    4    4    0    0 -0.70936435539E+01 -0.34762406866E+01 -0.18705292185E+02  0.20304974364E+02  0.00000000000E+00 0. -1.
<mgrwt>
<rscale>  0 0.79730065E+02</rscale>
<asrwt>0</asrwt>
<pdfrwt beam="1">  1        2 0.70698772E-02 0.79730065E+02</pdfrwt>
<pdfrwt beam="2">  1       -1 0.53204168E-02 0.79730065E+02</pdfrwt>
<totfact> 0.14811241E+05</totfact>
</mgrwt>
</event>
<event>
 8    1  0.1226832E-016  0.7517335E+02  0.7818608E-02  0.1343335E+00
          2   -1    0    0  501    0  0.00000000000E+00  0.00000000000E+00  0.45162101289E+03  0.45162101290E+03  0.25500000000E-02 0. -1.
         -1   -1    0    0    0  501 -0.00000000000E+00 -0.00000000000E+00 -0.31281916788E+01  0.31281957389E+01  0.50400000000E-02 0.  1.
         24    2    1    2    0    0 -0.35527136788E-14  0.00000000000E+00  0.44849282121E+03  0.45474920864E+03  0.75173346854E+02 0.  0.
         66    2    3    3    0    0 -0.27230657579E+02 -0.19827717578E+02  0.32492320279E+03  0.32667068250E+03  0.19999991871E+01 0.  0.
        -13    1    3    3    0    0  0.27230657579E+02  0.19827717578E+02  0.12356961842E+03  0.12807852613E+03  0.10566000000E+00 0.  1.
         13    1    4    4    0    0 -0.12610277224E+02 -0.10026879889E+02  0.15350235889E+03  0.15434553042E+03  0.10566000000E+00 0. -1.
        -13    1    4    4    0    0 -0.13381565324E+02 -0.90923496960E+01  0.15984548258E+03  0.16066215042E+03  0.10566000000E+00 0.  1.
        -14    1    4    4    0    0 -0.12388150309E+01 -0.70848799295E+00  0.11575361321E+02  0.11663001656E+02  0.00000000000E+00 0.  1.
<mgrwt>
<rscale>  0 0.75173347E+02</rscale>
<asrwt>0</asrwt>
<pdfrwt beam="1">  1        2 0.69480113E-01 0.75173347E+02</pdfrwt>
<pdfrwt beam="2">  1       -1 0.48126087E-03 0.75173347E+02</pdfrwt>
<totfact> 0.34628191E+05</totfact>
</mgrwt>
</event>
<event>
 8    1  0.1226832E-016  0.7915596E+02  0.7818608E-02  0.1331464E+00
         -1   -1    0    0    0  501 -0.00000000000E+00  0.00000000000E+00  0.53668579046E+02  0.53668579282E+02  0.50400000000E-02 0.  1.
          2   -1    0    0  501    0  0.00000000000E+00 -0.00000000000E+00 -0.29186844970E+02  0.29186845082E+02  0.25500000000E-02 0. -1.
         24    2    1    2    0    0  0.00000000000E+00  0.00000000000E+00  0.24481734075E+02  0.82855424364E+02  0.79155960251E+02 0.  0.
         66    2    3    3    0    0 -0.38679284427E+02  0.45758946306E+01  0.50432118624E+01  0.39325053756E+02  0.20000028959E+01 0.  0.
        -13    1    3    3    0    0  0.38679284427E+02 -0.45758946306E+01  0.19438522213E+02  0.43530370608E+02  0.10566000000E+00 0.  1.
         13    1    4    4    0    0 -0.78065455874E+01  0.28713404487E+00  0.14023104802E+01  0.79373949559E+01  0.10566000000E+00 0. -1.
        -13    1    4    4    0    0 -0.81628661880E+01  0.10896600116E+01  0.12277139245E+01  0.83269555577E+01  0.10566000000E+00 0.  1.
         14    1    4    4    0    0 -0.22709872651E+02  0.31991005741E+01  0.24131874577E+01  0.23060703242E+02  0.00000000000E+00 0. -1.
<mgrwt>
<rscale>  0 0.79155960E+02</rscale>
<asrwt>0</asrwt>
<pdfrwt beam="1">  1        2 0.44902839E-02 0.79155960E+02</pdfrwt>
<pdfrwt beam="2">  1       -1 0.82567044E-02 0.79155960E+02</pdfrwt>
<totfact> 0.13786527E+05</totfact>
</mgrwt>
</event>
<event>
 8    1  0.1226832E-016  0.8096671E+02  0.7818608E-02  0.1326330E+00
          2   -1    0    0  501    0  0.00000000000E+00  0.00000000000E+00  0.21463301947E+03  0.21463301948E+03  0.25500000000E-02 0. -1.
         -1   -1    0    0    0  501 -0.00000000000E+00 -0.00000000000E+00 -0.76358330731E+01  0.76358347364E+01  0.50400000000E-02 0.  1.
         24    2    1    2    0    0 -0.17763568394E-14  0.71054273576E-14  0.20699718639E+03  0.22226885422E+03  0.80966711559E+02 0.  0.
         66    2    3    3    0    0 -0.12633273490E+02  0.35454865794E+02  0.62820718276E+02  0.73260424153E+02  0.19999987062E+01 0.  0.
        -13    1    3    3    0    0  0.12633273490E+02 -0.35454865794E+02  0.14417646812E+03  0.14900843006E+03  0.10566000000E+00 0.  1.
         13    1    4    4    0    0 -0.23142173677E+01  0.67597252351E+01  0.11468265887E+02  0.13512282330E+02  0.10566000000E+00 0. -1.
        -13    1    4    4    0    0 -0.89090827253E+01  0.25681851884E+02  0.46551328442E+02  0.53907018234E+02  0.10566000000E+00 0.  1.
        -14    1    4    4    0    0 -0.14099733971E+01  0.30132886756E+01  0.48011239473E+01  0.58411235888E+01  0.00000000000E+00 0.  1.
<mgrwt>
<rscale>  0 0.80966712E+02</rscale>
<asrwt>0</asrwt>
<pdfrwt beam="1">  1        2 0.33020461E-01 0.80966712E+02</pdfrwt>
<pdfrwt beam="2">  1       -1 0.11747438E-02 0.80966712E+02</pdfrwt>
<totfact> 0.21904727E+05</totfact>
</mgrwt>
</event>
<event>
 8    1  0.1226832E-016  0.7908580E+02  0.7818608E-02  0.1331666E+00
         -1   -1    0    0    0  501 -0.00000000000E+00  0.00000000000E+00  0.73455141175E+01  0.73455158465E+01  0.50400000000E-02 0.  1.
          2   -1    0    0  501    0  0.00000000000E+00 -0.00000000000E+00 -0.21287017166E+03  0.21287017168E+03  0.25500000000E-02 0. -1.
         24    2    1    2    0    0  0.00000000000E+00  0.00000000000E+00 -0.20552465755E+03  0.22021568753E+03  0.79085802600E+02 0.  0.
         66    2    3    3    0    0  0.17288578019E+02 -0.21593977721E+02 -0.18141050467E+03  0.18351829884E+03  0.19999996127E+01 0.  0.
        -13    1    3    3    0    0 -0.17288578019E+02  0.21593977721E+02 -0.24114152872E+02  0.36697388687E+02  0.10566000000E+00 0.  1.
         13    1    4    4    0    0  0.94229951397E+01 -0.12407012156E+02 -0.99489950594E+02  0.10070247376E+03  0.10566000000E+00 0. -1.
        -13    1    4    4    0    0  0.58717902808E+01 -0.69579518862E+01 -0.64698727832E+02  0.65336265294E+02  0.10566000000E+00 0.  1.
        -14    1    4    4    0    0  0.19937925985E+01 -0.22290136785E+01 -0.17221826249E+02  0.17479559784E+02  0.00000000000E+00 0.  1.
<mgrwt>
<rscale>  0 0.79085803E+02</rscale>
<asrwt>0</asrwt>
<pdfrwt beam="1">  1        2 0.32749253E-01 0.79085803E+02</pdfrwt>
<pdfrwt beam="2">  1       -1 0.11300794E-02 0.79085803E+02</pdfrwt>
<totfact> 0.23237259E+05</totfact>
</mgrwt>
</event>
<event>
 8    1  0.1226832E-016  0.8151618E+02  0.7818608E-02  0.1324803E+00
          2   -1    0    0  501    0  0.00000000000E+00  0.00000000000E+00  0.61945004479E+03  0.61945004479E+03  0.25500000000E-02 0. -1.
         -1   -1    0    0    0  501 -0.00000000000E+00 -0.00000000000E+00 -0.26817664767E+01  0.26817712127E+01  0.50400000000E-02 0.  1.
         24    2    1    2    0    0  0.00000000000E+00 -0.35527136788E-14  0.61676827831E+03  0.62213181601E+03  0.81516178491E+02 0.  0.
         66    2    3    3    0    0 -0.91845295824E+01  0.30289325023E+02  0.50425510450E+03  0.50525143169E+03  0.20000027026E+01 0.  0.
        -13    1    3    3    0    0  0.91845295824E+01 -0.30289325023E+02  0.11251317381E+03  0.11688038432E+03  0.10566000000E+00 0.  1.
         13    1    4    4    0    0 -0.34479370862E+00  0.10979653331E+01  0.16666943334E+02  0.16706961863E+02  0.10566000000E+00 0. -1.
        -13    1    4    4    0    0 -0.32340165893E+01  0.12388165906E+02  0.21629801760E+03  0.21667664641E+03  0.10566000000E+00 0.  1.
        -14    1    4    4    0    0 -0.56057192845E+01  0.16803193784E+02  0.27129014356E+03  0.27186782341E+03  0.00000000000E+00 0.  1.
<mgrwt>
<rscale>  0 0.81516178E+02</rscale>
<asrwt>0</asrwt>
<pdfrwt beam="1">  1        2 0.95299946E-01 0.81516178E+02</pdfrwt>
<pdfrwt beam="2">  1       -1 0.41258009E-03 0.81516178E+02</pdfrwt>
<totfact> 0.30897596E+05</totfact>
</mgrwt>
</event>
<event>
 8    1  0.1226832E-016  0.7870740E+02  0.7818608E-02  0.1332760E+00
          2   -1    0    0  501    0  0.00000000000E+00  0.00000000000E+00  0.15352179946E+02  0.15352180158E+02  0.25500000000E-02 0. -1.
         -1   -1    0    0    0  501 -0.00000000000E+00 -0.00000000000E+00 -0.10087907057E+03  0.10087907070E+03  0.50400000000E-02 0.  1.
         24    2    1    2    0    0  0.00000000000E+00  0.00000000000E+00 -0.85526890624E+02  0.11623125085E+03  0.78707398987E+02 0.  0.
         66    2    3    3    0    0  0.22890457752E+02 -0.49716445976E+01  0.38617029319E+01  0.23824421409E+02  0.19999999634E+01 0.  0.
        -13    1    3    3    0    0 -0.22890457752E+02  0.49716445976E+01 -0.89388593556E+02  0.92406829445E+02  0.10566000000E+00 0.  1.
         13    1    4    4    0    0  0.13152967395E+02 -0.21177293492E+01  0.18121007644E+01  0.13445452841E+02  0.10566000000E+00 0. -1.
        -13    1    4    4    0    0  0.43431465086E+01 -0.16520165918E+01  0.92273097988E+00  0.47386366089E+01  0.10566000000E+00 0.  1.
         14    1    4    4    0    0  0.53943438482E+01 -0.12018986565E+01  0.11268711876E+01  0.56403319589E+01  0.00000000000E+00 0. -1.
<mgrwt>
<rscale>  0 0.78707399E+02</rscale>
<asrwt>0</asrwt>
<pdfrwt beam="1">  1        2 0.23618739E-02 0.78707399E+02</pdfrwt>
<pdfrwt beam="2">  1       -1 0.15519857E-01 0.78707399E+02</pdfrwt>
<totfact> 0.12321202E+05</totfact>
</mgrwt>
</event>
<event>
 8    1  0.1226832E-016  0.7956595E+02  0.7818608E-02  0.1330288E+00
          2   -1    0    0  501    0  0.00000000000E+00  0.00000000000E+00  0.59936737692E+03  0.59936737693E+03  0.25500000000E-02 0. -1.
         -1   -1    0    0    0  501 -0.00000000000E+00 -0.00000000000E+00 -0.26405903890E+01  0.26405951988E+01  0.50400000000E-02 0.  1.
         24    2    1    2    0    0  0.00000000000E+00 -0.35527136788E-14  0.59672678653E+03  0.60200797213E+03  0.79565952125E+02 0.  0.
         66    2    3    3    0    0  0.25862492039E+02  0.21367966363E+02  0.45998221443E+03  0.46120830010E+03  0.20000004691E+01 0.  0.
        -13    1    3    3    0    0 -0.25862492039E+02 -0.21367966363E+02  0.13674457210E+03  0.14079967203E+03  0.10566000000E+00 0.  1.
         13    1    4    4    0    0  0.69383655746E+01  0.57334060141E+01  0.11896654987E+03  0.11930659669E+03  0.10566000000E+00 0. -1.
        -13    1    4    4    0    0  0.11750445923E+02  0.95197169517E+01  0.22043960719E+03  0.22095775518E+03  0.10566000000E+00 0.  1.
        -14    1    4    4    0    0  0.71736805412E+01  0.61148433974E+01  0.12057605738E+03  0.12094394824E+03  0.00000000000E+00 0.  1.
<mgrwt>
<rscale>  0 0.79565952E+02</rscale>
<asrwt>0</asrwt>
<pdfrwt beam="1">  1        2 0.92210306E-01 0.79565952E+02</pdfrwt>
<pdfrwt beam="2">  1       -1 0.40624531E-03 0.79565952E+02</pdfrwt>
<totfact> 0.32612386E+05</totfact>
</mgrwt>
</event>
<event>
 8    1  0.1226832E-016  0.8352218E+02  0.7818608E-02  0.1319343E+00
          2   -1    0    0  501    0  0.00000000000E+00  0.00000000000E+00  0.42384373626E+03  0.42384373627E+03  0.25500000000E-02 0. -1.
         -1   -1    0    0    0  501 -0.00000000000E+00 -0.00000000000E+00 -0.41146957090E+01  0.41146987957E+01  0.50400000000E-02 0.  1.
         24    2    1    2    0    0 -0.71054273576E-14 -0.17763568394E-14  0.41972904056E+03  0.42795843507E+03  0.83522180648E+02 0.  0.
         66    2    3    3    0    0 -0.36818672585E+02 -0.15778349620E+02  0.27004837181E+03  0.27301042853E+03  0.20000013334E+01 0.  0.
        -13    1    3    3    0    0  0.36818672585E+02  0.15778349620E+02  0.14968066875E+03  0.15494800653E+03  0.10566000000E+00 0.  1.
         13    1    4    4    0    0 -0.28651393759E+02 -0.11625156315E+02  0.21137686495E+03  0.21362639543E+03  0.10566000000E+00 0. -1.
        -13    1    4    4    0    0 -0.53118142665E+01 -0.28767958286E+01  0.38054293121E+02  0.38530918936E+02  0.10566000000E+00 0.  1.
         14    1    4    4    0    0 -0.28554645594E+01 -0.12763974764E+01  0.20617213737E+02  0.20853114172E+02  0.00000000000E+00 0. -1.
<mgrwt>
<rscale>  0 0.83522181E+02</rscale>
<asrwt>0</asrwt>
<pdfrwt beam="1">  1        2 0.65206728E-01 0.83522181E+02</pdfrwt>
<pdfrwt beam="2">  1       -1 0.63303036E-03 0.83522181E+02</pdfrwt>
<totfact> 0.25753553E+05</totfact>
</mgrwt>
</event>
<event>
 8    1  0.1226832E-016  0.7910567E+02  0.7818608E-02  0.1331609E+00
          2   -1    0    0  501    0  0.00000000000E+00  0.00000000000E+00  0.11964595088E+04  0.11964595088E+04  0.25500000000E-02 0. -1.
         -1   -1    0    0    0  501 -0.00000000000E+00 -0.00000000000E+00 -0.13075418501E+01  0.13075515636E+01  0.50400000000E-02 0.  1.
         24    2    1    2    0    0 -0.35527136788E-14  0.00000000000E+00  0.11951519670E+04  0.11977670604E+04  0.79105668535E+02 0.  0.
         66    2    3    3    0    0 -0.19901244104E+02  0.93563373381E+01  0.10952809819E+04  0.10955035508E+04  0.19999974016E+01 0.  0.
        -13    1    3    3    0    0  0.19901244104E+02 -0.93563373381E+01  0.99870985076E+02  0.10226350957E+03  0.10566000000E+00 0.  1.
         13    1    4    4    0    0 -0.76396118884E+01  0.32439134345E+01  0.38870778222E+03  0.38879639629E+03  0.10566000000E+00 0. -1.
        -13    1    4    4    0    0 -0.26905928657E+01  0.98634083410E+00  0.16893540297E+03  0.16895973988E+03  0.10566000000E+00 0.  1.
        -14    1    4    4    0    0 -0.95710393499E+01  0.51260830695E+01  0.53763779671E+03  0.53774741466E+03  0.00000000000E+00 0.  1.
<mgrwt>
<rscale>  0 0.79105669E+02</rscale>
<asrwt>0</asrwt>
<pdfrwt beam="1">  1        2 0.18407086E+00 0.79105669E+02</pdfrwt>
<pdfrwt beam="2">  1       -1 0.20116085E-03 0.79105669E+02</pdfrwt>
<totfact> 0.36086792E+05</totfact>
</mgrwt>
</event>
<event>
 8    1  0.1226832E-016  0.8089097E+02  0.7818608E-02  0.1326542E+00
          2   -1    0    0  501    0  0.00000000000E+00  0.00000000000E+00  0.19399400779E+03  0.19399400781E+03  0.25500000000E-02 0. -1.
         -1   -1    0    0    0  501 -0.00000000000E+00 -0.00000000000E+00 -0.84324096729E+01  0.84324111791E+01  0.50400000000E-02 0.  1.
         24    2    1    2    0    0  0.35527136788E-14  0.00000000000E+00  0.18556159812E+03  0.20242641899E+03  0.80890966169E+02 0.  0.
         66    2    3    3    0    0  0.23199113066E+02  0.33045745160E+02  0.97593355703E+02  0.10563466852E+03  0.19999990930E+01 0.  0.
        -13    1    3    3    0    0 -0.23199113066E+02 -0.33045745160E+02  0.87968242415E+02  0.96791750464E+02  0.10566000000E+00 0.  1.
         13    1    4    4    0    0  0.93769646945E+01  0.14098095502E+02  0.39818086073E+02  0.43268636519E+02  0.10566000000E+00 0. -1.
        -13    1    4    4    0    0  0.96919937752E+00  0.10090086945E+01  0.39935029597E+01  0.42328094575E+01  0.10566000000E+00 0. -1.
        -14    1    4    4    0    0  0.12852948994E+02  0.17938640964E+02  0.53781766671E+02  0.58133222547E+02  0.00000000000E+00 0.  1.
<mgrwt>
<rscale>  0 0.80890966E+02</rscale>
<asrwt>0</asrwt>
<pdfrwt beam="1">  1        2 0.29845228E-01 0.80890966E+02</pdfrwt>
<pdfrwt beam="2">  1       -1 0.12972941E-02 0.80890966E+02</pdfrwt>
<totfact> 0.21197569E+05</totfact>
</mgrwt>
</event>
<event>
 8    1  0.1226832E-016  0.8411626E+02  0.7818608E-02  0.1317760E+00
         -1   -1    0    0    0  501 -0.00000000000E+00  0.00000000000E+00  0.22944797221E+02  0.22944797774E+02  0.50400000000E-02 0.  1.
          2   -1    0    0  501    0  0.00000000000E+00 -0.00000000000E+00 -0.77093128231E+02  0.77093128273E+02  0.25500000000E-02 0. -1.
         24    2    1    2    0    0  0.00000000000E+00 -0.35527136788E-14 -0.54148331010E+02  0.10003792605E+03  0.84116258218E+02 0.  0.
         66    2    3    3    0    0 -0.37465373581E+02  0.18280453082E+02 -0.33499648364E+02  0.53516872303E+02  0.19999995255E+01 0.  0.
        -13    1    3    3    0    0  0.37465373581E+02 -0.18280453082E+02 -0.20648682646E+02  0.46521053745E+02  0.10566000000E+00 0.  1.
         13    1    4    4    0    0 -0.36232178842E+01  0.17277972776E+01 -0.27553984765E+01  0.48699462080E+01  0.10566000000E+00 0. -1.
        -13    1    4    4    0    0 -0.13706568128E+02  0.71836151436E+01 -0.13334369497E+02  0.20427699584E+02  0.10566000000E+00 0. -1.
        -14    1    4    4    0    0 -0.20135587569E+02  0.93690406605E+01 -0.17409880390E+02  0.28219226511E+02  0.00000000000E+00 0.  1.
<mgrwt>
<rscale>  0 0.84116258E+02</rscale>
<asrwt>0</asrwt>
<pdfrwt beam="1">  1        2 0.11860481E-01 0.84116258E+02</pdfrwt>
<pdfrwt beam="2">  1       -1 0.35299689E-02 0.84116258E+02</pdfrwt>
<totfact> 0.14438019E+05</totfact>
</mgrwt>
</event>
<event>
 8    1  0.1226832E-016  0.7794073E+02  0.7818608E-02  0.1334999E+00
         -1   -1    0    0    0  501 -0.00000000000E+00  0.00000000000E+00  0.54219641223E+01  0.54219664648E+01  0.50400000000E-02 0.  1.
          2   -1    0    0  501    0  0.00000000000E+00 -0.00000000000E+00 -0.28009945051E+03  0.28009945052E+03  0.25500000000E-02 0. -1.
         24    2    1    2    0    0  0.71054273576E-14  0.00000000000E+00 -0.27467748639E+03  0.28552141699E+03  0.77940734085E+02 0.  0.
         66    2    3    3    0    0 -0.28564496552E+02  0.25542762939E+02 -0.11196391322E+03  0.11835658439E+03  0.20000004605E+01 0.  0.
        -13    1    3    3    0    0  0.28564496552E+02 -0.25542762939E+02 -0.16271357317E+03  0.16716483260E+03  0.10566000000E+00 0.  1.
         13    1    4    4    0    0 -0.21766397388E+02  0.19692945934E+02 -0.85893108613E+02  0.90770179277E+02  0.10566000000E+00 0. -1.
        -13    1    4    4    0    0 -0.39314503261E+01  0.37412394327E+01 -0.14607019154E+02  0.15582982601E+02  0.10566000000E+00 0.  1.
         14    1    4    4    0    0 -0.28666488382E+01  0.21085775726E+01 -0.11463785454E+02  0.12003422507E+02  0.00000000000E+00 0. -1.
<mgrwt>
<rscale>  0 0.77940734E+02</rscale>
<asrwt>0</asrwt>
<pdfrwt beam="1">  1        2 0.43092212E-01 0.77940734E+02</pdfrwt>
<pdfrwt beam="2">  1       -1 0.83414873E-03 0.77940734E+02</pdfrwt>
<totfact> 0.26627502E+05</totfact>
</mgrwt>
</event>
<event>
 8    1  0.1226832E-016  0.8454230E+02  0.7818608E-02  0.1316634E+00
         -1   -1    0    0    0  501 -0.00000000000E+00  0.00000000000E+00  0.40335883344E+02  0.40335883658E+02  0.50400000000E-02 0.  1.
          2   -1    0    0  501    0  0.00000000000E+00 -0.00000000000E+00 -0.44299269157E+02  0.44299269231E+02  0.25500000000E-02 0. -1.
         24    2    1    2    0    0  0.00000000000E+00  0.00000000000E+00 -0.39633858136E+01  0.84635152889E+02  0.84542301113E+02 0.  0.
         66    2    3    3    0    0  0.15146070719E+02 -0.23615405104E+02 -0.33604740249E+02  0.43822019301E+02  0.19999979922E+01 0.  0.
        -13    1    3    3    0    0 -0.15146070719E+02  0.23615405104E+02  0.29641354436E+02  0.40813133588E+02  0.10566000000E+00 0.  1.
         13    1    4    4    0    0  0.68295065559E+01 -0.11794182551E+02 -0.15833635630E+02  0.20891627106E+02  0.10566000000E+00 0. -1.
        -13    1    4    4    0    0  0.48012933333E+01 -0.66372787943E+01 -0.92746932712E+01  0.12374853000E+02  0.10566000000E+00 0.  1.
         14    1    4    4    0    0  0.35152708300E+01 -0.51839437587E+01 -0.84964113482E+01  0.10555539195E+02  0.00000000000E+00 0. -1.
<mgrwt>
<rscale>  0 0.84542301E+02</rscale>
<asrwt>0</asrwt>
<pdfrwt beam="1">  1        2 0.68152722E-02 0.84542301E+02</pdfrwt>
<pdfrwt beam="2">  1       -1 0.62055206E-02 0.84542301E+02</pdfrwt>
<totfact> 0.12499755E+05</totfact>
</mgrwt>
</event>
<event>
 8    1  0.1226832E-016  0.7415313E+02  0.7818608E-02  0.1346514E+00
          2   -1    0    0  501    0  0.00000000000E+00  0.00000000000E+00  0.25976722593E+02  0.25976722718E+02  0.25500000000E-02 0. -1.
         -1   -1    0    0    0  501 -0.00000000000E+00 -0.00000000000E+00 -0.52919366585E+02  0.52919366825E+02  0.50400000000E-02 0.  1.
         24    2    1    2    0    0  0.00000000000E+00 -0.35527136788E-14 -0.26942643992E+02  0.78896089543E+02  0.74153131288E+02 0.  0.
         66    2    3    3    0    0 -0.21528688337E+02  0.21799701346E+02  0.86829268053E+01  0.31907752065E+02  0.20000059116E+01 0.  0.
        -13    1    3    3    0    0  0.21528688337E+02 -0.21799701346E+02 -0.35625570797E+02  0.46988337478E+02  0.10566000000E+00 0.  1.
         13    1    4    4    0    0 -0.74508103719E+00  0.49087767517E+00  0.61183076702E-01  0.90056318403E+00  0.10566000000E+00 0.  1.
        -13    1    4    4    0    0 -0.71329570164E+01  0.77623783521E+01  0.34474583456E+01  0.11091876602E+02  0.10566000000E+00 0. -1.
         14    1    4    4    0    0 -0.13650650283E+02  0.13546445318E+02  0.51742853830E+01  0.19915312278E+02  0.00000000000E+00 0. -1.
<mgrwt>
<rscale>  0 0.74153131E+02</rscale>
<asrwt>0</asrwt>
<pdfrwt beam="1">  1        2 0.39964189E-02 0.74153131E+02</pdfrwt>
<pdfrwt beam="2">  1       -1 0.81414411E-02 0.74153131E+02</pdfrwt>
<totfact> 0.16181391E+05</totfact>
</mgrwt>
</event>
<event>
 8    1  0.1226832E-016  0.8039603E+02  0.7818608E-02  0.1327931E+00
         -1   -1    0    0    0  501 -0.00000000000E+00  0.00000000000E+00  0.58318639244E+01  0.58318661022E+01  0.50400000000E-02 0.  1.
          2   -1    0    0  501    0  0.00000000000E+00 -0.00000000000E+00 -0.27707783347E+03  0.27707783348E+03  0.25500000000E-02 0. -1.
         24    2    1    2    0    0  0.00000000000E+00  0.00000000000E+00 -0.27124596954E+03  0.28290969958E+03  0.80396033011E+02 0.  0.
         66    2    3    3    0    0 -0.28140794356E+02 -0.28602299793E+02 -0.14263794610E+03  0.14818764972E+03  0.20000004945E+01 0.  0.
        -13    1    3    3    0    0  0.28140794356E+02  0.28602299793E+02 -0.12860802345E+03  0.13472204986E+03  0.10566000000E+00 0.  1.
         13    1    4    4    0    0 -0.36645697688E+01 -0.37373412940E+01 -0.18606638623E+02  0.19329121977E+02  0.10566000000E+00 0. -1.
        -13    1    4    4    0    0 -0.12503967941E+02 -0.13975059623E+02 -0.67349331432E+02  0.69911337522E+02  0.10566000000E+00 0.  1.
         14    1    4    4    0    0 -0.11972256646E+02 -0.10889898876E+02 -0.56681976042E+02  0.58947190219E+02  0.00000000000E+00 0. -1.
<mgrwt>
<rscale>  0 0.80396033E+02</rscale>
<asrwt>0</asrwt>
<pdfrwt beam="1">  1        2 0.42627349E-01 0.80396033E+02</pdfrwt>
<pdfrwt beam="2">  1       -1 0.89721022E-03 0.80396033E+02</pdfrwt>
<totfact> 0.24451788E+05</totfact>
</mgrwt>
</event>
<event>
 8    1  0.1226832E-016  0.7735021E+02  0.7818608E-02  0.1336744E+00
         -1   -1    0    0    0  501 -0.00000000000E+00  0.00000000000E+00  0.51019530487E+01  0.51019555381E+01  0.50400000000E-02 0.  1.
          2   -1    0    0  501    0  0.00000000000E+00 -0.00000000000E+00 -0.29317466262E+03  0.29317466263E+03  0.25500000000E-02 0. -1.
         24    2    1    2    0    0  0.35527136788E-14  0.00000000000E+00 -0.28807270957E+03  0.29827661817E+03  0.77350209739E+02 0.  0.
         66    2    3    3    0    0  0.31445487389E+02  0.30324508050E+01 -0.22999153920E+03  0.23215969181E+03  0.19999909774E+01 0.  0.
        -13    1    3    3    0    0 -0.31445487389E+02 -0.30324508050E+01 -0.58081170367E+02  0.66116926353E+02  0.10566000000E+00 0.  1.
         13    1    4    4    0    0  0.14381209141E+02  0.17700860657E+01 -0.10230388712E+03  0.10332496729E+03  0.10566000000E+00 0. -1.
        -13    1    4    4    0    0  0.69988754642E+01  0.10333845816E+01 -0.50530115642E+02  0.51023091756E+02  0.10566000000E+00 0.  1.
         14    1    4    4    0    0  0.10065402784E+02  0.22898015768E+00 -0.77157536441E+02  0.77811632773E+02  0.00000000000E+00 0. -1.
<mgrwt>
<rscale>  0 0.77350210E+02</rscale>
<asrwt>0</asrwt>
<pdfrwt beam="1">  1        2 0.45103781E-01 0.77350210E+02</pdfrwt>
<pdfrwt beam="2">  1       -1 0.78491628E-03 0.77350210E+02</pdfrwt>
<totfact> 0.27613862E+05</totfact>
</mgrwt>
</event>
<event>
 8    1  0.1226832E-016  0.8195561E+02  0.7818608E-02  0.1323592E+00
          2   -1    0    0  501    0  0.00000000000E+00  0.00000000000E+00  0.83427630721E+01  0.83427634618E+01  0.25500000000E-02 0. -1.
         -1   -1    0    0    0  501 -0.00000000000E+00 -0.00000000000E+00 -0.20127390829E+03  0.20127390836E+03  0.50400000000E-02 0.  1.
         24    2    1    2    0    0  0.00000000000E+00  0.00000000000E+00 -0.19293114522E+03  0.20961667182E+03  0.81955611814E+02 0.  0.
         66    2    3    3    0    0  0.30735042656E+02 -0.23218143256E+02 -0.60948907089E+02  0.72128318240E+02  0.19999983576E+01 0.  0.
        -13    1    3    3    0    0 -0.30735042656E+02  0.23218143256E+02 -0.13198223813E+03  0.13748835358E+03  0.10566000000E+00 0.  1.
         13    1    4    4    0    0  0.16924962896E+02 -0.12168745527E+02 -0.34015519537E+02  0.39894855184E+02  0.10566000000E+00 0. -1.
        -13    1    4    4    0    0  0.11717566717E+02 -0.90475540135E+01 -0.22156440311E+02  0.26647300326E+02  0.10566000000E+00 0.  1.
         14    1    4    4    0    0  0.20925130421E+01 -0.20018437163E+01 -0.47769472410E+01  0.55861627294E+01  0.00000000000E+00 0. -1.
<mgrwt>
<rscale>  0 0.81955612E+02</rscale>
<asrwt>0</asrwt>
<pdfrwt beam="1">  1        2 0.12835022E-02 0.81955612E+02</pdfrwt>
<pdfrwt beam="2">  1       -1 0.30965213E-01 0.81955612E+02</pdfrwt>
<totfact> 0.93481834E+04</totfact>
</mgrwt>
</event>
<event>
 8    1  0.1226832E-016  0.8222454E+02  0.7818608E-02  0.1322854E+00
         -1   -1    0    0    0  501 -0.00000000000E+00  0.00000000000E+00  0.17266604524E+01  0.17266678081E+01  0.50400000000E-02 0.  1.
          2   -1    0    0  501    0  0.00000000000E+00 -0.00000000000E+00 -0.97889265798E+03  0.97889265798E+03  0.25500000000E-02 0. -1.
         24    2    1    2    0    0  0.00000000000E+00  0.00000000000E+00 -0.97716599753E+03  0.98061932579E+03  0.82224542512E+02 0.  0.
         66    2    3    3    0    0  0.60169917206E+00 -0.28664657398E+02 -0.83986984676E+03  0.84036146040E+03  0.19999990970E+01 0.  0.
        -13    1    3    3    0    0 -0.60169917206E+00  0.28664657398E+02 -0.13729615076E+03  0.14025786539E+03  0.10566000000E+00 0.  1.
         13    1    4    4    0    0  0.15043501162E+00 -0.21489972748E+02 -0.60666077133E+03  0.60704130354E+03  0.10566000000E+00 0. -1.
        -13    1    4    4    0    0  0.28073944858E+00 -0.50387773249E+01 -0.16875881016E+03  0.16883428343E+03  0.10566000000E+00 0.  1.
        -14    1    4    4    0    0  0.17052471186E+00 -0.21359073250E+01 -0.64450265271E+02  0.64485873432E+02  0.00000000000E+00 0.  1.
<mgrwt>
<rscale>  0 0.82224543E+02</rscale>
<asrwt>0</asrwt>
<pdfrwt beam="1">  1        2 0.15059843E+00 0.82224543E+02</pdfrwt>
<pdfrwt beam="2">  1       -1 0.26564142E-03 0.82224543E+02</pdfrwt>
<totfact> 0.32771923E+05</totfact>
</mgrwt>
</event>
<event>
 8    1  0.1226832E-016  0.7712017E+02  0.7818608E-02  0.1337428E+00
         -1   -1    0    0    0  501 -0.00000000000E+00  0.00000000000E+00  0.41473692480E+01  0.41473723104E+01  0.50400000000E-02 0.  1.
          2   -1    0    0  501    0  0.00000000000E+00 -0.00000000000E+00 -0.35851148972E+03  0.35851148973E+03  0.25500000000E-02 0. -1.
         24    2    1    2    0    0  0.00000000000E+00  0.00000000000E+00 -0.35436412048E+03  0.36265886204E+03  0.77120168166E+02 0.  0.
         66    2    3    3    0    0  0.35497140965E+02  0.13994158089E+02 -0.15198069126E+03  0.15670996774E+03  0.19999994180E+01 0.  0.
        -13    1    3    3    0    0 -0.35497140965E+02 -0.13994158089E+02 -0.20238342922E+03  0.20594889430E+03  0.10566000000E+00 0.  1.
         13    1    4    4    0    0  0.74186014167E+01  0.29127987144E+01 -0.34634181923E+02  0.35539523981E+02  0.10566000000E+00 0. -1.
        -13    1    4    4    0    0  0.12182857197E+02  0.47555116753E+01 -0.49029450989E+02  0.50743818630E+02  0.10566000000E+00 0.  1.
         14    1    4    4    0    0  0.15895682351E+02  0.63258476992E+01 -0.68317058347E+02  0.70426625134E+02  0.00000000000E+00 0. -1.
<mgrwt>
<rscale>  0 0.77120168E+02</rscale>
<asrwt>0</asrwt>
<pdfrwt beam="1">  1        2 0.55155589E-01 0.77120168E+02</pdfrwt>
<pdfrwt beam="2">  1       -1 0.63805733E-03 0.77120168E+02</pdfrwt>
<totfact> 0.29911770E+05</totfact>
</mgrwt>
</event>
<event>
 8    1  0.1226832E-016  0.8013335E+02  0.7818608E-02  0.1328673E+00
          2   -1    0    0  501    0  0.00000000000E+00  0.00000000000E+00  0.93596490780E+02  0.93596490814E+02  0.25500000000E-02 0. -1.
         -1   -1    0    0    0  501 -0.00000000000E+00 -0.00000000000E+00 -0.17151695736E+02  0.17151696477E+02  0.50400000000E-02 0.  1.
         24    2    1    2    0    0 -0.35527136788E-14  0.00000000000E+00  0.76444795043E+02  0.11074818729E+03  0.80133353225E+02 0.  0.
         66    2    3    3    0    0 -0.27954189735E+02  0.17199010457E+02  0.69945735766E+02  0.77289382472E+02  0.20000016465E+01 0.  0.
        -13    1    3    3    0    0  0.27954189735E+02 -0.17199010457E+02  0.64990592771E+01  0.33458804820E+02  0.10566000000E+00 0.  1.
         13    1    4    4    0    0 -0.14570582982E+02  0.90071870660E+01  0.36028382648E+02  0.39893443416E+02  0.10566000000E+00 0. -1.
        -13    1    4    4    0    0 -0.65642110410E+01  0.43838197525E+01  0.15628570435E+02  0.17509143900E+02  0.10566000000E+00 0.  1.
        -14    1    4    4    0    0 -0.68193957119E+01  0.38080036386E+01  0.18288782682E+02  0.19886795156E+02  0.00000000000E+00 0.  1.
<mgrwt>
<rscale>  0 0.80133353E+02</rscale>
<asrwt>0</asrwt>
<pdfrwt beam="1">  1        2 0.14399460E-01 0.80133353E+02</pdfrwt>
<pdfrwt beam="2">  1       -1 0.26387226E-02 0.80133353E+02</pdfrwt>
<totfact> 0.17326900E+05</totfact>
</mgrwt>
</event>
<event>
 8    1  0.1226832E-016  0.7937024E+02  0.7818608E-02  0.1330848E+00
          2   -1    0    0  501    0  0.00000000000E+00  0.00000000000E+00  0.19832920006E+03  0.19832920008E+03  0.25500000000E-02 0. -1.
         -1   -1    0    0    0  501 -0.00000000000E+00 -0.00000000000E+00 -0.79408800706E+01  0.79408816700E+01  0.50400000000E-02 0.  1.
         24    2    1    2    0    0 -0.71054273576E-14 -0.35527136788E-14  0.19038831999E+03  0.20627008175E+03  0.79370235197E+02 0.  0.
         66    2    3    3    0    0 -0.18593966347E+02 -0.28123747473E+02  0.14953355319E+03  0.15330024231E+03  0.20000009383E+01 0.  0.
        -13    1    3    3    0    0  0.18593966347E+02  0.28123747473E+02  0.40854766795E+02  0.52969839441E+02  0.10566000000E+00 0.  1.
         13    1    4    4    0    0 -0.11360630366E+02 -0.17322737008E+02  0.90154067935E+02  0.92503558143E+02  0.10566000000E+00 0. -1.
        -13    1    4    4    0    0 -0.30300392209E+00 -0.63036051800E+00  0.44013289751E+01  0.44578051261E+01  0.10566000000E+00 0.  1.
        -14    1    4    4    0    0 -0.69303320587E+01 -0.10170649947E+02  0.54978156284E+02  0.56338879037E+02  0.00000000000E+00 0.  1.
<mgrwt>
<rscale>  0 0.79370235E+02</rscale>
<asrwt>0</asrwt>
<pdfrwt beam="1">  1        2 0.30512181E-01 0.79370235E+02</pdfrwt>
<pdfrwt beam="2">  1       -1 0.12216741E-02 0.79370235E+02</pdfrwt>
<totfact> 0.22457805E+05</totfact>
</mgrwt>
</event>
<event>
 8    1  0.1226832E-016  0.8052726E+02  0.7818608E-02  0.1327562E+00
          2   -1    0    0  501    0  0.00000000000E+00  0.00000000000E+00  0.57197213455E+03  0.57197213456E+03  0.25500000000E-02 0. -1.
         -1   -1    0    0    0  501 -0.00000000000E+00 -0.00000000000E+00 -0.28343311215E+01  0.28343356026E+01  0.50400000000E-02 0.  1.
         24    2    1    2    0    0  0.71054273576E-14  0.88817841970E-15  0.56913780343E+03  0.57480647016E+03  0.80527255289E+02 0.  0.
         66    2    3    3    0    0  0.38785875497E+02  0.73694957987E+01  0.34026536051E+03  0.34255389235E+03  0.19999989522E+01 0.  0.
        -13    1    3    3    0    0 -0.38785875497E+02 -0.73694957987E+01  0.22887244292E+03  0.23225257781E+03  0.10566000000E+00 0.  1.
         13    1    4    4    0    0  0.33507662617E+02  0.60989151654E+01  0.29344774594E+03  0.29541758746E+03  0.10566000000E+00 0. -1.
        -13    1    4    4    0    0  0.20083072138E+01  0.31162627624E+00  0.15213066059E+02  0.15348581425E+02  0.10566000000E+00 0.  1.
         14    1    4    4    0    0  0.32699056656E+01  0.95895435708E+00  0.31604548512E+02  0.31787723466E+02  0.00000000000E+00 0. -1.
<mgrwt>
<rscale>  0 0.80527255E+02</rscale>
<asrwt>0</asrwt>
<pdfrwt beam="1">  1        2 0.87995799E-01 0.80527255E+02</pdfrwt>
<pdfrwt beam="2">  1       -1 0.43605086E-03 0.80527255E+02</pdfrwt>
<totfact> 0.31190320E+05</totfact>
</mgrwt>
</event>
<event>
 8    1  0.1226832E-016  0.8053337E+02  0.7818608E-02  0.1327545E+00
          2   -1    0    0  501    0  0.00000000000E+00  0.00000000000E+00  0.12262061012E+04  0.12262061012E+04  0.25500000000E-02 0. -1.
         -1   -1    0    0    0  501 -0.00000000000E+00 -0.00000000000E+00 -0.13222900354E+01  0.13222996405E+01  0.50400000000E-02 0.  1.
         24    2    1    2    0    0 -0.22204460493E-15  0.00000000000E+00  0.12248838112E+04  0.12275284008E+04  0.80533372110E+02 0.  0.
         66    2    3    3    0    0 -0.11578883717E+01 -0.17527233294E+02  0.11646840527E+04  0.11648182207E+04  0.20000018579E+01 0.  0.
        -13    1    3    3    0    0  0.11578883717E+01  0.17527233294E+02  0.60199758433E+02  0.62710180129E+02  0.10566000000E+00 0.  1.
         13    1    4    4    0    0 -0.14109680386E+00 -0.20034010873E+01  0.16748420009E+03  0.16749627449E+03  0.10566000000E+00 0.  1.
        -13    1    4    4    0    0  0.21791151243E+00 -0.10386851495E+01  0.65570987915E+02  0.65579661272E+02  0.10566000000E+00 0. -1.
         14    1    4    4    0    0 -0.12347030803E+01 -0.14485147057E+02  0.93162886472E+03  0.93174228495E+03  0.00000000000E+00 0. -1.
<mgrwt>
<rscale>  0 0.80533372E+02</rscale>
<asrwt>0</asrwt>
<pdfrwt beam="1">  1        2 0.18864747E+00 0.80533372E+02</pdfrwt>
<pdfrwt beam="2">  1       -1 0.20342957E-03 0.80533372E+02</pdfrwt>
<totfact> 0.34348666E+05</totfact>
</mgrwt>
</event>
<event>
 8    1  0.1226832E-016  0.8131038E+02  0.7818608E-02  0.1325373E+00
         -1   -1    0    0    0  501 -0.00000000000E+00  0.00000000000E+00  0.22797379665E+03  0.22797379671E+03  0.50400000000E-02 0.  1.
          2   -1    0    0  501    0  0.00000000000E+00 -0.00000000000E+00 -0.72501507668E+01  0.72501512152E+01  0.25500000000E-02 0. -1.
         24    2    1    2    0    0 -0.88817841970E-15 -0.14210854715E-13  0.22072364588E+03  0.23522394792E+03  0.81310379556E+02 0.  0.
         66    2    3    3    0    0 -0.37713736308E+01 -0.40099959862E+02  0.94954849790E+02  0.10316323736E+03  0.20000008068E+01 0.  0.
        -13    1    3    3    0    0  0.37713736308E+01  0.40099959862E+02  0.12576879609E+03  0.13206071056E+03  0.10566000000E+00 0.  1.
         13    1    4    4    0    0 -0.91875372966E+00 -0.62858550128E+01  0.13814386389E+02  0.15205410780E+02  0.10566000000E+00 0. -1.
        -13    1    4    4    0    0  0.36204863446E-01 -0.47435021884E+00  0.12462517418E+01  0.13381428779E+01  0.10566000000E+00 0.  1.
        -14    1    4    4    0    0 -0.28888247646E+01 -0.33339754631E+02  0.79894211660E+02  0.86619683699E+02  0.00000000000E+00 0.  1.
<mgrwt>
<rscale>  0 0.81310380E+02</rscale>
<asrwt>0</asrwt>
<pdfrwt beam="1">  1        2 0.11154078E-02 0.81310380E+02</pdfrwt>
<pdfrwt beam="2">  1       -1 0.35072894E-01 0.81310380E+02</pdfrwt>
<totfact> 0.91684133E+04</totfact>
</mgrwt>
</event>
<event>
 8    1  0.1226832E-016  0.7490266E+02  0.7818608E-02  0.1344173E+00
          2   -1    0    0  501    0  0.00000000000E+00  0.00000000000E+00  0.24143393085E+03  0.24143393086E+03  0.25500000000E-02 0. -1.
         -1   -1    0    0    0  501 -0.00000000000E+00 -0.00000000000E+00 -0.58094648261E+01  0.58094670123E+01  0.50400000000E-02 0.  1.
         24    2    1    2    0    0  0.35527136788E-14  0.00000000000E+00  0.23562446602E+03  0.24724339787E+03  0.74902662196E+02 0.  0.
         66    2    3    3    0    0 -0.18321508474E+02  0.12270935635E+01  0.22553721509E+03  0.22629233044E+03  0.19999983300E+01 0.  0.
        -13    1    3    3    0    0  0.18321508474E+02 -0.12270935635E+01  0.10087250936E+02  0.20951067440E+02  0.10566000000E+00 0.  1.
         13    1    4    4    0    0 -0.25403799648E+01 -0.13742432088E+00  0.25652679426E+02  0.25778742048E+02  0.10566000000E+00 0. -1.
        -13    1    4    4    0    0 -0.11180767762E+02  0.13854536263E+01  0.14006515140E+03  0.14051756777E+03  0.10566000000E+00 0.  1.
        -14    1    4    4    0    0 -0.46003607467E+01 -0.20935741895E-01  0.59819384259E+02  0.59996020622E+02  0.00000000000E+00 0.  1.
<mgrwt>
<rscale>  0 0.74902662E+02</rscale>
<asrwt>0</asrwt>
<pdfrwt beam="1">  1        2 0.37143680E-01 0.74902662E+02</pdfrwt>
<pdfrwt beam="2">  1       -1 0.89376402E-03 0.74902662E+02</pdfrwt>
<totfact> 0.28012543E+05</totfact>
</mgrwt>
</event>
<event>
 8    1  0.1226832E-016  0.7989693E+02  0.7818608E-02  0.1329344E+00
         -1   -1    0    0    0  501 -0.00000000000E+00  0.00000000000E+00  0.63099974069E+01  0.63099994197E+01  0.50400000000E-02 0.  1.
          2   -1    0    0  501    0  0.00000000000E+00 -0.00000000000E+00 -0.25291285883E+03  0.25291285884E+03  0.25500000000E-02 0. -1.
         24    2    1    2    0    0  0.00000000000E+00  0.00000000000E+00 -0.24660286142E+03  0.25922285826E+03  0.79896927249E+02 0.  0.
         66    2    3    3    0    0  0.39063038837E+02  0.82433857537E+01 -0.12331546945E+03  0.12963247824E+03  0.19999990372E+01 0.  0.
        -13    1    3    3    0    0 -0.39063038837E+02 -0.82433857537E+01 -0.12328739197E+03  0.12959038003E+03  0.10566000000E+00 0.  1.
         13    1    4    4    0    0  0.19920579991E+02  0.47028543924E+01 -0.62253425422E+02  0.65532026425E+02  0.10566000000E+00 0. -1.
        -13    1    4    4    0    0  0.44269416868E+01  0.12932560516E+01 -0.14822998981E+02  0.15524264451E+02  0.10566000000E+00 0.  1.
        -14    1    4    4    0    0  0.14715517159E+02  0.22472753098E+01 -0.46239045051E+02  0.48576187363E+02  0.00000000000E+00 0.  1.
<mgrwt>
<rscale>  0 0.79896927E+02</rscale>
<asrwt>0</asrwt>
<pdfrwt beam="1">  1        2 0.38909663E-01 0.79896927E+02</pdfrwt>
<pdfrwt beam="2">  1       -1 0.97076919E-03 0.79896927E+02</pdfrwt>
<totfact> 0.24049013E+05</totfact>
</mgrwt>
</event>
<event>
 8    1  0.1226832E-016  0.7871370E+02  0.7818608E-02  0.1332742E+00
          2   -1    0    0  501    0  0.00000000000E+00  0.00000000000E+00  0.36155507951E+02  0.36155508041E+02  0.25500000000E-02 0. -1.
         -1   -1    0    0    0  501 -0.00000000000E+00 -0.00000000000E+00 -0.42841655379E+02  0.42841655675E+02  0.50400000000E-02 0.  1.
         24    2    1    2    0    0  0.00000000000E+00  0.44408920985E-15 -0.66861474281E+01  0.78997163716E+02  0.78713704701E+02 0.  0.
         66    2    3    3    0    0 -0.20085003237E+02 -0.26348756605E+01  0.30489783502E+02  0.36660289371E+02  0.19999985007E+01 0.  0.
        -13    1    3    3    0    0  0.20085003237E+02  0.26348756605E+01 -0.37175930930E+02  0.42336874345E+02  0.10566000000E+00 0.  1.
         13    1    4    4    0    0 -0.10209304235E+02 -0.15234948078E+01  0.16322157355E+02  0.19312558457E+02  0.10566000000E+00 0. -1.
        -13    1    4    4    0    0 -0.79781327281E+00  0.78893506504E-01  0.74230442866E+00  0.10976839728E+01  0.10566000000E+00 0.  1.
         14    1    4    4    0    0 -0.90778857287E+01 -0.11902743591E+01  0.13425321718E+02  0.16250046941E+02  0.00000000000E+00 0. -1.
<mgrwt>
<rscale>  0 0.78713705E+02</rscale>
<asrwt>0</asrwt>
<pdfrwt beam="1">  1        2 0.55623859E-02 0.78713705E+02</pdfrwt>
<pdfrwt beam="2">  1       -1 0.65910239E-02 0.78713705E+02</pdfrwt>
<totfact> 0.14607172E+05</totfact>
</mgrwt>
</event>
<event>
 8    1  0.1226832E-016  0.7512691E+02  0.7818608E-02  0.1343478E+00
         -1   -1    0    0    0  501 -0.00000000000E+00  0.00000000000E+00  0.20379551479E+01  0.20379613801E+01  0.50400000000E-02 0.  1.
          2   -1    0    0  501    0  0.00000000000E+00 -0.00000000000E+00 -0.69236603921E+03  0.69236603922E+03  0.25500000000E-02 0. -1.
         24    2    1    2    0    0  0.00000000000E+00  0.17763568394E-14 -0.69032808407E+03  0.69440400060E+03  0.75126908610E+02 0.  0.
         66    2    3    3    0    0  0.19686478308E+02  0.14604640586E+02 -0.60817091300E+03  0.60866798205E+03  0.19999999755E+01 0.  0.
        -13    1    3    3    0    0 -0.19686478308E+02 -0.14604640586E+02 -0.82157171068E+02  0.85736018550E+02  0.10566000000E+00 0.  1.
         13    1    4    4    0    0  0.79505851130E+01  0.58280531714E+01 -0.26273985120E+03  0.26292473938E+03  0.10566000000E+00 0. -1.
        -13    1    4    4    0    0  0.47573640027E+00  0.17846367288E+00 -0.13478886512E+02  0.13488873935E+02  0.10566000000E+00 0. -1.
        -14    1    4    4    0    0  0.11260156795E+02  0.85981237419E+01 -0.33195217529E+03  0.33225436873E+03  0.00000000000E+00 0.  1.
<mgrwt>
<rscale>  0 0.75126909E+02</rscale>
<asrwt>0</asrwt>
<pdfrwt beam="1">  1        2 0.10651766E+00 0.75126909E+02</pdfrwt>
<pdfrwt beam="2">  1       -1 0.31353259E-03 0.75126909E+02</pdfrwt>
<totfact> 0.39268958E+05</totfact>
</mgrwt>
</event>
<event>
 8    1  0.1226832E-016  0.7960923E+02  0.7818608E-02  0.1330164E+00
          2   -1    0    0  501    0  0.00000000000E+00  0.00000000000E+00  0.11006593076E+03  0.11006593079E+03  0.25500000000E-02 0. -1.
         -1   -1    0    0    0  501 -0.00000000000E+00 -0.00000000000E+00 -0.14395076536E+02  0.14395077418E+02  0.50400000000E-02 0.  1.
         24    2    1    2    0    0  0.00000000000E+00 -0.35527136788E-14  0.95670854222E+02  0.12446100821E+03  0.79609234489E+02 0.  0.
         66    2    3    3    0    0 -0.17130231786E+02 -0.21270603428E+02  0.93083166814E+02  0.97027621587E+02  0.19999988656E+01 0.  0.
        -13    1    3    3    0    0  0.17130231786E+02  0.21270603428E+02  0.25876874084E+01  0.27433386619E+02  0.10566000000E+00 0.  1.
         13    1    4    4    0    0 -0.59966289139E+01 -0.63651558488E+01  0.30835849182E+02  0.32052075223E+02  0.10566000000E+00 0. -1.
        -13    1    4    4    0    0 -0.31559226455E+01 -0.45856482520E+01  0.19987141830E+02  0.20748132933E+02  0.10566000000E+00 0.  1.
        -14    1    4    4    0    0 -0.79776802263E+01 -0.10319799327E+02  0.42260175802E+02  0.44227413430E+02  0.00000000000E+00 0.  1.
<mgrwt>
<rscale>  0 0.79609234E+02</rscale>
<asrwt>0</asrwt>
<pdfrwt beam="1">  1        2 0.16933220E-01 0.79609234E+02</pdfrwt>
<pdfrwt beam="2">  1       -1 0.22146273E-02 0.79609234E+02</pdfrwt>
<totfact> 0.18456820E+05</totfact>
</mgrwt>
</event>
<event>
 8    1  0.1226832E-016  0.7946425E+02  0.7818608E-02  0.1330579E+00
         -1   -1    0    0    0  501 -0.00000000000E+00  0.00000000000E+00  0.78124441921E+01  0.78124458179E+01  0.50400000000E-02 0.  1.
          2   -1    0    0  501    0  0.00000000000E+00 -0.00000000000E+00 -0.20206754544E+03  0.20206754546E+03  0.25500000000E-02 0. -1.
         24    2    1    2    0    0  0.88817841970E-15  0.71054273576E-14 -0.19425510125E+03  0.20987999127E+03  0.79464245899E+02 0.  0.
         66    2    3    3    0    0  0.48124081401E+01  0.34560716860E+02 -0.14723465420E+03  0.15132628920E+03  0.19999959108E+01 0.  0.
        -13    1    3    3    0    0 -0.48124081401E+01 -0.34560716860E+02 -0.47020447051E+02  0.58553702077E+02  0.10566000000E+00 0.  1.
         13    1    4    4    0    0  0.26103215560E+01  0.23913198309E+02 -0.99848279466E+02  0.10270513574E+03  0.10566000000E+00 0. -1.
        -13    1    4    4    0    0  0.59240275495E+00  0.40878957539E+01 -0.18415739768E+02  0.18873591814E+02  0.10566000000E+00 0.  1.
        -14    1    4    4    0    0  0.16096838291E+01  0.65596227976E+01 -0.28970634963E+02  0.29747561638E+02  0.00000000000E+00 0.  1.
<mgrwt>
<rscale>  0 0.79464246E+02</rscale>
<asrwt>0</asrwt>
<pdfrwt beam="1">  1        2 0.31087311E-01 0.79464246E+02</pdfrwt>
<pdfrwt beam="2">  1       -1 0.12019148E-02 0.79464246E+02</pdfrwt>
<totfact> 0.22533357E+05</totfact>
</mgrwt>
</event>
<event>
 8    1  0.1226832E-016  0.7558286E+02  0.7818608E-02  0.1342076E+00
          2   -1    0    0  501    0  0.00000000000E+00  0.00000000000E+00  0.59966784534E+02  0.59966784588E+02  0.25500000000E-02 0. -1.
         -1   -1    0    0    0  501 -0.00000000000E+00 -0.00000000000E+00 -0.23816384351E+02  0.23816384884E+02  0.50400000000E-02 0.  1.
         24    2    1    2    0    0  0.00000000000E+00 -0.17763568394E-14  0.36150400183E+02  0.83783169472E+02  0.75582855552E+02 0.  0.
         66    2    3    3    0    0  0.20775707999E+02 -0.13981642048E+02  0.49422561956E+02  0.55441013602E+02  0.20000004480E+01 0.  0.
        -13    1    3    3    0    0 -0.20775707999E+02  0.13981642048E+02 -0.13272161772E+02  0.28342155870E+02  0.10566000000E+00 0.  1.
         13    1    4    4    0    0  0.77462365219E+01 -0.56572524939E+01  0.17645823221E+02  0.20084693854E+02  0.10566000000E+00 0. -1.
        -13    1    4    4    0    0  0.58695361033E+01 -0.33974678521E+01  0.14986240817E+02  0.16449705765E+02  0.10566000000E+00 0.  1.
         14    1    4    4    0    0  0.71599353738E+01 -0.49269217018E+01  0.16790497918E+02  0.18906613984E+02  0.00000000000E+00 0. -1.
<mgrwt>
<rscale>  0 0.75582856E+02</rscale>
<asrwt>0</asrwt>
<pdfrwt beam="1">  1        2 0.92256591E-02 0.75582856E+02</pdfrwt>
<pdfrwt beam="2">  1       -1 0.36640592E-02 0.75582856E+02</pdfrwt>
<totfact> 0.18154427E+05</totfact>
</mgrwt>
</event>
<event>
 8    1  0.1226832E-016  0.7957346E+02  0.7818608E-02  0.1330266E+00
          2   -1    0    0  501    0  0.00000000000E+00  0.00000000000E+00  0.30143510824E+03  0.30143510825E+03  0.25500000000E-02 0. -1.
         -1   -1    0    0    0  501 -0.00000000000E+00 -0.00000000000E+00 -0.52514897742E+01  0.52514921927E+01  0.50400000000E-02 0.  1.
         24    2    1    2    0    0  0.88817841970E-15  0.35527136788E-14  0.29618361847E+03  0.30668660045E+03  0.79573456907E+02 0.  0.
         66    2    3    3    0    0  0.51678907568E+01  0.94686992566E+01  0.29568386440E+03  0.29588732831E+03  0.20000070575E+01 0.  0.
        -13    1    3    3    0    0 -0.51678907568E+01 -0.94686992566E+01  0.49975406898E+00  0.10799272135E+02  0.10566000000E+00 0.  1.
         13    1    4    4    0    0  0.54324015358E+00  0.31773184179E+00  0.20769921137E+02  0.20779722122E+02  0.10566000000E+00 0. -1.
        -13    1    4    4    0    0  0.89701183595E+00  0.24619623837E+01  0.59992072745E+02  0.60049361739E+02  0.10566000000E+00 0.  1.
         14    1    4    4    0    0  0.37276387672E+01  0.66890050312E+01  0.21492187052E+03  0.21505824445E+03  0.00000000000E+00 0. -1.
<mgrwt>
<rscale>  0 0.79573457E+02</rscale>
<asrwt>0</asrwt>
<pdfrwt beam="1">  1        2 0.46374645E-01 0.79573457E+02</pdfrwt>
<pdfrwt beam="2">  1       -1 0.80792146E-03 0.79573457E+02</pdfrwt>
<totfact> 0.25898930E+05</totfact>
</mgrwt>
</event>
<event>
 8    1  0.1226832E-016  0.7838385E+02  0.7818608E-02  0.1333701E+00
         -1   -1    0    0    0  501 -0.00000000000E+00  0.00000000000E+00  0.11687063030E+03  0.11687063041E+03  0.50400000000E-02 0.  1.
          2   -1    0    0  501    0  0.00000000000E+00 -0.00000000000E+00 -0.13142797438E+02  0.13142797685E+02  0.25500000000E-02 0. -1.
         24    2    1    2    0    0 -0.88817841970E-15  0.00000000000E+00  0.10372783286E+03  0.13001342809E+03  0.78383851491E+02 0.  0.
         66    2    3    3    0    0  0.55373456907E+01  0.20288580163E+02 -0.29068771563E+01  0.21324600577E+02  0.19999931627E+01 0.  0.
        -13    1    3    3    0    0 -0.55373456907E+01 -0.20288580163E+02  0.10663471002E+03  0.10868882752E+03  0.10566000000E+00 0.  1.
         13    1    4    4    0    0  0.43735403272E+01  0.16175062743E+02 -0.17936926859E+01  0.16851973392E+02  0.10566000000E+00 0. -1.
        -13    1    4    4    0    0  0.81505728456E+00  0.31661899903E+01 -0.55113933441E+00  0.33172271604E+01  0.10566000000E+00 0.  1.
        -14    1    4    4    0    0  0.34874807901E+00  0.94732742936E+00 -0.56204513593E+00  0.11554000242E+01  0.00000000000E+00 0.  1.
<mgrwt>
<rscale>  0 0.78383851E+02</rscale>
<asrwt>0</asrwt>
<pdfrwt beam="1">  1        2 0.20219688E-02 0.78383851E+02</pdfrwt>
<pdfrwt beam="2">  1       -1 0.17980097E-01 0.78383851E+02</pdfrwt>
<totfact> 0.12054542E+05</totfact>
</mgrwt>
</event>
<event>
 8    1  0.1226832E-016  0.8078180E+02  0.7818608E-02  0.1326847E+00
         -1   -1    0    0    0  501 -0.00000000000E+00  0.00000000000E+00  0.51866743241E+02  0.51866743486E+02  0.50400000000E-02 0.  1.
          2   -1    0    0  501    0  0.00000000000E+00 -0.00000000000E+00 -0.31454157901E+02  0.31454158005E+02  0.25500000000E-02 0. -1.
         24    2    1    2    0    0  0.00000000000E+00  0.00000000000E+00  0.20412585340E+02  0.83320901491E+02  0.80781798599E+02 0.  0.
         66    2    3    3    0    0 -0.21940090990E+02  0.28257090474E+02 -0.90724548900E+01  0.36961333804E+02  0.20000010313E+01 0.  0.
        -13    1    3    3    0    0  0.21940090990E+02 -0.28257090474E+02  0.29485040230E+02  0.46359567687E+02  0.10566000000E+00 0.  1.
         13    1    4    4    0    0 -0.81587858166E+01  0.10501430499E+02 -0.35809452253E+01  0.13772442095E+02  0.10566000000E+00 0. -1.
        -13    1    4    4    0    0 -0.11448794909E+02  0.15618433279E+02 -0.47544037665E+01  0.19940558722E+02  0.10566000000E+00 0.  1.
        -14    1    4    4    0    0 -0.23325102641E+01  0.21372266971E+01 -0.73710589825E+00  0.32483329866E+01  0.00000000000E+00 0.  1.
<mgrwt>
<rscale>  0 0.80781799E+02</rscale>
<asrwt>0</asrwt>
<pdfrwt beam="1">  1        2 0.48391012E-02 0.80781799E+02</pdfrwt>
<pdfrwt beam="2">  1       -1 0.79794990E-02 0.80781799E+02</pdfrwt>
<totfact> 0.13217123E+05</totfact>
</mgrwt>
</event>
<event>
 8    1  0.1226832E-016  0.7954227E+02  0.7818608E-02  0.1330355E+00
          2   -1    0    0  501    0  0.00000000000E+00  0.00000000000E+00  0.28992230020E+03  0.28992230021E+03  0.25500000000E-02 0. -1.
         -1   -1    0    0    0  501 -0.00000000000E+00 -0.00000000000E+00 -0.54557469013E+01  0.54557492293E+01  0.50400000000E-02 0.  1.
         24    2    1    2    0    0  0.35527136788E-14 -0.35527136788E-14  0.28446655330E+03  0.29537804944E+03  0.79542266411E+02 0.  0.
         66    2    3    3    0    0 -0.19940199165E+02  0.30213349868E+02  0.20326012275E+03  0.20646824358E+03  0.20000126235E+01 0.  0.
        -13    1    3    3    0    0  0.19940199165E+02 -0.30213349868E+02  0.81206430547E+02  0.88909805866E+02  0.10566000000E+00 0.  1.
         13    1    4    4    0    0 -0.12310203332E+02  0.18598967072E+02  0.12128940493E+03  0.12332312676E+03  0.10566000000E+00 0. -1.
        -13    1    4    4    0    0 -0.11022957767E+01  0.12197108854E+01  0.91163766254E+01  0.92640292225E+01  0.10566000000E+00 0.  1.
        -14    1    4    4    0    0 -0.65277000567E+01  0.10394671911E+02  0.72854341198E+02  0.73881087590E+02  0.00000000000E+00 0.  1.
<mgrwt>
<rscale>  0 0.79542266E+02</rscale>
<asrwt>0</asrwt>
<pdfrwt beam="1">  1        2 0.44603434E-01 0.79542266E+02</pdfrwt>
<pdfrwt beam="2">  1       -1 0.83934581E-03 0.79542266E+02</pdfrwt>
<totfact> 0.25562663E+05</totfact>
</mgrwt>
</event>
<event>
 8    1  0.1226832E-016  0.7872267E+02  0.7818608E-02  0.1332716E+00
         -1   -1    0    0    0  501 -0.00000000000E+00  0.00000000000E+00  0.15505269652E+03  0.15505269660E+03  0.50400000000E-02 0.  1.
          2   -1    0    0  501    0  0.00000000000E+00 -0.00000000000E+00 -0.99921808619E+01  0.99921811873E+01  0.25500000000E-02 0. -1.
         24    2    1    2    0    0  0.00000000000E+00 -0.35527136788E-14  0.14506051565E+03  0.16504487778E+03  0.78722668154E+02 0.  0.
         66    2    3    3    0    0 -0.93215644052E+01  0.27060161848E+02  0.16002878154E+02  0.32851727874E+02  0.19999982252E+01 0.  0.
        -13    1    3    3    0    0  0.93215644052E+01 -0.27060161848E+02  0.12905763750E+03  0.13219314991E+03  0.10566000000E+00 0.  1.
         13    1    4    4    0    0 -0.37251271745E+01  0.12199031133E+02  0.78105792339E+01  0.14956912952E+02  0.10566000000E+00 0. -1.
        -13    1    4    4    0    0 -0.13557997448E+01  0.43987787227E+01  0.20109606218E+01  0.50241988274E+01  0.10566000000E+00 0.  1.
        -14    1    4    4    0    0 -0.42406374859E+01  0.10462351992E+02  0.61813382980E+01  0.12870616094E+02  0.00000000000E+00 0.  1.
<mgrwt>
<rscale>  0 0.78722668E+02</rscale>
<asrwt>0</asrwt>
<pdfrwt beam="1">  1        2 0.15372587E-02 0.78722668E+02</pdfrwt>
<pdfrwt beam="2">  1       -1 0.23854259E-01 0.78722668E+02</pdfrwt>
<totfact> 0.11140162E+05</totfact>
</mgrwt>
</event>
<event>
 8    1  0.1226832E-016  0.7690770E+02  0.7818608E-02  0.1338063E+00
         -1   -1    0    0    0  501 -0.00000000000E+00  0.00000000000E+00  0.33511181136E+01  0.33511219036E+01  0.50400000000E-02 0.  1.
          2   -1    0    0  501    0  0.00000000000E+00 -0.00000000000E+00 -0.44125507067E+03  0.44125507068E+03  0.25500000000E-02 0. -1.
         24    2    1    2    0    0 -0.35527136788E-14 -0.17763568394E-14 -0.43790395256E+03  0.44460619258E+03  0.76907703235E+02 0.  0.
         66    2    3    3    0    0  0.20075594257E+02  0.15986528926E+02 -0.38445092387E+03  0.38531170690E+03  0.20000053379E+01 0.  0.
        -13    1    3    3    0    0 -0.20075594257E+02 -0.15986528926E+02 -0.53453028690E+02  0.59294485680E+02  0.10566000000E+00 0.  1.
         13    1    4    4    0    0  0.73507919754E+01  0.60445459066E+01 -0.15334286171E+03  0.15363793503E+03  0.10566000000E+00 0. -1.
        -13    1    4    4    0    0  0.14787876525E+01  0.11143540035E+01 -0.22442577943E+02  0.22519082275E+02  0.10566000000E+00 0.  1.
         14    1    4    4    0    0  0.11246014629E+02  0.88276290163E+01 -0.20866548422E+03  0.20915468960E+03  0.00000000000E+00 0. -1.
<mgrwt>
<rscale>  0 0.76907703E+02</rscale>
<asrwt>0</asrwt>
<pdfrwt beam="1">  1        2 0.67885349E-01 0.76907703E+02</pdfrwt>
<pdfrwt beam="2">  1       -1 0.51555728E-03 0.76907703E+02</pdfrwt>
<totfact> 0.32384366E+05</totfact>
</mgrwt>
</event>
<event>
 8    1  0.1226832E-016  0.7701262E+02  0.7818608E-02  0.1337749E+00
          2   -1    0    0  501    0  0.00000000000E+00  0.00000000000E+00  0.25362514623E+02  0.25362514751E+02  0.25500000000E-02 0. -1.
         -1   -1    0    0    0  501 -0.00000000000E+00 -0.00000000000E+00 -0.58461705557E+02  0.58461705775E+02  0.50400000000E-02 0.  1.
         24    2    1    2    0    0  0.35527136788E-14  0.35527136788E-14 -0.33099190934E+02  0.83824220526E+02  0.77012619137E+02 0.  0.
         66    2    3    3    0    0  0.30563257870E+02  0.23043774909E+02 -0.12261330728E+02  0.40242620329E+02  0.19999915174E+01 0.  0.
        -13    1    3    3    0    0 -0.30563257870E+02 -0.23043774909E+02 -0.20837860206E+02  0.43581600197E+02  0.10566000000E+00 0.  1.
         13    1    4    4    0    0  0.13064601128E+02  0.10180983840E+02 -0.48772958628E+01  0.17266598204E+02  0.10566000000E+00 0. -1.
        -13    1    4    4    0    0  0.10395963177E+02  0.70033975186E+01 -0.38467636194E+01  0.13112298866E+02  0.10566000000E+00 0.  1.
        -14    1    4    4    0    0  0.71026935654E+01  0.58593935508E+01 -0.35372712459E+01  0.98637232592E+01  0.00000000000E+00 0.  1.
<mgrwt>
<rscale>  0 0.77012619E+02</rscale>
<asrwt>0</asrwt>
<pdfrwt beam="1">  1        2 0.39019254E-02 0.77012619E+02</pdfrwt>
<pdfrwt beam="2">  1       -1 0.89941086E-02 0.77012619E+02</pdfrwt>
<totfact> 0.14491810E+05</totfact>
</mgrwt>
</event>
<event>
 8    1  0.1226832E-016  0.7798064E+02  0.7818608E-02  0.1334882E+00
          2   -1    0    0  501    0  0.00000000000E+00  0.00000000000E+00  0.11886502737E+03  0.11886502739E+03  0.25500000000E-02 0. -1.
         -1   -1    0    0    0  501 -0.00000000000E+00 -0.00000000000E+00 -0.12789674969E+02  0.12789675962E+02  0.50400000000E-02 0.  1.
         24    2    1    2    0    0  0.00000000000E+00  0.00000000000E+00  0.10607535240E+03  0.13165470336E+03  0.77980642018E+02 0.  0.
         66    2    3    3    0    0 -0.20172093171E+02 -0.12517875009E+02  0.10523600391E+03  0.10789915227E+03  0.20000007995E+01 0.  0.
        -13    1    3    3    0    0  0.20172093171E+02  0.12517875009E+02  0.83934848752E+00  0.23755551090E+02  0.10566000000E+00 0.  1.
         13    1    4    4    0    0 -0.12531192334E+02 -0.79197047732E+01  0.68468005971E+02  0.70054489582E+02  0.10566000000E+00 0.  1.
        -13    1    4    4    0    0 -0.63444013841E+01 -0.41492540471E+01  0.30483861802E+02  0.31412493255E+02  0.10566000000E+00 0. -1.
         14    1    4    4    0    0 -0.12964994534E+01 -0.44891618906E+00  0.62841361360E+01  0.64321694282E+01  0.00000000000E+00 0. -1.
<mgrwt>
<rscale>  0 0.77980642E+02</rscale>
<asrwt>0</asrwt>
<pdfrwt beam="1">  1        2 0.18286927E-01 0.77980642E+02</pdfrwt>
<pdfrwt beam="2">  1       -1 0.19676424E-02 0.77980642E+02</pdfrwt>
<totfact> 0.19946626E+05</totfact>
</mgrwt>
</event>
<event>
 8    1  0.1226832E-016  0.8363556E+02  0.7818608E-02  0.1319040E+00
         -1   -1    0    0    0  501 -0.00000000000E+00  0.00000000000E+00  0.51749547067E+01  0.51749571609E+01  0.50400000000E-02 0.  1.
          2   -1    0    0  501    0  0.00000000000E+00 -0.00000000000E+00 -0.33792108300E+03  0.33792108301E+03  0.25500000000E-02 0. -1.
         24    2    1    2    0    0 -0.33306690739E-15 -0.35527136788E-14 -0.33274612830E+03  0.34309604017E+03  0.83635559941E+02 0.  0.
         66    2    3    3    0    0  0.67489216166E+00  0.27654564704E+02 -0.29498712217E+03  0.29628809068E+03  0.20000006169E+01 0.  0.
        -13    1    3    3    0    0 -0.67489216166E+00 -0.27654564704E+02 -0.37759006126E+02  0.46807949496E+02  0.10566000000E+00 0.  1.
         13    1    4    4    0    0  0.26589428466E-01  0.16199911586E+01 -0.14820905788E+02  0.14909577149E+02  0.10566000000E+00 0. -1.
        -13    1    4    4    0    0 -0.47781050329E+00  0.52705789500E+01 -0.58749976218E+02  0.58987949405E+02  0.10566000000E+00 0.  1.
        -14    1    4    4    0    0  0.11261132365E+01  0.20763994595E+02 -0.22141624016E+03  0.22239056412E+03  0.00000000000E+00 0.  1.
<mgrwt>
<rscale>  0 0.83635560E+02</rscale>
<asrwt>0</asrwt>
<pdfrwt beam="1">  1        2 0.51987842E-01 0.83635560E+02</pdfrwt>
<pdfrwt beam="2">  1       -1 0.79614734E-03 0.83635560E+02</pdfrwt>
<totfact> 0.23684187E+05</totfact>
</mgrwt>
</event>
<event>
 8    1  0.1226832E-016  0.8021819E+02  0.7818608E-02  0.1328433E+00
         -1   -1    0    0    0  501 -0.00000000000E+00  0.00000000000E+00  0.14339142102E+02  0.14339142988E+02  0.50400000000E-02 0.  1.
          2   -1    0    0  501    0  0.00000000000E+00 -0.00000000000E+00 -0.11219217764E+03  0.11219217767E+03  0.25500000000E-02 0. -1.
         24    2    1    2    0    0  0.35527136788E-14 -0.35527136788E-14 -0.97853035536E+02  0.12653132065E+03  0.80218193341E+02 0.  0.
         66    2    3    3    0    0 -0.29896125483E+02  0.26533456260E+02 -0.53670963977E+02  0.66950541612E+02  0.20000069659E+01 0.  0.
        -13    1    3    3    0    0  0.29896125483E+02 -0.26533456260E+02 -0.44182071558E+02  0.59580779042E+02  0.10566000000E+00 0.  1.
         13    1    4    4    0    0 -0.15053452624E+02  0.13802990325E+02 -0.28342585922E+02  0.34934829591E+02  0.10566000000E+00 0. -1.
        -13    1    4    4    0    0 -0.27607371235E+01  0.19516960213E+01 -0.40210655446E+01  0.52546093075E+01  0.10566000000E+00 0.  1.
        -14    1    4    4    0    0 -0.12081935736E+02  0.10778769914E+02 -0.21307312511E+02  0.26761102713E+02  0.00000000000E+00 0.  1.
<mgrwt>
<rscale>  0 0.80218193E+02</rscale>
<asrwt>0</asrwt>
<pdfrwt beam="1">  1        2 0.17260335E-01 0.80218193E+02</pdfrwt>
<pdfrwt beam="2">  1       -1 0.22060220E-02 0.80218193E+02</pdfrwt>
<totfact> 0.18185841E+05</totfact>
</mgrwt>
</event>
<event>
 8    1  0.1226832E-016  0.7814316E+02  0.7818608E-02  0.1334405E+00
         -1   -1    0    0    0  501 -0.00000000000E+00  0.00000000000E+00  0.28194911515E+01  0.28194956561E+01  0.50400000000E-02 0.  1.
          2   -1    0    0  501    0  0.00000000000E+00 -0.00000000000E+00 -0.54144060675E+03  0.54144060676E+03  0.25500000000E-02 0. -1.
         24    2    1    2    0    0  0.00000000000E+00  0.00000000000E+00 -0.53862111560E+03  0.54426010242E+03  0.78143156508E+02 0.  0.
         66    2    3    3    0    0 -0.10822345365E+02  0.12918086768E+02 -0.51480395712E+03  0.51508359942E+03  0.19999995129E+01 0.  0.
        -13    1    3    3    0    0  0.10822345365E+02 -0.12918086768E+02 -0.23817158479E+02  0.29176502994E+02  0.10566000000E+00 0.  1.
         13    1    4    4    0    0 -0.41889152271E+01  0.52352286056E+01 -0.21782607298E+03  0.21792926344E+03  0.10566000000E+00 0. -1.
        -13    1    4    4    0    0 -0.36328484248E+01  0.51946179810E+01 -0.18600839994E+03  0.18611640888E+03  0.10566000000E+00 0.  1.
        -14    1    4    4    0    0 -0.30005817131E+01  0.24882401812E+01 -0.11096948421E+03  0.11103792710E+03  0.00000000000E+00 0.  1.
<mgrwt>
<rscale>  0 0.78143157E+02</rscale>
<asrwt>0</asrwt>
<pdfrwt beam="1">  1        2 0.83298472E-01 0.78143157E+02</pdfrwt>
<pdfrwt beam="2">  1       -1 0.43376865E-03 0.78143157E+02</pdfrwt>
<totfact> 0.33181123E+05</totfact>
</mgrwt>
</event>
<event>
 8    1  0.1226832E-016  0.7839243E+02  0.7818608E-02  0.1333676E+00
         -1   -1    0    0    0  501 -0.00000000000E+00  0.00000000000E+00  0.12866037461E+02  0.12866038448E+02  0.50400000000E-02 0.  1.
          2   -1    0    0  501    0  0.00000000000E+00 -0.00000000000E+00 -0.11941075885E+03  0.11941075888E+03  0.25500000000E-02 0. -1.
         24    2    1    2    0    0  0.00000000000E+00  0.00000000000E+00 -0.10654472139E+03  0.13227679733E+03  0.78392432382E+02 0.  0.
         66    2    3    3    0    0 -0.17372922617E+02 -0.20790670086E+02 -0.10104087658E+03  0.10462948508E+03  0.20000010008E+01 0.  0.
        -13    1    3    3    0    0  0.17372922617E+02  0.20790670086E+02 -0.55038448079E+01  0.27647312249E+02  0.10566000000E+00 0.  1.
         13    1    4    4    0    0 -0.75467046540E+01 -0.98093230988E+01 -0.44985562899E+02  0.46657128117E+02  0.10566000000E+00 0. -1.
        -13    1    4    4    0    0 -0.67989317992E+01 -0.69266493108E+01 -0.38197161803E+02  0.39411144085E+02  0.10566000000E+00 0.  1.
        -14    1    4    4    0    0 -0.30272861641E+01 -0.40546976767E+01 -0.17858151880E+02  0.18561212874E+02  0.00000000000E+00 0.  1.
<mgrwt>
<rscale>  0 0.78392432E+02</rscale>
<asrwt>0</asrwt>
<pdfrwt beam="1">  1        2 0.18370885E-01 0.78392432E+02</pdfrwt>
<pdfrwt beam="2">  1       -1 0.19793905E-02 0.78392432E+02</pdfrwt>
<totfact> 0.19695881E+05</totfact>
</mgrwt>
</event>
<event>
 8    1  0.1226832E-016  0.8426089E+02  0.7818608E-02  0.1317377E+00
          2   -1    0    0  501    0  0.00000000000E+00  0.00000000000E+00  0.10572559467E+03  0.10572559470E+03  0.25500000000E-02 0. -1.
         -1   -1    0    0    0  501 -0.00000000000E+00 -0.00000000000E+00 -0.16788500392E+02  0.16788501148E+02  0.50400000000E-02 0.  1.
         24    2    1    2    0    0  0.00000000000E+00  0.00000000000E+00  0.88937094276E+02  0.12251409585E+03  0.84260886199E+02 0.  0.
         66    2    3    3    0    0 -0.38274810872E+01  0.26014662743E+02  0.92310795024E+02  0.96003620373E+02  0.19999893979E+01 0.  0.
        -13    1    3    3    0    0  0.38274810872E+01 -0.26014662743E+02 -0.33737007482E+01  0.26510475474E+02  0.10566000000E+00 0.  1.
         13    1    4    4    0    0 -0.28256272554E+01  0.19831377275E+02  0.68110177434E+02  0.70994895085E+02  0.10566000000E+00 0. -1.
        -13    1    4    4    0    0 -0.13552170085E-01  0.25878105449E+00  0.15617148375E+01  0.15865902321E+01  0.10566000000E+00 0. -1.
         14    1    4    4    0    0 -0.98830166171E+00  0.59245044139E+01  0.22638902753E+02  0.23422135056E+02  0.00000000000E+00 0. -1.
<mgrwt>
<rscale>  0 0.84260886E+02</rscale>
<asrwt>0</asrwt>
<pdfrwt beam="1">  1        2 0.16265476E-01 0.84260886E+02</pdfrwt>
<pdfrwt beam="2">  1       -1 0.25828463E-02 0.84260886E+02</pdfrwt>
<totfact> 0.15666660E+05</totfact>
</mgrwt>
</event>
<event>
 8    1  0.1226832E-016  0.7960162E+02  0.7818608E-02  0.1330186E+00
          2   -1    0    0  501    0  0.00000000000E+00  0.00000000000E+00  0.14242735720E+03  0.14242735722E+03  0.25500000000E-02 0. -1.
         -1   -1    0    0    0  501 -0.00000000000E+00 -0.00000000000E+00 -0.11122192173E+02  0.11122193315E+02  0.50400000000E-02 0.  1.
         24    2    1    2    0    0  0.71054273576E-14  0.00000000000E+00  0.13130516503E+03  0.15354955054E+03  0.79601621262E+02 0.  0.
         66    2    3    3    0    0  0.39558362815E+02 -0.19766183690E+01  0.58651574132E+02  0.70800976394E+02  0.20000053683E+01 0.  0.
        -13    1    3    3    0    0 -0.39558362815E+02  0.19766183690E+01  0.72653590897E+02  0.82748574145E+02  0.10566000000E+00 0.  1.
         13    1    4    4    0    0  0.25638662987E+02 -0.95766113092E+00  0.37302725343E+02  0.45274304375E+02  0.10566000000E+00 0. -1.
        -13    1    4    4    0    0  0.67158353514E+00  0.11196557575E+00  0.86648696704E+00  0.11070340711E+01  0.10566000000E+00 0.  1.
        -14    1    4    4    0    0  0.13248116292E+02 -0.11309228138E+01  0.20482361822E+02  0.24419637948E+02  0.00000000000E+00 0.  1.
<mgrwt>
<rscale>  0 0.79601621E+02</rscale>
<asrwt>0</asrwt>
<pdfrwt beam="1">  1        2 0.21911900E-01 0.79601621E+02</pdfrwt>
<pdfrwt beam="2">  1       -1 0.17111067E-02 0.79601621E+02</pdfrwt>
<totfact> 0.19963908E+05</totfact>
</mgrwt>
</event>
<event>
 8    1  0.1226832E-016  0.8366599E+02  0.7818608E-02  0.1318958E+00
          2   -1    0    0  501    0  0.00000000000E+00  0.00000000000E+00  0.95326626565E+02  0.95326626599E+02  0.25500000000E-02 0. -1.
         -1   -1    0    0    0  501 -0.00000000000E+00 -0.00000000000E+00 -0.18357930856E+02  0.18357931548E+02  0.50400000000E-02 0.  1.
         24    2    1    2    0    0  0.00000000000E+00  0.00000000000E+00  0.76968695708E+02  0.11368455815E+03  0.83665994538E+02 0.  0.
         66    2    3    3    0    0  0.22457664919E+01 -0.36979025725E+02  0.64836778321E+02  0.74701402884E+02  0.19999897555E+01 0.  0.
        -13    1    3    3    0    0 -0.22457664919E+01  0.36979025725E+02  0.12131917387E+02  0.38983155263E+02  0.10566000000E+00 0.  1.
         13    1    4    4    0    0  0.15397526822E+01 -0.30474597653E+02  0.53149784061E+02  0.61286072237E+02  0.10566000000E+00 0. -1.
        -13    1    4    4    0    0  0.61190830077E+00 -0.49974869036E+01  0.95830193021E+01  0.10825651486E+02  0.10566000000E+00 0.  1.
        -14    1    4    4    0    0  0.94105508857E-01 -0.15069411688E+01  0.21039749581E+01  0.25896791611E+01  0.00000000000E+00 0.  1.
<mgrwt>
<rscale>  0 0.83665995E+02</rscale>
<asrwt>0</asrwt>
<pdfrwt beam="1">  1        2 0.14665635E-01 0.83665995E+02</pdfrwt>
<pdfrwt beam="2">  1       -1 0.28242971E-02 0.83665995E+02</pdfrwt>
<totfact> 0.15506266E+05</totfact>
</mgrwt>
</event>
<event>
 8    1  0.1226832E-016  0.7771729E+02  0.7818608E-02  0.1335657E+00
         -1   -1    0    0    0  501 -0.00000000000E+00  0.00000000000E+00  0.22789019954E+02  0.22789020511E+02  0.50400000000E-02 0.  1.
          2   -1    0    0  501    0  0.00000000000E+00 -0.00000000000E+00 -0.66259732272E+02  0.66259732321E+02  0.25500000000E-02 0. -1.
         24    2    1    2    0    0  0.88817841970E-15 -0.71054273576E-14 -0.43470712318E+02  0.89048752833E+02  0.77717292487E+02 0.  0.
         66    2    3    3    0    0  0.60747176677E+01 -0.38309634269E+02 -0.19618640686E+02  0.43513461489E+02  0.19999989584E+01 0.  0.
        -13    1    3    3    0    0 -0.60747176677E+01  0.38309634269E+02 -0.23852071633E+02  0.45535291344E+02  0.10566000000E+00 0.  1.
         13    1    4    4    0    0  0.26650604394E+01 -0.17916361529E+02 -0.93863493026E+01  0.20401305714E+02  0.10566000000E+00 0. -1.
        -13    1    4    4    0    0  0.79750688091E+00 -0.89418589476E+01 -0.44792566901E+01  0.10033332607E+02  0.10566000000E+00 0.  1.
         14    1    4    4    0    0  0.26121503474E+01 -0.11451413793E+02 -0.57530346930E+01  0.13078823168E+02  0.00000000000E+00 0. -1.
<mgrwt>
<rscale>  0 0.77717292E+02</rscale>
<asrwt>0</asrwt>
<pdfrwt beam="1">  1        2 0.10193805E-01 0.77717292E+02</pdfrwt>
<pdfrwt beam="2">  1       -1 0.35060032E-02 0.77717292E+02</pdfrwt>
<totfact> 0.17232190E+05</totfact>
</mgrwt>
</event>
<event>
 8    1  0.1226832E-016  0.7928415E+02  0.7818608E-02  0.1331095E+00
         -1   -1    0    0    0  501 -0.00000000000E+00  0.00000000000E+00  0.45104465533E+02  0.45104465815E+02  0.50400000000E-02 0.  1.
          2   -1    0    0  501    0  0.00000000000E+00 -0.00000000000E+00 -0.34841207304E+02  0.34841207398E+02  0.25500000000E-02 0. -1.
         24    2    1    2    0    0  0.00000000000E+00  0.00000000000E+00  0.10263258229E+02  0.79945673213E+02  0.79284148453E+02 0.  0.
         66    2    3    3    0    0  0.17476590329E+02  0.40690118786E+01 -0.30479795247E+02  0.35426063625E+02  0.19999996183E+01 0.  0.
        -13    1    3    3    0    0 -0.17476590329E+02 -0.40690118786E+01  0.40743053476E+02  0.44519609587E+02  0.10566000000E+00 0.  1.
         13    1    4    4    0    0  0.53323366941E+01  0.82012005705E+00 -0.81484060119E+01  0.97731313353E+01  0.10566000000E+00 0. -1.
        -13    1    4    4    0    0  0.11152490309E+02  0.31705792172E+01 -0.21032536869E+02  0.24016856244E+02  0.10566000000E+00 0.  1.
        -14    1    4    4    0    0  0.99176332577E+00  0.78312604308E-01 -0.12988523665E+01  0.16360760460E+01  0.00000000000E+00 0.  1.
<mgrwt>
<rscale>  0 0.79284148E+02</rscale>
<asrwt>0</asrwt>
<pdfrwt beam="1">  1        2 0.53601857E-02 0.79284148E+02</pdfrwt>
<pdfrwt beam="2">  1       -1 0.69391486E-02 0.79284148E+02</pdfrwt>
<totfact> 0.14212094E+05</totfact>
</mgrwt>
</event>
<event>
 8    1  0.1226832E-016  0.8100918E+02  0.7818608E-02  0.1326212E+00
         -1   -1    0    0    0  501 -0.00000000000E+00  0.00000000000E+00  0.27422525263E+02  0.27422525726E+02  0.50400000000E-02 0.  1.
          2   -1    0    0  501    0  0.00000000000E+00 -0.00000000000E+00 -0.59827528151E+02  0.59827528205E+02  0.25500000000E-02 0. -1.
         24    2    1    2    0    0  0.88817841970E-15 -0.71054273576E-14 -0.32405002888E+02  0.87250053932E+02  0.81009182806E+02 0.  0.
         66    2    3    3    0    0 -0.79776937949E+01 -0.38687064865E+02 -0.66828756568E+01  0.40112260395E+02  0.20000052081E+01 0.  0.
        -13    1    3    3    0    0  0.79776937949E+01  0.38687064865E+02 -0.25722127231E+02  0.47137793536E+02  0.10566000000E+00 0.  1.
         13    1    4    4    0    0 -0.19541935991E+01 -0.79461573581E+01 -0.17766898987E+01  0.83742510360E+01  0.10566000000E+00 0.  1.
        -13    1    4    4    0    0 -0.11786999483E+01 -0.68561030576E+01 -0.53632604452E+00  0.69781295750E+01  0.10566000000E+00 0. -1.
         14    1    4    4    0    0 -0.48448002475E+01 -0.23884804449E+02 -0.43698597136E+01  0.24759879784E+02  0.00000000000E+00 0. -1.
<mgrwt>
<rscale>  0 0.81009183E+02</rscale>
<asrwt>0</asrwt>
<pdfrwt beam="1">  1        2 0.92042350E-02 0.81009183E+02</pdfrwt>
<pdfrwt beam="2">  1       -1 0.42188501E-02 0.81009183E+02</pdfrwt>
<totfact> 0.15033763E+05</totfact>
</mgrwt>
</event>
<event>
 8    1  0.1226832E-016  0.7861474E+02  0.7818608E-02  0.1333029E+00
         -1   -1    0    0    0  501 -0.00000000000E+00  0.00000000000E+00  0.14595235620E+02  0.14595236490E+02  0.50400000000E-02 0.  1.
          2   -1    0    0  501    0  0.00000000000E+00 -0.00000000000E+00 -0.10586120921E+03  0.10586120924E+03  0.25500000000E-02 0. -1.
         24    2    1    2    0    0 -0.35527136788E-14  0.00000000000E+00 -0.91265973591E+02  0.12045644573E+03  0.78614740239E+02 0.  0.
         66    2    3    3    0    0 -0.22822979037E+02  0.29863263059E+02 -0.63156910316E+02  0.73522093122E+02  0.20000009170E+01 0.  0.
        -13    1    3    3    0    0  0.22822979037E+02 -0.29863263059E+02 -0.28109063275E+02  0.46934352610E+02  0.10566000000E+00 0.  1.
         13    1    4    4    0    0 -0.68420773383E+01  0.86031055232E+01 -0.18633360675E+02  0.21634249260E+02  0.10566000000E+00 0. -1.
        -13    1    4    4    0    0 -0.76614757505E+01  0.11495512223E+02 -0.22720552113E+02  0.26590969601E+02  0.10566000000E+00 0.  1.
        -14    1    4    4    0    0 -0.83194259483E+01  0.97646453128E+01 -0.21802997528E+02  0.25296874261E+02  0.00000000000E+00 0.  1.
<mgrwt>
<rscale>  0 0.78614740E+02</rscale>
<asrwt>0</asrwt>
<pdfrwt beam="1">  1        2 0.16286339E-01 0.78614740E+02</pdfrwt>
<pdfrwt beam="2">  1       -1 0.22454210E-02 0.78614740E+02</pdfrwt>
<totfact> 0.18874551E+05</totfact>
</mgrwt>
</event>
<event>
 8    1  0.1226832E-016  0.8148930E+02  0.7818608E-02  0.1324877E+00
         -1   -1    0    0    0  501 -0.00000000000E+00  0.00000000000E+00  0.35024019258E+01  0.35024055521E+01  0.50400000000E-02 0.  1.
          2   -1    0    0  501    0  0.00000000000E+00 -0.00000000000E+00 -0.47399628893E+03  0.47399628893E+03  0.25500000000E-02 0. -1.
         24    2    1    2    0    0  0.00000000000E+00  0.35527136788E-14 -0.47049388700E+03  0.47749869449E+03  0.81489297029E+02 0.  0.
         66    2    3    3    0    0 -0.39539667036E+01 -0.28854528760E+02 -0.40214688024E+03  0.40320507309E+03  0.19999992951E+01 0.  0.
        -13    1    3    3    0    0  0.39539667036E+01  0.28854528760E+02 -0.68347006761E+02  0.74293621395E+02  0.10566000000E+00 0.  1.
         13    1    4    4    0    0 -0.27983308890E+01 -0.18823012710E+02 -0.26172225648E+03  0.26241319930E+03  0.10566000000E+00 0. -1.
        -13    1    4    4    0    0 -0.96559575214E+00 -0.37605551558E+01 -0.51628667382E+02  0.51774555623E+02  0.10566000000E+00 0.  1.
        -14    1    4    4    0    0 -0.19004006248E+00 -0.62709608948E+01 -0.88795956375E+02  0.89017318171E+02  0.00000000000E+00 0.  1.
<mgrwt>
<rscale>  0 0.81489297E+02</rscale>
<asrwt>0</asrwt>
<pdfrwt beam="1">  1        2 0.72922455E-01 0.81489297E+02</pdfrwt>
<pdfrwt beam="2">  1       -1 0.53883172E-03 0.81489297E+02</pdfrwt>
<totfact> 0.28523309E+05</totfact>
</mgrwt>
</event>
<event>
 8    1  0.1226832E-016  0.8053610E+02  0.7818608E-02  0.1327537E+00
          2   -1    0    0  501    0  0.00000000000E+00  0.00000000000E+00  0.59373594613E+02  0.59373594667E+02  0.25500000000E-02 0. -1.
         -1   -1    0    0    0  501 -0.00000000000E+00 -0.00000000000E+00 -0.27310383451E+02  0.27310383916E+02  0.50400000000E-02 0.  1.
         24    2    1    2    0    0  0.00000000000E+00  0.00000000000E+00  0.32063211162E+02  0.86683978583E+02  0.80536095218E+02 0.  0.
         66    2    3    3    0    0  0.25250537584E+02 -0.21021773259E+02  0.41053417301E+02  0.52620221161E+02  0.20000009184E+01 0.  0.
        -13    1    3    3    0    0 -0.25250537584E+02  0.21021773259E+02 -0.89902061393E+01  0.34063757422E+02  0.10566000000E+00 0.  1.
         13    1    4    4    0    0  0.84461281305E+01 -0.66855428445E+01  0.13953180438E+02  0.17627704669E+02  0.10566000000E+00 0. -1.
        -13    1    4    4    0    0  0.50823387289E+01 -0.36149393465E+01  0.82044473640E+01  0.10306409366E+02  0.10566000000E+00 0.  1.
         14    1    4    4    0    0  0.11722070725E+02 -0.10721291068E+02  0.18895789499E+02  0.24686107126E+02  0.00000000000E+00 0. -1.
<mgrwt>
<rscale>  0 0.80536095E+02</rscale>
<asrwt>0</asrwt>
<pdfrwt beam="1">  1        2 0.91343991E-02 0.80536095E+02</pdfrwt>
<pdfrwt beam="2">  1       -1 0.42015975E-02 0.80536095E+02</pdfrwt>
<totfact> 0.15248732E+05</totfact>
</mgrwt>
</event>
<event>
 8    1  0.1226832E-016  0.8116410E+02  0.7818608E-02  0.1325780E+00
          2   -1    0    0  501    0  0.00000000000E+00  0.00000000000E+00  0.64361600823E+03  0.64361600824E+03  0.25500000000E-02 0. -1.
         -1   -1    0    0    0  501 -0.00000000000E+00 -0.00000000000E+00 -0.25588259027E+01  0.25588308663E+01  0.50400000000E-02 0.  1.
         24    2    1    2    0    0  0.00000000000E+00  0.00000000000E+00  0.64105718233E+03  0.64617483910E+03  0.81164103360E+02 0.  0.
         66    2    3    3    0    0 -0.62209310545E+01  0.37595556189E+02  0.43125979390E+03  0.43294472588E+03  0.20000016508E+01 0.  0.
        -13    1    3    3    0    0  0.62209310545E+01 -0.37595556189E+02  0.20979738843E+03  0.21323011322E+03  0.10566000000E+00 0.  1.
         13    1    4    4    0    0 -0.46271683727E+01  0.25007460007E+02  0.28469198542E+03  0.28582568371E+03  0.10566000000E+00 0. -1.
        -13    1    4    4    0    0 -0.10759319103E+01  0.10388399891E+02  0.11725476085E+03  0.11771901541E+03  0.10566000000E+00 0.  1.
        -14    1    4    4    0    0 -0.51783077153E+00  0.21996962907E+01  0.29313047628E+02  0.29400026764E+02  0.00000000000E+00 0.  1.
<mgrwt>
<rscale>  0 0.81164103E+02</rscale>
<asrwt>0</asrwt>
<pdfrwt beam="1">  1        2 0.99017705E-01 0.81164103E+02</pdfrwt>
<pdfrwt beam="2">  1       -1 0.39366647E-03 0.81164103E+02</pdfrwt>
<totfact> 0.31564980E+05</totfact>
</mgrwt>
</event>
<event>
 8    1  0.1226832E-016  0.8169422E+02  0.7818608E-02  0.1324311E+00
          2   -1    0    0  501    0  0.00000000000E+00  0.00000000000E+00  0.20506860683E+03  0.20506860685E+03  0.25500000000E-02 0. -1.
         -1   -1    0    0    0  501 -0.00000000000E+00 -0.00000000000E+00 -0.81362335962E+01  0.81362351572E+01  0.50400000000E-02 0.  1.
         24    2    1    2    0    0  0.35527136788E-14  0.00000000000E+00  0.19693237323E+03  0.21320484200E+03  0.81694216601E+02 0.  0.
         66    2    3    3    0    0 -0.29561446164E+02  0.24836604645E+02  0.13312276172E+03  0.13862325101E+03  0.20000006859E+01 0.  0.
        -13    1    3    3    0    0  0.29561446164E+02 -0.24836604645E+02  0.63809611511E+02  0.74581590992E+02  0.10566000000E+00 0.  1.
         13    1    4    4    0    0 -0.27740100488E+01  0.26889565844E+01  0.14464617949E+02  0.14972039130E+02  0.10566000000E+00 0.  1.
        -13    1    4    4    0    0 -0.92727993584E+01  0.69201922625E+01  0.38631142415E+02  0.40326792548E+02  0.10566000000E+00 0. -1.
        -14    1    4    4    0    0 -0.17514636757E+02  0.15227455798E+02  0.80027001359E+02  0.83324419334E+02  0.00000000000E+00 0.  1.
<mgrwt>
<rscale>  0 0.81694217E+02</rscale>
<asrwt>0</asrwt>
<pdfrwt beam="1">  1        2 0.31549013E-01 0.81694217E+02</pdfrwt>
<pdfrwt beam="2">  1       -1 0.12517285E-02 0.81694217E+02</pdfrwt>
<totfact> 0.21053754E+05</totfact>
</mgrwt>
</event>
<event>
 8    1  0.1226832E-016  0.7818326E+02  0.7818608E-02  0.1334288E+00
         -1   -1    0    0    0  501 -0.00000000000E+00  0.00000000000E+00  0.44731719131E+02  0.44731719415E+02  0.50400000000E-02 0.  1.
          2   -1    0    0  501    0  0.00000000000E+00 -0.00000000000E+00 -0.34162678756E+02  0.34162678851E+02  0.25500000000E-02 0. -1.
         24    2    1    2    0    0  0.00000000000E+00  0.00000000000E+00  0.10569040375E+02  0.78894398266E+02  0.78183255646E+02 0.  0.
         66    2    3    3    0    0  0.33265365111E+02 -0.17226630609E+01 -0.15308425410E+02  0.36713757168E+02  0.19999982202E+01 0.  0.
        -13    1    3    3    0    0 -0.33265365111E+02  0.17226630609E+01  0.25877465785E+02  0.42180641099E+02  0.10566000000E+00 0.  1.
         13    1    4    4    0    0  0.12629853277E+02 -0.73799202370E+00 -0.63338913136E+01  0.14148751508E+02  0.10566000000E+00 0. -1.
        -13    1    4    4    0    0  0.47821272011E+01 -0.67903738304E+00 -0.24746007336E+01  0.54281345931E+01  0.10566000000E+00 0.  1.
         14    1    4    4    0    0  0.15853384632E+02 -0.30563365411E+00 -0.64999333628E+01  0.17136871067E+02  0.00000000000E+00 0. -1.
<mgrwt>
<rscale>  0 0.78183256E+02</rscale>
<asrwt>0</asrwt>
<pdfrwt beam="1">  1        2 0.52557967E-02 0.78183256E+02</pdfrwt>
<pdfrwt beam="2">  1       -1 0.68818030E-02 0.78183256E+02</pdfrwt>
<totfact> 0.14717172E+05</totfact>
</mgrwt>
</event>
<event>
 8    1  0.1226832E-016  0.7906464E+02  0.7818608E-02  0.1331727E+00
         -1   -1    0    0    0  501 -0.00000000000E+00  0.00000000000E+00  0.20765286191E+01  0.20765347355E+01  0.50400000000E-02 0.  1.
          2   -1    0    0  501    0  0.00000000000E+00 -0.00000000000E+00 -0.75260313836E+03  0.75260313836E+03  0.25500000000E-02 0. -1.
         24    2    1    2    0    0  0.17763568394E-14 -0.35527136788E-14 -0.75052660974E+03  0.75467967310E+03  0.79064638499E+02 0.  0.
         66    2    3    3    0    0 -0.15835011923E+02  0.23151846576E+02 -0.64106303090E+03  0.64167948788E+03  0.19999950069E+01 0.  0.
        -13    1    3    3    0    0  0.15835011923E+02 -0.23151846576E+02 -0.10946357884E+03  0.11300018522E+03  0.10566000000E+00 0.  1.
         13    1    4    4    0    0 -0.11785890043E+02  0.16550957185E+02 -0.46682810586E+03  0.46727008568E+03  0.10566000000E+00 0. -1.
        -13    1    4    4    0    0 -0.98635451283E+00  0.23423700172E+01 -0.61139565344E+02  0.61192460378E+02  0.10566000000E+00 0.  1.
         14    1    4    4    0    0 -0.30627673668E+01  0.42585193738E+01 -0.11309535969E+03  0.11321694182E+03  0.00000000000E+00 0. -1.
<mgrwt>
<rscale>  0 0.79064638E+02</rscale>
<asrwt>0</asrwt>
<pdfrwt beam="1">  1        2 0.11578488E+00 0.79064638E+02</pdfrwt>
<pdfrwt beam="2">  1       -1 0.31946701E-03 0.79064638E+02</pdfrwt>
<totfact> 0.35030122E+05</totfact>
</mgrwt>
</event>
<event>
 8    1  0.1226832E-016  0.7585512E+02  0.7818608E-02  0.1341243E+00
         -1   -1    0    0    0  501 -0.00000000000E+00  0.00000000000E+00  0.92950823260E+02  0.92950823397E+02  0.50400000000E-02 0.  1.
          2   -1    0    0  501    0  0.00000000000E+00 -0.00000000000E+00 -0.15475923107E+02  0.15475923317E+02  0.25500000000E-02 0. -1.
         24    2    1    2    0    0 -0.35527136788E-14 -0.35527136788E-14  0.77474900153E+02  0.10842674671E+03  0.75855120126E+02 0.  0.
         66    2    3    3    0    0  0.23463857790E+02  0.28199710868E+02  0.25149866281E+02  0.44522938932E+02  0.20000004198E+01 0.  0.
        -13    1    3    3    0    0 -0.23463857790E+02 -0.28199710868E+02  0.52325033872E+02  0.63903807783E+02  0.10566000000E+00 0.  1.
         13    1    4    4    0    0  0.10337640176E+02  0.12347898548E+02  0.11697087751E+02  0.19904030467E+02  0.10566000000E+00 0. -1.
        -13    1    4    4    0    0  0.27328221624E+01  0.32828720222E+01  0.22164854107E+01  0.48134745556E+01  0.10566000000E+00 0.  1.
        -14    1    4    4    0    0  0.10393395452E+02  0.12568940298E+02  0.11236293120E+02  0.19805433909E+02  0.00000000000E+00 0.  1.
<mgrwt>
<rscale>  0 0.75855120E+02</rscale>
<asrwt>0</asrwt>
<pdfrwt beam="1">  1        2 0.23809113E-02 0.75855120E+02</pdfrwt>
<pdfrwt beam="2">  1       -1 0.14300126E-01 0.75855120E+02</pdfrwt>
<totfact> 0.13739796E+05</totfact>
</mgrwt>
</event>
<event>
 8    1  0.1226832E-016  0.7846163E+02  0.7818608E-02  0.1333475E+00
          2   -1    0    0  501    0  0.00000000000E+00  0.00000000000E+00  0.79755366669E+02  0.79755366709E+02  0.25500000000E-02 0. -1.
         -1   -1    0    0    0  501 -0.00000000000E+00 -0.00000000000E+00 -0.19297218235E+02  0.19297218893E+02  0.50400000000E-02 0.  1.
         24    2    1    2    0    0  0.00000000000E+00  0.88817841970E-15  0.60458148434E+02  0.99052585603E+02  0.78461627580E+02 0.  0.
         66    2    3    3    0    0  0.37253236582E+02 -0.42428659513E+01  0.15785873783E+02  0.40730815792E+02  0.19999991667E+01 0.  0.
        -13    1    3    3    0    0 -0.37253236582E+02  0.42428659513E+01  0.44672274650E+02  0.58321769810E+02  0.10566000000E+00 0.  1.
         13    1    4    4    0    0  0.19121457671E+02 -0.23256812347E+01  0.83265352829E+01  0.20985263651E+02  0.10566000000E+00 0.  1.
        -13    1    4    4    0    0  0.11998238349E+02 -0.79763263568E+00  0.53719188349E+01  0.13170520768E+02  0.10566000000E+00 0. -1.
        -14    1    4    4    0    0  0.61335405622E+01 -0.11195520809E+01  0.20874196656E+01  0.65750313725E+01  0.00000000000E+00 0.  1.
<mgrwt>
<rscale>  0 0.78461628E+02</rscale>
<asrwt>0</asrwt>
<pdfrwt beam="1">  1        2 0.12270057E-01 0.78461628E+02</pdfrwt>
<pdfrwt beam="2">  1       -1 0.29688028E-02 0.78461628E+02</pdfrwt>
<totfact> 0.17578012E+05</totfact>
</mgrwt>
</event>
<event>
 8    1  0.1226832E-016  0.8405840E+02  0.7818608E-02  0.1317913E+00
         -1   -1    0    0    0  501 -0.00000000000E+00  0.00000000000E+00  0.35408421280E+01  0.35408457150E+01  0.50400000000E-02 0.  1.
          2   -1    0    0  501    0  0.00000000000E+00 -0.00000000000E+00 -0.49887932391E+03  0.49887932392E+03  0.25500000000E-02 0. -1.
         24    2    1    2    0    0  0.71054273576E-14  0.71054273576E-14 -0.49533848178E+03  0.50242016963E+03  0.84058404211E+02 0.  0.
         66    2    3    3    0    0 -0.19981000623E+02 -0.31020272197E+02 -0.36778995543E+03  0.36964164949E+03  0.20000118470E+01 0.  0.
        -13    1    3    3    0    0  0.19981000623E+02  0.31020272197E+02 -0.12754852635E+03  0.13277852014E+03  0.10566000000E+00 0.  1.
         13    1    4    4    0    0 -0.14807787222E+01 -0.25873340269E+01 -0.32908191021E+02  0.33043111283E+02  0.10566000000E+00 0. -1.
        -13    1    4    4    0    0 -0.45701323559E+01 -0.65786427293E+01 -0.73688240018E+02  0.74122415846E+02  0.10566000000E+00 0.  1.
         14    1    4    4    0    0 -0.13930089545E+02 -0.21854295441E+02 -0.26119352439E+03  0.26247612236E+03  0.00000000000E+00 0. -1.
<mgrwt>
<rscale>  0 0.84058404E+02</rscale>
<asrwt>0</asrwt>
<pdfrwt beam="1">  1        2 0.76750610E-01 0.84058404E+02</pdfrwt>
<pdfrwt beam="2">  1       -1 0.54474562E-03 0.84058404E+02</pdfrwt>
<totfact> 0.26739169E+05</totfact>
</mgrwt>
</event>
<event>
 8    1  0.1226832E-016  0.7097391E+02  0.7818608E-02  0.1356812E+00
          2   -1    0    0  501    0  0.00000000000E+00  0.00000000000E+00  0.40711049498E+02  0.40711049578E+02  0.25500000000E-02 0. -1.
         -1   -1    0    0    0  501 -0.00000000000E+00 -0.00000000000E+00 -0.30933221044E+02  0.30933221454E+02  0.50400000000E-02 0.  1.
         24    2    1    2    0    0 -0.17763568394E-14 -0.17763568394E-14  0.97778284546E+01  0.71644271032E+02  0.70973908181E+02 0.  0.
         66    2    3    3    0    0 -0.12912061857E+02 -0.96704501457E+01  0.36767609066E+02  0.40200696666E+02  0.19999971282E+01 0.  0.
        -13    1    3    3    0    0  0.12912061857E+02  0.96704501457E+01 -0.26989780612E+02  0.31443574366E+02  0.10566000000E+00 0.  1.
         13    1    4    4    0    0 -0.10407624205E+02 -0.73332246245E+01  0.29917159815E+02  0.32513726953E+02  0.10566000000E+00 0. -1.
        -13    1    4    4    0    0 -0.21315455696E+01 -0.19219373237E+01  0.51425785907E+01  0.58902129154E+01  0.10566000000E+00 0.  1.
         14    1    4    4    0    0 -0.37289208306E+00 -0.41528819747E+00  0.17078706612E+01  0.17967567971E+01  0.00000000000E+00 0. -1.
<mgrwt>
<rscale>  0 0.70973908E+02</rscale>
<asrwt>0</asrwt>
<pdfrwt beam="1">  1        2 0.62632384E-02 0.70973908E+02</pdfrwt>
<pdfrwt beam="2">  1       -1 0.47589571E-02 0.70973908E+02</pdfrwt>
<totfact> 0.19847925E+05</totfact>
</mgrwt>
</event>
<event>
 8    1  0.1226832E-016  0.7874187E+02  0.7818608E-02  0.1332660E+00
         -1   -1    0    0    0  501 -0.00000000000E+00  0.00000000000E+00  0.57456032483E+01  0.57456054589E+01  0.50400000000E-02 0.  1.
          2   -1    0    0  501    0  0.00000000000E+00 -0.00000000000E+00 -0.26978374444E+03  0.26978374445E+03  0.25500000000E-02 0. -1.
         24    2    1    2    0    0 -0.71054273576E-14 -0.44408920985E-15 -0.26403814119E+03  0.27552934991E+03  0.78741873602E+02 0.  0.
         66    2    3    3    0    0 -0.38918046965E+02 -0.30954653141E+01 -0.11500844348E+03  0.12147073039E+03  0.19999960784E+01 0.  0.
        -13    1    3    3    0    0  0.38918046965E+02  0.30954653141E+01 -0.14902969770E+03  0.15405861952E+03  0.10566000000E+00 0.  1.
         13    1    4    4    0    0 -0.13721547870E+02 -0.12152050049E+01 -0.38650449394E+02  0.41032011912E+02  0.10566000000E+00 0. -1.
        -13    1    4    4    0    0 -0.20840963895E+02 -0.12285067564E+01 -0.62024936334E+02  0.65444319052E+02  0.10566000000E+00 0.  1.
         14    1    4    4    0    0 -0.43555352006E+01 -0.65175355276E+00 -0.14333057755E+02  0.14994399428E+02  0.00000000000E+00 0. -1.
<mgrwt>
<rscale>  0 0.78741874E+02</rscale>
<asrwt>0</asrwt>
<pdfrwt beam="1">  1        2 0.41505182E-01 0.78741874E+02</pdfrwt>
<pdfrwt beam="2">  1       -1 0.88393934E-03 0.78741874E+02</pdfrwt>
<totfact> 0.25574551E+05</totfact>
</mgrwt>
</event>
<event>
 8    1  0.1226832E-016  0.8001211E+02  0.7818608E-02  0.1329017E+00
          2   -1    0    0  501    0  0.00000000000E+00  0.00000000000E+00  0.92384104363E+01  0.92384107882E+01  0.25500000000E-02 0. -1.
         -1   -1    0    0    0  501 -0.00000000000E+00 -0.00000000000E+00 -0.17324240883E+03  0.17324240890E+03  0.50400000000E-02 0.  1.
         24    2    1    2    0    0  0.00000000000E+00 -0.35527136788E-14 -0.16400399839E+03  0.18248081969E+03  0.80012111996E+02 0.  0.
         66    2    3    3    0    0 -0.11352865237E+02  0.27792413682E+02 -0.21834304782E+02  0.37175834392E+02  0.19999975136E+01 0.  0.
        -13    1    3    3    0    0  0.11352865237E+02 -0.27792413682E+02 -0.14216969361E+03  0.14530498530E+03  0.10566000000E+00 0.  1.
         13    1    4    4    0    0 -0.25475208258E+01  0.71615776301E+01 -0.57180421781E+01  0.95123723064E+01  0.10566000000E+00 0. -1.
        -13    1    4    4    0    0 -0.66336171853E+01  0.16380912357E+02 -0.13331986573E+02  0.22138026033E+02  0.10566000000E+00 0.  1.
         14    1    4    4    0    0 -0.21717272260E+01  0.42499236943E+01 -0.27842760313E+01  0.55254360525E+01  0.00000000000E+00 0. -1.
<mgrwt>
<rscale>  0 0.80012112E+02</rscale>
<asrwt>0</asrwt>
<pdfrwt beam="1">  1        2 0.14212941E-02 0.80012112E+02</pdfrwt>
<pdfrwt beam="2">  1       -1 0.26652676E-01 0.80012112E+02</pdfrwt>
<totfact> 0.10378931E+05</totfact>
</mgrwt>
</event>
<event>
 8    1  0.1226832E-016  0.7920822E+02  0.7818608E-02  0.1331314E+00
          2   -1    0    0  501    0  0.00000000000E+00  0.00000000000E+00  0.45630591084E+02  0.45630591155E+02  0.25500000000E-02 0. -1.
         -1   -1    0    0    0  501 -0.00000000000E+00 -0.00000000000E+00 -0.34373551804E+02  0.34373552174E+02  0.50400000000E-02 0.  1.
         24    2    1    2    0    0 -0.35527136788E-14  0.17763568394E-14  0.11257039279E+02  0.80004143329E+02  0.79208219375E+02 0.  0.
         66    2    3    3    0    0 -0.27677740135E+02 -0.15479250918E+02  0.29551617559E+02  0.43393116760E+02  0.19999934733E+01 0.  0.
        -13    1    3    3    0    0  0.27677740135E+02  0.15479250918E+02 -0.18294578279E+02  0.36611026569E+02  0.10566000000E+00 0.  1.
         13    1    4    4    0    0 -0.10651772911E+02 -0.61332648651E+01  0.10373167400E+02  0.16083872979E+02  0.10566000000E+00 0. -1.
        -13    1    4    4    0    0 -0.91559189633E+01 -0.54675785134E+01  0.10274437930E+02  0.14808798253E+02  0.10566000000E+00 0.  1.
        -14    1    4    4    0    0 -0.78700482605E+01 -0.38784075399E+01  0.89040122280E+01  0.12500445529E+02  0.00000000000E+00 0.  1.
<mgrwt>
<rscale>  0 0.79208219E+02</rscale>
<asrwt>0</asrwt>
<pdfrwt beam="1">  1        2 0.70200909E-02 0.79208219E+02</pdfrwt>
<pdfrwt beam="2">  1       -1 0.52882388E-02 0.79208219E+02</pdfrwt>
<totfact> 0.15058215E+05</totfact>
</mgrwt>
</event>
<event>
 8    1  0.1226832E-016  0.7971315E+02  0.7818608E-02  0.1329867E+00
         -1   -1    0    0    0  501 -0.00000000000E+00  0.00000000000E+00  0.26292498186E+01  0.26292546492E+01  0.50400000000E-02 0.  1.
          2   -1    0    0  501    0  0.00000000000E+00 -0.00000000000E+00 -0.60418193779E+03  0.60418193780E+03  0.25500000000E-02 0. -1.
         24    2    1    2    0    0  0.35527136788E-14  0.35527136788E-14 -0.60155268798E+03  0.60681119245E+03  0.79713153685E+02 0.  0.
         66    2    3    3    0    0  0.22187107092E+02 -0.27093427028E+02 -0.44544513003E+03  0.44682399821E+03  0.19999995151E+01 0.  0.
        -13    1    3    3    0    0 -0.22187107092E+02  0.27093427028E+02 -0.15610755794E+03  0.15998719424E+03  0.10566000000E+00 0.  1.
         13    1    4    4    0    0  0.77163635160E+00 -0.63749649495E+00 -0.13546810360E+02  0.13584147357E+02  0.10566000000E+00 0.  1.
        -13    1    4    4    0    0  0.61257095875E+01 -0.65812962894E+01 -0.11520191830E+03  0.11555228653E+03  0.10566000000E+00 0. -1.
         14    1    4    4    0    0  0.15289761153E+02 -0.19874634243E+02 -0.31669640137E+03  0.31768756432E+03  0.00000000000E+00 0. -1.
<mgrwt>
<rscale>  0 0.79713154E+02</rscale>
<asrwt>0</asrwt>
<pdfrwt beam="1">  1        2 0.92950957E-01 0.79713154E+02</pdfrwt>
<pdfrwt beam="2">  1       -1 0.40450083E-03 0.79713154E+02</pdfrwt>
<totfact> 0.32528087E+05</totfact>
</mgrwt>
</event>
<event>
 8    1  0.1226832E-016  0.7975053E+02  0.7818608E-02  0.1329761E+00
         -1   -1    0    0    0  501 -0.00000000000E+00  0.00000000000E+00  0.33972582718E+01  0.33972620103E+01  0.50400000000E-02 0.  1.
          2   -1    0    0  501    0  0.00000000000E+00 -0.00000000000E+00 -0.46803500628E+03  0.46803500629E+03  0.25500000000E-02 0. -1.
         24    2    1    2    0    0  0.00000000000E+00  0.00000000000E+00 -0.46463774801E+03  0.47143226830E+03  0.79750528009E+02 0.  0.
         66    2    3    3    0    0  0.30467180995E+01  0.24874985763E+02 -0.41561916542E+03  0.41637883960E+03  0.19999994467E+01 0.  0.
        -13    1    3    3    0    0 -0.30467180995E+01 -0.24874985763E+02 -0.49018582590E+02  0.55053428695E+02  0.10566000000E+00 0.  1.
         13    1    4    4    0    0  0.61473741877E+00  0.29209655169E+01 -0.55970939700E+02  0.56050577130E+02  0.10566000000E+00 0. -1.
        -13    1    4    4    0    0  0.44890726701E+00  0.27182775218E+01 -0.38826217333E+02  0.38923988322E+02  0.10566000000E+00 0.  1.
         14    1    4    4    0    0  0.19830734138E+01  0.19235742724E+02 -0.32082200839E+03  0.32140427415E+03  0.00000000000E+00 0. -1.
<mgrwt>
<rscale>  0 0.79750528E+02</rscale>
<asrwt>0</asrwt>
<pdfrwt beam="1">  1        2 0.72005334E-01 0.79750528E+02</pdfrwt>
<pdfrwt beam="2">  1       -1 0.52265578E-03 0.79750528E+02</pdfrwt>
<totfact> 0.30049433E+05</totfact>
</mgrwt>
</event>
<event>
 8    1  0.1226832E-016  0.8196406E+02  0.7818608E-02  0.1323568E+00
          2   -1    0    0  501    0  0.00000000000E+00  0.00000000000E+00  0.61629439722E+01  0.61629444998E+01  0.25500000000E-02 0. -1.
         -1   -1    0    0    0  501 -0.00000000000E+00 -0.00000000000E+00 -0.27252019349E+03  0.27252019354E+03  0.50400000000E-02 0.  1.
         24    2    1    2    0    0  0.00000000000E+00  0.00000000000E+00 -0.26635724952E+03  0.27868313803E+03  0.81964059533E+02 0.  0.
         66    2    3    3    0    0 -0.25826454047E+02  0.19871045303E+02 -0.21762163918E+03  0.22005690629E+03  0.19999988005E+01 0.  0.
        -13    1    3    3    0    0  0.25826454047E+02 -0.19871045303E+02 -0.48735610336E+02  0.58626231748E+02  0.10566000000E+00 0.  1.
         13    1    4    4    0    0 -0.19171569635E+02  0.14942055561E+02 -0.15953982457E+03  0.16138085666E+03  0.10566000000E+00 0. -1.
        -13    1    4    4    0    0 -0.21288064169E+01  0.12356570031E+01 -0.15258697930E+02  0.15456315588E+02  0.10566000000E+00 0.  1.
         14    1    4    4    0    0 -0.45260779942E+01  0.36933327392E+01 -0.42823116675E+02  0.43219734040E+02  0.00000000000E+00 0. -1.
<mgrwt>
<rscale>  0 0.81964060E+02</rscale>
<asrwt>0</asrwt>
<pdfrwt beam="1">  1        2 0.94814548E-03 0.81964060E+02</pdfrwt>
<pdfrwt beam="2">  1       -1 0.41926174E-01 0.81964060E+02</pdfrwt>
<totfact> 0.84334274E+04</totfact>
</mgrwt>
</event>
<event>
 8    1  0.1226832E-016  0.8023922E+02  0.7818608E-02  0.1328374E+00
         -1   -1    0    0    0  501 -0.00000000000E+00  0.00000000000E+00  0.10176451218E+02  0.10176452467E+02  0.50400000000E-02 0.  1.
          2   -1    0    0  501    0  0.00000000000E+00 -0.00000000000E+00 -0.15816740609E+03  0.15816740612E+03  0.25500000000E-02 0. -1.
         24    2    1    2    0    0  0.00000000000E+00 -0.71054273576E-14 -0.14799095488E+03  0.16834385858E+03  0.80239217326E+02 0.  0.
         66    2    3    3    0    0  0.10279240939E+02 -0.36161457627E+02 -0.10328331663E+03  0.10993069317E+03  0.19999985714E+01 0.  0.
        -13    1    3    3    0    0 -0.10279240939E+02  0.36161457627E+02 -0.44707638244E+02  0.58413165412E+02  0.10566000000E+00 0.  1.
         13    1    4    4    0    0  0.42403691261E+01 -0.15657551861E+02 -0.42052992621E+02  0.45073329287E+02  0.10566000000E+00 0. -1.
        -13    1    4    4    0    0  0.42454537523E+00 -0.16566709617E+01 -0.53398425019E+01  0.56080192075E+01  0.10566000000E+00 0. -1.
        -14    1    4    4    0    0  0.56143264381E+01 -0.18847234805E+02 -0.55890481510E+02  0.59249344676E+02  0.00000000000E+00 0.  1.
<mgrwt>
<rscale>  0 0.80239217E+02</rscale>
<asrwt>0</asrwt>
<pdfrwt beam="1">  1        2 0.24333445E-01 0.80239217E+02</pdfrwt>
<pdfrwt beam="2">  1       -1 0.15656081E-02 0.80239217E+02</pdfrwt>
<totfact> 0.20217145E+05</totfact>
</mgrwt>
</event>
<event>
 8    1  0.1226832E-016  0.7966959E+02  0.7818608E-02  0.1329992E+00
         -1   -1    0    0    0  501 -0.00000000000E+00  0.00000000000E+00  0.15459779733E+02  0.15459780555E+02  0.50400000000E-02 0.  1.
          2   -1    0    0  501    0  0.00000000000E+00 -0.00000000000E+00 -0.10264122670E+03  0.10264122673E+03  0.25500000000E-02 0. -1.
         24    2    1    2    0    0  0.00000000000E+00  0.00000000000E+00 -0.87181446970E+02  0.11810100729E+03  0.79669587842E+02 0.  0.
         66    2    3    3    0    0  0.30486536338E+02  0.12766730098E+02 -0.76511956707E+02  0.83369645643E+02  0.20000000540E+01 0.  0.
        -13    1    3    3    0    0 -0.30486536338E+02 -0.12766730098E+02 -0.10669490262E+02  0.34731361646E+02  0.10566000000E+00 0.  1.
         13    1    4    4    0    0  0.19966450641E+02  0.86885145461E+01 -0.51288784476E+02  0.55719835007E+02  0.10566000000E+00 0. -1.
        -13    1    4    4    0    0  0.64551986405E+01  0.23367857081E+01 -0.16441780669E+02  0.17817785287E+02  0.10566000000E+00 0.  1.
         14    1    4    4    0    0  0.40648870569E+01  0.17414298436E+01 -0.87813915625E+01  0.98320253488E+01  0.00000000000E+00 0. -1.
<mgrwt>
<rscale>  0 0.79669588E+02</rscale>
<asrwt>0</asrwt>
<pdfrwt beam="1">  1        2 0.15790958E-01 0.79669588E+02</pdfrwt>
<pdfrwt beam="2">  1       -1 0.23784278E-02 0.79669588E+02</pdfrwt>
<totfact> 0.18055194E+05</totfact>
</mgrwt>
</event>
<event>
 8    1  0.1226832E-016  0.7872888E+02  0.7818608E-02  0.1332698E+00
         -1   -1    0    0    0  501 -0.00000000000E+00  0.00000000000E+00  0.12227405197E+03  0.12227405207E+03  0.50400000000E-02 0.  1.
          2   -1    0    0  501    0  0.00000000000E+00 -0.00000000000E+00 -0.12672835402E+02  0.12672835659E+02  0.25500000000E-02 0. -1.
         24    2    1    2    0    0  0.00000000000E+00  0.00000000000E+00  0.10960121657E+03  0.13494688773E+03  0.78728875487E+02 0.  0.
         66    2    3    3    0    0 -0.99269931665E+01  0.36015344453E+02  0.75961673098E+02  0.84674825129E+02  0.20000003741E+01 0.  0.
        -13    1    3    3    0    0  0.99269931665E+01 -0.36015344453E+02  0.33639543468E+02  0.50272062601E+02  0.10566000000E+00 0.  1.
         13    1    4    4    0    0 -0.13291209852E+01  0.57889846218E+01  0.12742621887E+02  0.14059320116E+02  0.10566000000E+00 0. -1.
        -13    1    4    4    0    0 -0.82544185107E+01  0.29739615081E+02  0.62147110868E+02  0.69389153932E+02  0.10566000000E+00 0.  1.
        -14    1    4    4    0    0 -0.34345367056E+00  0.48674474981E+00  0.10719403428E+01  0.12263510810E+01  0.00000000000E+00 0.  1.
<mgrwt>
<rscale>  0 0.78728875E+02</rscale>
<asrwt>0</asrwt>
<pdfrwt beam="1">  1        2 0.19496669E-02 0.78728875E+02</pdfrwt>
<pdfrwt beam="2">  1       -1 0.18811394E-01 0.78728875E+02</pdfrwt>
<totfact> 0.11800609E+05</totfact>
</mgrwt>
</event>
<event>
 8    1  0.1226832E-016  0.7739932E+02  0.7818608E-02  0.1336598E+00
          2   -1    0    0  501    0  0.00000000000E+00  0.00000000000E+00  0.25188525387E+03  0.25188525388E+03  0.25500000000E-02 0. -1.
         -1   -1    0    0    0  501 -0.00000000000E+00 -0.00000000000E+00 -0.59458165825E+01  0.59458187186E+01  0.50400000000E-02 0.  1.
         24    2    1    2    0    0  0.88817841970E-15  0.00000000000E+00  0.24593943728E+03  0.25783107260E+03  0.77399322900E+02 0.  0.
         66    2    3    3    0    0  0.73589354977E+01 -0.27916028280E+02  0.20877369363E+03  0.21076981218E+03  0.20000020426E+01 0.  0.
        -13    1    3    3    0    0 -0.73589354977E+01  0.27916028280E+02  0.37165743650E+02  0.47061260413E+02  0.10566000000E+00 0.  1.
         13    1    4    4    0    0  0.59673006110E+01 -0.19569681890E+02  0.14831917792E+03  0.14972364820E+03  0.10566000000E+00 0. -1.
        -13    1    4    4    0    0  0.51609857445E+00 -0.20204525440E+01  0.14069273705E+02  0.14223368547E+02  0.10566000000E+00 0.  1.
         14    1    4    4    0    0  0.87553631219E+00 -0.63258938459E+01  0.46385242006E+02  0.46822795439E+02  0.00000000000E+00 0. -1.
<mgrwt>
<rscale>  0 0.77399323E+02</rscale>
<asrwt>0</asrwt>
<pdfrwt beam="1">  1        2 0.38751581E-01 0.77399323E+02</pdfrwt>
<pdfrwt beam="2">  1       -1 0.91474111E-03 0.77399323E+02</pdfrwt>
<totfact> 0.26100920E+05</totfact>
</mgrwt>
</event>
<event>
 8    1  0.1226832E-016  0.7908404E+02  0.7818608E-02  0.1331671E+00
          2   -1    0    0  501    0  0.00000000000E+00  0.00000000000E+00  0.35622340138E+03  0.35622340139E+03  0.25500000000E-02 0. -1.
         -1   -1    0    0    0  501 -0.00000000000E+00 -0.00000000000E+00 -0.43892987012E+01  0.43893015948E+01  0.50400000000E-02 0.  1.
         24    2    1    2    0    0  0.17763568394E-14  0.00000000000E+00  0.35183410268E+03  0.36061270298E+03  0.79084042294E+02 0.  0.
         66    2    3    3    0    0  0.10965908777E+02  0.18786168763E+02  0.32646306227E+03  0.32719306583E+03  0.20000017735E+01 0.  0.
        -13    1    3    3    0    0 -0.10965908777E+02 -0.18786168763E+02  0.25371040405E+02  0.33419637152E+02  0.10566000000E+00 0.  1.
         13    1    4    4    0    0  0.45291847019E+01  0.77914110924E+01  0.12505353226E+03  0.12537789556E+03  0.10566000000E+00 0. -1.
        -13    1    4    4    0    0  0.30882714803E+01  0.45185029294E+01  0.92603728370E+02  0.92765381267E+02  0.10566000000E+00 0.  1.
         14    1    4    4    0    0  0.33484525952E+01  0.64762547413E+01  0.10880580164E+03  0.10904978900E+03  0.00000000000E+00 0. -1.
<mgrwt>
<rscale>  0 0.79084042E+02</rscale>
<asrwt>0</asrwt>
<pdfrwt beam="1">  1        2 0.54803612E-01 0.79084042E+02</pdfrwt>
<pdfrwt beam="2">  1       -1 0.67527681E-03 0.79084042E+02</pdfrwt>
<totfact> 0.27948383E+05</totfact>
</mgrwt>
</event>
<event>
 8    1  0.1226832E-016  0.7906934E+02  0.7818608E-02  0.1331713E+00
         -1   -1    0    0    0  501 -0.00000000000E+00  0.00000000000E+00  0.15347605144E+01  0.15347687898E+01  0.50400000000E-02 0.  1.
          2   -1    0    0  501    0  0.00000000000E+00 -0.00000000000E+00 -0.10183907966E+04  0.10183907966E+04  0.25500000000E-02 0. -1.
         24    2    1    2    0    0 -0.88817841970E-15  0.00000000000E+00 -0.10168560361E+04  0.10199255654E+04  0.79069341838E+02 0.  0.
         66    2    3    3    0    0 -0.77373195174E+01  0.28893232352E+02 -0.84171492144E+03  0.84224859392E+03  0.19999986591E+01 0.  0.
        -13    1    3    3    0    0  0.77373195174E+01 -0.28893232352E+02 -0.17514111469E+03  0.17767697152E+03  0.10566000000E+00 0.  1.
         13    1    4    4    0    0 -0.45698014983E+01  0.17431460667E+02 -0.48996674609E+03  0.49029803420E+03  0.10566000000E+00 0. -1.
        -13    1    4    4    0    0 -0.96257405863E-01  0.88919250792E+00 -0.21304655565E+02  0.21323682646E+02  0.10566000000E+00 0. -1.
        -14    1    4    4    0    0 -0.30712606133E+01  0.10572579177E+02 -0.33044351979E+03  0.33062687707E+03  0.00000000000E+00 0.  1.
<mgrwt>
<rscale>  0 0.79069342E+02</rscale>
<asrwt>0</asrwt>
<pdfrwt beam="1">  1        2 0.15667497E+00 0.79069342E+02</pdfrwt>
<pdfrwt beam="2">  1       -1 0.23611845E-03 0.79069342E+02</pdfrwt>
<totfact> 0.36340620E+05</totfact>
</mgrwt>
</event>
<event>
 8    1  0.1226832E-016  0.8054588E+02  0.7818608E-02  0.1327509E+00
          2   -1    0    0  501    0  0.00000000000E+00  0.00000000000E+00  0.73300148353E+02  0.73300148398E+02  0.25500000000E-02 0. -1.
         -1   -1    0    0    0  501 -0.00000000000E+00 -0.00000000000E+00 -0.22126964497E+02  0.22126965071E+02  0.50400000000E-02 0.  1.
         24    2    1    2    0    0  0.00000000000E+00  0.00000000000E+00  0.51173183857E+02  0.95427113468E+02  0.80545882818E+02 0.  0.
         66    2    3    3    0    0 -0.29530488955E+02 -0.27290625740E+02  0.27680478776E+02  0.48857312231E+02  0.20000054963E+01 0.  0.
        -13    1    3    3    0    0  0.29530488955E+02  0.27290625740E+02  0.23492705081E+02  0.46569801237E+02  0.10566000000E+00 0.  1.
         13    1    4    4    0    0 -0.33277280141E+01 -0.28995306682E+01  0.26433062803E+01  0.51458025573E+01  0.10566000000E+00 0. -1.
        -13    1    4    4    0    0 -0.53423294135E+01 -0.56009417445E+01  0.49081102740E+01  0.91657919726E+01  0.10566000000E+00 0.  1.
        -14    1    4    4    0    0 -0.20860431527E+02 -0.18790153328E+02  0.20129062221E+02  0.34545717701E+02  0.00000000000E+00 0.  1.
<mgrwt>
<rscale>  0 0.80545883E+02</rscale>
<asrwt>0</asrwt>
<pdfrwt beam="1">  1        2 0.11276946E-01 0.80545883E+02</pdfrwt>
<pdfrwt beam="2">  1       -1 0.34041485E-02 0.80545883E+02</pdfrwt>
<totfact> 0.16033207E+05</totfact>
</mgrwt>
</event>
<event>
 8    1  0.1226832E-016  0.8195185E+02  0.7818608E-02  0.1323602E+00
          2   -1    0    0  501    0  0.00000000000E+00  0.00000000000E+00  0.50630818779E+02  0.50630818843E+02  0.25500000000E-02 0. -1.
         -1   -1    0    0    0  501 -0.00000000000E+00 -0.00000000000E+00 -0.33162145836E+02  0.33162146219E+02  0.50400000000E-02 0.  1.
         24    2    1    2    0    0  0.00000000000E+00  0.35527136788E-14  0.17468672943E+02  0.83792965062E+02  0.81951854521E+02 0.  0.
         66    2    3    3    0    0  0.21051188937E+02 -0.16980100419E+02  0.40180059461E+02  0.48475906754E+02  0.19999978500E+01 0.  0.
        -13    1    3    3    0    0 -0.21051188937E+02  0.16980100419E+02 -0.22711386518E+02  0.35317058308E+02  0.10566000000E+00 0.  1.
         13    1    4    4    0    0  0.77781803338E+01 -0.73318486156E+01  0.15876116686E+02  0.19139444571E+02  0.10566000000E+00 0. -1.
        -13    1    4    4    0    0  0.73943655611E+01 -0.58163872266E+01  0.13584313614E+02  0.16524277376E+02  0.10566000000E+00 0.  1.
        -14    1    4    4    0    0  0.58786430426E+01 -0.38318645768E+01  0.10719629162E+02  0.12812184807E+02  0.00000000000E+00 0.  1.
<mgrwt>
<rscale>  0 0.81951855E+02</rscale>
<asrwt>0</asrwt>
<pdfrwt beam="1">  1        2 0.77893567E-02 0.81951855E+02</pdfrwt>
<pdfrwt beam="2">  1       -1 0.51018686E-02 0.81951855E+02</pdfrwt>
<totfact> 0.14025314E+05</totfact>
</mgrwt>
</event>
<event>
 8    1  0.1226832E-016  0.8225454E+02  0.7818608E-02  0.1322772E+00
          2   -1    0    0  501    0  0.00000000000E+00  0.00000000000E+00  0.34091296469E+02  0.34091296564E+02  0.25500000000E-02 0. -1.
         -1   -1    0    0    0  501 -0.00000000000E+00 -0.00000000000E+00 -0.49615374027E+02  0.49615374283E+02  0.50400000000E-02 0.  1.
         24    2    1    2    0    0  0.35527136788E-14  0.00000000000E+00 -0.15524077558E+02  0.83706670847E+02  0.82254542491E+02 0.  0.
         66    2    3    3    0    0 -0.31434237347E+02  0.23746019743E+02  0.41648187974E+01  0.39665229738E+02  0.20000008387E+01 0.  0.
        -13    1    3    3    0    0  0.31434237347E+02 -0.23746019743E+02 -0.19688896355E+02  0.44041441109E+02  0.10566000000E+00 0.  1.
         13    1    4    4    0    0 -0.16673964411E+02  0.12545763048E+02  0.12874168129E+01  0.20906598617E+02  0.10566000000E+00 0. -1.
        -13    1    4    4    0    0 -0.11122860896E+02  0.84496347199E+01  0.19378192352E+01  0.14102505764E+02  0.10566000000E+00 0.  1.
         14    1    4    4    0    0 -0.36374120399E+01  0.27506219750E+01  0.93958274930E+00  0.46561253570E+01  0.00000000000E+00 0. -1.
<mgrwt>
<rscale>  0 0.82254542E+02</rscale>
<asrwt>0</asrwt>
<pdfrwt beam="1">  1        2 0.52448149E-02 0.82254542E+02</pdfrwt>
<pdfrwt beam="2">  1       -1 0.76331345E-02 0.82254542E+02</pdfrwt>
<totfact> 0.12770920E+05</totfact>
</mgrwt>
</event>
<event>
 8    1  0.1226832E-016  0.7981867E+02  0.7818608E-02  0.1329567E+00
         -1   -1    0    0    0  501 -0.00000000000E+00  0.00000000000E+00  0.11710204504E+01  0.11710312962E+01  0.50400000000E-02 0.  1.
          2   -1    0    0  501    0  0.00000000000E+00 -0.00000000000E+00 -0.13601365012E+04  0.13601365012E+04  0.25500000000E-02 0. -1.
         24    2    1    2    0    0  0.00000000000E+00 -0.22204460493E-15 -0.13589654807E+04  0.13613075325E+04  0.79818670549E+02 0.  0.
         66    2    3    3    0    0 -0.18229599594E+02  0.19029359186E+01 -0.12840526916E+04  0.12841850545E+04  0.19999985002E+01 0.  0.
        -13    1    3    3    0    0  0.18229599594E+02 -0.19029359186E+01 -0.74912789130E+02  0.77122477954E+02  0.10566000000E+00 0.  1.
         13    1    4    4    0    0 -0.31608782289E+01  0.68079756927E+00 -0.25233234499E+03  0.25235308227E+03  0.10566000000E+00 0. -1.
        -13    1    4    4    0    0 -0.16324751622E+01  0.51988275673E+00 -0.10782844137E+03  0.10784210302E+03  0.10566000000E+00 0.  1.
        -14    1    4    4    0    0 -0.13436246203E+02  0.70225559262E+00 -0.92389190522E+03  0.92398986921E+03  0.00000000000E+00 0.  1.
<mgrwt>
<rscale>  0 0.79818671E+02</rscale>
<asrwt>0</asrwt>
<pdfrwt beam="1">  1        2 0.20925050E+00 0.79818671E+02</pdfrwt>
<pdfrwt beam="2">  1       -1 0.18015892E-03 0.79818671E+02</pdfrwt>
<totfact> 0.34477158E+05</totfact>
</mgrwt>
</event>
<event>
 8    1  0.1226832E-016  0.8026377E+02  0.7818608E-02  0.1328305E+00
          2   -1    0    0  501    0  0.00000000000E+00  0.00000000000E+00  0.32357100256E+03  0.32357100257E+03  0.25500000000E-02 0. -1.
         -1   -1    0    0    0  501 -0.00000000000E+00 -0.00000000000E+00 -0.49774792867E+01  0.49774818383E+01  0.50400000000E-02 0.  1.
         24    2    1    2    0    0  0.17763568394E-14 -0.35527136788E-14  0.31859352327E+03  0.32854848440E+03  0.80263774739E+02 0.  0.
         66    2    3    3    0    0  0.67172822685E+01 -0.31987997368E+02  0.25453492839E+03  0.25663277959E+03  0.19999835474E+01 0.  0.
        -13    1    3    3    0    0 -0.67172822685E+01  0.31987997368E+02  0.64058594883E+02  0.71915704816E+02  0.10566000000E+00 0.  1.
         13    1    4    4    0    0  0.36773754891E+00 -0.11221398854E+01  0.85586410775E+01  0.86403663091E+01  0.10566000000E+00 0. -1.
        -13    1    4    4    0    0 -0.41106269413E-01 -0.65886344458E+00  0.42554682386E+01  0.43076634884E+01  0.10566000000E+00 0.  1.
         14    1    4    4    0    0  0.63906509890E+01 -0.30206994038E+02  0.24172081907E+03  0.24368474979E+03  0.00000000000E+00 0. -1.
<mgrwt>
<rscale>  0 0.80263775E+02</rscale>
<asrwt>0</asrwt>
<pdfrwt beam="1">  1        2 0.49780164E-01 0.80263775E+02</pdfrwt>
<pdfrwt beam="2">  1       -1 0.76576610E-03 0.80263775E+02</pdfrwt>
<totfact> 0.25975913E+05</totfact>
</mgrwt>
</event>
<event>
 8    1  0.1226832E-016  0.8075834E+02  0.7818608E-02  0.1326913E+00
         -1   -1    0    0    0  501 -0.00000000000E+00  0.00000000000E+00  0.41010252997E+02  0.41010253307E+02  0.50400000000E-02 0.  1.
          2   -1    0    0  501    0  0.00000000000E+00 -0.00000000000E+00 -0.39757800640E+02  0.39757800722E+02  0.25500000000E-02 0. -1.
         24    2    1    2    0    0  0.00000000000E+00  0.00000000000E+00  0.12524523577E+01  0.80768054029E+02  0.80758342694E+02 0.  0.
         66    2    3    3    0    0 -0.26377558374E+02 -0.29414653251E+02 -0.75887011763E+01  0.40281333100E+02  0.19999997770E+01 0.  0.
        -13    1    3    3    0    0  0.26377558374E+02  0.29414653251E+02  0.88411535340E+01  0.40486720928E+02  0.10566000000E+00 0.  1.
         13    1    4    4    0    0 -0.14158105293E+02 -0.17220615618E+02 -0.42932753489E+01  0.22703412188E+02  0.10566000000E+00 0. -1.
        -13    1    4    4    0    0 -0.43567883527E+01 -0.42696597660E+01 -0.12924560262E+01  0.62364417646E+01  0.10566000000E+00 0.  1.
         14    1    4    4    0    0 -0.78626647292E+01 -0.79243778675E+01 -0.20029698012E+01  0.11341479148E+02  0.00000000000E+00 0. -1.
<mgrwt>
<rscale>  0 0.80758343E+02</rscale>
<asrwt>0</asrwt>
<pdfrwt beam="1">  1        2 0.61165847E-02 0.80758343E+02</pdfrwt>
<pdfrwt beam="2">  1       -1 0.63092697E-02 0.80758343E+02</pdfrwt>
<totfact> 0.13870548E+05</totfact>
</mgrwt>
</event>
<event>
 8    1  0.1226832E-016  0.8376635E+02  0.7818608E-02  0.1318691E+00
         -1   -1    0    0    0  501 -0.00000000000E+00  0.00000000000E+00  0.15850219665E+01  0.15850299795E+01  0.50400000000E-02 0.  1.
          2   -1    0    0  501    0  0.00000000000E+00 -0.00000000000E+00 -0.11067329483E+04  0.11067329483E+04  0.25500000000E-02 0. -1.
         24    2    1    2    0    0  0.44408920985E-15  0.00000000000E+00 -0.11051479263E+04  0.11083179783E+04  0.83766353057E+02 0.  0.
         66    2    3    3    0    0 -0.33146547830E+01  0.19561383036E+02 -0.10405673739E+04  0.10407584227E+04  0.20000034804E+01 0.  0.
        -13    1    3    3    0    0  0.33146547830E+01 -0.19561383036E+02 -0.64580552390E+02  0.67559555606E+02  0.10566000000E+00 0.  1.
         13    1    4    4    0    0 -0.14648612269E+01  0.10110719479E+02 -0.55397399359E+03  0.55406819906E+03  0.10566000000E+00 0. -1.
        -13    1    4    4    0    0  0.12142346265E+00  0.43730865371E+00 -0.30177903083E+02  0.30181500643E+02  0.10566000000E+00 0.  1.
        -14    1    4    4    0    0 -0.19712170187E+01  0.90133549039E+01 -0.45641547724E+03  0.45650872295E+03  0.00000000000E+00 0.  1.
<mgrwt>
<rscale>  0 0.83766353E+02</rscale>
<asrwt>0</asrwt>
<pdfrwt beam="1">  1        2 0.17026599E+00 0.83766353E+02</pdfrwt>
<pdfrwt beam="2">  1       -1 0.24385104E-03 0.83766353E+02</pdfrwt>
<totfact> 0.31267883E+05</totfact>
</mgrwt>
</event>
<event>
 8    1  0.1226832E-016  0.7887805E+02  0.7818608E-02  0.1332266E+00
          2   -1    0    0  501    0  0.00000000000E+00  0.00000000000E+00  0.12173017251E+03  0.12173017253E+03  0.25500000000E-02 0. -1.
         -1   -1    0    0    0  501 -0.00000000000E+00 -0.00000000000E+00 -0.12777740432E+02  0.12777741426E+02  0.50400000000E-02 0.  1.
         24    2    1    2    0    0  0.00000000000E+00  0.00000000000E+00  0.10895243208E+03  0.13450791396E+03  0.78878048040E+02 0.  0.
         66    2    3    3    0    0 -0.32402182629E+02  0.59589196465E+01  0.91402494798E+02  0.97179350835E+02  0.20000027610E+01 0.  0.
        -13    1    3    3    0    0  0.32402182629E+02 -0.59589196465E+01  0.17549937279E+02  0.37328563125E+02  0.10566000000E+00 0.  1.
         13    1    4    4    0    0 -0.25250272498E+02  0.41172554502E+01  0.70998173043E+02  0.75467077545E+02  0.10566000000E+00 0. -1.
        -13    1    4    4    0    0 -0.69310588531E+01  0.18464437862E+01  0.19396598912E+02  0.20680622449E+02  0.10566000000E+00 0.  1.
        -14    1    4    4    0    0 -0.22085127755E+00 -0.47795900002E-02  0.10077228429E+01  0.10316508418E+01  0.00000000000E+00 0.  1.
<mgrwt>
<rscale>  0 0.78878048E+02</rscale>
<asrwt>0</asrwt>
<pdfrwt beam="1">  1        2 0.18727719E-01 0.78878048E+02</pdfrwt>
<pdfrwt beam="2">  1       -1 0.19658063E-02 0.78878048E+02</pdfrwt>
<totfact> 0.19486379E+05</totfact>
</mgrwt>
</event>
<event>
 8    1  0.1226832E-016  0.7867557E+02  0.7818608E-02  0.1332853E+00
          2   -1    0    0  501    0  0.00000000000E+00  0.00000000000E+00  0.47827252226E+02  0.47827252294E+02  0.25500000000E-02 0. -1.
         -1   -1    0    0    0  501 -0.00000000000E+00 -0.00000000000E+00 -0.32355222610E+02  0.32355223003E+02  0.50400000000E-02 0.  1.
         24    2    1    2    0    0 -0.17763568394E-14  0.00000000000E+00  0.15472029616E+02  0.80182475297E+02  0.78675572094E+02 0.  0.
         66    2    3    3    0    0 -0.59317216120E+01  0.18392135511E+02  0.42631199166E+02  0.46849494263E+02  0.20000001040E+01 0.  0.
        -13    1    3    3    0    0  0.59317216120E+01 -0.18392135511E+02 -0.27159169550E+02  0.33332981034E+02  0.10566000000E+00 0.  1.
         13    1    4    4    0    0 -0.74145196430E+00  0.39417979786E+01  0.86324709337E+01  0.95193613639E+01  0.10566000000E+00 0. -1.
        -13    1    4    4    0    0 -0.68914973938E+00  0.15513830040E+01  0.28830721491E+01  0.33473848958E+01  0.10566000000E+00 0.  1.
         14    1    4    4    0    0 -0.45011199083E+01  0.12898954528E+02  0.31115656083E+02  0.33982748003E+02  0.00000000000E+00 0. -1.
<mgrwt>
<rscale>  0 0.78675572E+02</rscale>
<asrwt>0</asrwt>
<pdfrwt beam="1">  1        2 0.73580388E-02 0.78675572E+02</pdfrwt>
<pdfrwt beam="2">  1       -1 0.49777266E-02 0.78675572E+02</pdfrwt>
<totfact> 0.15492994E+05</totfact>
</mgrwt>
</event>
<event>
 8    1  0.1226832E-016  0.7962356E+02  0.7818608E-02  0.1330123E+00
          2   -1    0    0  501    0  0.00000000000E+00  0.00000000000E+00  0.39579115914E+02  0.39579115996E+02  0.25500000000E-02 0. -1.
         -1   -1    0    0    0  501 -0.00000000000E+00 -0.00000000000E+00 -0.40045809561E+02  0.40045809878E+02  0.50400000000E-02 0.  1.
         24    2    1    2    0    0  0.35527136788E-14  0.00000000000E+00 -0.46669364662E+00  0.79624925874E+02  0.79623558182E+02 0.  0.
         66    2    3    3    0    0  0.31805970692E+02 -0.75285994096E+01  0.22453306517E+02  0.39704540703E+02  0.19999995339E+01 0.  0.
        -13    1    3    3    0    0 -0.31805970692E+02  0.75285994096E+01 -0.22920000163E+02  0.39920385172E+02  0.10566000000E+00 0.  1.
         13    1    4    4    0    0  0.11101564255E+02 -0.27543231010E+01  0.81139442579E+01  0.14024203368E+02  0.10566000000E+00 0. -1.
        -13    1    4    4    0    0  0.64501998687E+01 -0.13887345815E+01  0.53162229996E+01  0.84739042419E+01  0.10566000000E+00 0.  1.
        -14    1    4    4    0    0  0.14254206568E+02 -0.33855417271E+01  0.90231392591E+01  0.17206433093E+02  0.00000000000E+00 0.  1.
<mgrwt>
<rscale>  0 0.79623558E+02</rscale>
<asrwt>0</asrwt>
<pdfrwt beam="1">  1        2 0.60890948E-02 0.79623558E+02</pdfrwt>
<pdfrwt beam="2">  1       -1 0.61608938E-02 0.79623558E+02</pdfrwt>
<totfact> 0.14411032E+05</totfact>
</mgrwt>
</event>
<event>
 8    1  0.1226832E-016  0.8229583E+02  0.7818608E-02  0.1322660E+00
         -1   -1    0    0    0  501 -0.00000000000E+00  0.00000000000E+00  0.90140208312E+02  0.90140208453E+02  0.50400000000E-02 0.  1.
          2   -1    0    0  501    0  0.00000000000E+00 -0.00000000000E+00 -0.18783525122E+02  0.18783525295E+02  0.25500000000E-02 0. -1.
         24    2    1    2    0    0 -0.35527136788E-14 -0.17763568394E-14  0.71356683190E+02  0.10892373375E+03  0.82295829407E+02 0.  0.
         66    2    3    3    0    0  0.23581203512E+02  0.13521487765E+02 -0.51437152453E+01  0.27737368419E+02  0.20000024652E+01 0.  0.
        -13    1    3    3    0    0 -0.23581203512E+02 -0.13521487765E+02  0.76500398435E+02  0.81186365328E+02  0.10566000000E+00 0.  1.
         13    1    4    4    0    0  0.64228525671E+01  0.36007449429E+01 -0.74758293150E+00  0.74019216098E+01  0.10566000000E+00 0. -1.
        -13    1    4    4    0    0  0.14530067193E+02  0.78997081929E+01 -0.36422164057E+01  0.16935322452E+02  0.10566000000E+00 0.  1.
        -14    1    4    4    0    0  0.26282837524E+01  0.20210346290E+01 -0.75391590810E+00  0.34001243582E+01  0.00000000000E+00 0.  1.
<mgrwt>
<rscale>  0 0.82295829E+02</rscale>
<asrwt>0</asrwt>
<pdfrwt beam="1">  1        2 0.28897731E-02 0.82295829E+02</pdfrwt>
<pdfrwt beam="2">  1       -1 0.13867725E-01 0.82295829E+02</pdfrwt>
<totfact> 0.11294309E+05</totfact>
</mgrwt>
</event>
<event>
 8    1  0.1226832E-016  0.7626311E+02  0.7818608E-02  0.1340004E+00
         -1   -1    0    0    0  501 -0.00000000000E+00  0.00000000000E+00  0.23022538302E+02  0.23022538854E+02  0.50400000000E-02 0.  1.
          2   -1    0    0  501    0  0.00000000000E+00 -0.00000000000E+00 -0.63156183007E+02  0.63156183059E+02  0.25500000000E-02 0. -1.
         24    2    1    2    0    0  0.00000000000E+00  0.00000000000E+00 -0.40133644705E+02  0.86178721912E+02  0.76263114761E+02 0.  0.
         66    2    3    3    0    0 -0.21752640339E+02  0.27779298539E+02 -0.36344371480E+02  0.50692998802E+02  0.20000000735E+01 0.  0.
        -13    1    3    3    0    0  0.21752640339E+02 -0.27779298539E+02 -0.37892732256E+01  0.35485723110E+02  0.10566000000E+00 0.  1.
         13    1    4    4    0    0 -0.13469632448E+02  0.16467326991E+02 -0.21145301901E+02  0.29995646568E+02  0.10566000000E+00 0. -1.
        -13    1    4    4    0    0 -0.68962293754E+01  0.98702420214E+01 -0.12797348976E+02  0.17571652228E+02  0.10566000000E+00 0.  1.
        -14    1    4    4    0    0 -0.13867785152E+01  0.14417295266E+01 -0.24017206028E+01  0.31257000067E+01  0.00000000000E+00 0.  1.
<mgrwt>
<rscale>  0 0.76263115E+02</rscale>
<asrwt>0</asrwt>
<pdfrwt beam="1">  1        2 0.97163358E-02 0.76263115E+02</pdfrwt>
<pdfrwt beam="2">  1       -1 0.35419291E-02 0.76263115E+02</pdfrwt>
<totfact> 0.17931530E+05</totfact>
</mgrwt>
</event>
<event>
 8    1  0.1226832E-016  0.8275873E+02  0.7818608E-02  0.1321400E+00
         -1   -1    0    0    0  501 -0.00000000000E+00  0.00000000000E+00  0.39654284456E+01  0.39654316485E+01  0.50400000000E-02 0.  1.
          2   -1    0    0  501    0  0.00000000000E+00 -0.00000000000E+00 -0.43179473843E+03  0.43179473843E+03  0.25500000000E-02 0. -1.
         24    2    1    2    0    0  0.00000000000E+00  0.00000000000E+00 -0.42782930998E+03  0.43576017008E+03  0.82758729761E+02 0.  0.
         66    2    3    3    0    0 -0.13652605553E+02 -0.39030432871E+02 -0.21768156741E+03  0.22158301630E+03  0.19999990822E+01 0.  0.
        -13    1    3    3    0    0  0.13652605553E+02  0.39030432871E+02 -0.21014774257E+03  0.21417715378E+03  0.10566000000E+00 0.  1.
         13    1    4    4    0    0 -0.62445055601E+01 -0.17057660466E+02 -0.94608427368E+02  0.96336510853E+02  0.10566000000E+00 0. -1.
        -13    1    4    4    0    0 -0.27400522100E+01 -0.67267947852E+01 -0.41115257565E+02  0.41752044536E+02  0.10566000000E+00 0.  1.
        -14    1    4    4    0    0 -0.46680477827E+01 -0.15245977620E+02 -0.81957882475E+02  0.83494460915E+02  0.00000000000E+00 0.  1.
<mgrwt>
<rscale>  0 0.82758730E+02</rscale>
<asrwt>0</asrwt>
<pdfrwt beam="1">  1        2 0.66429923E-01 0.82758730E+02</pdfrwt>
<pdfrwt beam="2">  1       -1 0.61006650E-03 0.82758730E+02</pdfrwt>
<totfact> 0.26549555E+05</totfact>
</mgrwt>
</event>
<event>
 8    1  0.1226832E-016  0.7913866E+02  0.7818608E-02  0.1331514E+00
         -1   -1    0    0    0  501 -0.00000000000E+00  0.00000000000E+00  0.10245642597E+01  0.10245766559E+01  0.50400000000E-02 0.  1.
          2   -1    0    0  501    0  0.00000000000E+00 -0.00000000000E+00 -0.15281835669E+04  0.15281835669E+04  0.25500000000E-02 0. -1.
         24    2    1    2    0    0  0.00000000000E+00  0.00000000000E+00 -0.15271590026E+04  0.15292081435E+04  0.79138656665E+02 0.  0.
         66    2    3    3    0    0 -0.89338078873E+01  0.12616931440E+02 -0.14673666171E+04  0.14674494161E+04  0.20000003162E+01 0.  0.
        -13    1    3    3    0    0  0.89338078873E+01 -0.12616931440E+02 -0.59792385507E+02  0.61758727407E+02  0.10566000000E+00 0.  1.
         13    1    4    4    0    0 -0.36313881552E+01  0.60583147359E+01 -0.66134248256E+03  0.66138020878E+03  0.10566000000E+00 0. -1.
        -13    1    4    4    0    0 -0.29628818971E+00  0.60116090150E+00 -0.96994771081E+02  0.96997144093E+02  0.10566000000E+00 0.  1.
        -14    1    4    4    0    0 -0.50061315424E+01  0.59574558026E+01 -0.70902936344E+03  0.70907206323E+03  0.00000000000E+00 0.  1.
<mgrwt>
<rscale>  0 0.79138657E+02</rscale>
<asrwt>0</asrwt>
<pdfrwt beam="1">  1        2 0.23510334E+00 0.79138657E+02</pdfrwt>
<pdfrwt beam="2">  1       -1 0.15762745E-03 0.79138657E+02</pdfrwt>
<totfact> 0.33952864E+05</totfact>
</mgrwt>
</event>
<event>
 8    1  0.1226832E-016  0.7507168E+02  0.7818608E-02  0.1343649E+00
          2   -1    0    0  501    0  0.00000000000E+00  0.00000000000E+00  0.24004813795E+03  0.24004813797E+03  0.25500000000E-02 0. -1.
         -1   -1    0    0    0  501 -0.00000000000E+00 -0.00000000000E+00 -0.58694018448E+01  0.58694040087E+01  0.50400000000E-02 0.  1.
         24    2    1    2    0    0  0.00000000000E+00  0.00000000000E+00  0.23417873611E+03  0.24591754198E+03  0.75071679120E+02 0.  0.
         66    2    3    3    0    0  0.17928261234E+02 -0.92098405644E+01  0.22079694471E+03  0.22172400525E+03  0.19999996986E+01 0.  0.
        -13    1    3    3    0    0 -0.17928261234E+02  0.92098405644E+01  0.13381791404E+02  0.24193536726E+02  0.10566000000E+00 0.  1.
         13    1    4    4    0    0  0.10125273575E+02 -0.57693016765E+01  0.13285977426E+03  0.13336992460E+03  0.10566000000E+00 0. -1.
        -13    1    4    4    0    0  0.39950904265E+01 -0.13264083515E+01  0.41467521854E+02  0.41680770619E+02  0.10566000000E+00 0.  1.
        -14    1    4    4    0    0  0.38078972327E+01 -0.21141305364E+01  0.46469648593E+02  0.46673310035E+02  0.00000000000E+00 0.  1.
<mgrwt>
<rscale>  0 0.75071679E+02</rscale>
<asrwt>0</asrwt>
<pdfrwt beam="1">  1        2 0.36930489E-01 0.75071679E+02</pdfrwt>
<pdfrwt beam="2">  1       -1 0.90298492E-03 0.75071679E+02</pdfrwt>
<totfact> 0.27791575E+05</totfact>
</mgrwt>
</event>
<event>
 8    1  0.1226832E-016  0.7931160E+02  0.7818608E-02  0.1331016E+00
          2   -1    0    0  501    0  0.00000000000E+00  0.00000000000E+00  0.46532969952E+02  0.46532970022E+02  0.25500000000E-02 0. -1.
         -1   -1    0    0    0  501 -0.00000000000E+00 -0.00000000000E+00 -0.33795018492E+02  0.33795018867E+02  0.50400000000E-02 0.  1.
         24    2    1    2    0    0  0.35527136788E-14  0.00000000000E+00  0.12737951461E+02  0.80327988890E+02  0.79311603134E+02 0.  0.
         66    2    3    3    0    0  0.18393544433E+02 -0.95149350429E+01  0.40595392549E+02  0.45616252348E+02  0.20000291046E+01 0.  0.
        -13    1    3    3    0    0 -0.18393544433E+02  0.95149350429E+01 -0.27857441089E+02  0.34711736541E+02  0.10566000000E+00 0.  1.
         13    1    4    4    0    0  0.45147510922E+01 -0.26003112945E+01  0.95914288877E+01  0.10915643288E+02  0.10566000000E+00 0. -1.
        -13    1    4    4    0    0  0.10466794982E+02 -0.49686699736E+01  0.21653578877E+02  0.24558707635E+02  0.10566000000E+00 0.  1.
        -14    1    4    4    0    0  0.34119983589E+01 -0.19459537749E+01  0.93503847846E+01  0.10141901425E+02  0.00000000000E+00 0.  1.
<mgrwt>
<rscale>  0 0.79311603E+02</rscale>
<asrwt>0</asrwt>
<pdfrwt beam="1">  1        2 0.71589185E-02 0.79311603E+02</pdfrwt>
<pdfrwt beam="2">  1       -1 0.51992337E-02 0.79311603E+02</pdfrwt>
<totfact> 0.15066720E+05</totfact>
</mgrwt>
</event>
<event>
 8    1  0.1226832E-016  0.7696606E+02  0.7818608E-02  0.1337889E+00
         -1   -1    0    0    0  501 -0.00000000000E+00  0.00000000000E+00  0.14674444328E+01  0.14674530878E+01  0.50400000000E-02 0.  1.
          2   -1    0    0  501    0  0.00000000000E+00 -0.00000000000E+00 -0.10091960134E+04  0.10091960134E+04  0.25500000000E-02 0. -1.
         24    2    1    2    0    0  0.00000000000E+00  0.17763568394E-14 -0.10077285690E+04  0.10106634665E+04  0.76966056071E+02 0.  0.
         66    2    3    3    0    0  0.11863725028E+02 -0.12767649973E+02 -0.95435548112E+03  0.95451670766E+03  0.19999989728E+01 0.  0.
        -13    1    3    3    0    0 -0.11863725028E+02  0.12767649973E+02 -0.53373087889E+02  0.56146758876E+02  0.10566000000E+00 0.  1.
         13    1    4    4    0    0  0.80624037215E+01 -0.76160853875E+01 -0.58828448288E+03  0.58838903038E+03  0.10566000000E+00 0. -1.
        -13    1    4    4    0    0  0.16475300693E+01 -0.24291481223E+01 -0.14930960547E+03  0.14933848990E+03  0.10566000000E+00 0.  1.
         14    1    4    4    0    0  0.21537912368E+01 -0.27224164634E+01 -0.21676139277E+03  0.21678918738E+03  0.00000000000E+00 0. -1.
<mgrwt>
<rscale>  0 0.76966056E+02</rscale>
<asrwt>0</asrwt>
<pdfrwt beam="1">  1        2 0.15526037E+00 0.76966056E+02</pdfrwt>
<pdfrwt beam="2">  1       -1 0.22576215E-03 0.76966056E+02</pdfrwt>
<totfact> 0.38956966E+05</totfact>
</mgrwt>
</event>
<event>
 8    1  0.1226832E-016  0.7898773E+02  0.7818608E-02  0.1331949E+00
          2   -1    0    0  501    0  0.00000000000E+00  0.00000000000E+00  0.91315971736E+02  0.91315971771E+02  0.25500000000E-02 0. -1.
         -1   -1    0    0    0  501 -0.00000000000E+00 -0.00000000000E+00 -0.17080968762E+02  0.17080969505E+02  0.50400000000E-02 0.  1.
         24    2    1    2    0    0  0.00000000000E+00  0.00000000000E+00  0.74235002974E+02  0.10839694128E+03  0.78987728234E+02 0.  0.
         66    2    3    3    0    0 -0.51747595218E+01 -0.37293739128E+02  0.53388048387E+02  0.65359657512E+02  0.20000013277E+01 0.  0.
        -13    1    3    3    0    0  0.51747595218E+01  0.37293739128E+02  0.20846954587E+02  0.43037283765E+02  0.10566000000E+00 0.  1.
         13    1    4    4    0    0 -0.12822536146E+00 -0.49464937106E+01  0.71962224232E+01  0.87339007879E+01  0.10566000000E+00 0. -1.
        -13    1    4    4    0    0 -0.45950018872E+01 -0.29020203313E+02  0.40935822125E+02  0.50388877143E+02  0.10566000000E+00 0.  1.
        -14    1    4    4    0    0 -0.45153227308E+00 -0.33270421042E+01  0.52560038390E+01  0.62368795814E+01  0.00000000000E+00 0.  1.
<mgrwt>
<rscale>  0 0.78987728E+02</rscale>
<asrwt>0</asrwt>
<pdfrwt beam="1">  1        2 0.14048611E-01 0.78987728E+02</pdfrwt>
<pdfrwt beam="2">  1       -1 0.26278414E-02 0.78987728E+02</pdfrwt>
<totfact> 0.17889190E+05</totfact>
</mgrwt>
</event>
<event>
 8    1  0.1226832E-016  0.7915972E+02  0.7818608E-02  0.1331453E+00
          2   -1    0    0  501    0  0.00000000000E+00  0.00000000000E+00  0.56125761438E+02  0.56125761496E+02  0.25500000000E-02 0. -1.
         -1   -1    0    0    0  501 -0.00000000000E+00 -0.00000000000E+00 -0.27911696535E+02  0.27911696990E+02  0.50400000000E-02 0.  1.
         24    2    1    2    0    0  0.00000000000E+00 -0.71054273576E-14  0.28214064904E+02  0.84037458486E+02  0.79159718105E+02 0.  0.
         66    2    3    3    0    0 -0.10817149563E+02 -0.35498615161E+02  0.28648870217E+02  0.46924622125E+02  0.19999984631E+01 0.  0.
        -13    1    3    3    0    0  0.10817149563E+02  0.35498615161E+02 -0.43480531303E+00  0.37112836361E+02  0.10566000000E+00 0.  1.
         13    1    4    4    0    0 -0.55815979487E+01 -0.19417832385E+02  0.16424008383E+02  0.26037773822E+02  0.10566000000E+00 0. -1.
        -13    1    4    4    0    0 -0.10178238012E+01 -0.26603855877E+01  0.17115120611E+01  0.33247638016E+01  0.10566000000E+00 0.  1.
        -14    1    4    4    0    0 -0.42177278136E+01 -0.13420397189E+02  0.10513349772E+02  0.17562084502E+02  0.00000000000E+00 0.  1.
<mgrwt>
<rscale>  0 0.79159718E+02</rscale>
<asrwt>0</asrwt>
<pdfrwt beam="1">  1        2 0.86347325E-02 0.79159718E+02</pdfrwt>
<pdfrwt beam="2">  1       -1 0.42941072E-02 0.79159718E+02</pdfrwt>
<totfact> 0.15778337E+05</totfact>
</mgrwt>
</event>
<event>
 8    1  0.1226832E-016  0.8095894E+02  0.7818608E-02  0.1326352E+00
          2   -1    0    0  501    0  0.00000000000E+00  0.00000000000E+00  0.11195945641E+03  0.11195945644E+03  0.25500000000E-02 0. -1.
         -1   -1    0    0    0  501 -0.00000000000E+00 -0.00000000000E+00 -0.14635541589E+02  0.14635542457E+02  0.50400000000E-02 0.  1.
         24    2    1    2    0    0  0.00000000000E+00  0.00000000000E+00  0.97323914823E+02  0.12659499890E+03  0.80958936192E+02 0.  0.
         66    2    3    3    0    0 -0.31976980675E+02 -0.59165799693E+01  0.86319427794E+02  0.92263626796E+02  0.20000007828E+01 0.  0.
        -13    1    3    3    0    0  0.31976980675E+02  0.59165799693E+01  0.11004487029E+02  0.34331372102E+02  0.10566000000E+00 0.  1.
         13    1    4    4    0    0 -0.13699118303E+02 -0.21192064337E+01  0.35221954939E+02  0.37851739088E+02  0.10566000000E+00 0.  1.
        -13    1    4    4    0    0 -0.29138733548E+01 -0.77706243434E+00  0.93322523494E+01  0.98079856190E+01  0.10566000000E+00 0. -1.
         14    1    4    4    0    0 -0.15363989017E+02 -0.30203111013E+01  0.41765220506E+02  0.44603902089E+02  0.00000000000E+00 0. -1.
<mgrwt>
<rscale>  0 0.80958936E+02</rscale>
<asrwt>0</asrwt>
<pdfrwt beam="1">  1        2 0.17224532E-01 0.80958936E+02</pdfrwt>
<pdfrwt beam="2">  1       -1 0.22516218E-02 0.80958936E+02</pdfrwt>
<totfact> 0.17733620E+05</totfact>
</mgrwt>
</event>
<event>
 8    1  0.1226832E-016  0.8298267E+02  0.7818608E-02  0.1320794E+00
          2   -1    0    0  501    0  0.00000000000E+00  0.00000000000E+00  0.65450587083E+02  0.65450587133E+02  0.25500000000E-02 0. -1.
         -1   -1    0    0    0  501 -0.00000000000E+00 -0.00000000000E+00 -0.26302755448E+02  0.26302755931E+02  0.50400000000E-02 0.  1.
         24    2    1    2    0    0  0.35527136788E-14  0.35527136788E-14  0.39147831635E+02  0.91753343064E+02  0.82982668321E+02 0.  0.
         66    2    3    3    0    0  0.28492154089E+02  0.29273945260E+02  0.27462808695E+02  0.49264313410E+02  0.19999996648E+01 0.  0.
        -13    1    3    3    0    0 -0.28492154089E+02 -0.29273945260E+02  0.11685022940E+02  0.42489029653E+02  0.10566000000E+00 0.  1.
         13    1    4    4    0    0  0.23778214714E+02  0.24639712734E+02  0.22682442963E+02  0.41073389456E+02  0.10566000000E+00 0. -1.
        -13    1    4    4    0    0  0.32963102315E+00  0.60270853477E+00  0.48523742219E+00  0.84766360121E+00  0.10566000000E+00 0. -1.
         14    1    4    4    0    0  0.43843083527E+01  0.40315239906E+01  0.42951283095E+01  0.73432603531E+01  0.00000000000E+00 0. -1.
<mgrwt>
<rscale>  0 0.82982668E+02</rscale>
<asrwt>0</asrwt>
<pdfrwt beam="1">  1        2 0.10069321E-01 0.82982668E+02</pdfrwt>
<pdfrwt beam="2">  1       -1 0.40465779E-02 0.82982668E+02</pdfrwt>
<totfact> 0.14381663E+05</totfact>
</mgrwt>
</event>
<event>
 8    1  0.1226832E-016  0.7565092E+02  0.7818608E-02  0.1341867E+00
         -1   -1    0    0    0  501 -0.00000000000E+00  0.00000000000E+00  0.23306292477E+01  0.23306346972E+01  0.50400000000E-02 0.  1.
          2   -1    0    0  501    0  0.00000000000E+00 -0.00000000000E+00 -0.61389583974E+03  0.61389583974E+03  0.25500000000E-02 0. -1.
         24    2    1    2    0    0 -0.88817841970E-15  0.35527136788E-14 -0.61156521049E+03  0.61622647444E+03  0.75650916183E+02 0.  0.
         66    2    3    3    0    0  0.67530963073E+01 -0.24795605931E+02 -0.53178390122E+03  0.53240824935E+03  0.20000008538E+01 0.  0.
        -13    1    3    3    0    0 -0.67530963073E+01  0.24795605931E+02 -0.79781309272E+02  0.83818225085E+02  0.10566000000E+00 0.  1.
         13    1    4    4    0    0  0.22566913226E+01 -0.66015463213E+01 -0.13103333510E+03  0.13121897402E+03  0.10566000000E+00 0. -1.
        -13    1    4    4    0    0  0.25868894586E+01 -0.11591489811E+02 -0.24869975159E+03  0.24898319670E+03  0.10566000000E+00 0.  1.
        -14    1    4    4    0    0  0.19095155262E+01 -0.66025697989E+01 -0.15205081452E+03  0.15220607864E+03  0.00000000000E+00 0.  1.
<mgrwt>
<rscale>  0 0.75650916E+02</rscale>
<asrwt>0</asrwt>
<pdfrwt beam="1">  1        2 0.94445385E-01 0.75650916E+02</pdfrwt>
<pdfrwt beam="2">  1       -1 0.35855926E-03 0.75650916E+02</pdfrwt>
<totfact> 0.37418090E+05</totfact>
</mgrwt>
</event>
<event>
 8    1  0.1226832E-016  0.7894442E+02  0.7818608E-02  0.1332074E+00
         -1   -1    0    0    0  501 -0.00000000000E+00  0.00000000000E+00  0.60011294174E+01  0.60011315338E+01  0.50400000000E-02 0.  1.
          2   -1    0    0  501    0  0.00000000000E+00 -0.00000000000E+00 -0.25962695499E+03  0.25962695500E+03  0.25500000000E-02 0. -1.
         24    2    1    2    0    0  0.17763568394E-14 -0.71054273576E-14 -0.25362582557E+03  0.26562808654E+03  0.78944416900E+02 0.  0.
         66    2    3    3    0    0 -0.13635758737E+02  0.22151903153E+02 -0.22667514940E+03  0.22817156722E+03  0.19999997831E+01 0.  0.
        -13    1    3    3    0    0  0.13635758737E+02 -0.22151903153E+02 -0.26950676171E+02  0.37456519322E+02  0.10566000000E+00 0.  1.
         13    1    4    4    0    0 -0.10841323706E+01  0.11355042723E+01 -0.12788336064E+02  0.12884774591E+02  0.10566000000E+00 0. -1.
        -13    1    4    4    0    0 -0.10781789024E+00  0.23343342849E+00 -0.18457134932E+01  0.18665310599E+01  0.10566000000E+00 0. -1.
         14    1    4    4    0    0 -0.12443808477E+02  0.20782965452E+02 -0.21204109985E+03  0.21342026156E+03  0.00000000000E+00 0. -1.
<mgrwt>
<rscale>  0 0.78944417E+02</rscale>
<asrwt>0</asrwt>
<pdfrwt beam="1">  1        2 0.39942600E-01 0.78944417E+02</pdfrwt>
<pdfrwt beam="2">  1       -1 0.92325105E-03 0.78944417E+02</pdfrwt>
<totfact> 0.25053340E+05</totfact>
</mgrwt>
</event>
<event>
 8    1  0.1226832E-016  0.7785764E+02  0.7818608E-02  0.1335243E+00
         -1   -1    0    0    0  501 -0.00000000000E+00  0.00000000000E+00  0.64742078684E+01  0.64742098301E+01  0.50400000000E-02 0.  1.
          2   -1    0    0  501    0  0.00000000000E+00 -0.00000000000E+00 -0.23407537760E+03  0.23407537762E+03  0.25500000000E-02 0. -1.
         24    2    1    2    0    0  0.17763568394E-14  0.00000000000E+00 -0.22760116973E+03  0.24054958745E+03  0.77857636468E+02 0.  0.
         66    2    3    3    0    0 -0.13061868707E+02 -0.33630701087E+02 -0.15884083777E+03  0.16289888954E+03  0.19999999287E+01 0.  0.
        -13    1    3    3    0    0  0.13061868707E+02  0.33630701087E+02 -0.68760331961E+02  0.77650697905E+02  0.10566000000E+00 0.  1.
         13    1    4    4    0    0 -0.51102017653E+01 -0.12720163529E+02 -0.56526504727E+02  0.58165054998E+02  0.10566000000E+00 0. -1.
        -13    1    4    4    0    0 -0.35023185290E+01 -0.93202958232E+01 -0.47089012112E+02  0.48130243871E+02  0.10566000000E+00 0.  1.
        -14    1    4    4    0    0 -0.44493484124E+01 -0.11590241734E+02 -0.55225320934E+02  0.56603590673E+02  0.00000000000E+00 0.  1.
<mgrwt>
<rscale>  0 0.77857636E+02</rscale>
<asrwt>0</asrwt>
<pdfrwt beam="1">  1        2 0.36011590E-01 0.77857636E+02</pdfrwt>
<pdfrwt beam="2">  1       -1 0.99603232E-03 0.77857636E+02</pdfrwt>
<totfact> 0.25037950E+05</totfact>
</mgrwt>
</event>
<event>
 8    1  0.1226832E-016  0.8013257E+02  0.7818608E-02  0.1328676E+00
         -1   -1    0    0    0  501 -0.00000000000E+00  0.00000000000E+00  0.72273349738E+01  0.72273367311E+01  0.50400000000E-02 0.  1.
          2   -1    0    0  501    0  0.00000000000E+00 -0.00000000000E+00 -0.22211602873E+03  0.22211602874E+03  0.25500000000E-02 0. -1.
         24    2    1    2    0    0  0.00000000000E+00  0.00000000000E+00 -0.21488869375E+03  0.22934336547E+03  0.80132568806E+02 0.  0.
         66    2    3    3    0    0 -0.32586287183E+02 -0.12421585392E+02 -0.51197748610E+02  0.61978797592E+02  0.19999980407E+01 0.  0.
        -13    1    3    3    0    0  0.32586287183E+02  0.12421585392E+02 -0.16369094514E+03  0.16736456788E+03  0.10566000000E+00 0.  1.
         13    1    4    4    0    0 -0.10555643572E+02 -0.36530102654E+01 -0.16795249512E+02  0.20170713062E+02  0.10566000000E+00 0. -1.
        -13    1    4    4    0    0 -0.19741688243E+02 -0.75448339892E+01 -0.31228524958E+02  0.37707966131E+02  0.10566000000E+00 0.  1.
        -14    1    4    4    0    0 -0.22889553686E+01 -0.12237411370E+01 -0.31739741400E+01  0.41001183996E+01  0.00000000000E+00 0.  1.
<mgrwt>
<rscale>  0 0.80132569E+02</rscale>
<asrwt>0</asrwt>
<pdfrwt beam="1">  1        2 0.34171692E-01 0.80132569E+02</pdfrwt>
<pdfrwt beam="2">  1       -1 0.11118980E-02 0.80132569E+02</pdfrwt>
<totfact> 0.22784849E+05</totfact>
</mgrwt>
</event>
<event>
 8    1  0.1226832E-016  0.7942518E+02  0.7818608E-02  0.1330691E+00
          2   -1    0    0  501    0  0.00000000000E+00  0.00000000000E+00  0.12542061207E+03  0.12542061210E+03  0.25500000000E-02 0. -1.
         -1   -1    0    0    0  501 -0.00000000000E+00 -0.00000000000E+00 -0.12574405688E+02  0.12574406698E+02  0.50400000000E-02 0.  1.
         24    2    1    2    0    0  0.00000000000E+00  0.00000000000E+00  0.11284620638E+03  0.13799501879E+03  0.79425178106E+02 0.  0.
         66    2    3    3    0    0  0.70633533142E+01 -0.34332876342E+02  0.88797578466E+02  0.95486372301E+02  0.19999989488E+01 0.  0.
        -13    1    3    3    0    0 -0.70633533142E+01  0.34332876342E+02  0.24048627915E+02  0.42508646492E+02  0.10566000000E+00 0.  1.
         13    1    4    4    0    0  0.26408102367E+01 -0.15807875524E+02  0.39593309161E+02  0.42714214281E+02  0.10566000000E+00 0. -1.
        -13    1    4    4    0    0  0.20812909183E+01 -0.66962287737E+01  0.17619799409E+02  0.18964170083E+02  0.10566000000E+00 0.  1.
         14    1    4    4    0    0  0.23412521592E+01 -0.11828772045E+02  0.31584469897E+02  0.33807987938E+02  0.00000000000E+00 0. -1.
<mgrwt>
<rscale>  0 0.79425178E+02</rscale>
<asrwt>0</asrwt>
<pdfrwt beam="1">  1        2 0.19295478E-01 0.79425178E+02</pdfrwt>
<pdfrwt beam="2">  1       -1 0.19345241E-02 0.79425178E+02</pdfrwt>
<totfact> 0.19304567E+05</totfact>
</mgrwt>
</event>
<event>
 8    1  0.1226832E-016  0.8070504E+02  0.7818608E-02  0.1327062E+00
          2   -1    0    0  501    0  0.00000000000E+00  0.00000000000E+00  0.18210283959E+03  0.18210283960E+03  0.25500000000E-02 0. -1.
         -1   -1    0    0    0  501 -0.00000000000E+00 -0.00000000000E+00 -0.89417914930E+01  0.89417929134E+01  0.50400000000E-02 0.  1.
         24    2    1    2    0    0 -0.35527136788E-14  0.17763568394E-14  0.17316104809E+03  0.19104463252E+03  0.80705037247E+02 0.  0.
         66    2    3    3    0    0 -0.31399749870E+02 -0.15526563263E+02  0.13393615889E+03  0.13845545535E+03  0.19999994674E+01 0.  0.
        -13    1    3    3    0    0  0.31399749870E+02  0.15526563263E+02  0.39224889203E+02  0.52589177173E+02  0.10566000000E+00 0.  1.
         13    1    4    4    0    0 -0.37751737452E+01 -0.24627873157E+01  0.15908871975E+02  0.16535435577E+02  0.10566000000E+00 0. -1.
        -13    1    4    4    0    0 -0.41771079258E+01 -0.20057104859E+01  0.17282805809E+02  0.17893508483E+02  0.10566000000E+00 0.  1.
         14    1    4    4    0    0 -0.23447468199E+02 -0.11058065462E+02  0.10074448111E+03  0.10402651129E+03  0.00000000000E+00 0. -1.
<mgrwt>
<rscale>  0 0.80705037E+02</rscale>
<asrwt>0</asrwt>
<pdfrwt beam="1">  1        2 0.28015820E-01 0.80705037E+02</pdfrwt>
<pdfrwt beam="2">  1       -1 0.13756604E-02 0.80705037E+02</pdfrwt>
<totfact> 0.20868745E+05</totfact>
</mgrwt>
</event>
<event>
 8    1  0.1226832E-016  0.7957469E+02  0.7818608E-02  0.1330263E+00
          2   -1    0    0  501    0  0.00000000000E+00  0.00000000000E+00  0.43301737039E+03  0.43301737040E+03  0.25500000000E-02 0. -1.
         -1   -1    0    0    0  501 -0.00000000000E+00 -0.00000000000E+00 -0.36558161082E+01  0.36558195823E+01  0.50400000000E-02 0.  1.
         24    2    1    2    0    0  0.71054273576E-14 -0.71054273576E-14  0.42936155428E+03  0.43667318998E+03  0.79574685371E+02 0.  0.
         66    2    3    3    0    0 -0.19063264257E+02  0.29518331457E+02  0.31693350905E+03  0.31888177920E+03  0.20000018267E+01 0.  0.
        -13    1    3    3    0    0  0.19063264257E+02 -0.29518331457E+02  0.11242804523E+03  0.11779141079E+03  0.10566000000E+00 0.  1.
         13    1    4    4    0    0 -0.64394046718E+01  0.10759787322E+02  0.11856554753E+03  0.11922683918E+03  0.10566000000E+00 0. -1.
        -13    1    4    4    0    0 -0.23993921839E+01  0.38736899375E+01  0.43156684613E+02  0.43396695121E+02  0.10566000000E+00 0.  1.
        -14    1    4    4    0    0 -0.10224467401E+02  0.14884854198E+02  0.15521127691E+03  0.15625824490E+03  0.00000000000E+00 0.  1.
<mgrwt>
<rscale>  0 0.79574685E+02</rscale>
<asrwt>0</asrwt>
<pdfrwt beam="1">  1        2 0.66617986E-01 0.79574685E+02</pdfrwt>
<pdfrwt beam="2">  1       -1 0.56243412E-03 0.79574685E+02</pdfrwt>
<totfact> 0.29444884E+05</totfact>
</mgrwt>
</event>
<event>
 8    1  0.1226832E-016  0.7621418E+02  0.7818608E-02  0.1340152E+00
          2   -1    0    0  501    0  0.00000000000E+00  0.00000000000E+00  0.28197873923E+03  0.28197873925E+03  0.25500000000E-02 0. -1.
         -1   -1    0    0    0  501 -0.00000000000E+00 -0.00000000000E+00 -0.51498557497E+01  0.51498582159E+01  0.50400000000E-02 0.  1.
         24    2    1    2    0    0 -0.17763568394E-14  0.00000000000E+00  0.27682888348E+03  0.28712859746E+03  0.76214176824E+02 0.  0.
         66    2    3    3    0    0  0.97849496088E+01  0.30786572683E+02  0.21447517216E+03  0.21690356790E+03  0.20000000052E+01 0.  0.
        -13    1    3    3    0    0 -0.97849496088E+01 -0.30786572683E+02  0.62353711325E+02  0.70225029558E+02  0.10566000000E+00 0.  1.
         13    1    4    4    0    0  0.56747632301E+01  0.15258429060E+02  0.10435973381E+03  0.10562190966E+03  0.10566000000E+00 0. -1.
        -13    1    4    4    0    0  0.98008503632E+00  0.34440304904E+01  0.23630486751E+02  0.23900480766E+02  0.10566000000E+00 0. -1.
         14    1    4    4    0    0  0.31301013424E+01  0.12084113132E+02  0.86484951602E+02  0.87381177482E+02  0.00000000000E+00 0. -1.
<mgrwt>
<rscale>  0 0.76214177E+02</rscale>
<asrwt>0</asrwt>
<pdfrwt beam="1">  1        2 0.43381351E-01 0.76214177E+02</pdfrwt>
<pdfrwt beam="2">  1       -1 0.79228558E-03 0.76214177E+02</pdfrwt>
<totfact> 0.28301764E+05</totfact>
</mgrwt>
</event>
<event>
 8    1  0.1226832E-016  0.8224081E+02  0.7818608E-02  0.1322810E+00
         -1   -1    0    0    0  501 -0.00000000000E+00  0.00000000000E+00  0.24500470826E+01  0.24500522665E+01  0.50400000000E-02 0.  1.
          2   -1    0    0  501    0  0.00000000000E+00 -0.00000000000E+00 -0.69014419112E+03  0.69014419113E+03  0.25500000000E-02 0. -1.
         24    2    1    2    0    0  0.35527136788E-14  0.17763568394E-14 -0.68769414404E+03  0.69259424340E+03  0.82240806387E+02 0.  0.
         66    2    3    3    0    0  0.20814349440E+02  0.11428076676E+02 -0.62652248204E+03  0.62697548483E+03  0.20000004089E+01 0.  0.
        -13    1    3    3    0    0 -0.20814349440E+02 -0.11428076676E+02 -0.61171662003E+02  0.65618758563E+02  0.10566000000E+00 0.  1.
         13    1    4    4    0    0  0.77655145794E+01  0.50435702554E+01 -0.24260583614E+03  0.24278250290E+03  0.10566000000E+00 0. -1.
        -13    1    4    4    0    0  0.70297039835E+01  0.38911785745E+01 -0.22156906631E+03  0.22171472734E+03  0.10566000000E+00 0.  1.
        -14    1    4    4    0    0  0.60191308772E+01  0.24933278460E+01 -0.16234757958E+03  0.16247825460E+03  0.00000000000E+00 0.  1.
<mgrwt>
<rscale>  0 0.82240806E+02</rscale>
<asrwt>0</asrwt>
<pdfrwt beam="1">  1        2 0.10617587E+00 0.82240806E+02</pdfrwt>
<pdfrwt beam="2">  1       -1 0.37693127E-03 0.82240806E+02</pdfrwt>
<totfact> 0.31028456E+05</totfact>
</mgrwt>
</event>
<event>
 8    1  0.1226832E-016  0.7745360E+02  0.7818608E-02  0.1336437E+00
          2   -1    0    0  501    0  0.00000000000E+00  0.00000000000E+00  0.53793929158E+02  0.53793929218E+02  0.25500000000E-02 0. -1.
         -1   -1    0    0    0  501 -0.00000000000E+00 -0.00000000000E+00 -0.27879821973E+02  0.27879822428E+02  0.50400000000E-02 0.  1.
         24    2    1    2    0    0  0.00000000000E+00  0.00000000000E+00  0.25914107185E+02  0.81673751646E+02  0.77453603898E+02 0.  0.
         66    2    3    3    0    0  0.10907101957E+02 -0.99407240625E+01  0.50691778813E+02  0.52834073365E+02  0.20000002792E+01 0.  0.
        -13    1    3    3    0    0 -0.10907101957E+02  0.99407240625E+01 -0.24777671629E+02  0.28839678281E+02  0.10566000000E+00 0.  1.
         13    1    4    4    0    0  0.75921153721E+01 -0.72263382306E+01  0.32882507056E+02  0.34512760168E+02  0.10566000000E+00 0. -1.
        -13    1    4    4    0    0  0.34901099053E+00 -0.31327398606E+00  0.22681689939E+01  0.23185564221E+01  0.10566000000E+00 0. -1.
         14    1    4    4    0    0  0.29659755948E+01 -0.24011118459E+01  0.15541102763E+02  0.16002756775E+02  0.00000000000E+00 0. -1.
<mgrwt>
<rscale>  0 0.77453604E+02</rscale>
<asrwt>0</asrwt>
<pdfrwt beam="1">  1        2 0.82759892E-02 0.77453604E+02</pdfrwt>
<pdfrwt beam="2">  1       -1 0.42892034E-02 0.77453604E+02</pdfrwt>
<totfact> 0.16585191E+05</totfact>
</mgrwt>
</event>
<event>
 8    1  0.1226832E-016  0.8074035E+02  0.7818608E-02  0.1326963E+00
         -1   -1    0    0    0  501 -0.00000000000E+00  0.00000000000E+00  0.17048853611E+02  0.17048854356E+02  0.50400000000E-02 0.  1.
          2   -1    0    0  501    0  0.00000000000E+00 -0.00000000000E+00 -0.95593005756E+02  0.95593005790E+02  0.25500000000E-02 0. -1.
         24    2    1    2    0    0  0.00000000000E+00  0.71054273576E-14 -0.78544152145E+02  0.11264186015E+03  0.80740354353E+02 0.  0.
         66    2    3    3    0    0  0.43327221385E+01  0.34873437402E+02 -0.66946693322E+02  0.75635896674E+02  0.20000003865E+01 0.  0.
        -13    1    3    3    0    0 -0.43327221385E+01 -0.34873437402E+02 -0.11597458823E+02  0.37005963472E+02  0.10566000000E+00 0.  1.
         13    1    4    4    0    0  0.45937251616E+00  0.27968117881E+01 -0.53535334843E+01  0.60584374297E+01  0.10566000000E+00 0.  1.
        -13    1    4    4    0    0  0.72837293605E+00  0.94438276473E+01 -0.19643569155E+02  0.21808195270E+02  0.10566000000E+00 0.  1.
         14    1    4    4    0    0  0.31449766863E+01  0.22632797966E+02 -0.41949590683E+02  0.47769263974E+02  0.00000000000E+00 0. -1.
<mgrwt>
<rscale>  0 0.80740354E+02</rscale>
<asrwt>0</asrwt>
<pdfrwt beam="1">  1        2 0.14706616E-01 0.80740354E+02</pdfrwt>
<pdfrwt beam="2">  1       -1 0.26229007E-02 0.80740354E+02</pdfrwt>
<totfact> 0.17078070E+05</totfact>
</mgrwt>
</event>
<event>
 8    1  0.1226832E-016  0.7803784E+02  0.7818608E-02  0.1334714E+00
          2   -1    0    0  501    0  0.00000000000E+00  0.00000000000E+00  0.36582782046E+03  0.36582782047E+03  0.25500000000E-02 0. -1.
         -1   -1    0    0    0  501 -0.00000000000E+00 -0.00000000000E+00 -0.41617275903E+01  0.41617306421E+01  0.50400000000E-02 0.  1.
         24    2    1    2    0    0  0.00000000000E+00  0.00000000000E+00  0.36166609287E+03  0.36998955111E+03  0.78037844663E+02 0.  0.
         66    2    3    3    0    0  0.28423633790E+02 -0.43980860012E+00  0.30749460616E+03  0.30881228797E+03  0.19999980911E+01 0.  0.
        -13    1    3    3    0    0 -0.28423633790E+02  0.43980860012E+00  0.54171486709E+02  0.61177263144E+02  0.10566000000E+00 0.  1.
         13    1    4    4    0    0  0.12852522695E+02  0.56420384951E+00  0.13784103387E+03  0.13844012225E+03  0.10566000000E+00 0. -1.
        -13    1    4    4    0    0  0.15302229718E+02 -0.10652126527E+01  0.16751912531E+03  0.16821997925E+03  0.10566000000E+00 0.  1.
        -14    1    4    4    0    0  0.26888137617E+00  0.61200203091E-01  0.21344469872E+01  0.21521864697E+01  0.00000000000E+00 0.  1.
<mgrwt>
<rscale>  0 0.78037845E+02</rscale>
<asrwt>0</asrwt>
<pdfrwt beam="1">  1        2 0.56281212E-01 0.78037845E+02</pdfrwt>
<pdfrwt beam="2">  1       -1 0.64026592E-03 0.78037845E+02</pdfrwt>
<totfact> 0.29211512E+05</totfact>
</mgrwt>
</event>
<event>
 8    1  0.1226832E-016  0.8114356E+02  0.7818608E-02  0.1325837E+00
          2   -1    0    0  501    0  0.00000000000E+00  0.00000000000E+00  0.73264771532E+02  0.73264771577E+02  0.25500000000E-02 0. -1.
         -1   -1    0    0    0  501 -0.00000000000E+00 -0.00000000000E+00 -0.22467407648E+02  0.22467408213E+02  0.50400000000E-02 0.  1.
         24    2    1    2    0    0  0.00000000000E+00  0.44408920985E-15  0.50797363885E+02  0.95732179790E+02  0.81143564561E+02 0.  0.
         66    2    3    3    0    0  0.20358297236E+02 -0.24284118648E+01  0.66684841845E+02  0.69794165785E+02  0.19999988004E+01 0.  0.
        -13    1    3    3    0    0 -0.20358297236E+02  0.24284118648E+01 -0.15887477960E+02  0.25938014005E+02  0.10566000000E+00 0.  1.
         13    1    4    4    0    0  0.20481546302E+01 -0.69099211898E+00  0.63908147636E+01  0.67473020442E+01  0.10566000000E+00 0.  1.
        -13    1    4    4    0    0  0.75190709427E+01 -0.11198762318E+01  0.23650996472E+02  0.24842933578E+02  0.10566000000E+00 0. -1.
         14    1    4    4    0    0  0.10791071663E+02 -0.61754351411E+00  0.36643030609E+02  0.38203930163E+02  0.00000000000E+00 0. -1.
<mgrwt>
<rscale>  0 0.81143565E+02</rscale>
<asrwt>0</asrwt>
<pdfrwt beam="1">  1        2 0.11271503E-01 0.81143565E+02</pdfrwt>
<pdfrwt beam="2">  1       -1 0.34565243E-02 0.81143565E+02</pdfrwt>
<totfact> 0.15713676E+05</totfact>
</mgrwt>
</event>
<event>
 8    1  0.1226832E-016  0.8222325E+02  0.7818608E-02  0.1322858E+00
         -1   -1    0    0    0  501 -0.00000000000E+00  0.00000000000E+00  0.27273225549E+01  0.27273272117E+01  0.50400000000E-02 0.  1.
          2   -1    0    0  501    0  0.00000000000E+00 -0.00000000000E+00 -0.61971552820E+03  0.61971552821E+03  0.25500000000E-02 0. -1.
         24    2    1    2    0    0  0.00000000000E+00  0.00000000000E+00 -0.61698820565E+03  0.62244285542E+03  0.82223247044E+02 0.  0.
         66    2    3    3    0    0  0.12544414366E+02  0.17734373304E+02 -0.57268800186E+03  0.57310332210E+03  0.20000007348E+01 0.  0.
        -13    1    3    3    0    0 -0.12544414366E+02 -0.17734373304E+02 -0.44300203794E+02  0.49339533323E+02  0.10566000000E+00 0.  1.
         13    1    4    4    0    0  0.82703540949E+01  0.10201424444E+02 -0.33964050783E+03  0.33989432702E+03  0.10566000000E+00 0. -1.
        -13    1    4    4    0    0  0.15187039721E+00  0.33678240488E+00 -0.10605868403E+02  0.10612826938E+02  0.10566000000E+00 0. -1.
         14    1    4    4    0    0  0.41221898744E+01  0.71961664547E+01 -0.22244162563E+03  0.22259616814E+03  0.00000000000E+00 0. -1.
<mgrwt>
<rscale>  0 0.82223247E+02</rscale>
<asrwt>0</asrwt>
<pdfrwt beam="1">  1        2 0.95340738E-01 0.82223247E+02</pdfrwt>
<pdfrwt beam="2">  1       -1 0.41958894E-03 0.82223247E+02</pdfrwt>
<totfact> 0.30213053E+05</totfact>
</mgrwt>
</event>
<event>
 8    1  0.1380898E-016  0.8029295E+02  0.7818608E-02  0.1328222E+00
          2   -1    0    0  501    0  0.00000000000E+00  0.00000000000E+00  0.12889508379E+03  0.12889508381E+03  0.25500000000E-02 0. -1.
         -1   -1    0    0    0  501 -0.00000000000E+00 -0.00000000000E+00 -0.12504274697E+02  0.12504275713E+02  0.50400000000E-02 0.  1.
         24    2    1    2    0    0 -0.55511151231E-16  0.00000000000E+00  0.11639080909E+03  0.14139935953E+03  0.80292953824E+02 0.  0.
         66    2    3    3    0    0 -0.37464140267E+00 -0.23474648375E+02  0.11552719327E+03  0.11790560570E+03  0.19999997782E+01 0.  0.
        -13    1    3    3    0    0  0.37464140267E+00  0.23474648375E+02  0.86361582483E+00  0.23493753826E+02  0.10566000000E+00 0.  1.
         13    1    4    4    0    0 -0.27556873270E+00 -0.99526910168E+01  0.49703676294E+02  0.50691208289E+02  0.10566000000E+00 0. -1.
        -13    1    4    4    0    0 -0.62010725906E+00 -0.10382893650E+02  0.51860244172E+02  0.52893147980E+02  0.10566000000E+00 0.  1.
        -14    1    4    4    0    0  0.52103458908E+00 -0.31390637084E+01  0.13963272801E+02  0.14321249433E+02  0.00000000000E+00 0.  1.
<mgrwt>
<rscale>  0 0.80292954E+02</rscale>
<asrwt>0</asrwt>
<pdfrwt beam="1">  1        2 0.19830013E-01 0.80292954E+02</pdfrwt>
<pdfrwt beam="2">  1       -1 0.19237346E-02 0.80292954E+02</pdfrwt>
<totfact> 0.18911370E+05</totfact>
</mgrwt>
</event>
<event>
 8    1  0.1226832E-016  0.7975047E+02  0.7818608E-02  0.1329761E+00
          2   -1    0    0  501    0  0.00000000000E+00  0.00000000000E+00  0.83251184541E+01  0.83251188446E+01  0.25500000000E-02 0. -1.
         -1   -1    0    0    0  501 -0.00000000000E+00 -0.00000000000E+00 -0.19099237946E+03  0.19099237953E+03  0.50400000000E-02 0.  1.
         24    2    1    2    0    0  0.00000000000E+00 -0.71054273576E-14 -0.18266726100E+03  0.19931749837E+03  0.79750466541E+02 0.  0.
         66    2    3    3    0    0 -0.71431436386E+01 -0.37906595155E+02 -0.66386422270E+02  0.76805543532E+02  0.19999995494E+01 0.  0.
        -13    1    3    3    0    0  0.71431436386E+01  0.37906595155E+02 -0.11628083873E+03  0.12251195484E+03  0.10566000000E+00 0.  1.
         13    1    4    4    0    0 -0.34105807962E+01 -0.18091707117E+02 -0.30269848117E+02  0.35429038892E+02  0.10566000000E+00 0. -1.
        -13    1    4    4    0    0 -0.13782799829E+01 -0.78453777382E+01 -0.13286079558E+02  0.15491309874E+02  0.10566000000E+00 0.  1.
        -14    1    4    4    0    0 -0.23542828595E+01 -0.11969510300E+02 -0.22830494596E+02  0.25885194766E+02  0.00000000000E+00 0.  1.
<mgrwt>
<rscale>  0 0.79750467E+02</rscale>
<asrwt>0</asrwt>
<pdfrwt beam="1">  1        2 0.12807876E-02 0.79750467E+02</pdfrwt>
<pdfrwt beam="2">  1       -1 0.29383440E-01 0.79750467E+02</pdfrwt>
<totfact> 0.10178732E+05</totfact>
</mgrwt>
</event>
<event>
 8    1  0.1226832E-016  0.8071191E+02  0.7818608E-02  0.1327043E+00
         -1   -1    0    0    0  501 -0.00000000000E+00  0.00000000000E+00  0.17847038014E+02  0.17847038725E+02  0.50400000000E-02 0.  1.
          2   -1    0    0  501    0  0.00000000000E+00 -0.00000000000E+00 -0.91253416161E+02  0.91253416197E+02  0.25500000000E-02 0. -1.
         24    2    1    2    0    0 -0.35527136788E-14  0.35527136788E-14 -0.73406378148E+02  0.10910045492E+03  0.80711913070E+02 0.  0.
         66    2    3    3    0    0 -0.24245235176E+02  0.18834884751E+02 -0.72078265956E+02  0.78370024428E+02  0.19999983152E+01 0.  0.
        -13    1    3    3    0    0  0.24245235176E+02 -0.18834884751E+02 -0.13281121916E+01  0.30730430494E+02  0.10566000000E+00 0.  1.
         13    1    4    4    0    0 -0.71958617709E+01  0.62191590579E+01 -0.22548421623E+02  0.24472450792E+02  0.10566000000E+00 0. -1.
        -13    1    4    4    0    0 -0.57062804998E+00  0.54285211689E+00 -0.24852108428E+01  0.26091649547E+01  0.10566000000E+00 0.  1.
        -14    1    4    4    0    0 -0.16478745355E+02  0.12072873576E+02 -0.47044633490E+02  0.51288408681E+02  0.00000000000E+00 0.  1.
<mgrwt>
<rscale>  0 0.80711913E+02</rscale>
<asrwt>0</asrwt>
<pdfrwt beam="1">  1        2 0.14038987E-01 0.80711913E+02</pdfrwt>
<pdfrwt beam="2">  1       -1 0.27456983E-02 0.80711913E+02</pdfrwt>
<totfact> 0.16878463E+05</totfact>
</mgrwt>
</event>
<event>
 8    1  0.1226832E-016  0.8042776E+02  0.7818608E-02  0.1327842E+00
         -1   -1    0    0    0  501 -0.00000000000E+00  0.00000000000E+00  0.78053364555E+02  0.78053364717E+02  0.50400000000E-02 0.  1.
          2   -1    0    0  501    0  0.00000000000E+00 -0.00000000000E+00 -0.20718596238E+02  0.20718596395E+02  0.25500000000E-02 0. -1.
         24    2    1    2    0    0  0.00000000000E+00  0.00000000000E+00  0.57334768317E+02  0.98771961112E+02  0.80427760407E+02 0.  0.
         66    2    3    3    0    0  0.24846892195E+02 -0.17619115747E+02 -0.35120296522E+01  0.30726790244E+02  0.19999987347E+01 0.  0.
        -13    1    3    3    0    0 -0.24846892195E+02  0.17619115747E+02  0.60846797969E+02  0.68045170869E+02  0.10566000000E+00 0.  1.
         13    1    4    4    0    0  0.50382517013E+01 -0.38091512914E+01 -0.14872718289E-01  0.63170403671E+01  0.10566000000E+00 0. -1.
        -13    1    4    4    0    0  0.36573032414E+01 -0.24949760570E+01 -0.89982242085E+00  0.45190283191E+01  0.10566000000E+00 0.  1.
         14    1    4    4    0    0  0.16151337252E+02 -0.11314988399E+02 -0.25973345130E+01  0.19890721557E+02  0.00000000000E+00 0. -1.
<mgrwt>
<rscale>  0 0.80427760E+02</rscale>
<asrwt>0</asrwt>
<pdfrwt beam="1">  1        2 0.31874764E-02 0.80427760E+02</pdfrwt>
<pdfrwt beam="2">  1       -1 0.12008210E-01 0.80427760E+02</pdfrwt>
<totfact> 0.12314724E+05</totfact>
</mgrwt>
</event>
<event>
 8    1  0.1226832E-016  0.7783498E+02  0.7818608E-02  0.1335310E+00
          2   -1    0    0  501    0  0.00000000000E+00  0.00000000000E+00  0.11832867940E+03  0.11832867943E+03  0.25500000000E-02 0. -1.
         -1   -1    0    0    0  501 -0.00000000000E+00 -0.00000000000E+00 -0.12799694549E+02  0.12799695541E+02  0.50400000000E-02 0.  1.
         24    2    1    2    0    0  0.00000000000E+00  0.00000000000E+00  0.10552898486E+03  0.13112837497E+03  0.77834979786E+02 0.  0.
         66    2    3    3    0    0  0.34694961332E+02  0.16466848788E+02  0.63139026103E+02  0.73928574117E+02  0.20000007303E+01 0.  0.
        -13    1    3    3    0    0 -0.34694961332E+02 -0.16466848788E+02  0.42389958752E+02  0.57199800855E+02  0.10566000000E+00 0.  1.
         13    1    4    4    0    0  0.14219616920E+02  0.65787179995E+01  0.25207415512E+02  0.29679993206E+02  0.10566000000E+00 0. -1.
        -13    1    4    4    0    0  0.12795725821E+02  0.67588934490E+01  0.23207318932E+02  0.27349662813E+02  0.10566000000E+00 0.  1.
        -14    1    4    4    0    0  0.76796185901E+01  0.31292373396E+01  0.14724291660E+02  0.16898918099E+02  0.00000000000E+00 0.  1.
<mgrwt>
<rscale>  0 0.77834980E+02</rscale>
<asrwt>0</asrwt>
<pdfrwt beam="1">  1        2 0.18204411E-01 0.77834980E+02</pdfrwt>
<pdfrwt beam="2">  1       -1 0.19691840E-02 0.77834980E+02</pdfrwt>
<totfact> 0.20019225E+05</totfact>
</mgrwt>
</event>
<event>
 8    1  0.1226832E-016  0.7292810E+02  0.7818608E-02  0.1350410E+00
         -1   -1    0    0    0  501 -0.00000000000E+00  0.00000000000E+00  0.22892135911E+03  0.22892135916E+03  0.50400000000E-02 0.  1.
          2   -1    0    0  501    0  0.00000000000E+00 -0.00000000000E+00 -0.58082251835E+01  0.58082257433E+01  0.25500000000E-02 0. -1.
         24    2    1    2    0    0  0.00000000000E+00  0.00000000000E+00  0.22311313392E+03  0.23472958491E+03  0.72928098158E+02 0.  0.
         66    2    3    3    0    0 -0.22690839541E+02  0.27717642456E+02  0.90173991502E+02  0.97048908505E+02  0.19999990551E+01 0.  0.
        -13    1    3    3    0    0  0.22690839541E+02 -0.27717642456E+02  0.13293914242E+03  0.13768067640E+03  0.10566000000E+00 0.  1.
         13    1    4    4    0    0 -0.53879127488E+01  0.79018124203E+01  0.24201589844E+02  0.26022996721E+02  0.10566000000E+00 0. -1.
        -13    1    4    4    0    0 -0.48029546714E+01  0.52260722183E+01  0.17514026518E+02  0.18897949447E+02  0.10566000000E+00 0.  1.
         14    1    4    4    0    0 -0.12499972121E+02  0.14589757817E+02  0.48458375140E+02  0.52127962337E+02  0.00000000000E+00 0. -1.
<mgrwt>
<rscale>  0 0.72928098E+02</rscale>
<asrwt>0</asrwt>
<pdfrwt beam="1">  1        2 0.89357313E-03 0.72928098E+02</pdfrwt>
<pdfrwt beam="2">  1       -1 0.35218672E-01 0.72928098E+02</pdfrwt>
<totfact> 0.12078793E+05</totfact>
</mgrwt>
</event>
<event>
 8    1  0.1226832E-016  0.7930124E+02  0.7818608E-02  0.1331046E+00
          2   -1    0    0  501    0  0.00000000000E+00  0.00000000000E+00  0.23654230543E+02  0.23654230680E+02  0.25500000000E-02 0. -1.
         -1   -1    0    0    0  501 -0.00000000000E+00 -0.00000000000E+00 -0.66464707629E+02  0.66464707820E+02  0.50400000000E-02 0.  1.
         24    2    1    2    0    0 -0.17763568394E-14 -0.35527136788E-14 -0.42810477087E+02  0.90118938500E+02  0.79301236611E+02 0.  0.
         66    2    3    3    0    0  0.13839896103E+02  0.20867071296E+02  0.13481995020E+02  0.28508623061E+02  0.20000026173E+01 0.  0.
        -13    1    3    3    0    0 -0.13839896103E+02 -0.20867071296E+02 -0.56292472107E+02  0.61610315440E+02  0.10566000000E+00 0.  1.
         13    1    4    4    0    0  0.18704178712E+01  0.29466749083E+01  0.24997434150E+01  0.42943261642E+01  0.10566000000E+00 0. -1.
        -13    1    4    4    0    0  0.49629027829E+01  0.71521582157E+01  0.38390443850E+01  0.95148934308E+01  0.10566000000E+00 0.  1.
        -14    1    4    4    0    0  0.70065754487E+01  0.10768238172E+02  0.71432072203E+01  0.14699403466E+02  0.00000000000E+00 0.  1.
<mgrwt>
<rscale>  0 0.79301237E+02</rscale>
<asrwt>0</asrwt>
<pdfrwt beam="1">  1        2 0.36391124E-02 0.79301237E+02</pdfrwt>
<pdfrwt beam="2">  1       -1 0.10225340E-01 0.79301237E+02</pdfrwt>
<totfact> 0.13162960E+05</totfact>
</mgrwt>
</event>
<event>
 8    1  0.1226832E-016  0.7953862E+02  0.7818608E-02  0.1330366E+00
          2   -1    0    0  501    0  0.00000000000E+00  0.00000000000E+00  0.73703481502E+02  0.73703481546E+02  0.25500000000E-02 0. -1.
         -1   -1    0    0    0  501 -0.00000000000E+00 -0.00000000000E+00 -0.21458930036E+02  0.21458930628E+02  0.50400000000E-02 0.  1.
         24    2    1    2    0    0  0.00000000000E+00  0.00000000000E+00  0.52244551466E+02  0.95162412174E+02  0.79538616614E+02 0.  0.
         66    2    3    3    0    0 -0.18296198169E+02 -0.18037836183E+02  0.62417988023E+02  0.67528657868E+02  0.20000007712E+01 0.  0.
        -13    1    3    3    0    0  0.18296198169E+02  0.18037836183E+02 -0.10173436557E+02  0.27633754306E+02  0.10566000000E+00 0.  1.
         13    1    4    4    0    0 -0.63494109516E+01 -0.64755553356E+01  0.19660938135E+02  0.21652055069E+02  0.10566000000E+00 0. -1.
        -13    1    4    4    0    0 -0.78424379381E+01 -0.77613288018E+01  0.28405039874E+02  0.30472930805E+02  0.10566000000E+00 0.  1.
         14    1    4    4    0    0 -0.41043492788E+01 -0.38009520460E+01  0.14352010014E+02  0.15403671994E+02  0.00000000000E+00 0. -1.
<mgrwt>
<rscale>  0 0.79538617E+02</rscale>
<asrwt>0</asrwt>
<pdfrwt beam="1">  1        2 0.11338997E-01 0.79538617E+02</pdfrwt>
<pdfrwt beam="2">  1       -1 0.33013739E-02 0.79538617E+02</pdfrwt>
<totfact> 0.16610614E+05</totfact>
</mgrwt>
</event>
<event>
 8    1  0.1226832E-016  0.7924169E+02  0.7818608E-02  0.1331217E+00
          2   -1    0    0  501    0  0.00000000000E+00  0.00000000000E+00  0.30920512048E+02  0.30920512153E+02  0.25500000000E-02 0. -1.
         -1   -1    0    0    0  501 -0.00000000000E+00 -0.00000000000E+00 -0.50769249201E+02  0.50769249452E+02  0.50400000000E-02 0.  1.
         24    2    1    2    0    0  0.00000000000E+00  0.00000000000E+00 -0.19848737154E+02  0.81689761605E+02  0.79241685901E+02 0.  0.
         66    2    3    3    0    0 -0.10577191208E+01 -0.36522684011E+02  0.57978417527E+01  0.37049159114E+02  0.20000012485E+01 0.  0.
        -13    1    3    3    0    0  0.10577191208E+01  0.36522684011E+02 -0.25646578906E+02  0.44640602490E+02  0.10566000000E+00 0.  1.
         13    1    4    4    0    0 -0.63617305382E+00 -0.77598483952E+01  0.15112007324E+01  0.79318884864E+01  0.10566000000E+00 0. -1.
        -13    1    4    4    0    0 -0.77920682879E-01 -0.11325135785E+02  0.10076759849E+01  0.11370635299E+02  0.10566000000E+00 0.  1.
         14    1    4    4    0    0 -0.34362538409E+00 -0.17437699831E+02  0.32789650354E+01  0.17746635329E+02  0.00000000000E+00 0. -1.
<mgrwt>
<rscale>  0 0.79241686E+02</rscale>
<asrwt>0</asrwt>
<pdfrwt beam="1">  1        2 0.47570019E-02 0.79241686E+02</pdfrwt>
<pdfrwt beam="2">  1       -1 0.78106538E-02 0.79241686E+02</pdfrwt>
<totfact> 0.13901145E+05</totfact>
</mgrwt>
</event>
<event>
 8    1  0.1226832E-016  0.8084740E+02  0.7818608E-02  0.1326664E+00
         -1   -1    0    0    0  501 -0.00000000000E+00  0.00000000000E+00  0.13703218114E+03  0.13703218123E+03  0.50400000000E-02 0.  1.
          2   -1    0    0  501    0  0.00000000000E+00 -0.00000000000E+00 -0.11924757228E+02  0.11924757500E+02  0.25500000000E-02 0. -1.
         24    2    1    2    0    0  0.17763568394E-14  0.71054273576E-14  0.12510742391E+03  0.14895693873E+03  0.80847399950E+02 0.  0.
         66    2    3    3    0    0  0.15492080595E+02  0.35310346988E+02  0.84796633736E+02  0.93173463273E+02  0.19999999459E+01 0.  0.
        -13    1    3    3    0    0 -0.15492080595E+02 -0.35310346988E+02  0.40310790173E+02  0.55783475457E+02  0.10566000000E+00 0.  1.
         13    1    4    4    0    0  0.24381538293E+01  0.62649542245E+01  0.16004489734E+02  0.17359409587E+02  0.10566000000E+00 0.  1.
        -13    1    4    4    0    0  0.51711193196E+01  0.12022657188E+02  0.29538254008E+02  0.32307961476E+02  0.10566000000E+00 0. -1.
        -14    1    4    4    0    0  0.78828074465E+01  0.17022735575E+02  0.39253889994E+02  0.43506092210E+02  0.00000000000E+00 0.  1.
<mgrwt>
<rscale>  0 0.80847400E+02</rscale>
<asrwt>0</asrwt>
<pdfrwt beam="1">  1        2 0.18345780E-02 0.80847400E+02</pdfrwt>
<pdfrwt beam="2">  1       -1 0.21081875E-01 0.80847400E+02</pdfrwt>
<totfact> 0.10743825E+05</totfact>
</mgrwt>
</event>
<event>
 8    1  0.1226832E-016  0.7871057E+02  0.7818608E-02  0.1332751E+00
          2   -1    0    0  501    0  0.00000000000E+00  0.00000000000E+00  0.35360670388E+02  0.35360670480E+02  0.25500000000E-02 0. -1.
         -1   -1    0    0    0  501 -0.00000000000E+00 -0.00000000000E+00 -0.43801164419E+02  0.43801164709E+02  0.50400000000E-02 0.  1.
         24    2    1    2    0    0 -0.17763568394E-14  0.35527136788E-14 -0.84404940307E+01  0.79161835188E+02  0.78710572421E+02 0.  0.
         66    2    3    3    0    0  0.14125854625E+02 -0.30696909124E+02  0.16016866317E+02  0.37448364488E+02  0.19999994072E+01 0.  0.
        -13    1    3    3    0    0 -0.14125854625E+02  0.30696909124E+02 -0.24457360348E+02  0.41713470700E+02  0.10566000000E+00 0.  1.
         13    1    4    4    0    0  0.76579961287E+01 -0.16541029621E+02  0.92681860477E+01  0.20448985361E+02  0.10566000000E+00 0. -1.
        -13    1    4    4    0    0  0.26755541674E+01 -0.46814928946E+01  0.25180882400E+01  0.59520499195E+01  0.10566000000E+00 0.  1.
        -14    1    4    4    0    0  0.37923043284E+01 -0.94743866080E+01  0.42305920294E+01  0.11047329208E+02  0.00000000000E+00 0.  1.
<mgrwt>
<rscale>  0 0.78710572E+02</rscale>
<asrwt>0</asrwt>
<pdfrwt beam="1">  1        2 0.54401032E-02 0.78710572E+02</pdfrwt>
<pdfrwt beam="2">  1       -1 0.67386407E-02 0.78710572E+02</pdfrwt>
<totfact> 0.14544209E+05</totfact>
</mgrwt>
</event>
<event>
 8    1  0.1226832E-016  0.8167082E+02  0.7818608E-02  0.1324376E+00
         -1   -1    0    0    0  501 -0.00000000000E+00  0.00000000000E+00  0.65208469101E+01  0.65208488579E+01  0.50400000000E-02 0.  1.
          2   -1    0    0  501    0  0.00000000000E+00 -0.00000000000E+00 -0.25572296952E+03  0.25572296953E+03  0.25500000000E-02 0. -1.
         24    2    1    2    0    0  0.00000000000E+00  0.17763568394E-14 -0.24920212261E+03  0.26224381839E+03  0.81670817130E+02 0.  0.
         66    2    3    3    0    0  0.93329709640E+01 -0.13801254411E+02 -0.24430134394E+03  0.24487696013E+03  0.19999943022E+01 0.  0.
        -13    1    3    3    0    0 -0.93329709640E+01  0.13801254411E+02 -0.49007786616E+01  0.17366858261E+02  0.10566000000E+00 0.  1.
         13    1    4    4    0    0  0.59500441856E+01 -0.74501820134E+01 -0.13604295876E+03  0.13637670633E+03  0.10566000000E+00 0. -1.
        -13    1    4    4    0    0  0.52943373970E+00 -0.71114280297E+00 -0.10600137977E+02  0.10637674244E+02  0.10566000000E+00 0.  1.
         14    1    4    4    0    0  0.28534930387E+01 -0.56399295943E+01 -0.97658247207E+02  0.97862579549E+02  0.00000000000E+00 0. -1.
<mgrwt>
<rscale>  0 0.81670817E+02</rscale>
<asrwt>0</asrwt>
<pdfrwt beam="1">  1        2 0.39341988E-01 0.81670817E+02</pdfrwt>
<pdfrwt beam="2">  1       -1 0.10032076E-02 0.81670817E+02</pdfrwt>
<totfact> 0.22789272E+05</totfact>
</mgrwt>
</event>
<event>
 8    1  0.1226832E-016  0.8006218E+02  0.7818608E-02  0.1328875E+00
          2   -1    0    0  501    0  0.00000000000E+00  0.00000000000E+00  0.27195008473E+03  0.27195008474E+03  0.25500000000E-02 0. -1.
         -1   -1    0    0    0  501 -0.00000000000E+00 -0.00000000000E+00 -0.58925808577E+01  0.58925830131E+01  0.50400000000E-02 0.  1.
         24    2    1    2    0    0 -0.35527136788E-14  0.00000000000E+00  0.26605750387E+03  0.27784266775E+03  0.80062179951E+02 0.  0.
         66    2    3    3    0    0 -0.28123375613E+02 -0.28387765387E+02  0.12644187388E+03  0.13262102755E+03  0.20000001483E+01 0.  0.
        -13    1    3    3    0    0  0.28123375613E+02  0.28387765387E+02  0.13961563000E+03  0.14522164020E+03  0.10566000000E+00 0.  1.
         13    1    4    4    0    0 -0.16928540377E+02 -0.17139369320E+02  0.75656063664E+02  0.79398895415E+02  0.10566000000E+00 0. -1.
        -13    1    4    4    0    0 -0.67008808647E+01 -0.75720726850E+01  0.32462164251E+02  0.34000608245E+02  0.10566000000E+00 0.  1.
        -14    1    4    4    0    0 -0.44939543708E+01 -0.36763233813E+01  0.18323645961E+02  0.19221523894E+02  0.00000000000E+00 0.  1.
<mgrwt>
<rscale>  0 0.80062180E+02</rscale>
<asrwt>0</asrwt>
<pdfrwt beam="1">  1        2 0.41838470E-01 0.80062180E+02</pdfrwt>
<pdfrwt beam="2">  1       -1 0.90655118E-03 0.80062180E+02</pdfrwt>
<totfact> 0.24553728E+05</totfact>
</mgrwt>
</event>
<event>
 8    1  0.1226832E-016  0.7944348E+02  0.7818608E-02  0.1330638E+00
          2   -1    0    0  501    0  0.00000000000E+00  0.00000000000E+00  0.16221027867E+03  0.16221027869E+03  0.25500000000E-02 0. -1.
         -1   -1    0    0    0  501 -0.00000000000E+00 -0.00000000000E+00 -0.97269817975E+01  0.97269831032E+01  0.50400000000E-02 0.  1.
         24    2    1    2    0    0  0.35527136788E-14  0.00000000000E+00  0.15248329688E+03  0.17193726180E+03  0.79443477819E+02 0.  0.
         66    2    3    3    0    0  0.23648473453E+02  0.30046813209E+02  0.99372611685E+02  0.10649402436E+03  0.19999976888E+01 0.  0.
        -13    1    3    3    0    0 -0.23648473453E+02 -0.30046813209E+02  0.53110685192E+02  0.65443237438E+02  0.10566000000E+00 0.  1.
         13    1    4    4    0    0  0.10444755638E+02  0.12522861658E+02  0.41955605374E+02  0.45013319926E+02  0.10566000000E+00 0. -1.
        -13    1    4    4    0    0  0.12713305393E+02  0.17199446988E+02  0.55665272327E+02  0.59632900466E+02  0.10566000000E+00 0.  1.
         14    1    4    4    0    0  0.49041242306E+00  0.32450456266E+00  0.17517339833E+01  0.18478039680E+01  0.00000000000E+00 0. -1.
<mgrwt>
<rscale>  0 0.79443478E+02</rscale>
<asrwt>0</asrwt>
<pdfrwt beam="1">  1        2 0.24955427E-01 0.79443478E+02</pdfrwt>
<pdfrwt beam="2">  1       -1 0.14964589E-02 0.79443478E+02</pdfrwt>
<totfact> 0.20930751E+05</totfact>
</mgrwt>
</event>
<event>
 8    1  0.1226832E-016  0.8001034E+02  0.7818608E-02  0.1329022E+00
         -1   -1    0    0    0  501 -0.00000000000E+00  0.00000000000E+00  0.40163830646E+01  0.40163862269E+01  0.50400000000E-02 0.  1.
          2   -1    0    0  501    0  0.00000000000E+00 -0.00000000000E+00 -0.39847116038E+03  0.39847116039E+03  0.25500000000E-02 0. -1.
         24    2    1    2    0    0  0.00000000000E+00 -0.35527136788E-14 -0.39445477732E+03  0.40248754662E+03  0.80010335790E+02 0.  0.
         66    2    3    3    0    0 -0.40878316474E+01  0.22349905502E+02 -0.36283430541E+03  0.36355049420E+03  0.20000009206E+01 0.  0.
        -13    1    3    3    0    0  0.40878316474E+01 -0.22349905502E+02 -0.31620471901E+02  0.38937052416E+02  0.10566000000E+00 0.  1.
         13    1    4    4    0    0 -0.24390623944E+01  0.11443442358E+02 -0.18890443223E+03  0.18926647109E+03  0.10566000000E+00 0. -1.
        -13    1    4    4    0    0 -0.16444280133E+00  0.48440169126E+01 -0.71503889809E+02  0.71668047016E+02  0.10566000000E+00 0.  1.
        -14    1    4    4    0    0 -0.14843264517E+01  0.60624462318E+01 -0.10242598338E+03  0.10261597610E+03  0.00000000000E+00 0.  1.
<mgrwt>
<rscale>  0 0.80010336E+02</rscale>
<asrwt>0</asrwt>
<pdfrwt beam="1">  1        2 0.61303224E-01 0.80010336E+02</pdfrwt>
<pdfrwt beam="2">  1       -1 0.61790565E-03 0.80010336E+02</pdfrwt>
<totfact> 0.28206277E+05</totfact>
</mgrwt>
</event>
<event>
 8    1  0.1226832E-016  0.7315247E+02  0.7818608E-02  0.1349690E+00
         -1   -1    0    0    0  501 -0.00000000000E+00  0.00000000000E+00  0.55090211118E+02  0.55090211348E+02  0.50400000000E-02 0.  1.
          2   -1    0    0  501    0  0.00000000000E+00 -0.00000000000E+00 -0.24284187654E+02  0.24284187788E+02  0.25500000000E-02 0. -1.
         24    2    1    2    0    0  0.88817841970E-15  0.00000000000E+00  0.30806023464E+02  0.79374399136E+02  0.73152471979E+02 0.  0.
         66    2    3    3    0    0  0.70871522605E+01  0.25639664648E+02 -0.11781132770E+02  0.29161879080E+02  0.19999929281E+01 0.  0.
        -13    1    3    3    0    0 -0.70871522605E+01 -0.25639664648E+02  0.42587156233E+02  0.50212520057E+02  0.10566000000E+00 0.  1.
         13    1    4    4    0    0  0.34937540051E+01  0.11342935249E+02 -0.61519312693E+01  0.13368841366E+02  0.10566000000E+00 0. -1.
        -13    1    4    4    0    0  0.52711840597E+00  0.14085740902E+01 -0.59872453673E+00  0.16222114191E+01  0.10566000000E+00 0.  1.
         14    1    4    4    0    0  0.30662798494E+01  0.12888155309E+02 -0.50304769636E+01  0.14170826294E+02  0.00000000000E+00 0. -1.
<mgrwt>
<rscale>  0 0.73152472E+02</rscale>
<asrwt>0</asrwt>
<pdfrwt beam="1">  1        2 0.37360290E-02 0.73152472E+02</pdfrwt>
<pdfrwt beam="2">  1       -1 0.84754170E-02 0.73152472E+02</pdfrwt>
<totfact> 0.16597602E+05</totfact>
</mgrwt>
</event>
<event>
 8    1  0.1226832E-016  0.7799618E+02  0.7818608E-02  0.1334836E+00
          2   -1    0    0  501    0  0.00000000000E+00  0.00000000000E+00  0.35594076787E+02  0.35594076878E+02  0.25500000000E-02 0. -1.
         -1   -1    0    0    0  501 -0.00000000000E+00 -0.00000000000E+00 -0.42727638721E+02  0.42727639018E+02  0.50400000000E-02 0.  1.
         24    2    1    2    0    0 -0.35527136788E-14 -0.17763568394E-14 -0.71335619340E+01  0.78321715897E+02  0.77996176029E+02 0.  0.
         66    2    3    3    0    0  0.27075424784E+02  0.13475966416E+02  0.21113252460E+02  0.36938458587E+02  0.19999988162E+01 0.  0.
        -13    1    3    3    0    0 -0.27075424784E+02 -0.13475966416E+02 -0.28246814394E+02  0.41383257309E+02  0.10566000000E+00 0.  1.
         13    1    4    4    0    0  0.54285352769E+01  0.21270217994E+01  0.40347001371E+01  0.70910638285E+01  0.10566000000E+00 0. -1.
        -13    1    4    4    0    0  0.20974345938E+02  0.10743947303E+02  0.16302524850E+02  0.28655524279E+02  0.10566000000E+00 0.  1.
        -14    1    4    4    0    0  0.67254356931E+00  0.60499731286E+00  0.77602747339E+00  0.11918704798E+01  0.00000000000E+00 0.  1.
<mgrwt>
<rscale>  0 0.77996176E+02</rscale>
<asrwt>0</asrwt>
<pdfrwt beam="1">  1        2 0.54760118E-02 0.77996176E+02</pdfrwt>
<pdfrwt beam="2">  1       -1 0.65734829E-02 0.77996176E+02</pdfrwt>
<totfact> 0.14935775E+05</totfact>
</mgrwt>
</event>
<event>
 8    1  0.1226832E-016  0.7922934E+02  0.7818608E-02  0.1331253E+00
          2   -1    0    0  501    0  0.00000000000E+00  0.00000000000E+00  0.74816299760E+02  0.74816299803E+02  0.25500000000E-02 0. -1.
         -1   -1    0    0    0  501 -0.00000000000E+00 -0.00000000000E+00 -0.20975668365E+02  0.20975668971E+02  0.50400000000E-02 0.  1.
         24    2    1    2    0    0  0.00000000000E+00  0.00000000000E+00  0.53840631394E+02  0.95791968774E+02  0.79229336061E+02 0.  0.
         66    2    3    3    0    0 -0.36496883076E+02  0.15320849893E+02  0.27847070232E+02  0.48437694398E+02  0.20000006044E+01 0.  0.
        -13    1    3    3    0    0  0.36496883076E+02 -0.15320849893E+02  0.25993561162E+02  0.47354274376E+02  0.10566000000E+00 0.  1.
         13    1    4    4    0    0 -0.24486259335E+02  0.10126976725E+02  0.18699602606E+02  0.32431756897E+02  0.10566000000E+00 0. -1.
        -13    1    4    4    0    0 -0.80952875229E+01  0.40625138762E+01  0.63931463082E+01  0.11086982584E+02  0.10566000000E+00 0.  1.
         14    1    4    4    0    0 -0.39153362179E+01  0.11313592922E+01  0.27543213180E+01  0.49189549165E+01  0.00000000000E+00 0. -1.
<mgrwt>
<rscale>  0 0.79229336E+02</rscale>
<asrwt>0</asrwt>
<pdfrwt beam="1">  1        2 0.11510200E-01 0.79229336E+02</pdfrwt>
<pdfrwt beam="2">  1       -1 0.32270259E-02 0.79229336E+02</pdfrwt>
<totfact> 0.16848987E+05</totfact>
</mgrwt>
</event>
<event>
 8    1  0.1226832E-016  0.7971083E+02  0.7818608E-02  0.1329874E+00
         -1   -1    0    0    0  501 -0.00000000000E+00  0.00000000000E+00  0.59873771690E+00  0.59875892915E+00  0.50400000000E-02 0.  1.
          2   -1    0    0  501    0  0.00000000000E+00 -0.00000000000E+00 -0.26529577707E+04  0.26529577707E+04  0.25500000000E-02 0. -1.
         24    2    1    2    0    0 -0.22204460493E-15 -0.17763568394E-14 -0.26523590330E+04  0.26535565297E+04  0.79710827979E+02 0.  0.
         66    2    3    3    0    0  0.15620617302E+01  0.11086563242E+02 -0.25994909155E+04  0.25995157956E+04  0.20000075672E+01 0.  0.
        -13    1    3    3    0    0 -0.15620617302E+01 -0.11086563242E+02 -0.52868117520E+02  0.54040734039E+02  0.10566000000E+00 0.  1.
         13    1    4    4    0    0  0.60971269303E+00  0.54384735824E+01 -0.13508381189E+04  0.13508492083E+04  0.10566000000E+00 0. -1.
        -13    1    4    4    0    0 -0.11762662043E+00  0.11692711258E+01 -0.35053597597E+03  0.35053796177E+03  0.10566000000E+00 0.  1.
         14    1    4    4    0    0  0.10699756575E+01  0.44788185342E+01 -0.89811682058E+03  0.89812862558E+03  0.00000000000E+00 0. -1.
<mgrwt>
<rscale>  0 0.79710828E+02</rscale>
<asrwt>0</asrwt>
<pdfrwt beam="1">  1        2 0.40813794E+00 0.79710828E+02</pdfrwt>
<pdfrwt beam="2">  1       -1 0.92117251E-04 0.79710828E+02</pdfrwt>
<totfact> 0.19087994E+05</totfact>
</mgrwt>
</event>
<event>
 8    1  0.1226832E-016  0.7936960E+02  0.7818608E-02  0.1330850E+00
         -1   -1    0    0    0  501 -0.00000000000E+00  0.00000000000E+00  0.39872375747E+02  0.39872376065E+02  0.50400000000E-02 0.  1.
          2   -1    0    0  501    0  0.00000000000E+00 -0.00000000000E+00 -0.39498105392E+02  0.39498105474E+02  0.25500000000E-02 0. -1.
         24    2    1    2    0    0  0.00000000000E+00  0.44408920985E-15  0.37427035450E+00  0.79370481540E+02  0.79369599102E+02 0.  0.
         66    2    3    3    0    0 -0.35861426606E+02 -0.37712777116E+01 -0.16323953737E+02  0.39632510962E+02  0.20000014478E+01 0.  0.
        -13    1    3    3    0    0  0.35861426606E+02  0.37712777116E+01  0.16698224091E+02  0.39737970577E+02  0.10566000000E+00 0.  1.
         13    1    4    4    0    0 -0.45128165709E+01 -0.37374994068E+00 -0.18202168718E+01  0.48815526134E+01  0.10566000000E+00 0. -1.
        -13    1    4    4    0    0 -0.73775307533E+01 -0.75571670475E+00 -0.26227935440E+01  0.78669738631E+01  0.10566000000E+00 0.  1.
         14    1    4    4    0    0 -0.23971079282E+02 -0.26418110662E+01 -0.11880943321E+02  0.26883984486E+02  0.00000000000E+00 0. -1.
<mgrwt>
<rscale>  0 0.79369599E+02</rscale>
<asrwt>0</asrwt>
<pdfrwt beam="1">  1        2 0.60766316E-02 0.79369599E+02</pdfrwt>
<pdfrwt beam="2">  1       -1 0.61342117E-02 0.79369599E+02</pdfrwt>
<totfact> 0.14532728E+05</totfact>
</mgrwt>
</event>
<event>
 8    1  0.1226832E-016  0.8151088E+02  0.7818608E-02  0.1324818E+00
         -1   -1    0    0    0  501 -0.00000000000E+00  0.00000000000E+00  0.13167407051E+01  0.13167503507E+01  0.50400000000E-02 0.  1.
          2   -1    0    0  501    0  0.00000000000E+00 -0.00000000000E+00 -0.12614479031E+04  0.12614479031E+04  0.25500000000E-02 0. -1.
         24    2    1    2    0    0  0.00000000000E+00  0.17763568394E-14 -0.12601311624E+04  0.12627646535E+04  0.81510880087E+02 0.  0.
         66    2    3    3    0    0 -0.24830000220E+02  0.11674309526E+02 -0.10967967368E+04  0.10971416956E+04  0.19999985309E+01 0.  0.
        -13    1    3    3    0    0  0.24830000220E+02 -0.11674309526E+02 -0.16333442561E+03  0.16562295785E+03  0.10566000000E+00 0.  1.
         13    1    4    4    0    0 -0.10964763260E+02  0.55327536676E+01 -0.47756138120E+03  0.47771929140E+03  0.10566000000E+00 0. -1.
        -13    1    4    4    0    0 -0.31425934130E+01  0.93775769713E+00 -0.12063754301E+03  0.12068215788E+03  0.10566000000E+00 0.  1.
        -14    1    4    4    0    0 -0.10722643547E+02  0.52037981610E+01 -0.49859781259E+03  0.49874024634E+03  0.00000000000E+00 0.  1.
<mgrwt>
<rscale>  0 0.81510880E+02</rscale>
<asrwt>0</asrwt>
<pdfrwt beam="1">  1        2 0.19406794E+00 0.81510880E+02</pdfrwt>
<pdfrwt beam="2">  1       -1 0.20257724E-03 0.81510880E+02</pdfrwt>
<totfact> 0.33150220E+05</totfact>
</mgrwt>
</event>
<event>
 8    1  0.1226832E-016  0.8036698E+02  0.7818608E-02  0.1328013E+00
          2   -1    0    0  501    0  0.00000000000E+00  0.00000000000E+00  0.18038405756E+02  0.18038405937E+02  0.25500000000E-02 0. -1.
         -1   -1    0    0    0  501 -0.00000000000E+00 -0.00000000000E+00 -0.89515265231E+02  0.89515265373E+02  0.50400000000E-02 0.  1.
         24    2    1    2    0    0  0.00000000000E+00  0.00000000000E+00 -0.71476859475E+02  0.10755367131E+03  0.80366975629E+02 0.  0.
         66    2    3    3    0    0  0.13394160619E+02 -0.11263871633E+02  0.12611113694E+02  0.21663760735E+02  0.19999994295E+01 0.  0.
        -13    1    3    3    0    0 -0.13394160619E+02  0.11263871633E+02 -0.84087973168E+02  0.85889910574E+02  0.10566000000E+00 0.  1.
         13    1    4    4    0    0  0.57028928777E+01 -0.42550456373E+01  0.46683611111E+01  0.85107673008E+01  0.10566000000E+00 0. -1.
        -13    1    4    4    0    0  0.52305002597E+01 -0.43974892128E+01  0.45168337698E+01  0.81920080373E+01  0.10566000000E+00 0.  1.
        -14    1    4    4    0    0  0.24607674820E+01 -0.26113367829E+01  0.34259188130E+01  0.49609853968E+01  0.00000000000E+00 0.  1.
<mgrwt>
<rscale>  0 0.80366976E+02</rscale>
<asrwt>0</asrwt>
<pdfrwt beam="1">  1        2 0.27751394E-02 0.80366976E+02</pdfrwt>
<pdfrwt beam="2">  1       -1 0.13771579E-01 0.80366976E+02</pdfrwt>
<totfact> 0.11996131E+05</totfact>
</mgrwt>
</event>
<event>
 8    1  0.1226832E-016  0.8047972E+02  0.7818608E-02  0.1327696E+00
          2   -1    0    0  501    0  0.00000000000E+00  0.00000000000E+00  0.33304698682E+03  0.33304698683E+03  0.25500000000E-02 0. -1.
         -1   -1    0    0    0  501 -0.00000000000E+00 -0.00000000000E+00 -0.48619139490E+01  0.48619165613E+01  0.50400000000E-02 0.  1.
         24    2    1    2    0    0  0.00000000000E+00  0.35527136788E-14  0.32818507287E+03  0.33790890339E+03  0.80479717542E+02 0.  0.
         66    2    3    3    0    0  0.26577714972E+02  0.22337646486E+02  0.24940680047E+03  0.25181957333E+03  0.20000020537E+01 0.  0.
        -13    1    3    3    0    0 -0.26577714972E+02 -0.22337646486E+02  0.78778272400E+02  0.86089330059E+02  0.10566000000E+00 0.  1.
         13    1    4    4    0    0  0.15519265738E+02  0.11848882065E+02  0.13979657187E+03  0.14115359112E+03  0.10566000000E+00 0.  1.
        -13    1    4    4    0    0  0.88226494782E+01  0.80914189925E+01  0.85968520933E+02  0.86798087309E+02  0.10566000000E+00 0. -1.
        -14    1    4    4    0    0  0.22357997563E+01  0.23973454278E+01  0.23641707664E+02  0.23867894899E+02  0.00000000000E+00 0.  1.
<mgrwt>
<rscale>  0 0.80479718E+02</rscale>
<asrwt>0</asrwt>
<pdfrwt beam="1">  1        2 0.51237999E-01 0.80479718E+02</pdfrwt>
<pdfrwt beam="2">  1       -1 0.74798695E-03 0.80479718E+02</pdfrwt>
<totfact> 0.26063171E+05</totfact>
</mgrwt>
</event>
<event>
 8    1  0.1226832E-016  0.8052753E+02  0.7818608E-02  0.1327561E+00
          2   -1    0    0  501    0  0.00000000000E+00  0.00000000000E+00  0.82525660149E+03  0.82525660150E+03  0.25500000000E-02 0. -1.
         -1   -1    0    0    0  501 -0.00000000000E+00 -0.00000000000E+00 -0.19644414725E+01  0.19644479378E+01  0.50400000000E-02 0.  1.
         24    2    1    2    0    0  0.00000000000E+00 -0.35527136788E-14  0.82329216002E+03  0.82722104943E+03  0.80527534897E+02 0.  0.
         66    2    3    3    0    0  0.18371291529E+01 -0.29093845963E+02  0.69682790755E+03  0.69744029110E+03  0.19999988759E+01 0.  0.
        -13    1    3    3    0    0 -0.18371291529E+01  0.29093845963E+02  0.12646425247E+03  0.12978075834E+03  0.10566000000E+00 0.  1.
         13    1    4    4    0    0  0.10556594652E+00 -0.12220611906E+02  0.29728859097E+03  0.29753969817E+03  0.10566000000E+00 0. -1.
        -13    1    4    4    0    0  0.26733199473E+00 -0.10488730047E+01  0.21755135191E+02  0.21782301811E+02  0.10566000000E+00 0.  1.
         14    1    4    4    0    0  0.14642312117E+01 -0.15824361053E+02  0.37778418138E+03  0.37811829112E+03  0.00000000000E+00 0. -1.
<mgrwt>
<rscale>  0 0.80527535E+02</rscale>
<asrwt>0</asrwt>
<pdfrwt beam="1">  1        2 0.12696283E+00 0.80527535E+02</pdfrwt>
<pdfrwt beam="2">  1       -1 0.30222162E-03 0.80527535E+02</pdfrwt>
<totfact> 0.33957395E+05</totfact>
</mgrwt>
</event>
<event>
 8    1  0.1226832E-016  0.8129330E+02  0.7818608E-02  0.1325421E+00
          2   -1    0    0  501    0  0.00000000000E+00  0.00000000000E+00  0.12064705968E+03  0.12064705971E+03  0.25500000000E-02 0. -1.
         -1   -1    0    0    0  501 -0.00000000000E+00 -0.00000000000E+00 -0.13694078280E+02  0.13694079207E+02  0.50400000000E-02 0.  1.
         24    2    1    2    0    0 -0.35527136788E-14  0.17763568394E-14  0.10695298140E+03  0.13434113892E+03  0.81293304611E+02 0.  0.
         66    2    3    3    0    0  0.30331834090E+02  0.96617104571E+01  0.95209894032E+02  0.10041062060E+03  0.19999999106E+01 0.  0.
        -13    1    3    3    0    0 -0.30331834090E+02 -0.96617104571E+01  0.11743087373E+02  0.33930518318E+02  0.10566000000E+00 0.  1.
         13    1    4    4    0    0  0.26069843380E+01  0.11617366327E+01  0.93337552893E+01  0.97609503215E+01  0.10566000000E+00 0. -1.
        -13    1    4    4    0    0  0.66770669115E+01  0.15927771375E+01  0.21398542722E+02  0.22472849312E+02  0.10566000000E+00 0.  1.
        -14    1    4    4    0    0  0.21047782841E+02  0.69071966870E+01  0.64477596020E+02  0.68176820967E+02  0.00000000000E+00 0.  1.
<mgrwt>
<rscale>  0 0.81293305E+02</rscale>
<asrwt>0</asrwt>
<pdfrwt beam="1">  1        2 0.18561087E-01 0.81293305E+02</pdfrwt>
<pdfrwt beam="2">  1       -1 0.21067813E-02 0.81293305E+02</pdfrwt>
<totfact> 0.17932448E+05</totfact>
</mgrwt>
</event>
<event>
 8    1  0.1226832E-016  0.7968269E+02  0.7818608E-02  0.1329954E+00
         -1   -1    0    0    0  501 -0.00000000000E+00  0.00000000000E+00  0.64297929487E+02  0.64297929684E+02  0.50400000000E-02 0.  1.
          2   -1    0    0  501    0  0.00000000000E+00 -0.00000000000E+00 -0.24687154153E+02  0.24687154285E+02  0.25500000000E-02 0. -1.
         24    2    1    2    0    0  0.17763568394E-14  0.00000000000E+00  0.39610775334E+02  0.88985083969E+02  0.79682693519E+02 0.  0.
         66    2    3    3    0    0  0.10454876223E+02 -0.13384866736E+01 -0.23060328308E+02  0.25433731669E+02  0.19999953727E+01 0.  0.
        -13    1    3    3    0    0 -0.10454876223E+02  0.13384866736E+01  0.62671103642E+02  0.63551352300E+02  0.10566000000E+00 0.  1.
         13    1    4    4    0    0  0.62172538505E+01 -0.10233908757E+01 -0.13641968793E+02  0.15027177077E+02  0.10566000000E+00 0. -1.
        -13    1    4    4    0    0  0.12505981815E+01 -0.63204670757E+00 -0.25883093258E+01  0.29451635020E+01  0.10566000000E+00 0.  1.
         14    1    4    4    0    0  0.29870241906E+01  0.31695090971E+00 -0.68300501896E+01  0.74613910892E+01  0.00000000000E+00 0. -1.
<mgrwt>
<rscale>  0 0.79682694E+02</rscale>
<asrwt>0</asrwt>
<pdfrwt beam="1">  1        2 0.37980237E-02 0.79682694E+02</pdfrwt>
<pdfrwt beam="2">  1       -1 0.98919892E-02 0.79682694E+02</pdfrwt>
<totfact> 0.13094748E+05</totfact>
</mgrwt>
</event>
<event>
 8    1  0.1226832E-016  0.7701946E+02  0.7818608E-02  0.1337729E+00
         -1   -1    0    0    0  501 -0.00000000000E+00  0.00000000000E+00  0.17192403758E+03  0.17192403765E+03  0.50400000000E-02 0.  1.
          2   -1    0    0  501    0  0.00000000000E+00 -0.00000000000E+00 -0.86258984373E+01  0.86258988142E+01  0.25500000000E-02 0. -1.
         24    2    1    2    0    0  0.00000000000E+00  0.35527136788E-14  0.16329813914E+03  0.18054993646E+03  0.77019460600E+02 0.  0.
         66    2    3    3    0    0  0.24081148823E+02  0.28673181881E+02  0.10253204477E+03  0.10917359251E+03  0.20000020707E+01 0.  0.
        -13    1    3    3    0    0 -0.24081148823E+02 -0.28673181881E+02  0.60766094365E+02  0.71376343954E+02  0.10566000000E+00 0.  1.
         13    1    4    4    0    0  0.10385592290E+02  0.12131244870E+02  0.42134767840E+02  0.45059709877E+02  0.10566000000E+00 0. -1.
        -13    1    4    4    0    0  0.13374116310E+02  0.16383477048E+02  0.59219775218E+02  0.62883052154E+02  0.10566000000E+00 0.  1.
        -14    1    4    4    0    0  0.32144022324E+00  0.15845996367E+00  0.11775017163E+01  0.12308304794E+01  0.00000000000E+00 0.  1.
<mgrwt>
<rscale>  0 0.77019461E+02</rscale>
<asrwt>0</asrwt>
<pdfrwt beam="1">  1        2 0.13270613E-02 0.77019461E+02</pdfrwt>
<pdfrwt beam="2">  1       -1 0.26449853E-01 0.77019461E+02</pdfrwt>
<totfact> 0.11456056E+05</totfact>
</mgrwt>
</event>
<event>
 8    1  0.1226832E-016  0.8012341E+02  0.7818608E-02  0.1328702E+00
          2   -1    0    0  501    0  0.00000000000E+00  0.00000000000E+00  0.14353194101E+02  0.14353194327E+02  0.25500000000E-02 0. -1.
         -1   -1    0    0    0  501 -0.00000000000E+00 -0.00000000000E+00 -0.11181762853E+03  0.11181762865E+03  0.50400000000E-02 0.  1.
         24    2    1    2    0    0  0.35527136788E-14  0.00000000000E+00 -0.97464434432E+02  0.12617082297E+03  0.80123408506E+02 0.  0.
         66    2    3    3    0    0  0.25186189851E+02  0.28084665384E+02 -0.27644835945E+02  0.46811638969E+02  0.19999999074E+01 0.  0.
        -13    1    3    3    0    0 -0.25186189851E+02 -0.28084665384E+02 -0.69819598488E+02  0.79359184005E+02  0.10566000000E+00 0.  1.
         13    1    4    4    0    0  0.65064198991E+01  0.67756977520E+01 -0.64488117130E+01  0.11394819721E+02  0.10566000000E+00 0. -1.
        -13    1    4    4    0    0  0.11283182396E+02  0.12042194494E+02 -0.12892209762E+02  0.20941463411E+02  0.10566000000E+00 0.  1.
        -14    1    4    4    0    0  0.73965875554E+01  0.92667731377E+01 -0.83038144695E+01  0.14475355836E+02  0.00000000000E+00 0.  1.
<mgrwt>
<rscale>  0 0.80123409E+02</rscale>
<asrwt>0</asrwt>
<pdfrwt beam="1">  1        2 0.22081838E-02 0.80123409E+02</pdfrwt>
<pdfrwt beam="2">  1       -1 0.17202712E-01 0.80123409E+02</pdfrwt>
<totfact> 0.11522885E+05</totfact>
</mgrwt>
</event>
<event>
 8    1  0.1226832E-016  0.7937657E+02  0.7818608E-02  0.1330830E+00
         -1   -1    0    0    0  501 -0.00000000000E+00  0.00000000000E+00  0.36840964510E+02  0.36840964855E+02  0.50400000000E-02 0.  1.
          2   -1    0    0  501    0  0.00000000000E+00 -0.00000000000E+00 -0.42755666138E+02  0.42755666214E+02  0.25500000000E-02 0. -1.
         24    2    1    2    0    0  0.00000000000E+00  0.00000000000E+00 -0.59147016277E+01  0.79596631069E+02  0.79376570739E+02 0.  0.
         66    2    3    3    0    0 -0.70858163260E+00 -0.21828579909E+02 -0.36159409983E+02  0.42290565393E+02  0.20000005512E+01 0.  0.
        -13    1    3    3    0    0  0.70858163260E+00  0.21828579909E+02  0.30244708355E+02  0.37306065676E+02  0.10566000000E+00 0.  1.
         13    1    4    4    0    0  0.50079604663E+00 -0.63024184936E+01 -0.96491224036E+01  0.11536377367E+02  0.10566000000E+00 0. -1.
        -13    1    4    4    0    0 -0.10535733344E+01 -0.95541462156E+01 -0.16077416422E+02  0.18731956906E+02  0.10566000000E+00 0.  1.
         14    1    4    4    0    0 -0.15580434484E+00 -0.59720151994E+01 -0.10432871157E+02  0.12022231121E+02  0.00000000000E+00 0. -1.
<mgrwt>
<rscale>  0 0.79376571E+02</rscale>
<asrwt>0</asrwt>
<pdfrwt beam="1">  1        2 0.65777948E-02 0.79376571E+02</pdfrwt>
<pdfrwt beam="2">  1       -1 0.56678407E-02 0.79376571E+02</pdfrwt>
<totfact> 0.14768059E+05</totfact>
</mgrwt>
</event>
<event>
 8    1  0.1226832E-016  0.8122496E+02  0.7818608E-02  0.1325611E+00
         -1   -1    0    0    0  501 -0.00000000000E+00  0.00000000000E+00  0.80408109823E+01  0.80408125619E+01  0.50400000000E-02 0.  1.
          2   -1    0    0  501    0  0.00000000000E+00 -0.00000000000E+00 -0.20512527135E+03  0.20512527137E+03  0.25500000000E-02 0. -1.
         24    2    1    2    0    0  0.00000000000E+00 -0.44408920985E-15 -0.19708446037E+03  0.21316608393E+03  0.81224964258E+02 0.  0.
         66    2    3    3    0    0 -0.37792592285E+02 -0.27552841175E+01 -0.13676817278E+03  0.14193450853E+03  0.20000004770E+01 0.  0.
        -13    1    3    3    0    0  0.37792592285E+02  0.27552841175E+01 -0.60316287583E+02  0.71231575400E+02  0.10566000000E+00 0.  1.
         13    1    4    4    0    0 -0.30855764486E+02 -0.23997320041E+01 -0.11215308598E+03  0.11634501612E+03  0.10566000000E+00 0. -1.
        -13    1    4    4    0    0 -0.64737639392E+01 -0.53587993601E+00 -0.22947222716E+02  0.23849171501E+02  0.10566000000E+00 0.  1.
        -14    1    4    4    0    0 -0.46306385907E+00  0.18032782259E+00 -0.16678640842E+01  0.17403209085E+01  0.00000000000E+00 0.  1.
<mgrwt>
<rscale>  0 0.81224964E+02</rscale>
<asrwt>0</asrwt>
<pdfrwt beam="1">  1        2 0.31557730E-01 0.81224964E+02</pdfrwt>
<pdfrwt beam="2">  1       -1 0.12370481E-02 0.81224964E+02</pdfrwt>
<totfact> 0.21378751E+05</totfact>
</mgrwt>
</event>
<event>
 8    1  0.1226832E-016  0.7536400E+02  0.7818608E-02  0.1342748E+00
          2   -1    0    0  501    0  0.00000000000E+00  0.00000000000E+00  0.15485673794E+02  0.15485674004E+02  0.25500000000E-02 0. -1.
         -1   -1    0    0    0  501 -0.00000000000E+00 -0.00000000000E+00 -0.91693346044E+02  0.91693346182E+02  0.50400000000E-02 0.  1.
         24    2    1    2    0    0  0.00000000000E+00  0.00000000000E+00 -0.76207672250E+02  0.10717902019E+03  0.75364003732E+02 0.  0.
         66    2    3    3    0    0 -0.36570389207E+01  0.34428464975E+02 -0.17073376798E+02  0.38654796755E+02  0.19999956766E+01 0.  0.
        -13    1    3    3    0    0  0.36570389207E+01 -0.34428464975E+02 -0.59134295452E+02  0.68524223431E+02  0.10566000000E+00 0.  1.
         13    1    4    4    0    0 -0.16915211640E+00  0.56714816069E+01 -0.24120079600E+01  0.61663005514E+01  0.10566000000E+00 0. -1.
        -13    1    4    4    0    0 -0.40075375299E+00  0.17964997091E+01 -0.11648604271E+01  0.21808435582E+01  0.10566000000E+00 0.  1.
         14    1    4    4    0    0 -0.30871330513E+01  0.26960483659E+02 -0.13496508411E+02  0.30307652646E+02  0.00000000000E+00 0. -1.
<mgrwt>
<rscale>  0 0.75364004E+02</rscale>
<asrwt>0</asrwt>
<pdfrwt beam="1">  1        2 0.23824114E-02 0.75364004E+02</pdfrwt>
<pdfrwt beam="2">  1       -1 0.14106668E-01 0.75364004E+02</pdfrwt>
<totfact> 0.14002041E+05</totfact>
</mgrwt>
</event>
<event>
 8    1  0.1226832E-016  0.8130964E+02  0.7818608E-02  0.1325375E+00
         -1   -1    0    0    0  501 -0.00000000000E+00  0.00000000000E+00  0.18114307804E+01  0.18114377919E+01  0.50400000000E-02 0.  1.
          2   -1    0    0  501    0  0.00000000000E+00 -0.00000000000E+00 -0.91243398917E+03  0.91243398918E+03  0.25500000000E-02 0. -1.
         24    2    1    2    0    0 -0.35527136788E-14  0.35527136788E-14 -0.91062255839E+03  0.91424542697E+03  0.81309635833E+02 0.  0.
         66    2    3    3    0    0 -0.17850549363E+02  0.25238622926E+02 -0.75204804229E+03  0.75268578311E+03  0.19999991743E+01 0.  0.
        -13    1    3    3    0    0  0.17850549363E+02 -0.25238622926E+02 -0.15857451611E+03  0.16155964385E+03  0.10566000000E+00 0.  1.
         13    1    4    4    0    0 -0.77748631871E+01  0.96083849316E+01 -0.29710286459E+03  0.29735987098E+03  0.10566000000E+00 0. -1.
        -13    1    4    4    0    0 -0.16053063994E+01  0.27005658908E+01 -0.70100093737E+02  0.70170537768E+02  0.10566000000E+00 0.  1.
         14    1    4    4    0    0 -0.84703797768E+01  0.12929672103E+02 -0.38484508396E+03  0.38515537436E+03  0.00000000000E+00 0. -1.
<mgrwt>
<rscale>  0 0.81309636E+02</rscale>
<asrwt>0</asrwt>
<pdfrwt beam="1">  1        2 0.14037409E+00 0.81309636E+02</pdfrwt>
<pdfrwt beam="2">  1       -1 0.27868293E-03 0.81309636E+02</pdfrwt>
<totfact> 0.33551322E+05</totfact>
</mgrwt>
</event>
<event>
 8    1  0.1226832E-016  0.7918688E+02  0.7818608E-02  0.1331375E+00
         -1   -1    0    0    0  501 -0.00000000000E+00  0.00000000000E+00  0.78915335821E+02  0.78915335982E+02  0.50400000000E-02 0.  1.
          2   -1    0    0  501    0  0.00000000000E+00 -0.00000000000E+00 -0.19864838327E+02  0.19864838490E+02  0.25500000000E-02 0. -1.
         24    2    1    2    0    0  0.00000000000E+00  0.00000000000E+00  0.59050497495E+02  0.98780174472E+02  0.79186877792E+02 0.  0.
         66    2    3    3    0    0 -0.26791317758E+02 -0.42331743391E+01 -0.63928334557E+01  0.27938553923E+02  0.20000008741E+01 0.  0.
        -13    1    3    3    0    0  0.26791317758E+02  0.42331743391E+01  0.65443330950E+02  0.70841620550E+02  0.10566000000E+00 0.  1.
         13    1    4    4    0    0 -0.30563414468E+01 -0.14379753686E+00 -0.11106806418E+01  0.32567892617E+01  0.10566000000E+00 0. -1.
        -13    1    4    4    0    0 -0.76483902804E+01 -0.17491829942E+01 -0.14329256429E+01  0.79763371896E+01  0.10566000000E+00 0.  1.
        -14    1    4    4    0    0 -0.16086586031E+02 -0.23401938080E+01 -0.38492271710E+01  0.16705427471E+02  0.00000000000E+00 0.  1.
<mgrwt>
<rscale>  0 0.79186878E+02</rscale>
<asrwt>0</asrwt>
<pdfrwt beam="1">  1        2 0.30561290E-02 0.79186878E+02</pdfrwt>
<pdfrwt beam="2">  1       -1 0.12140821E-01 0.79186878E+02</pdfrwt>
<totfact> 0.12767679E+05</totfact>
</mgrwt>
</event>
<event>
 8    1  0.1226832E-016  0.8044732E+02  0.7818608E-02  0.1327787E+00
          2   -1    0    0  501    0  0.00000000000E+00  0.00000000000E+00  0.67964290542E+03  0.67964290542E+03  0.25500000000E-02 0. -1.
         -1   -1    0    0    0  501 -0.00000000000E+00 -0.00000000000E+00 -0.23805753445E+01  0.23805806797E+01  0.50400000000E-02 0.  1.
         24    2    1    2    0    0  0.00000000000E+00 -0.35527136788E-14  0.67726233007E+03  0.68202348610E+03  0.80447323503E+02 0.  0.
         66    2    3    3    0    0  0.16083215668E+02  0.27295208831E+02  0.54861234752E+03  0.54952998654E+03  0.20000009053E+01 0.  0.
        -13    1    3    3    0    0 -0.16083215668E+02 -0.27295208831E+02  0.12864998255E+03  0.13249349956E+03  0.10566000000E+00 0.  1.
         13    1    4    4    0    0  0.34286166775E+01  0.53471187876E+01  0.10239568772E+03  0.10259256853E+03  0.10566000000E+00 0. -1.
        -13    1    4    4    0    0  0.11352660995E+02  0.18829509866E+02  0.38357139975E+03  0.38420107135E+03  0.10566000000E+00 0.  1.
        -14    1    4    4    0    0  0.13019379955E+01  0.31185801767E+01  0.62645260053E+02  0.62736346657E+02  0.00000000000E+00 0.  1.
<mgrwt>
<rscale>  0 0.80447324E+02</rscale>
<asrwt>0</asrwt>
<pdfrwt beam="1">  1        2 0.10456048E+00 0.80447324E+02</pdfrwt>
<pdfrwt beam="2">  1       -1 0.36624265E-03 0.80447324E+02</pdfrwt>
<totfact> 0.32743023E+05</totfact>
</mgrwt>
</event>
<event>
 8    1  0.1226832E-016  0.8164444E+02  0.7818608E-02  0.1324448E+00
         -1   -1    0    0    0  501 -0.00000000000E+00  0.00000000000E+00  0.27926111226E+01  0.27926156706E+01  0.50400000000E-02 0.  1.
          2   -1    0    0  501    0  0.00000000000E+00 -0.00000000000E+00 -0.59673620351E+03  0.59673620351E+03  0.25500000000E-02 0. -1.
         24    2    1    2    0    0  0.35527136788E-14 -0.35527136788E-14 -0.59394359239E+03  0.59952881918E+03  0.81644437021E+02 0.  0.
         66    2    3    3    0    0 -0.25333507878E+02  0.15358394447E+02 -0.50312263695E+03  0.50399807014E+03  0.19999997418E+01 0.  0.
        -13    1    3    3    0    0  0.25333507878E+02 -0.15358394447E+02 -0.90820955441E+02  0.95530749042E+02  0.10566000000E+00 0.  1.
         13    1    4    4    0    0 -0.79145822428E+01  0.47208888102E+01 -0.14594028656E+03  0.14623100153E+03  0.10566000000E+00 0.  1.
        -13    1    4    4    0    0 -0.16300557073E+01  0.70704334141E+00 -0.35063117937E+02  0.35108266767E+02  0.10566000000E+00 0. -1.
         14    1    4    4    0    0 -0.15788869928E+02  0.99304622951E+01 -0.32211923245E+03  0.32265880184E+03  0.00000000000E+00 0. -1.
<mgrwt>
<rscale>  0 0.81644437E+02</rscale>
<asrwt>0</asrwt>
<pdfrwt beam="1">  1        2 0.91805468E-01 0.81644437E+02</pdfrwt>
<pdfrwt beam="2">  1       -1 0.42963331E-03 0.81644437E+02</pdfrwt>
<totfact> 0.30456795E+05</totfact>
</mgrwt>
</event>
<event>
 8    1  0.1226832E-016  0.8395873E+02  0.7818608E-02  0.1318178E+00
         -1   -1    0    0    0  501 -0.00000000000E+00  0.00000000000E+00  0.62074272330E+02  0.62074272535E+02  0.50400000000E-02 0.  1.
          2   -1    0    0  501    0  0.00000000000E+00 -0.00000000000E+00 -0.28389654467E+02  0.28389654581E+02  0.25500000000E-02 0. -1.
         24    2    1    2    0    0  0.35527136788E-14  0.00000000000E+00  0.33684617863E+02  0.90463927116E+02  0.83958731700E+02 0.  0.
         66    2    3    3    0    0 -0.26511725500E+02 -0.75093825085E+01 -0.17238124903E+02  0.32564019434E+02  0.19999992247E+01 0.  0.
        -13    1    3    3    0    0  0.26511725500E+02  0.75093825085E+01  0.50922742767E+02  0.57899907682E+02  0.10566000000E+00 0.  1.
         13    1    4    4    0    0 -0.66380776522E+00 -0.22583325605E+00 -0.80900480723E+00  0.10757761024E+01  0.10566000000E+00 0.  1.
        -13    1    4    4    0    0 -0.83787872176E+01 -0.26538092500E+01 -0.54768534637E+01  0.10356344272E+02  0.10566000000E+00 0. -1.
         14    1    4    4    0    0 -0.17469130517E+02 -0.46297400024E+01 -0.10952266632E+02  0.21131899060E+02  0.00000000000E+00 0. -1.
<mgrwt>
<rscale>  0 0.83958732E+02</rscale>
<asrwt>0</asrwt>
<pdfrwt beam="1">  1        2 0.43676392E-02 0.83958732E+02</pdfrwt>
<pdfrwt beam="2">  1       -1 0.95498880E-02 0.83958732E+02</pdfrwt>
<totfact> 0.11613033E+05</totfact>
</mgrwt>
</event>
<event>
 8    1  0.1226832E-016  0.8086294E+02  0.7818608E-02  0.1326620E+00
          2   -1    0    0  501    0  0.00000000000E+00  0.00000000000E+00  0.17404487251E+04  0.17404487251E+04  0.25500000000E-02 0. -1.
         -1   -1    0    0    0  501 -0.00000000000E+00 -0.00000000000E+00 -0.93923589995E+00  0.93924942233E+00  0.50400000000E-02 0.  1.
         24    2    1    2    0    0 -0.17763568394E-14 -0.35527136788E-14  0.17395094892E+04  0.17413879745E+04  0.80862938361E+02 0.  0.
         66    2    3    3    0    0  0.97420367695E+01  0.14796699368E+02  0.16523516332E+04  0.16524478114E+04  0.20000045393E+01 0.  0.
        -13    1    3    3    0    0 -0.97420367695E+01 -0.14796699368E+02  0.87157855959E+02  0.88940163099E+02  0.10566000000E+00 0.  1.
         13    1    4    4    0    0  0.26058290236E+01  0.29513185307E+01  0.33579195681E+03  0.33581505334E+03  0.10566000000E+00 0. -1.
        -13    1    4    4    0    0  0.10884744294E+01  0.20585382766E+01  0.18828527037E+03  0.18829969877E+03  0.10566000000E+00 0.  1.
         14    1    4    4    0    0  0.60477333165E+01  0.97868425608E+01  0.11282744061E+04  0.11283330593E+04  0.00000000000E+00 0. -1.
<mgrwt>
<rscale>  0 0.80862938E+02</rscale>
<asrwt>0</asrwt>
<pdfrwt beam="1">  1        2 0.26776374E+00 0.80862938E+02</pdfrwt>
<pdfrwt beam="2">  1       -1 0.14449758E-03 0.80862938E+02</pdfrwt>
<totfact> 0.30042656E+05</totfact>
</mgrwt>
</event>
<event>
 8    1  0.1226832E-016  0.7905189E+02  0.7818608E-02  0.1331764E+00
          2   -1    0    0  501    0  0.00000000000E+00  0.00000000000E+00  0.11059292472E+04  0.11059292472E+04  0.25500000000E-02 0. -1.
         -1   -1    0    0    0  501 -0.00000000000E+00 -0.00000000000E+00 -0.14126539574E+01  0.14126629481E+01  0.50400000000E-02 0.  1.
         24    2    1    2    0    0 -0.35527136788E-14  0.00000000000E+00  0.11045165933E+04  0.11073419102E+04  0.79051889471E+02 0.  0.
         66    2    3    3    0    0 -0.13874700904E+02  0.13142347714E+02  0.10368562642E+04  0.10370343009E+04  0.20000014089E+01 0.  0.
        -13    1    3    3    0    0  0.13874700904E+02 -0.13142347714E+02  0.67660329106E+02  0.70307609313E+02  0.10566000000E+00 0.  1.
         13    1    4    4    0    0 -0.30963991930E+00  0.21495042654E+00  0.20382972358E+02  0.20386731144E+02  0.10566000000E+00 0. -1.
        -13    1    4    4    0    0 -0.58100869023E+01  0.67269507750E+01  0.49218311103E+03  0.49226337963E+03  0.10566000000E+00 0. -1.
         14    1    4    4    0    0 -0.77549740819E+01  0.62004465128E+01  0.52429018079E+03  0.52438419011E+03  0.00000000000E+00 0. -1.
<mgrwt>
<rscale>  0 0.79051889E+02</rscale>
<asrwt>0</asrwt>
<pdfrwt beam="1">  1        2 0.17014216E+00 0.79051889E+02</pdfrwt>
<pdfrwt beam="2">  1       -1 0.21733309E-03 0.79051889E+02</pdfrwt>
<totfact> 0.36352777E+05</totfact>
</mgrwt>
</event>
<event>
 8    1  0.1226832E-016  0.7802706E+02  0.7818608E-02  0.1334745E+00
          2   -1    0    0  501    0  0.00000000000E+00  0.00000000000E+00  0.10173688625E+03  0.10173688628E+03  0.25500000000E-02 0. -1.
         -1   -1    0    0    0  501 -0.00000000000E+00 -0.00000000000E+00 -0.14960703132E+02  0.14960703981E+02  0.50400000000E-02 0.  1.
         24    2    1    2    0    0 -0.71054273576E-14  0.00000000000E+00  0.86776183114E+02  0.11669759026E+03  0.78027056951E+02 0.  0.
         66    2    3    3    0    0  0.32524075393E+02  0.18753095757E+02  0.27690869231E+02  0.46693450657E+02  0.20000037240E+01 0.  0.
        -13    1    3    3    0    0 -0.32524075393E+02 -0.18753095757E+02  0.59085313883E+02  0.70004139601E+02  0.10566000000E+00 0.  1.
         13    1    4    4    0    0  0.19660220305E+02  0.11493194109E+02  0.15886532389E+02  0.27767082106E+02  0.10566000000E+00 0. -1.
        -13    1    4    4    0    0  0.71098252424E+01  0.35598230924E+01  0.64630689084E+01  0.10247164446E+02  0.10566000000E+00 0.  1.
         14    1    4    4    0    0  0.57540298453E+01  0.37000785558E+01  0.53412679331E+01  0.86792041060E+01  0.00000000000E+00 0. -1.
<mgrwt>
<rscale>  0 0.78027057E+02</rscale>
<asrwt>0</asrwt>
<pdfrwt beam="1">  1        2 0.15651828E-01 0.78027057E+02</pdfrwt>
<pdfrwt beam="2">  1       -1 0.23016468E-02 0.78027057E+02</pdfrwt>
<totfact> 0.19041592E+05</totfact>
</mgrwt>
</event>
<event>
 8    1  0.1226832E-016  0.7963850E+02  0.7818608E-02  0.1330080E+00
         -1   -1    0    0    0  501 -0.00000000000E+00  0.00000000000E+00  0.42655289626E+01  0.42655319402E+01  0.50400000000E-02 0.  1.
          2   -1    0    0  501    0  0.00000000000E+00 -0.00000000000E+00 -0.37171755123E+03  0.37171755124E+03  0.25500000000E-02 0. -1.
         24    2    1    2    0    0 -0.88817841970E-15 -0.35527136788E-14 -0.36745202227E+03  0.37598308318E+03  0.79638496774E+02 0.  0.
         66    2    3    3    0    0  0.64648578496E+01  0.21875360591E+02 -0.33778503148E+03  0.33856026535E+03  0.19999983781E+01 0.  0.
        -13    1    3    3    0    0 -0.64648578496E+01 -0.21875360591E+02 -0.29666990794E+02  0.37422817836E+02  0.10566000000E+00 0.  1.
         13    1    4    4    0    0  0.14009898513E+01  0.55700729327E+01 -0.87427156196E+02  0.87615679473E+02  0.10566000000E+00 0. -1.
        -13    1    4    4    0    0  0.11319924970E+01  0.20575677209E+01 -0.38605082395E+02  0.38676589078E+02  0.10566000000E+00 0.  1.
         14    1    4    4    0    0  0.39318755013E+01  0.14247719937E+02 -0.21175279288E+03  0.21226799679E+03  0.00000000000E+00 0. -1.
<mgrwt>
<rscale>  0 0.79638497E+02</rscale>
<asrwt>0</asrwt>
<pdfrwt beam="1">  1        2 0.57187290E-01 0.79638497E+02</pdfrwt>
<pdfrwt beam="2">  1       -1 0.65623575E-03 0.79638497E+02</pdfrwt>
<totfact> 0.27860124E+05</totfact>
</mgrwt>
</event>
<event>
 8    1  0.1226832E-016  0.8138448E+02  0.7818608E-02  0.1325168E+00
         -1   -1    0    0    0  501 -0.00000000000E+00  0.00000000000E+00  0.63040073647E+02  0.63040073849E+02  0.50400000000E-02 0.  1.
          2   -1    0    0  501    0  0.00000000000E+00 -0.00000000000E+00 -0.26266760690E+02  0.26266760814E+02  0.25500000000E-02 0. -1.
         24    2    1    2    0    0 -0.17763568394E-14  0.00000000000E+00  0.36773312957E+02  0.89306834663E+02  0.81384483605E+02 0.  0.
         66    2    3    3    0    0 -0.14065454986E+02 -0.31992987813E+02 -0.44224310571E+01  0.35283795299E+02  0.20000052674E+01 0.  0.
        -13    1    3    3    0    0  0.14065454986E+02  0.31992987813E+02  0.41195744014E+02  0.54023039364E+02  0.10566000000E+00 0.  1.
         13    1    4    4    0    0 -0.80308019636E+01 -0.18505424676E+02 -0.23414654400E+01  0.20308573240E+02  0.10566000000E+00 0. -1.
        -13    1    4    4    0    0 -0.26980117877E+01 -0.64221396439E+01 -0.15921828749E+01  0.71462826389E+01  0.10566000000E+00 0.  1.
         14    1    4    4    0    0 -0.33366412351E+01 -0.70654234936E+01 -0.48878274223E+00  0.78289394202E+01  0.00000000000E+00 0. -1.
<mgrwt>
<rscale>  0 0.81384484E+02</rscale>
<asrwt>0</asrwt>
<pdfrwt beam="1">  1        2 0.40410402E-02 0.81384484E+02</pdfrwt>
<pdfrwt beam="2">  1       -1 0.96984728E-02 0.81384484E+02</pdfrwt>
<totfact> 0.12486686E+05</totfact>
</mgrwt>
</event>
<event>
 8    1  0.1226832E-016  0.7045732E+02  0.7818608E-02  0.1358545E+00
         -1   -1    0    0    0  501 -0.00000000000E+00  0.00000000000E+00  0.49226005678E+03  0.49226005680E+03  0.50400000000E-02 0.  1.
          2   -1    0    0  501    0  0.00000000000E+00 -0.00000000000E+00 -0.25211430344E+01  0.25211443240E+01  0.25500000000E-02 0. -1.
         24    2    1    2    0    0  0.00000000000E+00  0.00000000000E+00  0.48973891374E+03  0.49478120113E+03  0.70457315835E+02 0.  0.
         66    2    3    3    0    0  0.28057290104E+02 -0.19913419351E+02  0.29728669408E+03  0.29927768757E+03  0.19999996004E+01 0.  0.
        -13    1    3    3    0    0 -0.28057290104E+02  0.19913419351E+02  0.19245221966E+03  0.19550351356E+03  0.10566000000E+00 0.  1.
         13    1    4    4    0    0  0.19065977894E+02 -0.12682504161E+02  0.19418313193E+03  0.19552866111E+03  0.10566000000E+00 0. -1.
        -13    1    4    4    0    0  0.20164825008E+01 -0.17786039082E+01  0.22169891077E+02  0.22332596534E+02  0.10566000000E+00 0. -1.
         14    1    4    4    0    0  0.69748297098E+01 -0.54523112819E+01  0.80933671075E+02  0.81416429924E+02  0.00000000000E+00 0. -1.
<mgrwt>
<rscale>  0 0.70457316E+02</rscale>
<asrwt>0</asrwt>
<pdfrwt beam="1">  1        2 0.38786855E-03 0.70457316E+02</pdfrwt>
<pdfrwt beam="2">  1       -1 0.75732259E-01 0.70457316E+02</pdfrwt>
<totfact> 0.93421649E+04</totfact>
</mgrwt>
</event>
<event>
 8    1  0.1226832E-016  0.7982423E+02  0.7818608E-02  0.1329551E+00
          2   -1    0    0  501    0  0.00000000000E+00  0.00000000000E+00  0.41843665027E+03  0.41843665028E+03  0.25500000000E-02 0. -1.
         -1   -1    0    0    0  501 -0.00000000000E+00 -0.00000000000E+00 -0.38069707391E+01  0.38069740753E+01  0.50400000000E-02 0.  1.
         24    2    1    2    0    0  0.00000000000E+00  0.00000000000E+00  0.41462967953E+03  0.42224362435E+03  0.79824226642E+02 0.  0.
         66    2    3    3    0    0 -0.22249114788E+02  0.73299137122E+01  0.37821333407E+03  0.37894336887E+03  0.20000002129E+01 0.  0.
        -13    1    3    3    0    0  0.22249114788E+02 -0.73299137122E+01  0.36416345463E+02  0.43300255482E+02  0.10566000000E+00 0.  1.
         13    1    4    4    0    0 -0.77931462917E+01  0.20388703085E+01  0.13812819461E+03  0.13836292651E+03  0.10566000000E+00 0. -1.
        -13    1    4    4    0    0 -0.81548730514E+01  0.35303233473E+01  0.13748290292E+03  0.13776982578E+03  0.10566000000E+00 0.  1.
        -14    1    4    4    0    0 -0.63010954450E+01  0.17607200564E+01  0.10260223654E+03  0.10281061658E+03  0.00000000000E+00 0.  1.
<mgrwt>
<rscale>  0 0.79824227E+02</rscale>
<asrwt>0</asrwt>
<pdfrwt beam="1">  1        2 0.64374856E-01 0.79824227E+02</pdfrwt>
<pdfrwt beam="2">  1       -1 0.58568818E-03 0.79824227E+02</pdfrwt>
<totfact> 0.28864456E+05</totfact>
</mgrwt>
</event>
<event>
 8    1  0.1226832E-016  0.8206226E+02  0.7818608E-02  0.1323299E+00
          2   -1    0    0  501    0  0.00000000000E+00  0.00000000000E+00  0.54972536860E+03  0.54972536860E+03  0.25500000000E-02 0. -1.
         -1   -1    0    0    0  501 -0.00000000000E+00 -0.00000000000E+00 -0.30625338783E+01  0.30625380255E+01  0.50400000000E-02 0.  1.
         24    2    1    2    0    0  0.00000000000E+00  0.35527136788E-14  0.54666283472E+03  0.55278790663E+03  0.82062262045E+02 0.  0.
         66    2    3    3    0    0 -0.18623773639E+02 -0.31713720122E+02  0.39566649230E+03  0.39737712330E+03  0.20000000913E+01 0.  0.
        -13    1    3    3    0    0  0.18623773639E+02  0.31713720122E+02  0.15099634242E+03  0.15541078333E+03  0.10566000000E+00 0.  1.
         13    1    4    4    0    0 -0.56038394632E+01 -0.94442021143E+01  0.12519271401E+03  0.12567347682E+03  0.10566000000E+00 0. -1.
        -13    1    4    4    0    0 -0.33302226086E+01 -0.62156221232E+01  0.78629256145E+02  0.78944888542E+02  0.10566000000E+00 0.  1.
        -14    1    4    4    0    0 -0.96897115674E+01 -0.16053895885E+02  0.19184452215E+03  0.19275875794E+03  0.00000000000E+00 0.  1.
<mgrwt>
<rscale>  0 0.82062262E+02</rscale>
<asrwt>0</asrwt>
<pdfrwt beam="1">  1        2 0.84573138E-01 0.82062262E+02</pdfrwt>
<pdfrwt beam="2">  1       -1 0.47115936E-03 0.82062262E+02</pdfrwt>
<totfact> 0.29344992E+05</totfact>
</mgrwt>
</event>
<event>
 8    1  0.1226832E-016  0.7558262E+02  0.7818608E-02  0.1342076E+00
          2   -1    0    0  501    0  0.00000000000E+00  0.00000000000E+00  0.75286267356E+02  0.75286267399E+02  0.25500000000E-02 0. -1.
         -1   -1    0    0    0  501 -0.00000000000E+00 -0.00000000000E+00 -0.18970035120E+02  0.18970035790E+02  0.50400000000E-02 0.  1.
         24    2    1    2    0    0 -0.35527136788E-14  0.00000000000E+00  0.56316232236E+02  0.94256303189E+02  0.75582621531E+02 0.  0.
         66    2    3    3    0    0  0.20652531990E+02  0.76934851075E+01  0.66421394135E+02  0.70010844815E+02  0.20000005567E+01 0.  0.
        -13    1    3    3    0    0 -0.20652531990E+02 -0.76934851075E+01 -0.10105161899E+02  0.24245458373E+02  0.10566000000E+00 0.  1.
         13    1    4    4    0    0  0.80079247938E+01  0.22831338188E+01  0.26615108517E+02  0.27887537090E+02  0.10566000000E+00 0. -1.
        -13    1    4    4    0    0  0.21567216674E+01  0.89788212988E+00  0.59144758280E+01  0.63600180051E+01  0.10566000000E+00 0.  1.
        -14    1    4    4    0    0  0.10487885529E+02  0.45124691588E+01  0.33891809790E+02  0.35763289720E+02  0.00000000000E+00 0.  1.
<mgrwt>
<rscale>  0 0.75582622E+02</rscale>
<asrwt>0</asrwt>
<pdfrwt beam="1">  1        2 0.11582503E-01 0.75582622E+02</pdfrwt>
<pdfrwt beam="2">  1       -1 0.29184670E-02 0.75582622E+02</pdfrwt>
<totfact> 0.19155359E+05</totfact>
</mgrwt>
</event>
<event>
 8    1  0.1226832E-016  0.8084019E+02  0.7818608E-02  0.1326684E+00
         -1   -1    0    0    0  501 -0.00000000000E+00  0.00000000000E+00  0.42306681564E+01  0.42306711584E+01  0.50400000000E-02 0.  1.
          2   -1    0    0  501    0  0.00000000000E+00 -0.00000000000E+00 -0.38617618557E+03  0.38617618558E+03  0.25500000000E-02 0. -1.
         24    2    1    2    0    0  0.00000000000E+00  0.71054273576E-14 -0.38194551741E+03  0.39040685674E+03  0.80840185024E+02 0.  0.
         66    2    3    3    0    0 -0.27850874528E+01  0.37800761876E+02 -0.25854929244E+03  0.26132047553E+03  0.20000002532E+01 0.  0.
        -13    1    3    3    0    0  0.27850874528E+01 -0.37800761876E+02 -0.12339622498E+03  0.12908638121E+03  0.10566000000E+00 0.  1.
         13    1    4    4    0    0 -0.47133014910E+00  0.84561264564E+01 -0.58767978948E+02  0.59375203077E+02  0.10566000000E+00 0.  1.
        -13    1    4    4    0    0 -0.14216105814E+01  0.24023359781E+02 -0.16000336489E+03  0.16180306156E+03  0.10566000000E+00 0. -1.
        -14    1    4    4    0    0 -0.89214672232E+00  0.53212756386E+01 -0.39777948601E+02  0.40142210890E+02  0.00000000000E+00 0.  1.
<mgrwt>
<rscale>  0 0.80840185E+02</rscale>
<asrwt>0</asrwt>
<pdfrwt beam="1">  1        2 0.59411693E-01 0.80840185E+02</pdfrwt>
<pdfrwt beam="2">  1       -1 0.65087256E-03 0.80840185E+02</pdfrwt>
<totfact> 0.27154839E+05</totfact>
</mgrwt>
</event>
<event>
 8    1  0.1226832E-016  0.7965010E+02  0.7818608E-02  0.1330047E+00
         -1   -1    0    0    0  501 -0.00000000000E+00  0.00000000000E+00  0.79901277745E+02  0.79901277904E+02  0.50400000000E-02 0.  1.
          2   -1    0    0  501    0  0.00000000000E+00 -0.00000000000E+00 -0.19849929284E+02  0.19849929448E+02  0.25500000000E-02 0. -1.
         24    2    1    2    0    0  0.00000000000E+00  0.22204460493E-15  0.60051348461E+02  0.99751207352E+02  0.79650103052E+02 0.  0.
         66    2    3    3    0    0 -0.26356322111E+02  0.14749067880E+01 -0.72583192812E+01  0.27450214269E+02  0.19999998361E+01 0.  0.
        -13    1    3    3    0    0  0.26356322111E+02 -0.14749067880E+01  0.67309667742E+02  0.72300993083E+02  0.10566000000E+00 0.  1.
         13    1    4    4    0    0 -0.18620472935E+02  0.14451280874E+01 -0.55005862291E+01  0.19469926051E+02  0.10566000000E+00 0. -1.
        -13    1    4    4    0    0 -0.75633820336E+01 -0.96325509199E-01 -0.16570196895E+01  0.77440883697E+01  0.10566000000E+00 0.  1.
        -14    1    4    4    0    0 -0.17246714232E+00  0.12610420980E+00 -0.10071336256E+00  0.23619984824E+00  0.00000000000E+00 0.  1.
<mgrwt>
<rscale>  0 0.79650103E+02</rscale>
<asrwt>0</asrwt>
<pdfrwt beam="1">  1        2 0.30538353E-02 0.79650103E+02</pdfrwt>
<pdfrwt beam="2">  1       -1 0.12292504E-01 0.79650103E+02</pdfrwt>
<totfact> 0.12553879E+05</totfact>
</mgrwt>
</event>
<event>
 8    1  0.1240352E-016  0.7921495E+02  0.7818608E-02  0.1331294E+00
         -1   -1    0    0    0  501 -0.00000000000E+00  0.00000000000E+00  0.91416815850E+01  0.91416829743E+01  0.50400000000E-02 0.  1.
          2   -1    0    0  501    0  0.00000000000E+00 -0.00000000000E+00 -0.17160430674E+03  0.17160430676E+03  0.25500000000E-02 0. -1.
         24    2    1    2    0    0  0.00000000000E+00 -0.35527136788E-14 -0.16246262516E+03  0.18074598974E+03  0.79214949552E+02 0.  0.
         66    2    3    3    0    0 -0.39278472124E+00 -0.17177400713E+02 -0.16264554183E+03  0.16356280035E+03  0.20000007823E+01 0.  0.
        -13    1    3    3    0    0  0.39278472124E+00  0.17177400713E+02  0.18291667604E+00  0.17183189391E+02  0.10566000000E+00 0.  1.
         13    1    4    4    0    0 -0.36031285285E+00 -0.90405363419E+01 -0.88223208271E+02  0.88686000949E+02  0.10566000000E+00 0. -1.
        -13    1    4    4    0    0 -0.58909267883E+00 -0.54410831748E+01 -0.47692369081E+02  0.48005475197E+02  0.10566000000E+00 0.  1.
        -14    1    4    4    0    0  0.55662081044E+00 -0.26957811968E+01 -0.26729964482E+02  0.26871324199E+02  0.00000000000E+00 0.  1.
<mgrwt>
<rscale>  0 0.79214950E+02</rscale>
<asrwt>0</asrwt>
<pdfrwt beam="1">  1        2 0.26400660E-01 0.79214950E+02</pdfrwt>
<pdfrwt beam="2">  1       -1 0.14064128E-02 0.79214950E+02</pdfrwt>
<totfact> 0.21488136E+05</totfact>
</mgrwt>
</event>
<event>
 8    1  0.1226832E-016  0.7964066E+02  0.7818608E-02  0.1330074E+00
          2   -1    0    0  501    0  0.00000000000E+00  0.00000000000E+00  0.77188781535E+01  0.77188785747E+01  0.25500000000E-02 0. -1.
         -1   -1    0    0    0  501 -0.00000000000E+00 -0.00000000000E+00 -0.20542605847E+03  0.20542605853E+03  0.50400000000E-02 0.  1.
         24    2    1    2    0    0  0.00000000000E+00  0.00000000000E+00 -0.19770718032E+03  0.21314493711E+03  0.79640662136E+02 0.  0.
         66    2    3    3    0    0  0.19349010721E+02  0.28982240856E+02 -0.47484232959E+02  0.58933071228E+02  0.20000009262E+01 0.  0.
        -13    1    3    3    0    0 -0.19349010721E+02 -0.28982240856E+02 -0.15022294736E+03  0.15421186588E+03  0.10566000000E+00 0.  1.
         13    1    4    4    0    0  0.93349593994E+01  0.15210588999E+02 -0.23753757039E+02  0.29711203648E+02  0.10566000000E+00 0. -1.
        -13    1    4    4    0    0  0.72415180890E+01  0.10619526184E+02 -0.17803422972E+02  0.21958755752E+02  0.10566000000E+00 0.  1.
         14    1    4    4    0    0  0.27725332329E+01  0.31521256737E+01 -0.59270529472E+01  0.72631118282E+01  0.00000000000E+00 0. -1.
<mgrwt>
<rscale>  0 0.79640662E+02</rscale>
<asrwt>0</asrwt>
<pdfrwt beam="1">  1        2 0.11875199E-02 0.79640662E+02</pdfrwt>
<pdfrwt beam="2">  1       -1 0.31604005E-01 0.79640662E+02</pdfrwt>
<totfact> 0.99932509E+04</totfact>
</mgrwt>
</event>
<event>
 8    1  0.1226832E-016  0.8143534E+02  0.7818608E-02  0.1325027E+00
          2   -1    0    0  501    0  0.00000000000E+00  0.00000000000E+00  0.25867919510E+03  0.25867919512E+03  0.25500000000E-02 0. -1.
         -1   -1    0    0    0  501 -0.00000000000E+00 -0.00000000000E+00 -0.64092068201E+01  0.64092088017E+01  0.50400000000E-02 0.  1.
         24    2    1    2    0    0 -0.71054273576E-14  0.00000000000E+00  0.25226998828E+03  0.26508840392E+03  0.81435341856E+02 0.  0.
         66    2    3    3    0    0  0.34616010080E+02  0.21386407331E+02  0.12449709209E+03  0.13099302466E+03  0.19999996192E+01 0.  0.
        -13    1    3    3    0    0 -0.34616010080E+02 -0.21386407331E+02  0.12777289619E+03  0.13409537926E+03  0.10566000000E+00 0.  1.
         13    1    4    4    0    0  0.10458108046E+02  0.70500090077E+01  0.39502682874E+02  0.41467430222E+02  0.10566000000E+00 0.  1.
        -13    1    4    4    0    0  0.87440887370E+01  0.53724046471E+01  0.29188848256E+02  0.30940618062E+02  0.10566000000E+00 0. -1.
         14    1    4    4    0    0  0.15413813297E+02  0.89639936760E+01  0.55805560960E+02  0.58584976376E+02  0.00000000000E+00 0. -1.
<mgrwt>
<rscale>  0 0.81435342E+02</rscale>
<asrwt>0</asrwt>
<pdfrwt beam="1">  1        2 0.39796797E-01 0.81435342E+02</pdfrwt>
<pdfrwt beam="2">  1       -1 0.98603203E-03 0.81435342E+02</pdfrwt>
<totfact> 0.23058757E+05</totfact>
</mgrwt>
</event>
<event>
 8    1  0.1226832E-016  0.7618842E+02  0.7818608E-02  0.1340230E+00
          2   -1    0    0  501    0  0.00000000000E+00  0.00000000000E+00  0.25563437127E+03  0.25563437129E+03  0.25500000000E-02 0. -1.
         -1   -1    0    0    0  501 -0.00000000000E+00 -0.00000000000E+00 -0.56767343287E+01  0.56767365661E+01  0.50400000000E-02 0.  1.
         24    2    1    2    0    0  0.00000000000E+00  0.35527136788E-14  0.24995763695E+03  0.26131110785E+03  0.76188416574E+02 0.  0.
         66    2    3    3    0    0 -0.12341896046E+02  0.31955425931E+02  0.18201304952E+03  0.18521938840E+03  0.20000000733E+01 0.  0.
        -13    1    3    3    0    0  0.12341896046E+02 -0.31955425931E+02  0.67944587430E+02  0.76091719454E+02  0.10566000000E+00 0.  1.
         13    1    4    4    0    0 -0.77382225616E+01  0.21381814351E+02  0.11880348645E+03  0.12096008280E+03  0.10566000000E+00 0. -1.
        -13    1    4    4    0    0 -0.18639608713E+00  0.37016029507E+00  0.17044587347E+01  0.17573007025E+01  0.10566000000E+00 0.  1.
         14    1    4    4    0    0 -0.44172773977E+01  0.10203451285E+02  0.61505104327E+02  0.62502004896E+02  0.00000000000E+00 0. -1.
<mgrwt>
<rscale>  0 0.76188417E+02</rscale>
<asrwt>0</asrwt>
<pdfrwt beam="1">  1        2 0.39328360E-01 0.76188417E+02</pdfrwt>
<pdfrwt beam="2">  1       -1 0.87334402E-03 0.76188417E+02</pdfrwt>
<totfact> 0.27344487E+05</totfact>
</mgrwt>
</event>
<event>
 8    1  0.1226832E-016  0.7923669E+02  0.7818608E-02  0.1331232E+00
         -1   -1    0    0    0  501 -0.00000000000E+00  0.00000000000E+00  0.40954850722E+02  0.40954851032E+02  0.50400000000E-02 0.  1.
          2   -1    0    0  501    0  0.00000000000E+00 -0.00000000000E+00 -0.38325456664E+02  0.38325456749E+02  0.25500000000E-02 0. -1.
         24    2    1    2    0    0  0.00000000000E+00  0.00000000000E+00  0.26293940573E+01  0.79280307781E+02  0.79236692818E+02 0.  0.
         66    2    3    3    0    0 -0.10732158676E+01 -0.12292397739E+02 -0.36326361133E+02  0.38416915105E+02  0.20000046292E+01 0.  0.
        -13    1    3    3    0    0  0.10732158676E+01  0.12292397739E+02  0.38955755191E+02  0.40863392676E+02  0.10566000000E+00 0.  1.
         13    1    4    4    0    0 -0.97546041613E-01 -0.39603452214E+00 -0.22358052769E+01  0.22751588614E+01  0.10566000000E+00 0. -1.
        -13    1    4    4    0    0 -0.57454148937E+00 -0.19391635096E+01 -0.63864544158E+01  0.66998818706E+01  0.10566000000E+00 0.  1.
        -14    1    4    4    0    0 -0.40112833662E+00 -0.99571997075E+01 -0.27704101441E+02  0.29441874373E+02  0.00000000000E+00 0.  1.
<mgrwt>
<rscale>  0 0.79236693E+02</rscale>
<asrwt>0</asrwt>
<pdfrwt beam="1">  1        2 0.58962241E-02 0.79236693E+02</pdfrwt>
<pdfrwt beam="2">  1       -1 0.63007463E-02 0.79236693E+02</pdfrwt>
<totfact> 0.14510990E+05</totfact>
</mgrwt>
</event>
<event>
 8    1  0.1226832E-016  0.6949133E+02  0.7818608E-02  0.1361831E+00
         -1   -1    0    0    0  501 -0.00000000000E+00  0.00000000000E+00  0.18191213218E+03  0.18191213225E+03  0.50400000000E-02 0.  1.
          2   -1    0    0  501    0  0.00000000000E+00 -0.00000000000E+00 -0.66365081075E+01  0.66365085974E+01  0.25500000000E-02 0. -1.
         24    2    1    2    0    0  0.00000000000E+00  0.00000000000E+00  0.17527562407E+03  0.18854864085E+03  0.69491334505E+02 0.  0.
         66    2    3    3    0    0 -0.17570664963E+02 -0.27991719872E+02  0.58868785790E+02  0.67541088142E+02  0.19999996035E+01 0.  0.
        -13    1    3    3    0    0  0.17570664963E+02  0.27991719872E+02  0.11640683828E+03  0.12100755270E+03  0.10566000000E+00 0.  1.
         13    1    4    4    0    0 -0.63911698365E+01 -0.92424073296E+01  0.20020423663E+02  0.22958607815E+02  0.10566000000E+00 0. -1.
        -13    1    4    4    0    0 -0.11014889319E+02 -0.18492348936E+02  0.37893969270E+02  0.43580486768E+02  0.10566000000E+00 0.  1.
        -14    1    4    4    0    0 -0.16460580741E+00 -0.25696360703E+00  0.95439285717E+00  0.10019935594E+01  0.00000000000E+00 0.  1.
<mgrwt>
<rscale>  0 0.69491335E+02</rscale>
<asrwt>0</asrwt>
<pdfrwt beam="1">  1        2 0.10210013E-02 0.69491335E+02</pdfrwt>
<pdfrwt beam="2">  1       -1 0.27986481E-01 0.69491335E+02</pdfrwt>
<totfact> 0.14626017E+05</totfact>
</mgrwt>
</event>
<event>
 8    1  0.1226832E-016  0.8410464E+02  0.7818608E-02  0.1317791E+00
         -1   -1    0    0    0  501 -0.00000000000E+00  0.00000000000E+00  0.25778213992E+02  0.25778214485E+02  0.50400000000E-02 0.  1.
          2   -1    0    0  501    0  0.00000000000E+00 -0.00000000000E+00 -0.68600464878E+02  0.68600464925E+02  0.25500000000E-02 0. -1.
         24    2    1    2    0    0 -0.17763568394E-14  0.00000000000E+00 -0.42822250886E+02  0.94378679410E+02  0.84104636948E+02 0.  0.
         66    2    3    3    0    0 -0.12550366070E+02 -0.24184903234E+02 -0.57331746492E+02  0.63508663866E+02  0.19999992987E+01 0.  0.
        -13    1    3    3    0    0  0.12550366070E+02  0.24184903234E+02  0.14509495606E+02  0.30870015544E+02  0.10566000000E+00 0.  1.
         13    1    4    4    0    0 -0.90100882821E+01 -0.17963698420E+02 -0.42669818060E+02  0.47165672783E+02  0.10566000000E+00 0. -1.
        -13    1    4    4    0    0 -0.12569382580E+01 -0.14390793300E+01 -0.42043838421E+01  0.46193993798E+01  0.10566000000E+00 0.  1.
        -14    1    4    4    0    0 -0.22833395295E+01 -0.47821254838E+01 -0.10457544591E+02  0.11723591703E+02  0.00000000000E+00 0.  1.
<mgrwt>
<rscale>  0 0.84104637E+02</rscale>
<asrwt>0</asrwt>
<pdfrwt beam="1">  1        2 0.10553918E-01 0.84104637E+02</pdfrwt>
<pdfrwt beam="2">  1       -1 0.39658792E-02 0.84104637E+02</pdfrwt>
<totfact> 0.14024688E+05</totfact>
</mgrwt>
</event>
<event>
 8    1  0.1226832E-016  0.8036741E+02  0.7818608E-02  0.1328012E+00
          2   -1    0    0  501    0  0.00000000000E+00  0.00000000000E+00  0.16478450504E+03  0.16478450506E+03  0.25500000000E-02 0. -1.
         -1   -1    0    0    0  501 -0.00000000000E+00 -0.00000000000E+00 -0.97990416075E+01  0.97990429037E+01  0.50400000000E-02 0.  1.
         24    2    1    2    0    0  0.00000000000E+00  0.71054273576E-14  0.15498546344E+03  0.17458354797E+03  0.80367414692E+02 0.  0.
         66    2    3    3    0    0  0.10554713544E+02  0.38384955539E+02  0.89018688438E+02  0.97535294532E+02  0.19999996165E+01 0.  0.
        -13    1    3    3    0    0 -0.10554713544E+02 -0.38384955539E+02  0.65966774999E+02  0.77048253436E+02  0.10566000000E+00 0.  1.
         13    1    4    4    0    0  0.34897627692E+01  0.12876388807E+02  0.28462204386E+02  0.31433868286E+02  0.10566000000E+00 0. -1.
        -13    1    4    4    0    0  0.13853303675E+01  0.55333094280E+01  0.14361612283E+02  0.15453275538E+02  0.10566000000E+00 0.  1.
        -14    1    4    4    0    0  0.56796204078E+01  0.19975257304E+02  0.46194871770E+02  0.50648150708E+02  0.00000000000E+00 0.  1.
<mgrwt>
<rscale>  0 0.80367415E+02</rscale>
<asrwt>0</asrwt>
<pdfrwt beam="1">  1        2 0.25351462E-01 0.80367415E+02</pdfrwt>
<pdfrwt beam="2">  1       -1 0.15075450E-02 0.80367415E+02</pdfrwt>
<totfact> 0.20405228E+05</totfact>
</mgrwt>
</event>
<event>
 8    1  0.1226832E-016  0.6991668E+02  0.7818608E-02  0.1360377E+00
          2   -1    0    0  501    0  0.00000000000E+00  0.00000000000E+00  0.12776007037E+02  0.12776007291E+02  0.25500000000E-02 0. -1.
         -1   -1    0    0    0  501 -0.00000000000E+00 -0.00000000000E+00 -0.95654740957E+02  0.95654741090E+02  0.50400000000E-02 0.  1.
         24    2    1    2    0    0 -0.17763568394E-14  0.00000000000E+00 -0.82878733920E+02  0.10843074838E+03  0.69916683691E+02 0.  0.
         66    2    3    3    0    0 -0.15825205020E+02 -0.28266098535E+02 -0.21212592180E+02  0.38773490027E+02  0.20000053950E+01 0.  0.
        -13    1    3    3    0    0  0.15825205020E+02  0.28266098535E+02 -0.61666141740E+02  0.69657258354E+02  0.10566000000E+00 0.  1.
         13    1    4    4    0    0 -0.42190527624E+01 -0.61839237924E+01 -0.52635365715E+01  0.91519014941E+01  0.10566000000E+00 0. -1.
        -13    1    4    4    0    0 -0.41872694945E+01 -0.79983669231E+01 -0.62549768179E+01  0.10983760662E+02  0.10566000000E+00 0.  1.
         14    1    4    4    0    0 -0.74188827632E+01 -0.14083807819E+02 -0.96940787906E+01  0.18637827871E+02  0.00000000000E+00 0. -1.
<mgrwt>
<rscale>  0 0.69916684E+02</rscale>
<asrwt>0</asrwt>
<pdfrwt beam="1">  1        2 0.19655396E-02 0.69916684E+02</pdfrwt>
<pdfrwt beam="2">  1       -1 0.14716114E-01 0.69916684E+02</pdfrwt>
<totfact> 0.16723097E+05</totfact>
</mgrwt>
</event>
<event>
 8    1  0.1226832E-016  0.8025425E+02  0.7818608E-02  0.1328331E+00
          2   -1    0    0  501    0  0.00000000000E+00  0.00000000000E+00  0.55013843871E+03  0.55013843872E+03  0.25500000000E-02 0. -1.
         -1   -1    0    0    0  501 -0.00000000000E+00 -0.00000000000E+00 -0.29268721007E+01  0.29268764401E+01  0.50400000000E-02 0.  1.
         24    2    1    2    0    0  0.35527136788E-14 -0.35527136788E-14  0.54721156661E+03  0.55306531516E+03  0.80254247225E+02 0.  0.
         66    2    3    3    0    0  0.26406033368E+02  0.23675303645E+02  0.40277222459E+03  0.40433558280E+03  0.20000032170E+01 0.  0.
        -13    1    3    3    0    0 -0.26406033368E+02 -0.23675303645E+02  0.14443934202E+03  0.14872973236E+03  0.10566000000E+00 0.  1.
         13    1    4    4    0    0  0.13117443017E+02  0.12874337205E+02  0.20677446699E+03  0.20758975705E+03  0.10566000000E+00 0. -1.
        -13    1    4    4    0    0  0.49110820584E+01  0.43771254413E+01  0.73143973736E+02  0.73439294741E+02  0.10566000000E+00 0.  1.
        -14    1    4    4    0    0  0.83775082921E+01  0.64238409985E+01  0.12285378387E+03  0.12330653101E+03  0.00000000000E+00 0.  1.
<mgrwt>
<rscale>  0 0.80254247E+02</rscale>
<asrwt>0</asrwt>
<pdfrwt beam="1">  1        2 0.84636658E-01 0.80254247E+02</pdfrwt>
<pdfrwt beam="2">  1       -1 0.45028848E-03 0.80254247E+02</pdfrwt>
<totfact> 0.31107318E+05</totfact>
</mgrwt>
</event>
<event>
 8    1  0.1226832E-016  0.7924782E+02  0.7818608E-02  0.1331200E+00
          2   -1    0    0  501    0  0.00000000000E+00  0.00000000000E+00  0.83090775951E+02  0.83090775990E+02  0.25500000000E-02 0. -1.
         -1   -1    0    0    0  501 -0.00000000000E+00 -0.00000000000E+00 -0.18895647704E+02  0.18895648377E+02  0.50400000000E-02 0.  1.
         24    2    1    2    0    0  0.00000000000E+00  0.71054273576E-14  0.64195128246E+02  0.10198642437E+03  0.79247815519E+02 0.  0.
         66    2    3    3    0    0 -0.59305483579E+01 -0.28686475195E+02  0.66408400753E+02  0.72609647788E+02  0.19999996270E+01 0.  0.
        -13    1    3    3    0    0  0.59305483579E+01  0.28686475195E+02 -0.22132725062E+01  0.29376776578E+02  0.10566000000E+00 0.  1.
         13    1    4    4    0    0 -0.14260955254E+01 -0.56568961895E+01  0.14080977180E+02  0.15242024318E+02  0.10566000000E+00 0. -1.
        -13    1    4    4    0    0 -0.41632807265E+01 -0.22144857975E+02  0.50743858858E+02  0.55521869718E+02  0.10566000000E+00 0.  1.
        -14    1    4    4    0    0 -0.34117210608E+00 -0.88472103047E+00  0.15835647144E+01  0.18457537518E+01  0.00000000000E+00 0.  1.
<mgrwt>
<rscale>  0 0.79247816E+02</rscale>
<asrwt>0</asrwt>
<pdfrwt beam="1">  1        2 0.12783196E-01 0.79247816E+02</pdfrwt>
<pdfrwt beam="2">  1       -1 0.29070228E-02 0.79247816E+02</pdfrwt>
<totfact> 0.17294359E+05</totfact>
</mgrwt>
</event>
<event>
 8    1  0.1226832E-016  0.7989687E+02  0.7818608E-02  0.1329344E+00
         -1   -1    0    0    0  501 -0.00000000000E+00  0.00000000000E+00  0.58286473703E+01  0.58286495493E+01  0.50400000000E-02 0.  1.
          2   -1    0    0  501    0  0.00000000000E+00 -0.00000000000E+00 -0.27379889481E+03  0.27379889482E+03  0.25500000000E-02 0. -1.
         24    2    1    2    0    0  0.00000000000E+00 -0.71054273576E-14 -0.26797024744E+03  0.27962754437E+03  0.79896871392E+02 0.  0.
         66    2    3    3    0    0  0.53622095737E+01 -0.36416962592E+02 -0.18816671501E+03  0.19174373808E+03  0.19999998379E+01 0.  0.
        -13    1    3    3    0    0 -0.53622095737E+01  0.36416962592E+02 -0.79803532431E+02  0.87883806292E+02  0.10566000000E+00 0.  1.
         13    1    4    4    0    0  0.30043126003E+01 -0.17381727778E+02 -0.91603830251E+02  0.93286779532E+02  0.10566000000E+00 0. -1.
        -13    1    4    4    0    0  0.16085857300E+01 -0.81901313895E+01 -0.41424300795E+02  0.42256948075E+02  0.10566000000E+00 0.  1.
        -14    1    4    4    0    0  0.74931124331E+00 -0.10845103424E+02 -0.55138583963E+02  0.56200010472E+02  0.00000000000E+00 0.  1.
<mgrwt>
<rscale>  0 0.79896871E+02</rscale>
<asrwt>0</asrwt>
<pdfrwt beam="1">  1        2 0.42122897E-01 0.79896871E+02</pdfrwt>
<pdfrwt beam="2">  1       -1 0.89671536E-03 0.79896871E+02</pdfrwt>
<totfact> 0.24747952E+05</totfact>
</mgrwt>
</event>
<event>
 8    1  0.1226832E-016  0.8065363E+02  0.7818608E-02  0.1327207E+00
          2   -1    0    0  501    0  0.00000000000E+00  0.00000000000E+00  0.69991463930E+02  0.69991463977E+02  0.25500000000E-02 0. -1.
         -1   -1    0    0    0  501 -0.00000000000E+00 -0.00000000000E+00 -0.23235002997E+02  0.23235003543E+02  0.50400000000E-02 0.  1.
         24    2    1    2    0    0  0.00000000000E+00  0.35527136788E-14  0.46756460933E+02  0.93226467520E+02  0.80653627365E+02 0.  0.
         66    2    3    3    0    0 -0.22801317503E+02  0.25084176701E+02  0.48588007568E+02  0.59278246244E+02  0.19999994266E+01 0.  0.
        -13    1    3    3    0    0  0.22801317503E+02 -0.25084176701E+02 -0.18315466346E+01  0.33948221275E+02  0.10566000000E+00 0.  1.
         13    1    4    4    0    0 -0.90659482949E+01  0.87266564884E+01  0.18119478169E+02  0.22060657404E+02  0.10566000000E+00 0. -1.
        -13    1    4    4    0    0 -0.43132307521E+01  0.50574196637E+01  0.88961278972E+01  0.11105571069E+02  0.10566000000E+00 0.  1.
         14    1    4    4    0    0 -0.94221384564E+01  0.11300100549E+02  0.21572401502E+02  0.26112017771E+02  0.00000000000E+00 0. -1.
<mgrwt>
<rscale>  0 0.80653627E+02</rscale>
<asrwt>0</asrwt>
<pdfrwt beam="1">  1        2 0.10767917E-01 0.80653627E+02</pdfrwt>
<pdfrwt beam="2">  1       -1 0.35746160E-02 0.80653627E+02</pdfrwt>
<totfact> 0.15794091E+05</totfact>
</mgrwt>
</event>
<event>
 8    1  0.1226832E-016  0.8076346E+02  0.7818608E-02  0.1326899E+00
          2   -1    0    0  501    0  0.00000000000E+00  0.00000000000E+00  0.15310980216E+02  0.15310980429E+02  0.25500000000E-02 0. -1.
         -1   -1    0    0    0  501 -0.00000000000E+00 -0.00000000000E+00 -0.10650423415E+03  0.10650423427E+03  0.50400000000E-02 0.  1.
         24    2    1    2    0    0  0.00000000000E+00  0.00000000000E+00 -0.91193253937E+02  0.12181521470E+03  0.80763463083E+02 0.  0.
         66    2    3    3    0    0 -0.30130108602E+02 -0.21134082630E+02 -0.20648367338E+02  0.42247224390E+02  0.20000004928E+01 0.  0.
        -13    1    3    3    0    0  0.30130108602E+02  0.21134082630E+02 -0.70544886599E+02  0.79567990312E+02  0.10566000000E+00 0.  1.
         13    1    4    4    0    0 -0.12309748670E+02 -0.78924238821E+01 -0.85908966381E+01  0.16959803541E+02  0.10566000000E+00 0.  1.
        -13    1    4    4    0    0 -0.82265496188E+01 -0.64257987774E+01 -0.51336997658E+01  0.11633273223E+02  0.10566000000E+00 0. -1.
         14    1    4    4    0    0 -0.95938103128E+01 -0.68158599701E+01 -0.69237709345E+01  0.13654147626E+02  0.00000000000E+00 0. -1.
<mgrwt>
<rscale>  0 0.80763463E+02</rscale>
<asrwt>0</asrwt>
<pdfrwt beam="1">  1        2 0.23555355E-02 0.80763463E+02</pdfrwt>
<pdfrwt beam="2">  1       -1 0.16385266E-01 0.80763463E+02</pdfrwt>
<totfact> 0.11418153E+05</totfact>
</mgrwt>
</event>
<event>
 8    1  0.1226832E-016  0.7867911E+02  0.7818608E-02  0.1332842E+00
         -1   -1    0    0    0  501 -0.00000000000E+00  0.00000000000E+00  0.49028166497E+01  0.49028192402E+01  0.50400000000E-02 0.  1.
          2   -1    0    0  501    0  0.00000000000E+00 -0.00000000000E+00 -0.31565533065E+03  0.31565533066E+03  0.25500000000E-02 0. -1.
         24    2    1    2    0    0  0.88817841970E-15  0.71054273576E-14 -0.31075251400E+03  0.32055814990E+03  0.78679111015E+02 0.  0.
         66    2    3    3    0    0 -0.63037203190E+01  0.33712994340E+02 -0.23377115463E+03  0.23628215253E+03  0.19999981926E+01 0.  0.
        -13    1    3    3    0    0  0.63037203190E+01 -0.33712994340E+02 -0.76981359371E+02  0.84275997365E+02  0.10566000000E+00 0.  1.
         13    1    4    4    0    0 -0.32366412430E+00  0.33906696921E+01 -0.23087481353E+02  0.23337616817E+02  0.10566000000E+00 0.  1.
        -13    1    4    4    0    0 -0.19553873778E+01  0.12569197096E+02 -0.90762390320E+02  0.91649500359E+02  0.10566000000E+00 0.  1.
         14    1    4    4    0    0 -0.40246688169E+01  0.17753127552E+02 -0.11992128295E+03  0.12129503536E+03  0.00000000000E+00 0. -1.
<mgrwt>
<rscale>  0 0.78679111E+02</rscale>
<asrwt>0</asrwt>
<pdfrwt beam="1">  1        2 0.48562343E-01 0.78679111E+02</pdfrwt>
<pdfrwt beam="2">  1       -1 0.75427993E-03 0.78679111E+02</pdfrwt>
<totfact> 0.27124613E+05</totfact>
</mgrwt>
</event>
<event>
 8    1  0.1226832E-016  0.8125658E+02  0.7818608E-02  0.1325523E+00
          2   -1    0    0  501    0  0.00000000000E+00  0.00000000000E+00  0.90252039285E+02  0.90252039321E+02  0.25500000000E-02 0. -1.
         -1   -1    0    0    0  501 -0.00000000000E+00 -0.00000000000E+00 -0.18289425940E+02  0.18289426635E+02  0.50400000000E-02 0.  1.
         24    2    1    2    0    0  0.00000000000E+00  0.00000000000E+00  0.71962613345E+02  0.10854146596E+03  0.81256581963E+02 0.  0.
         66    2    3    3    0    0  0.17306970989E+02 -0.33386139455E+02  0.56457925924E+02  0.67865034837E+02  0.20000002964E+01 0.  0.
        -13    1    3    3    0    0 -0.17306970989E+02  0.33386139455E+02  0.15504687420E+02  0.40676431119E+02  0.10566000000E+00 0.  1.
         13    1    4    4    0    0  0.68135458762E+01 -0.13304629496E+02  0.23139596613E+02  0.27547952172E+02  0.10566000000E+00 0. -1.
        -13    1    4    4    0    0  0.83749862999E+01 -0.14754595075E+02  0.25168230511E+02  0.30352750492E+02  0.10566000000E+00 0.  1.
        -14    1    4    4    0    0  0.21184388127E+01 -0.53269148835E+01  0.81500988001E+01  0.99643321718E+01  0.00000000000E+00 0.  1.
<mgrwt>
<rscale>  0 0.81256582E+02</rscale>
<asrwt>0</asrwt>
<pdfrwt beam="1">  1        2 0.13884929E-01 0.81256582E+02</pdfrwt>
<pdfrwt beam="2">  1       -1 0.28137579E-02 0.81256582E+02</pdfrwt>
<totfact> 0.16526431E+05</totfact>
</mgrwt>
</event>
<event>
 8    1  0.1226832E-016  0.7894198E+02  0.7818608E-02  0.1332081E+00
          2   -1    0    0  501    0  0.00000000000E+00  0.00000000000E+00  0.29127969963E+03  0.29127969965E+03  0.25500000000E-02 0. -1.
         -1   -1    0    0    0  501 -0.00000000000E+00 -0.00000000000E+00 -0.53486695979E+01  0.53486719725E+01  0.50400000000E-02 0.  1.
         24    2    1    2    0    0 -0.17763568394E-14  0.00000000000E+00  0.28593103004E+03  0.29662837162E+03  0.78941984464E+02 0.  0.
         66    2    3    3    0    0 -0.10611050891E+02 -0.15062977835E+02  0.27411236890E+03  0.27473819991E+03  0.20000010127E+01 0.  0.
        -13    1    3    3    0    0  0.10611050891E+02  0.15062977835E+02  0.11818661136E+02  0.21890171707E+02  0.10566000000E+00 0.  1.
         13    1    4    4    0    0 -0.63800843355E+01 -0.10066244012E+02  0.17498476435E+03  0.17539017551E+03  0.10566000000E+00 0. -1.
        -13    1    4    4    0    0 -0.18310243125E+01 -0.27151838698E+01  0.44882038513E+02  0.45001482405E+02  0.10566000000E+00 0.  1.
        -14    1    4    4    0    0 -0.23999422430E+01 -0.22815499526E+01  0.54245566033E+02  0.54346541998E+02  0.00000000000E+00 0.  1.
<mgrwt>
<rscale>  0 0.78941984E+02</rscale>
<asrwt>0</asrwt>
<pdfrwt beam="1">  1        2 0.44812261E-01 0.78941984E+02</pdfrwt>
<pdfrwt beam="2">  1       -1 0.82287243E-03 0.78941984E+02</pdfrwt>
<totfact> 0.26119296E+05</totfact>
</mgrwt>
</event>
<event>
 8    1  0.1226832E-016  0.7991158E+02  0.7818608E-02  0.1329303E+00
          2   -1    0    0  501    0  0.00000000000E+00  0.00000000000E+00  0.79715390808E+03  0.79715390809E+03  0.25500000000E-02 0. -1.
         -1   -1    0    0    0  501 -0.00000000000E+00 -0.00000000000E+00 -0.20027029128E+01  0.20027092547E+01  0.50400000000E-02 0.  1.
         24    2    1    2    0    0  0.88817841970E-15  0.00000000000E+00  0.79515120517E+03  0.79915661734E+03  0.79911575867E+02 0.  0.
         66    2    3    3    0    0  0.75000357005E+01  0.29559757671E+02  0.65560256211E+03  0.65631452007E+03  0.20000000650E+01 0.  0.
        -13    1    3    3    0    0 -0.75000357005E+01 -0.29559757671E+02  0.13954864306E+03  0.14284209727E+03  0.10566000000E+00 0.  1.
         13    1    4    4    0    0  0.73828758567E-01  0.11610632332E+01  0.21371331711E+02  0.21403235776E+02  0.10566000000E+00 0. -1.
        -13    1    4    4    0    0  0.26117948159E+00  0.49724370948E+00  0.12172985048E+02  0.12186393849E+02  0.10566000000E+00 0.  1.
         14    1    4    4    0    0  0.71650274603E+01  0.27901450728E+02  0.62205824535E+03  0.62272489045E+03  0.00000000000E+00 0. -1.
<mgrwt>
<rscale>  0 0.79911576E+02</rscale>
<asrwt>0</asrwt>
<pdfrwt beam="1">  1        2 0.12263888E+00 0.79911576E+02</pdfrwt>
<pdfrwt beam="2">  1       -1 0.30810908E-03 0.79911576E+02</pdfrwt>
<totfact> 0.34443228E+05</totfact>
</mgrwt>
</event>
<event>
 8    1  0.1226832E-016  0.8163383E+02  0.7818608E-02  0.1324478E+00
          2   -1    0    0  501    0  0.00000000000E+00  0.00000000000E+00  0.10152957648E+03  0.10152957651E+03  0.25500000000E-02 0. -1.
         -1   -1    0    0    0  501 -0.00000000000E+00 -0.00000000000E+00 -0.16409212304E+02  0.16409213078E+02  0.50400000000E-02 0.  1.
         24    2    1    2    0    0 -0.71054273576E-14  0.35527136788E-14  0.85120364175E+02  0.11793878959E+03  0.81633826888E+02 0.  0.
         66    2    3    3    0    0  0.34906371091E+02 -0.20838525955E+02  0.47445734298E+02  0.62512371636E+02  0.19999994425E+01 0.  0.
        -13    1    3    3    0    0 -0.34906371091E+02  0.20838525955E+02  0.37674629877E+02  0.55426417953E+02  0.10566000000E+00 0.  1.
         13    1    4    4    0    0  0.19828413478E+02 -0.11420982110E+02  0.26088004765E+02  0.34701584547E+02  0.10566000000E+00 0. -1.
        -13    1    4    4    0    0  0.66017174310E+01 -0.45230179637E+01  0.89316388457E+01  0.11992735345E+02  0.10566000000E+00 0.  1.
        -14    1    4    4    0    0  0.84762401819E+01 -0.48945258811E+01  0.12426090688E+02  0.15818051745E+02  0.00000000000E+00 0.  1.
<mgrwt>
<rscale>  0 0.81633827E+02</rscale>
<asrwt>0</asrwt>
<pdfrwt beam="1">  1        2 0.15619935E-01 0.81633827E+02</pdfrwt>
<pdfrwt beam="2">  1       -1 0.25244943E-02 0.81633827E+02</pdfrwt>
<totfact> 0.16862338E+05</totfact>
</mgrwt>
</event>
<event>
 8    1  0.1226832E-016  0.8138828E+02  0.7818608E-02  0.1325157E+00
         -1   -1    0    0    0  501 -0.00000000000E+00  0.00000000000E+00  0.19104639449E+01  0.19104705929E+01  0.50400000000E-02 0.  1.
          2   -1    0    0  501    0  0.00000000000E+00 -0.00000000000E+00 -0.86681054104E+03  0.86681054104E+03  0.25500000000E-02 0. -1.
         24    2    1    2    0    0  0.00000000000E+00 -0.35527136788E-14 -0.86490007709E+03  0.86872101163E+03  0.81388283554E+02 0.  0.
         66    2    3    3    0    0  0.11840122315E+02  0.21201190776E+02 -0.78093262603E+03  0.78131264254E+03  0.19999996089E+01 0.  0.
        -13    1    3    3    0    0 -0.11840122315E+02 -0.21201190776E+02 -0.83967451059E+02  0.87408369096E+02  0.10566000000E+00 0.  1.
         13    1    4    4    0    0  0.37789468229E+01  0.65804766264E+01 -0.25759395478E+03  0.25770572329E+03  0.10566000000E+00 0. -1.
        -13    1    4    4    0    0  0.60955966119E+01  0.98560316286E+01 -0.35184808155E+03  0.35203889176E+03  0.10566000000E+00 0.  1.
        -14    1    4    4    0    0  0.19655788797E+01  0.47646825212E+01 -0.17149058970E+03  0.17156802749E+03  0.00000000000E+00 0.  1.
<mgrwt>
<rscale>  0 0.81388284E+02</rscale>
<asrwt>0</asrwt>
<pdfrwt beam="1">  1        2 0.13335515E+00 0.81388284E+02</pdfrwt>
<pdfrwt beam="2">  1       -1 0.29391874E-03 0.81388284E+02</pdfrwt>
<totfact> 0.33266905E+05</totfact>
</mgrwt>
</event>
<event>
 8    1  0.1226832E-016  0.8269810E+02  0.7818608E-02  0.1321564E+00
         -1   -1    0    0    0  501 -0.00000000000E+00  0.00000000000E+00  0.12771808664E+03  0.12771808674E+03  0.50400000000E-02 0.  1.
          2   -1    0    0  501    0  0.00000000000E+00 -0.00000000000E+00 -0.13386858659E+02  0.13386858902E+02  0.25500000000E-02 0. -1.
         24    2    1    2    0    0 -0.35527136788E-14  0.71054273576E-14  0.11433122798E+03  0.14110494564E+03  0.82698101506E+02 0.  0.
         66    2    3    3    0    0 -0.26575555730E+02  0.26759172875E+02  0.86025532860E+02  0.93950549921E+02  0.20000078283E+01 0.  0.
        -13    1    3    3    0    0  0.26575555730E+02 -0.26759172875E+02  0.28305695120E+02  0.47154395719E+02  0.10566000000E+00 0.  1.
         13    1    4    4    0    0 -0.47531454371E+00  0.49032551955E+00  0.12363593885E+01  0.14163656321E+01  0.10566000000E+00 0. -1.
        -13    1    4    4    0    0 -0.71880403146E+01  0.63579138236E+01  0.22234105905E+02  0.24216887108E+02  0.10566000000E+00 0.  1.
         14    1    4    4    0    0 -0.18912200872E+02  0.19910933532E+02  0.62555067566E+02  0.68317297182E+02  0.00000000000E+00 0. -1.
<mgrwt>
<rscale>  0 0.82698102E+02</rscale>
<asrwt>0</asrwt>
<pdfrwt beam="1">  1        2 0.20595166E-02 0.82698102E+02</pdfrwt>
<pdfrwt beam="2">  1       -1 0.19648937E-01 0.82698102E+02</pdfrwt>
<totfact> 0.10322441E+05</totfact>
</mgrwt>
</event>
<event>
 8    1  0.1584676E-016  0.7751922E+02  0.7818608E-02  0.1336243E+00
          2   -1    0    0  501    0  0.00000000000E+00  0.00000000000E+00  0.82413242908E+03  0.82413242908E+03  0.25500000000E-02 0. -1.
         -1   -1    0    0    0  501 -0.00000000000E+00 -0.00000000000E+00 -0.18228921074E+01  0.18228990748E+01  0.50400000000E-02 0.  1.
         24    2    1    2    0    0  0.00000000000E+00 -0.35527136788E-14  0.82230953697E+03  0.82595532816E+03  0.77519220312E+02 0.  0.
         66    2    3    3    0    0  0.93692636873E+01 -0.26858628132E+02  0.69153736876E+03  0.69212506196E+03  0.19999993751E+01 0.  0.
        -13    1    3    3    0    0 -0.93692636873E+01  0.26858628132E+02  0.13077216821E+03  0.13383026620E+03  0.10566000000E+00 0.  1.
         13    1    4    4    0    0  0.50020370863E+01 -0.13336323320E+02  0.34650159731E+03  0.34679424158E+03  0.10566000000E+00 0.  1.
        -13    1    4    4    0    0  0.34777387098E+01 -0.11429209611E+02  0.29972104549E+03  0.29995906016E+03  0.10566000000E+00 0. -1.
        -14    1    4    4    0    0  0.88948789116E+00 -0.20930952018E+01  0.45314725963E+02  0.45371760219E+02  0.00000000000E+00 0.  1.
<mgrwt>
<rscale>  0 0.77519220E+02</rscale>
<asrwt>0</asrwt>
<pdfrwt beam="1">  1        2 0.12678936E+00 0.77519220E+02</pdfrwt>
<pdfrwt beam="2">  1       -1 0.28044602E-03 0.77519220E+02</pdfrwt>
<totfact> 0.37474300E+05</totfact>
</mgrwt>
</event>
<event>
 8    1  0.1226832E-016  0.8121480E+02  0.7818608E-02  0.1325639E+00
         -1   -1    0    0    0  501 -0.00000000000E+00  0.00000000000E+00  0.70116451490E+01  0.70116469604E+01  0.50400000000E-02 0.  1.
          2   -1    0    0  501    0  0.00000000000E+00 -0.00000000000E+00 -0.23517457849E+03  0.23517457851E+03  0.25500000000E-02 0. -1.
         24    2    1    2    0    0  0.00000000000E+00  0.00000000000E+00 -0.22816293334E+03  0.24218622547E+03  0.81214799476E+02 0.  0.
         66    2    3    3    0    0  0.36839132313E+02  0.83403823591E+01 -0.15840870296E+03  0.16286190720E+03  0.19999992457E+01 0.  0.
        -13    1    3    3    0    0 -0.36839132313E+02 -0.83403823591E+01 -0.69754230384E+02  0.79324318263E+02  0.10566000000E+00 0.  1.
         13    1    4    4    0    0  0.16400697292E+02  0.38429307565E+01 -0.67838522320E+02  0.69898692857E+02  0.10566000000E+00 0. -1.
        -13    1    4    4    0    0  0.72381025008E+01  0.19692877416E+01 -0.30780426590E+02  0.31681446418E+02  0.10566000000E+00 0.  1.
         14    1    4    4    0    0  0.13200332520E+02  0.25281638610E+01 -0.59789754051E+02  0.61281767930E+02  0.00000000000E+00 0. -1.
<mgrwt>
<rscale>  0 0.81214799E+02</rscale>
<asrwt>0</asrwt>
<pdfrwt beam="1">  1        2 0.36180698E-01 0.81214799E+02</pdfrwt>
<pdfrwt beam="2">  1       -1 0.10787150E-02 0.81214799E+02</pdfrwt>
<totfact> 0.22444188E+05</totfact>
</mgrwt>
</event>
<event>
 8    1  0.1226832E-016  0.7832123E+02  0.7818608E-02  0.1333884E+00
         -1   -1    0    0    0  501 -0.00000000000E+00  0.00000000000E+00  0.50493166707E+02  0.50493166959E+02  0.50400000000E-02 0.  1.
          2   -1    0    0  501    0  0.00000000000E+00 -0.00000000000E+00 -0.30371509459E+02  0.30371509566E+02  0.25500000000E-02 0. -1.
         24    2    1    2    0    0  0.00000000000E+00  0.00000000000E+00  0.20121657248E+02  0.80864676524E+02  0.78321228405E+02 0.  0.
         66    2    3    3    0    0 -0.16069311490E+02  0.29940977157E+02 -0.99760398221E+01  0.35471203229E+02  0.20000007772E+01 0.  0.
        -13    1    3    3    0    0  0.16069311490E+02 -0.29940977157E+02  0.30097697070E+02  0.45393473295E+02  0.10566000000E+00 0.  1.
         13    1    4    4    0    0 -0.58035162487E+01  0.98057448673E+01 -0.32250572260E+01  0.11842533150E+02  0.10566000000E+00 0. -1.
        -13    1    4    4    0    0 -0.91064827794E+00  0.25729886194E+01 -0.54930130555E+00  0.27861167746E+01  0.10566000000E+00 0.  1.
         14    1    4    4    0    0 -0.93551469632E+01  0.17562243670E+02 -0.62016812905E+01  0.20842553304E+02  0.00000000000E+00 0. -1.
<mgrwt>
<rscale>  0 0.78321228E+02</rscale>
<asrwt>0</asrwt>
<pdfrwt beam="1">  1        2 0.46725400E-02 0.78321228E+02</pdfrwt>
<pdfrwt beam="2">  1       -1 0.77681795E-02 0.78321228E+02</pdfrwt>
<totfact> 0.14311969E+05</totfact>
</mgrwt>
</event>
<event>
 8    1  0.1226832E-016  0.7536856E+02  0.7818608E-02  0.1342734E+00
         -1   -1    0    0    0  501 -0.00000000000E+00  0.00000000000E+00  0.20505535066E+01  0.20505597005E+01  0.50400000000E-02 0.  1.
          2   -1    0    0  501    0  0.00000000000E+00 -0.00000000000E+00 -0.69254600924E+03  0.69254600925E+03  0.25500000000E-02 0. -1.
         24    2    1    2    0    0  0.00000000000E+00  0.00000000000E+00 -0.69049545574E+03  0.69459656895E+03  0.75368555791E+02 0.  0.
         66    2    3    3    0    0  0.34287773511E+02  0.46818646662E+01 -0.48234966383E+03  0.48359359949E+03  0.19999996999E+01 0.  0.
        -13    1    3    3    0    0 -0.34287773511E+02 -0.46818646662E+01 -0.20814579191E+03  0.21100296946E+03  0.10566000000E+00 0.  1.
         13    1    4    4    0    0  0.11529143158E+02  0.10952947878E+01 -0.16739371586E+03  0.16779388572E+03  0.10566000000E+00 0. -1.
        -13    1    4    4    0    0  0.42680420356E+01  0.39782105752E+00 -0.63639548723E+02  0.63783836276E+02  0.10566000000E+00 0.  1.
        -14    1    4    4    0    0  0.18490588317E+02  0.31887488209E+01 -0.25131639925E+03  0.25201587749E+03  0.00000000000E+00 0.  1.
<mgrwt>
<rscale>  0 0.75368556E+02</rscale>
<asrwt>0</asrwt>
<pdfrwt beam="1">  1        2 0.10654535E+00 0.75368556E+02</pdfrwt>
<pdfrwt beam="2">  1       -1 0.31547080E-03 0.75368556E+02</pdfrwt>
<totfact> 0.38946964E+05</totfact>
</mgrwt>
</event>
<event>
 8    1  0.1226832E-016  0.7903593E+02  0.7818608E-02  0.1331810E+00
          2   -1    0    0  501    0  0.00000000000E+00  0.00000000000E+00  0.58103432802E+03  0.58103432803E+03  0.25500000000E-02 0. -1.
         -1   -1    0    0    0  501 -0.00000000000E+00 -0.00000000000E+00 -0.26877379177E+01  0.26877426432E+01  0.50400000000E-02 0.  1.
         24    2    1    2    0    0  0.00000000000E+00  0.00000000000E+00  0.57834659010E+03  0.58372207067E+03  0.79035925394E+02 0.  0.
         66    2    3    3    0    0 -0.12661503821E+02 -0.35883103916E+02  0.36743301005E+03  0.36940347549E+03  0.20000006934E+01 0.  0.
        -13    1    3    3    0    0  0.12661503821E+02  0.35883103916E+02  0.21091358005E+03  0.21431859518E+03  0.10566000000E+00 0.  1.
         13    1    4    4    0    0 -0.77891780004E+01 -0.21072946704E+02  0.21015268007E+03  0.21135018449E+03  0.10566000000E+00 0. -1.
        -13    1    4    4    0    0 -0.10342992449E+01 -0.34990740032E+01  0.33745412630E+02  0.33942264677E+02  0.10566000000E+00 0.  1.
         14    1    4    4    0    0 -0.38380265754E+01 -0.11311083209E+02  0.12353491735E+03  0.12411102633E+03  0.00000000000E+00 0. -1.
<mgrwt>
<rscale>  0 0.79035925E+02</rscale>
<asrwt>0</asrwt>
<pdfrwt beam="1">  1        2 0.89389857E-01 0.79035925E+02</pdfrwt>
<pdfrwt beam="2">  1       -1 0.41349869E-03 0.79035925E+02</pdfrwt>
<totfact> 0.32894059E+05</totfact>
</mgrwt>
</event>
<event>
 8    1  0.1226832E-016  0.7968894E+02  0.7818608E-02  0.1329937E+00
          2   -1    0    0  501    0  0.00000000000E+00  0.00000000000E+00  0.12333005352E+03  0.12333005354E+03  0.25500000000E-02 0. -1.
         -1   -1    0    0    0  501 -0.00000000000E+00 -0.00000000000E+00 -0.12872625191E+02  0.12872626178E+02  0.50400000000E-02 0.  1.
         24    2    1    2    0    0  0.17763568394E-14  0.00000000000E+00  0.11045742832E+03  0.13620267972E+03  0.79688935812E+02 0.  0.
         66    2    3    3    0    0 -0.12327782305E+02 -0.20317056674E+02  0.10987214273E+03  0.11243062193E+03  0.19999973647E+01 0.  0.
        -13    1    3    3    0    0  0.12327782305E+02  0.20317056674E+02  0.58528558991E+00  0.23772057793E+02  0.10566000000E+00 0.  1.
         13    1    4    4    0    0 -0.15579591050E+01 -0.22986088407E+01  0.13828965167E+02  0.14105398995E+02  0.10566000000E+00 0. -1.
        -13    1    4    4    0    0 -0.81740314371E+00 -0.88627726379E+00  0.43077290659E+01  0.44745199775E+01  0.10566000000E+00 0.  1.
        -14    1    4    4    0    0 -0.99524200565E+01 -0.17132170569E+02  0.91735448501E+02  0.93850702954E+02  0.00000000000E+00 0.  1.
<mgrwt>
<rscale>  0 0.79688936E+02</rscale>
<asrwt>0</asrwt>
<pdfrwt beam="1">  1        2 0.18973854E-01 0.79688936E+02</pdfrwt>
<pdfrwt beam="2">  1       -1 0.19804040E-02 0.79688936E+02</pdfrwt>
<totfact> 0.19037653E+05</totfact>
</mgrwt>
</event>
<event>
 8    1  0.1226832E-016  0.7582083E+02  0.7818608E-02  0.1341348E+00
         -1   -1    0    0    0  501 -0.00000000000E+00  0.00000000000E+00  0.25629121709E+02  0.25629122205E+02  0.50400000000E-02 0.  1.
          2   -1    0    0  501    0  0.00000000000E+00 -0.00000000000E+00 -0.56076816258E+02  0.56076816316E+02  0.25500000000E-02 0. -1.
         24    2    1    2    0    0 -0.17763568394E-14  0.00000000000E+00 -0.30447694549E+02  0.81705938521E+02  0.75820830161E+02 0.  0.
         66    2    3    3    0    0 -0.15192676260E+02  0.29818968046E+02 -0.34366509067E+02  0.48010886384E+02  0.19999996712E+01 0.  0.
        -13    1    3    3    0    0  0.15192676260E+02 -0.29818968046E+02  0.39188145184E+01  0.33695052137E+02  0.10566000000E+00 0.  1.
         13    1    4    4    0    0 -0.75314565120E+01  0.13972492125E+02 -0.15721601683E+02  0.22341291299E+02  0.10566000000E+00 0. -1.
        -13    1    4    4    0    0 -0.78556078080E+00  0.11974649231E+01 -0.19184244706E+01  0.23963606714E+01  0.10566000000E+00 0.  1.
         14    1    4    4    0    0 -0.68756589667E+01  0.14649010998E+02 -0.16726482913E+02  0.23273234414E+02  0.00000000000E+00 0. -1.
<mgrwt>
<rscale>  0 0.75820830E+02</rscale>
<asrwt>0</asrwt>
<pdfrwt beam="1">  1        2 0.86272025E-02 0.75820830E+02</pdfrwt>
<pdfrwt beam="2">  1       -1 0.39429419E-02 0.75820830E+02</pdfrwt>
<totfact> 0.17733484E+05</totfact>
</mgrwt>
</event>
<event>
 8    1  0.1226832E-016  0.7954884E+02  0.7818608E-02  0.1330337E+00
          2   -1    0    0  501    0  0.00000000000E+00  0.00000000000E+00  0.38830868392E+03  0.38830868393E+03  0.25500000000E-02 0. -1.
         -1   -1    0    0    0  501 -0.00000000000E+00 -0.00000000000E+00 -0.40740882307E+01  0.40740913481E+01  0.50400000000E-02 0.  1.
         24    2    1    2    0    0  0.00000000000E+00  0.00000000000E+00  0.38423459569E+03  0.39238277528E+03  0.79548839144E+02 0.  0.
         66    2    3    3    0    0  0.12677390527E+02 -0.24367138078E+02  0.33396175360E+03  0.33509539914E+03  0.20000023900E+01 0.  0.
        -13    1    3    3    0    0 -0.12677390527E+02  0.24367138078E+02  0.50272842091E+02  0.57287376136E+02  0.10566000000E+00 0.  1.
         13    1    4    4    0    0  0.51415968872E+01 -0.91884451220E+01  0.12890071810E+03  0.12933008093E+03  0.10566000000E+00 0. -1.
        -13    1    4    4    0    0  0.16698788808E+01 -0.32259263366E+01  0.37212463303E+02  0.37389486294E+02  0.10566000000E+00 0.  1.
         14    1    4    4    0    0  0.58659147587E+01 -0.11952766619E+02  0.16784857220E+03  0.16837583192E+03  0.00000000000E+00 0. -1.
<mgrwt>
<rscale>  0 0.79548839E+02</rscale>
<asrwt>0</asrwt>
<pdfrwt beam="1">  1        2 0.59739803E-01 0.79548839E+02</pdfrwt>
<pdfrwt beam="2">  1       -1 0.62678299E-03 0.79548839E+02</pdfrwt>
<totfact> 0.28377215E+05</totfact>
</mgrwt>
</event>
<event>
 8    1  0.1226832E-016  0.8227561E+02  0.7818608E-02  0.1322715E+00
         -1   -1    0    0    0  501 -0.00000000000E+00  0.00000000000E+00  0.39275284972E+02  0.39275285295E+02  0.50400000000E-02 0.  1.
          2   -1    0    0  501    0  0.00000000000E+00 -0.00000000000E+00 -0.43088645596E+02  0.43088645672E+02  0.25500000000E-02 0. -1.
         24    2    1    2    0    0  0.71054273576E-14  0.00000000000E+00 -0.38133606244E+01  0.82363930967E+02  0.82275606380E+02 0.  0.
         66    2    3    3    0    0  0.29244910358E+02 -0.10409794500E+02 -0.28893843587E+02  0.42455656223E+02  0.19999861868E+01 0.  0.
        -13    1    3    3    0    0 -0.29244910358E+02  0.10409794500E+02  0.25080482963E+02  0.39908274744E+02  0.10566000000E+00 0.  1.
         13    1    4    4    0    0  0.10751440404E+02 -0.40040348784E+01 -0.10267322902E+02  0.15396585650E+02  0.10566000000E+00 0.  1.
        -13    1    4    4    0    0  0.10235442489E+02 -0.33982425204E+01 -0.92630766546E+01  0.14217175821E+02  0.10566000000E+00 0. -1.
         14    1    4    4    0    0  0.82580274649E+01 -0.30075171015E+01 -0.93634440310E+01  0.12841894753E+02  0.00000000000E+00 0. -1.
<mgrwt>
<rscale>  0 0.82275606E+02</rscale>
<asrwt>0</asrwt>
<pdfrwt beam="1">  1        2 0.66290224E-02 0.82275606E+02</pdfrwt>
<pdfrwt beam="2">  1       -1 0.60423516E-02 0.82275606E+02</pdfrwt>
<totfact> 0.13397696E+05</totfact>
</mgrwt>
</event>
<event>
 8    1  0.1226832E-016  0.8269354E+02  0.7818608E-02  0.1321577E+00
          2   -1    0    0  501    0  0.00000000000E+00  0.00000000000E+00  0.61580522690E+03  0.61580522691E+03  0.25500000000E-02 0. -1.
         -1   -1    0    0    0  501 -0.00000000000E+00 -0.00000000000E+00 -0.27761276731E+01  0.27761322481E+01  0.50400000000E-02 0.  1.
         24    2    1    2    0    0  0.00000000000E+00 -0.88817841970E-15  0.61302909923E+03  0.61858135915E+03  0.82693539005E+02 0.  0.
         66    2    3    3    0    0  0.36602263253E+02 -0.62779966447E+01  0.44225422500E+03  0.44381520755E+03  0.19999999997E+01 0.  0.
        -13    1    3    3    0    0 -0.36602263253E+02  0.62779966447E+01  0.17077487423E+03  0.17476615161E+03  0.10566000000E+00 0.  1.
         13    1    4    4    0    0  0.20839888236E+02 -0.28734729261E+01  0.24464746782E+03  0.24555030537E+03  0.10566000000E+00 0. -1.
        -13    1    4    4    0    0  0.15132159474E+02 -0.31248952827E+01  0.18913043447E+03  0.18976058502E+03  0.10566000000E+00 0.  1.
         14    1    4    4    0    0  0.63021554242E+00 -0.27962843591E+00  0.84763227099E+01  0.85043171610E+01  0.00000000000E+00 0. -1.
<mgrwt>
<rscale>  0 0.82693539E+02</rscale>
<asrwt>0</asrwt>
<pdfrwt beam="1">  1        2 0.94739418E-01 0.82693539E+02</pdfrwt>
<pdfrwt beam="2">  1       -1 0.42709623E-03 0.82693539E+02</pdfrwt>
<totfact> 0.29715832E+05</totfact>
</mgrwt>
</event>
<event>
 8    1  0.1226832E-016  0.8143739E+02  0.7818608E-02  0.1325021E+00
          2   -1    0    0  501    0  0.00000000000E+00  0.00000000000E+00  0.82566644321E+01  0.82566648259E+01  0.25500000000E-02 0. -1.
         -1   -1    0    0    0  501 -0.00000000000E+00 -0.00000000000E+00 -0.20080894456E+03  0.20080894463E+03  0.50400000000E-02 0.  1.
         24    2    1    2    0    0  0.00000000000E+00  0.00000000000E+00 -0.19255228013E+03  0.20906560945E+03  0.81437389889E+02 0.  0.
         66    2    3    3    0    0 -0.20148487417E+02 -0.35334019587E+02 -0.93135180369E+02  0.10164947764E+03  0.19999989423E+01 0.  0.
        -13    1    3    3    0    0  0.20148487417E+02  0.35334019587E+02 -0.99417099762E+02  0.10741613182E+03  0.10566000000E+00 0.  1.
         13    1    4    4    0    0 -0.11797902445E+01 -0.26128513628E+01 -0.71135526233E+01  0.76702472076E+01  0.10566000000E+00 0.  1.
        -13    1    4    4    0    0 -0.11747408129E+02 -0.19580349713E+02 -0.50490086795E+02  0.55413461553E+02  0.10566000000E+00 0. -1.
         14    1    4    4    0    0 -0.72212890435E+01 -0.13140818512E+02 -0.35531540950E+02  0.38565768875E+02  0.00000000000E+00 0. -1.
<mgrwt>
<rscale>  0 0.81437390E+02</rscale>
<asrwt>0</asrwt>
<pdfrwt beam="1">  1        2 0.12702562E-02 0.81437390E+02</pdfrwt>
<pdfrwt beam="2">  1       -1 0.30893680E-01 0.81437390E+02</pdfrwt>
<totfact> 0.95071748E+04</totfact>
</mgrwt>
</event>
<event>
 8    1  0.1226832E-016  0.7980167E+02  0.7818608E-02  0.1329615E+00
          2   -1    0    0  501    0  0.00000000000E+00  0.00000000000E+00  0.27071700531E+02  0.27071700651E+02  0.25500000000E-02 0. -1.
         -1   -1    0    0    0  501 -0.00000000000E+00 -0.00000000000E+00 -0.58809629262E+02  0.58809629478E+02  0.50400000000E-02 0.  1.
         24    2    1    2    0    0 -0.88817841970E-15  0.00000000000E+00 -0.31737928731E+02  0.85881330128E+02  0.79801671314E+02 0.  0.
         66    2    3    3    0    0 -0.75006638884E+01 -0.18416349243E+02  0.21318025360E+02  0.29221226821E+02  0.20000033722E+01 0.  0.
        -13    1    3    3    0    0  0.75006638884E+01  0.18416349243E+02 -0.53055954091E+02  0.56660103307E+02  0.10566000000E+00 0.  1.
         13    1    4    4    0    0 -0.29618741364E+01 -0.80782951971E+01  0.84349663658E+01  0.12049538303E+02  0.10566000000E+00 0. -1.
        -13    1    4    4    0    0 -0.75272303896E+00 -0.26993524683E+01  0.36771195394E+01  0.46244424382E+01  0.10566000000E+00 0.  1.
         14    1    4    4    0    0 -0.37860667130E+01 -0.76387015777E+01  0.92059394548E+01  0.12547246080E+02  0.00000000000E+00 0. -1.
<mgrwt>
<rscale>  0 0.79801671E+02</rscale>
<asrwt>0</asrwt>
<pdfrwt beam="1">  1        2 0.41648770E-02 0.79801671E+02</pdfrwt>
<pdfrwt beam="2">  1       -1 0.90476353E-02 0.79801671E+02</pdfrwt>
<totfact> 0.13278262E+05</totfact>
</mgrwt>
</event>
<event>
 8    1  0.1226832E-016  0.8046356E+02  0.7818608E-02  0.1327741E+00
          2   -1    0    0  501    0  0.00000000000E+00  0.00000000000E+00  0.18897469286E+02  0.18897469459E+02  0.25500000000E-02 0. -1.
         -1   -1    0    0    0  501 -0.00000000000E+00 -0.00000000000E+00 -0.85651484363E+02  0.85651484511E+02  0.50400000000E-02 0.  1.
         24    2    1    2    0    0  0.00000000000E+00  0.00000000000E+00 -0.66754015076E+02  0.10454895397E+03  0.80463564719E+02 0.  0.
         66    2    3    3    0    0 -0.56796344004E+01  0.38274269945E+02 -0.19198926452E+02  0.43240915305E+02  0.19999982121E+01 0.  0.
        -13    1    3    3    0    0  0.56796344004E+01 -0.38274269945E+02 -0.47555088625E+02  0.61308038664E+02  0.10566000000E+00 0.  1.
         13    1    4    4    0    0 -0.27518797903E+01  0.19446532979E+02 -0.97344502614E+01  0.21920565075E+02  0.10566000000E+00 0. -1.
        -13    1    4    4    0    0 -0.16647005781E+01  0.66230185854E+01 -0.36124881280E+01  0.77263728688E+01  0.10566000000E+00 0.  1.
         14    1    4    4    0    0 -0.12630540320E+01  0.12204718381E+02 -0.58519880622E+01  0.13593977362E+02  0.00000000000E+00 0. -1.
<mgrwt>
<rscale>  0 0.80463565E+02</rscale>
<asrwt>0</asrwt>
<pdfrwt beam="1">  1        2 0.29073030E-02 0.80463565E+02</pdfrwt>
<pdfrwt beam="2">  1       -1 0.13177151E-01 0.80463565E+02</pdfrwt>
<totfact> 0.12070342E+05</totfact>
</mgrwt>
</event>
<event>
 8    1  0.1226832E-016  0.7971215E+02  0.7818608E-02  0.1329870E+00
          2   -1    0    0  501    0  0.00000000000E+00  0.00000000000E+00  0.41142684359E+02  0.41142684438E+02  0.25500000000E-02 0. -1.
         -1   -1    0    0    0  501 -0.00000000000E+00 -0.00000000000E+00 -0.38609699719E+02  0.38609700048E+02  0.50400000000E-02 0.  1.
         24    2    1    2    0    0 -0.35527136788E-14 -0.35527136788E-14  0.25329846401E+01  0.79752384487E+02  0.79712149765E+02 0.  0.
         66    2    3    3    0    0 -0.21771031904E+02 -0.19513833125E+02  0.28331527769E+02  0.40760801998E+02  0.20000001041E+01 0.  0.
        -13    1    3    3    0    0  0.21771031904E+02  0.19513833125E+02 -0.25798543129E+02  0.38991582489E+02  0.10566000000E+00 0.  1.
         13    1    4    4    0    0 -0.95910511259E+01 -0.88312603405E+01  0.13341445647E+02  0.18654349544E+02  0.10566000000E+00 0. -1.
        -13    1    4    4    0    0 -0.45796562181E+01 -0.41901390490E+01  0.65414848662E+01  0.90184646485E+01  0.10566000000E+00 0.  1.
         14    1    4    4    0    0 -0.76003245595E+01 -0.64924337351E+01  0.84485972559E+01  0.13087987806E+02  0.00000000000E+00 0. -1.
<mgrwt>
<rscale>  0 0.79712150E+02</rscale>
<asrwt>0</asrwt>
<pdfrwt beam="1">  1        2 0.63296438E-02 0.79712150E+02</pdfrwt>
<pdfrwt beam="2">  1       -1 0.59399538E-02 0.79712150E+02</pdfrwt>
<totfact> 0.14481609E+05</totfact>
</mgrwt>
</event>
<event>
 8    1  0.1226832E-016  0.7769575E+02  0.7818608E-02  0.1335721E+00
         -1   -1    0    0    0  501 -0.00000000000E+00  0.00000000000E+00  0.28833469865E+02  0.28833470306E+02  0.50400000000E-02 0.  1.
          2   -1    0    0  501    0  0.00000000000E+00 -0.00000000000E+00 -0.52340475432E+02  0.52340475494E+02  0.25500000000E-02 0. -1.
         24    2    1    2    0    0  0.35527136788E-14 -0.22204460493E-15 -0.23507005567E+02  0.81173945800E+02  0.77695753848E+02 0.  0.
         66    2    3    3    0    0  0.24970519118E+02 -0.19670865234E+01 -0.42749770987E+02  0.49587691836E+02  0.20000019586E+01 0.  0.
        -13    1    3    3    0    0 -0.24970519118E+02  0.19670865234E+01  0.19242765420E+02  0.31586253964E+02  0.10566000000E+00 0.  1.
         13    1    4    4    0    0  0.12557427263E+02 -0.10535276554E+01 -0.23111333900E+02  0.26323826064E+02  0.10566000000E+00 0.  1.
        -13    1    4    4    0    0  0.83179744584E+01 -0.95988134227E+00 -0.13397687842E+02  0.15799344127E+02  0.10566000000E+00 0.  1.
         14    1    4    4    0    0  0.40951173962E+01  0.46322474230E-01 -0.62407492449E+01  0.74645216456E+01  0.00000000000E+00 0. -1.
<mgrwt>
<rscale>  0 0.77695754E+02</rscale>
<asrwt>0</asrwt>
<pdfrwt beam="1">  1        2 0.80523809E-02 0.77695754E+02</pdfrwt>
<pdfrwt beam="2">  1       -1 0.44359185E-02 0.77695754E+02</pdfrwt>
<totfact> 0.16346703E+05</totfact>
</mgrwt>
</event>
<event>
 8    1  0.1226832E-016  0.8048119E+02  0.7818608E-02  0.1327691E+00
         -1   -1    0    0    0  501 -0.00000000000E+00  0.00000000000E+00  0.14116592403E+02  0.14116593303E+02  0.50400000000E-02 0.  1.
          2   -1    0    0  501    0  0.00000000000E+00 -0.00000000000E+00 -0.11470937706E+03  0.11470937708E+03  0.25500000000E-02 0. -1.
         24    2    1    2    0    0 -0.17763568394E-14  0.17763568394E-14 -0.10059278465E+03  0.12882597039E+03  0.80481192350E+02 0.  0.
         66    2    3    3    0    0  0.88376495574E+01 -0.12437043731E+02 -0.10988783247E+03  0.11095999198E+03  0.19999968529E+01 0.  0.
        -13    1    3    3    0    0 -0.88376495574E+01  0.12437043731E+02  0.92950478221E+01  0.17865978409E+02  0.10566000000E+00 0.  1.
         13    1    4    4    0    0  0.13406026133E+01 -0.14303595239E+01 -0.15416505650E+02  0.15541008791E+02  0.10566000000E+00 0. -1.
        -13    1    4    4    0    0  0.29517860351E+01 -0.56344424899E+01 -0.42547814881E+02  0.43020782166E+02  0.10566000000E+00 0.  1.
        -14    1    4    4    0    0  0.45452609090E+01 -0.53722417168E+01 -0.51923511943E+02  0.52398201022E+02  0.00000000000E+00 0.  1.
<mgrwt>
<rscale>  0 0.80481192E+02</rscale>
<asrwt>0</asrwt>
<pdfrwt beam="1">  1        2 0.17647596E-01 0.80481192E+02</pdfrwt>
<pdfrwt beam="2">  1       -1 0.21717836E-02 0.80481192E+02</pdfrwt>
<totfact> 0.18145261E+05</totfact>
</mgrwt>
</event>
<event>
 8    1  0.1226832E-016  0.8001684E+02  0.7818608E-02  0.1329004E+00
          2   -1    0    0  501    0  0.00000000000E+00  0.00000000000E+00  0.90446284809E+02  0.90446284845E+02  0.25500000000E-02 0. -1.
         -1   -1    0    0    0  501 -0.00000000000E+00 -0.00000000000E+00 -0.17697507129E+02  0.17697507847E+02  0.50400000000E-02 0.  1.
         24    2    1    2    0    0  0.00000000000E+00 -0.17763568394E-14  0.72748777680E+02  0.10814379269E+03  0.80016843500E+02 0.  0.
         66    2    3    3    0    0  0.13925230819E+02 -0.10775615196E+02  0.84913216146E+02  0.86742608998E+02  0.20000008265E+01 0.  0.
        -13    1    3    3    0    0 -0.13925230819E+02  0.10775615196E+02 -0.12164438467E+02  0.21401183693E+02  0.10566000000E+00 0.  1.
         13    1    4    4    0    0  0.83274281693E+01 -0.59214274911E+01  0.50271919666E+02  0.51299965247E+02  0.10566000000E+00 0. -1.
        -13    1    4    4    0    0  0.95509657472E+00 -0.69237666972E+00  0.76078251305E+01  0.76994650575E+01  0.10566000000E+00 0.  1.
         14    1    4    4    0    0  0.46427060749E+01 -0.41618110349E+01  0.27033471350E+02  0.27743178694E+02  0.00000000000E+00 0. -1.
<mgrwt>
<rscale>  0 0.80016844E+02</rscale>
<asrwt>0</asrwt>
<pdfrwt beam="1">  1        2 0.13914813E-01 0.80016844E+02</pdfrwt>
<pdfrwt beam="2">  1       -1 0.27226935E-02 0.80016844E+02</pdfrwt>
<totfact> 0.17233909E+05</totfact>
</mgrwt>
</event>
<event>
 8    1  0.1226832E-016  0.8247043E+02  0.7818608E-02  0.1322183E+00
          2   -1    0    0  501    0  0.00000000000E+00  0.00000000000E+00  0.11805312658E+03  0.11805312660E+03  0.25500000000E-02 0. -1.
         -1   -1    0    0    0  501 -0.00000000000E+00 -0.00000000000E+00 -0.14403201890E+02  0.14403202772E+02  0.50400000000E-02 0.  1.
         24    2    1    2    0    0  0.35527136788E-14 -0.71054273576E-14  0.10364992469E+03  0.13245632938E+03  0.82470432909E+02 0.  0.
         66    2    3    3    0    0 -0.17509395736E+02  0.36685967271E+02  0.40974181219E+02  0.57752252400E+02  0.19999992694E+01 0.  0.
        -13    1    3    3    0    0  0.17509395736E+02 -0.36685967271E+02  0.62675743467E+02  0.74704076976E+02  0.10566000000E+00 0.  1.
         13    1    4    4    0    0 -0.99362557518E+01  0.20988752994E+02  0.24287608615E+02  0.33602916940E+02  0.10566000000E+00 0. -1.
        -13    1    4    4    0    0 -0.30474622196E+01  0.55810293405E+01  0.56069989132E+01  0.84784736438E+01  0.10566000000E+00 0.  1.
         14    1    4    4    0    0 -0.45256777645E+01  0.10116184937E+02  0.11079573690E+02  0.15670861816E+02  0.00000000000E+00 0. -1.
<mgrwt>
<rscale>  0 0.82470433E+02</rscale>
<asrwt>0</asrwt>
<pdfrwt beam="1">  1        2 0.18162020E-01 0.82470433E+02</pdfrwt>
<pdfrwt beam="2">  1       -1 0.22158773E-02 0.82470433E+02</pdfrwt>
<totfact> 0.17143950E+05</totfact>
</mgrwt>
</event>
<event>
 8    1  0.1226832E-016  0.8030332E+02  0.7818608E-02  0.1328193E+00
         -1   -1    0    0    0  501 -0.00000000000E+00  0.00000000000E+00  0.63288668190E+02  0.63288668391E+02  0.50400000000E-02 0.  1.
          2   -1    0    0  501    0  0.00000000000E+00 -0.00000000000E+00 -0.25473056305E+02  0.25473056433E+02  0.25500000000E-02 0. -1.
         24    2    1    2    0    0  0.00000000000E+00  0.00000000000E+00  0.37815611885E+02  0.88761724824E+02  0.80303320551E+02 0.  0.
         66    2    3    3    0    0 -0.28693919301E+02 -0.24090882684E+02  0.30381178895E+01  0.37642287366E+02  0.20000011313E+01 0.  0.
        -13    1    3    3    0    0  0.28693919301E+02  0.24090882684E+02  0.34777493996E+02  0.51119437458E+02  0.10566000000E+00 0.  1.
         13    1    4    4    0    0 -0.62394028086E+01 -0.54818917423E+01  0.15674424846E+00  0.83076481195E+01  0.10566000000E+00 0. -1.
        -13    1    4    4    0    0 -0.73692137188E+01 -0.65083424449E+01  0.15048493778E+01  0.99468370802E+01  0.10566000000E+00 0.  1.
        -14    1    4    4    0    0 -0.15085302774E+02 -0.12100648497E+02  0.13765242632E+01  0.19387802167E+02  0.00000000000E+00 0.  1.
<mgrwt>
<rscale>  0 0.80303321E+02</rscale>
<asrwt>0</asrwt>
<pdfrwt beam="1">  1        2 0.39189317E-02 0.80303321E+02</pdfrwt>
<pdfrwt beam="2">  1       -1 0.97367183E-02 0.80303321E+02</pdfrwt>
<totfact> 0.12889707E+05</totfact>
</mgrwt>
</event>
<event>
 8    1  0.1226832E-016  0.7999170E+02  0.7818608E-02  0.1329075E+00
          2   -1    0    0  501    0  0.00000000000E+00  0.00000000000E+00  0.13809763109E+03  0.13809763111E+03  0.25500000000E-02 0. -1.
         -1   -1    0    0    0  501 -0.00000000000E+00 -0.00000000000E+00 -0.11583602927E+02  0.11583604024E+02  0.50400000000E-02 0.  1.
         24    2    1    2    0    0  0.00000000000E+00  0.00000000000E+00  0.12651402816E+03  0.14968123513E+03  0.79991704758E+02 0.  0.
         66    2    3    3    0    0 -0.19181491593E+02 -0.10311864795E+01  0.12888681784E+03  0.13032576407E+03  0.19999999966E+01 0.  0.
        -13    1    3    3    0    0  0.19181491593E+02  0.10311864795E+01 -0.23727896859E+01  0.19355471067E+02  0.10566000000E+00 0.  1.
         13    1    4    4    0    0 -0.58132880981E+01 -0.74685228351E+00  0.42639062156E+02  0.43040131185E+02  0.10566000000E+00 0. -1.
        -13    1    4    4    0    0 -0.39862300797E+01  0.33585535218E+00  0.23829834048E+02  0.24163505207E+02  0.10566000000E+00 0.  1.
         14    1    4    4    0    0 -0.93819734156E+01 -0.62018954815E+00  0.62417921641E+02  0.63122127675E+02  0.00000000000E+00 0. -1.
<mgrwt>
<rscale>  0 0.79991705E+02</rscale>
<asrwt>0</asrwt>
<pdfrwt beam="1">  1        2 0.21245789E-01 0.79991705E+02</pdfrwt>
<pdfrwt beam="2">  1       -1 0.17820929E-02 0.79991705E+02</pdfrwt>
<totfact> 0.19515290E+05</totfact>
</mgrwt>
</event>
<event>
 8    1  0.1226832E-016  0.8509279E+02  0.7818608E-02  0.1315190E+00
          2   -1    0    0  501    0  0.00000000000E+00  0.00000000000E+00  0.29477831894E+03  0.29477831896E+03  0.25500000000E-02 0. -1.
         -1   -1    0    0    0  501 -0.00000000000E+00 -0.00000000000E+00 -0.61408707877E+01  0.61408728559E+01  0.50400000000E-02 0.  1.
         24    2    1    2    0    0 -0.71054273576E-14  0.00000000000E+00  0.28863744816E+03  0.30091919181E+03  0.85092793596E+02 0.  0.
         66    2    3    3    0    0  0.37801541586E+02 -0.15530499298E+02  0.18594681482E+03  0.19039530167E+03  0.19999995721E+01 0.  0.
        -13    1    3    3    0    0 -0.37801541586E+02  0.15530499298E+02  0.10269063333E+03  0.11052389015E+03  0.10566000000E+00 0.  1.
         13    1    4    4    0    0  0.13149058370E+02 -0.62182765312E+01  0.63684459843E+02  0.65324469294E+02  0.10566000000E+00 0. -1.
        -13    1    4    4    0    0  0.20562195199E+01 -0.74293183462E+00  0.10338990888E+02  0.10568154193E+02  0.10566000000E+00 0.  1.
         14    1    4    4    0    0  0.22596263696E+02 -0.85692909322E+01  0.11192336409E+03  0.11450267818E+03  0.00000000000E+00 0. -1.
<mgrwt>
<rscale>  0 0.85092794E+02</rscale>
<asrwt>0</asrwt>
<pdfrwt beam="1">  1        2 0.45350503E-01 0.85092794E+02</pdfrwt>
<pdfrwt beam="2">  1       -1 0.94474967E-03 0.85092794E+02</pdfrwt>
<totfact> 0.21536770E+05</totfact>
</mgrwt>
</event>
<event>
 8    1  0.1226832E-016  0.7986800E+02  0.7818608E-02  0.1329426E+00
          2   -1    0    0  501    0  0.00000000000E+00  0.00000000000E+00  0.53646501260E+03  0.53646501260E+03  0.25500000000E-02 0. -1.
         -1   -1    0    0    0  501 -0.00000000000E+00 -0.00000000000E+00 -0.29726511927E+01  0.29726554653E+01  0.50400000000E-02 0.  1.
         24    2    1    2    0    0  0.35527136788E-14  0.17763568394E-14  0.53349236140E+03  0.53943766807E+03  0.79868003946E+02 0.  0.
         66    2    3    3    0    0  0.25265913072E+02 -0.68662378130E+01  0.47034619889E+03  0.47107861169E+03  0.19999983232E+01 0.  0.
        -13    1    3    3    0    0 -0.25265913072E+02  0.68662378130E+01  0.63146162511E+02  0.68359056378E+02  0.10566000000E+00 0.  1.
         13    1    4    4    0    0  0.12370146832E+01 -0.19573103901E+00  0.26031255088E+02  0.26061579412E+02  0.10566000000E+00 0. -1.
        -13    1    4    4    0    0  0.59347716864E+01 -0.22484706597E+01  0.10659733489E+03  0.10678614191E+03  0.10566000000E+00 0.  1.
         14    1    4    4    0    0  0.18094126702E+02 -0.44220361142E+01  0.33771760892E+03  0.33823089036E+03  0.00000000000E+00 0. -1.
<mgrwt>
<rscale>  0 0.79868004E+02</rscale>
<asrwt>0</asrwt>
<pdfrwt beam="1">  1        2 0.82532992E-01 0.79868004E+02</pdfrwt>
<pdfrwt beam="2">  1       -1 0.45733176E-03 0.79868004E+02</pdfrwt>
<totfact> 0.31261434E+05</totfact>
</mgrwt>
</event>
<event>
 8    1  0.1226832E-016  0.7992809E+02  0.7818608E-02  0.1329256E+00
         -1   -1    0    0    0  501 -0.00000000000E+00  0.00000000000E+00  0.11715579842E+02  0.11715580926E+02  0.50400000000E-02 0.  1.
          2   -1    0    0  501    0  0.00000000000E+00 -0.00000000000E+00 -0.13632487198E+03  0.13632487201E+03  0.25500000000E-02 0. -1.
         24    2    1    2    0    0 -0.17763568394E-14  0.35527136788E-14 -0.12460929214E+03  0.14804045293E+03  0.79928092787E+02 0.  0.
         66    2    3    3    0    0  0.95094669000E+01 -0.23048674782E+02 -0.12013152378E+03  0.12270800450E+03  0.19999982281E+01 0.  0.
        -13    1    3    3    0    0 -0.95094669000E+01  0.23048674782E+02 -0.44777683583E+01  0.25332448429E+02  0.10566000000E+00 0.  1.
         13    1    4    4    0    0  0.50900151239E+01 -0.11618559909E+02 -0.57072098143E+02  0.58464816247E+02  0.10566000000E+00 0. -1.
        -13    1    4    4    0    0  0.51255042548E+00 -0.86791165326E+00 -0.50159981280E+01  0.51173606315E+01  0.10566000000E+00 0.  1.
        -14    1    4    4    0    0  0.39069013506E+01 -0.10562203219E+02 -0.58043427511E+02  0.59125827624E+02  0.00000000000E+00 0.  1.
<mgrwt>
<rscale>  0 0.79928093E+02</rscale>
<asrwt>0</asrwt>
<pdfrwt beam="1">  1        2 0.20973056E-01 0.79928093E+02</pdfrwt>
<pdfrwt beam="2">  1       -1 0.18023971E-02 0.79928093E+02</pdfrwt>
<totfact> 0.19477551E+05</totfact>
</mgrwt>
</event>
<event>
 8    1  0.1226832E-016  0.7906418E+02  0.7818608E-02  0.1331728E+00
         -1   -1    0    0    0  501 -0.00000000000E+00  0.00000000000E+00  0.62791016972E+01  0.62791037199E+01  0.50400000000E-02 0.  1.
          2   -1    0    0  501    0  0.00000000000E+00 -0.00000000000E+00 -0.24888686348E+03  0.24888686350E+03  0.25500000000E-02 0. -1.
         24    2    1    2    0    0 -0.35527136788E-14  0.35527136788E-14 -0.24260776178E+03  0.25516596722E+03  0.79064181185E+02 0.  0.
         66    2    3    3    0    0 -0.17888271248E+02  0.31787935529E+02 -0.72402606861E+02  0.81096242622E+02  0.19999983893E+01 0.  0.
        -13    1    3    3    0    0  0.17888271248E+02 -0.31787935529E+02 -0.17020515492E+03  0.17406972459E+03  0.10566000000E+00 0.  1.
         13    1    4    4    0    0 -0.10927314814E+01  0.12720415961E+01 -0.33756216724E+01  0.37706945810E+01  0.10566000000E+00 0.  1.
        -13    1    4    4    0    0 -0.99997452229E+01  0.17731295227E+02 -0.41428199123E+02  0.46159512362E+02  0.10566000000E+00 0. -1.
         14    1    4    4    0    0 -0.67957945441E+01  0.12784598706E+02 -0.27598786066E+02  0.31166035678E+02  0.00000000000E+00 0. -1.
<mgrwt>
<rscale>  0 0.79064181E+02</rscale>
<asrwt>0</asrwt>
<pdfrwt beam="1">  1        2 0.38290279E-01 0.79064181E+02</pdfrwt>
<pdfrwt beam="2">  1       -1 0.96601600E-03 0.79064181E+02</pdfrwt>
<totfact> 0.24578549E+05</totfact>
</mgrwt>
</event>
<event>
 8    1  0.1226832E-016  0.7822321E+02  0.7818608E-02  0.1334171E+00
         -1   -1    0    0    0  501 -0.00000000000E+00  0.00000000000E+00  0.11517129221E+02  0.11517130324E+02  0.50400000000E-02 0.  1.
          2   -1    0    0  501    0  0.00000000000E+00 -0.00000000000E+00 -0.13282108223E+03  0.13282108226E+03  0.25500000000E-02 0. -1.
         24    2    1    2    0    0 -0.17763568394E-14  0.00000000000E+00 -0.12130395301E+03  0.14433821258E+03  0.78223210078E+02 0.  0.
         66    2    3    3    0    0  0.15782598222E+02  0.15169314782E+01 -0.12661280310E+03  0.12761737106E+03  0.20000001160E+01 0.  0.
        -13    1    3    3    0    0 -0.15782598222E+02 -0.15169314782E+01  0.53088500894E+01  0.16720841517E+02  0.10566000000E+00 0.  1.
         13    1    4    4    0    0  0.23588994742E+01  0.23181414106E-01 -0.15038265747E+02  0.15222534113E+02  0.10566000000E+00 0. -1.
        -13    1    4    4    0    0  0.40463771208E+01 -0.30274235424E-01 -0.34909653634E+02  0.35143550834E+02  0.10566000000E+00 0.  1.
        -14    1    4    4    0    0  0.93773216269E+01  0.15240242995E+01 -0.76664883718E+02  0.77251286116E+02  0.00000000000E+00 0.  1.
<mgrwt>
<rscale>  0 0.78223210E+02</rscale>
<asrwt>0</asrwt>
<pdfrwt beam="1">  1        2 0.20434012E-01 0.78223210E+02</pdfrwt>
<pdfrwt beam="2">  1       -1 0.17718662E-02 0.78223210E+02</pdfrwt>
<totfact> 0.20459285E+05</totfact>
</mgrwt>
</event>
<event>
 8    1  0.1226832E-016  0.7897472E+02  0.7818608E-02  0.1331986E+00
          2   -1    0    0  501    0  0.00000000000E+00  0.00000000000E+00  0.13362482972E+03  0.13362482974E+03  0.25500000000E-02 0. -1.
         -1   -1    0    0    0  501 -0.00000000000E+00 -0.00000000000E+00 -0.11668874984E+02  0.11668876072E+02  0.50400000000E-02 0.  1.
         24    2    1    2    0    0  0.00000000000E+00  0.35527136788E-14  0.12195595473E+03  0.14529370581E+03  0.78974717816E+02 0.  0.
         66    2    3    3    0    0  0.17917363672E+02 -0.31819700434E+02  0.88534692651E+02  0.95791007100E+02  0.19999954622E+01 0.  0.
        -13    1    3    3    0    0 -0.17917363672E+02  0.31819700434E+02  0.33421262084E+02  0.49502698714E+02  0.10566000000E+00 0.  1.
         13    1    4    4    0    0  0.78624210563E+01 -0.14780317256E+02  0.39541869027E+02  0.42940028100E+02  0.10566000000E+00 0.  1.
        -13    1    4    4    0    0  0.54281818871E+01 -0.10193634942E+02  0.29403846375E+02  0.31590705874E+02  0.10566000000E+00 0. -1.
        -14    1    4    4    0    0  0.46267607284E+01 -0.68457482370E+01  0.19588977249E+02  0.21260273127E+02  0.00000000000E+00 0.  1.
<mgrwt>
<rscale>  0 0.78974718E+02</rscale>
<asrwt>0</asrwt>
<pdfrwt beam="1">  1        2 0.20557667E-01 0.78974718E+02</pdfrwt>
<pdfrwt beam="2">  1       -1 0.17952116E-02 0.78974718E+02</pdfrwt>
<totfact> 0.19983745E+05</totfact>
</mgrwt>
</event>
<event>
 8    1  0.1226832E-016  0.7930727E+02  0.7818608E-02  0.1331029E+00
         -1   -1    0    0    0  501 -0.00000000000E+00  0.00000000000E+00  0.85479707285E+01  0.85479722143E+01  0.50400000000E-02 0.  1.
          2   -1    0    0  501    0  0.00000000000E+00 -0.00000000000E+00 -0.18395135199E+03  0.18395135200E+03  0.25500000000E-02 0. -1.
         24    2    1    2    0    0  0.00000000000E+00  0.35527136788E-14 -0.17540338126E+03  0.19249932422E+03  0.79307273738E+02 0.  0.
         66    2    3    3    0    0 -0.52827890275E+01  0.31102973376E+02 -0.14596616636E+03  0.14935000675E+03  0.19999957069E+01 0.  0.
        -13    1    3    3    0    0  0.52827890275E+01 -0.31102973376E+02 -0.29437214900E+02  0.43149317466E+02  0.10566000000E+00 0.  1.
         13    1    4    4    0    0 -0.92130376002E+00  0.66103716900E+01 -0.32512567075E+02  0.33190721540E+02  0.10566000000E+00 0. -1.
        -13    1    4    4    0    0 -0.20043251039E+01  0.97648531041E+01 -0.48748581596E+02  0.49757462224E+02  0.10566000000E+00 0.  1.
        -14    1    4    4    0    0 -0.23571601635E+01  0.14727748582E+02 -0.64705017686E+02  0.66401822988E+02  0.00000000000E+00 0.  1.
<mgrwt>
<rscale>  0 0.79307274E+02</rscale>
<asrwt>0</asrwt>
<pdfrwt beam="1">  1        2 0.28300205E-01 0.79307274E+02</pdfrwt>
<pdfrwt beam="2">  1       -1 0.13150727E-02 0.79307274E+02</pdfrwt>
<totfact> 0.21930306E+05</totfact>
</mgrwt>
</event>
<event>
 8    1  0.1226832E-016  0.8024632E+02  0.7818608E-02  0.1328354E+00
         -1   -1    0    0    0  501 -0.00000000000E+00  0.00000000000E+00  0.51812964940E+02  0.51812965185E+02  0.50400000000E-02 0.  1.
          2   -1    0    0  501    0  0.00000000000E+00 -0.00000000000E+00 -0.31070757310E+02  0.31070757415E+02  0.25500000000E-02 0. -1.
         24    2    1    2    0    0  0.00000000000E+00  0.22204460493E-15  0.20742207630E+02  0.82883722600E+02  0.80246322624E+02 0.  0.
         66    2    3    3    0    0 -0.15434432262E+02 -0.13810419119E+01 -0.27820852558E+02  0.31908130844E+02  0.20000002271E+01 0.  0.
        -13    1    3    3    0    0  0.15434432262E+02  0.13810419119E+01  0.48563060188E+02  0.50975591756E+02  0.10566000000E+00 0.  1.
         13    1    4    4    0    0 -0.21556169810E+01 -0.26629303228E-01 -0.45404370645E+01  0.50273379100E+01  0.10566000000E+00 0. -1.
        -13    1    4    4    0    0 -0.81242835718E+01 -0.45475250669E+00 -0.12819741612E+02  0.15184456606E+02  0.10566000000E+00 0.  1.
        -14    1    4    4    0    0 -0.51545317090E+01 -0.89966010199E+00 -0.10460673882E+02  0.11696336328E+02  0.00000000000E+00 0.  1.
<mgrwt>
<rscale>  0 0.80246323E+02</rscale>
<asrwt>0</asrwt>
<pdfrwt beam="1">  1        2 0.47801165E-02 0.80246323E+02</pdfrwt>
<pdfrwt beam="2">  1       -1 0.79712254E-02 0.80246323E+02</pdfrwt>
<totfact> 0.13432742E+05</totfact>
</mgrwt>
</event>
<event>
 8    1  0.1226832E-016  0.7729735E+02  0.7818608E-02  0.1336901E+00
          2   -1    0    0  501    0  0.00000000000E+00  0.00000000000E+00  0.54919162614E+02  0.54919162673E+02  0.25500000000E-02 0. -1.
         -1   -1    0    0    0  501 -0.00000000000E+00 -0.00000000000E+00 -0.27198524556E+02  0.27198525023E+02  0.50400000000E-02 0.  1.
         24    2    1    2    0    0  0.44408920985E-15 -0.71054273576E-14  0.27720638058E+02  0.82117687696E+02  0.77297353501E+02 0.  0.
         66    2    3    3    0    0  0.26848398281E+01 -0.38340261262E+02  0.98198585340E+01  0.39719184537E+02  0.20000000363E+01 0.  0.
        -13    1    3    3    0    0 -0.26848398281E+01  0.38340261262E+02  0.17900779524E+02  0.42398503159E+02  0.10566000000E+00 0.  1.
         13    1    4    4    0    0  0.49809377637E+00 -0.17695880682E+02  0.44516322816E+01  0.18254327830E+02  0.10566000000E+00 0. -1.
        -13    1    4    4    0    0  0.10985978524E+00 -0.35439812333E+00  0.12762773852E+00  0.40634969851E+00  0.10566000000E+00 0.  1.
         14    1    4    4    0    0  0.20768862665E+01 -0.20289982456E+02  0.52405985139E+01  0.21058507008E+02  0.00000000000E+00 0. -1.
<mgrwt>
<rscale>  0 0.77297354E+02</rscale>
<asrwt>0</asrwt>
<pdfrwt beam="1">  1        2 0.84491018E-02 0.77297354E+02</pdfrwt>
<pdfrwt beam="2">  1       -1 0.41843885E-02 0.77297354E+02</pdfrwt>
<totfact> 0.16752617E+05</totfact>
</mgrwt>
</event>
<event>
 8    1  0.1226832E-016  0.8097243E+02  0.7818608E-02  0.1326314E+00
          2   -1    0    0  501    0  0.00000000000E+00  0.00000000000E+00  0.28616898265E+02  0.28616898379E+02  0.25500000000E-02 0. -1.
         -1   -1    0    0    0  501 -0.00000000000E+00 -0.00000000000E+00 -0.57278517789E+02  0.57278518011E+02  0.50400000000E-02 0.  1.
         24    2    1    2    0    0  0.00000000000E+00  0.00000000000E+00 -0.28661619524E+02  0.85895416390E+02  0.80972428166E+02 0.  0.
         66    2    3    3    0    0  0.21783356516E+02  0.13630501189E+02  0.18814846899E+02  0.31910870344E+02  0.19999996340E+01 0.  0.
        -13    1    3    3    0    0 -0.21783356516E+02 -0.13630501189E+02 -0.47476466422E+02  0.53984546046E+02  0.10566000000E+00 0.  1.
         13    1    4    4    0    0  0.12882921974E+02  0.86289996369E+01  0.11798736859E+02  0.19484626474E+02  0.10566000000E+00 0. -1.
        -13    1    4    4    0    0  0.35433087730E+01  0.19952357292E+01  0.22308091577E+01  0.46393616166E+01  0.10566000000E+00 0.  1.
         14    1    4    4    0    0  0.53571257685E+01  0.30062658232E+01  0.47853008825E+01  0.77868822539E+01  0.00000000000E+00 0. -1.
<mgrwt>
<rscale>  0 0.80972428E+02</rscale>
<asrwt>0</asrwt>
<pdfrwt beam="1">  1        2 0.44025997E-02 0.80972428E+02</pdfrwt>
<pdfrwt beam="2">  1       -1 0.88120797E-02 0.80972428E+02</pdfrwt>
<totfact> 0.12885179E+05</totfact>
</mgrwt>
</event>
<event>
 8    1  0.1226832E-016  0.7923124E+02  0.7818608E-02  0.1331247E+00
          2   -1    0    0  501    0  0.00000000000E+00  0.00000000000E+00  0.92054372883E+02  0.92054372918E+02  0.25500000000E-02 0. -1.
         -1   -1    0    0    0  501 -0.00000000000E+00 -0.00000000000E+00 -0.17048591173E+02  0.17048591918E+02  0.50400000000E-02 0.  1.
         24    2    1    2    0    0  0.00000000000E+00  0.00000000000E+00  0.75005781710E+02  0.10910296484E+03  0.79231241605E+02 0.  0.
         66    2    3    3    0    0  0.12096216179E+02 -0.37292120064E+02  0.45115559072E+02  0.59803297109E+02  0.20000025090E+01 0.  0.
        -13    1    3    3    0    0 -0.12096216179E+02  0.37292120064E+02  0.29890222637E+02  0.49299667727E+02  0.10566000000E+00 0.  1.
         13    1    4    4    0    0  0.27609425941E+01 -0.92009909057E+01  0.10287357134E+02  0.14075578798E+02  0.10566000000E+00 0. -1.
        -13    1    4    4    0    0  0.63788270202E+01 -0.17739964327E+02  0.22842611078E+02  0.29617424152E+02  0.10566000000E+00 0.  1.
        -14    1    4    4    0    0  0.29564465646E+01 -0.10351164831E+02  0.11985590860E+02  0.16110294160E+02  0.00000000000E+00 0.  1.
<mgrwt>
<rscale>  0 0.79231242E+02</rscale>
<asrwt>0</asrwt>
<pdfrwt beam="1">  1        2 0.14162212E-01 0.79231242E+02</pdfrwt>
<pdfrwt beam="2">  1       -1 0.26228602E-02 0.79231242E+02</pdfrwt>
<totfact> 0.17780772E+05</totfact>
</mgrwt>
</event>
<event>
 8    1  0.1226832E-016  0.7822822E+02  0.7818608E-02  0.1334156E+00
         -1   -1    0    0    0  501 -0.00000000000E+00  0.00000000000E+00  0.56103409090E+01  0.56103431728E+01  0.50400000000E-02 0.  1.
          2   -1    0    0  501    0  0.00000000000E+00 -0.00000000000E+00 -0.27269526026E+03  0.27269526027E+03  0.25500000000E-02 0. -1.
         24    2    1    2    0    0 -0.35527136788E-14  0.35527136788E-14 -0.26708491935E+03  0.27830560345E+03  0.78228222299E+02 0.  0.
         66    2    3    3    0    0  0.24350927562E+02 -0.19271929115E+02 -0.21808316583E+03  0.22029217451E+03  0.20000013735E+01 0.  0.
        -13    1    3    3    0    0 -0.24350927562E+02  0.19271929115E+02 -0.49001753520E+02  0.58013428937E+02  0.10566000000E+00 0.  1.
         13    1    4    4    0    0  0.11526944675E+02 -0.97941019446E+01 -0.10245420058E+03  0.10356480709E+03  0.10566000000E+00 0. -1.
        -13    1    4    4    0    0  0.87725973155E+01 -0.65650430135E+01 -0.76157172697E+02  0.76941434680E+02  0.10566000000E+00 0.  1.
        -14    1    4    4    0    0  0.40513855719E+01 -0.29127841570E+01 -0.39471792557E+02  0.39785932743E+02  0.00000000000E+00 0.  1.
<mgrwt>
<rscale>  0 0.78228222E+02</rscale>
<asrwt>0</asrwt>
<pdfrwt beam="1">  1        2 0.41953107E-01 0.78228222E+02</pdfrwt>
<pdfrwt beam="2">  1       -1 0.86312976E-03 0.78228222E+02</pdfrwt>
<totfact> 0.26118025E+05</totfact>
</mgrwt>
</event>
<event>
 8    1  0.1226832E-016  0.8330301E+02  0.7818608E-02  0.1319931E+00
         -1   -1    0    0    0  501 -0.00000000000E+00  0.00000000000E+00  0.22885954140E+02  0.22885954695E+02  0.50400000000E-02 0.  1.
          2   -1    0    0  501    0  0.00000000000E+00 -0.00000000000E+00 -0.75804039783E+02  0.75804039826E+02  0.25500000000E-02 0. -1.
         24    2    1    2    0    0  0.00000000000E+00  0.00000000000E+00 -0.52918085643E+02  0.98689994521E+02  0.83303008531E+02 0.  0.
         66    2    3    3    0    0  0.14828160823E+02 -0.26477122126E+02 -0.60231874292E+02  0.67474373144E+02  0.20000002419E+01 0.  0.
        -13    1    3    3    0    0 -0.14828160823E+02  0.26477122126E+02  0.73137886496E+01  0.31215621376E+02  0.10566000000E+00 0.  1.
         13    1    4    4    0    0  0.10483691963E+02 -0.19604160360E+02 -0.43287908488E+02  0.48662974487E+02  0.10566000000E+00 0. -1.
        -13    1    4    4    0    0  0.36756010847E+01 -0.56123755012E+01 -0.13266159106E+02  0.14866436815E+02  0.10566000000E+00 0.  1.
         14    1    4    4    0    0  0.66886777469E+00 -0.12605862652E+01 -0.36778066975E+01  0.39449618422E+01  0.00000000000E+00 0. -1.
<mgrwt>
<rscale>  0 0.83303009E+02</rscale>
<asrwt>0</asrwt>
<pdfrwt beam="1">  1        2 0.11662160E-01 0.83303009E+02</pdfrwt>
<pdfrwt beam="2">  1       -1 0.35209161E-02 0.83303009E+02</pdfrwt>
<totfact> 0.14760026E+05</totfact>
</mgrwt>
</event>
<event>
 8    1  0.1226832E-016  0.8175688E+02  0.7818608E-02  0.1324138E+00
         -1   -1    0    0    0  501 -0.00000000000E+00  0.00000000000E+00  0.83513727237E+01  0.83513742445E+01  0.50400000000E-02 0.  1.
          2   -1    0    0  501    0  0.00000000000E+00 -0.00000000000E+00 -0.20009246726E+03  0.20009246727E+03  0.25500000000E-02 0. -1.
         24    2    1    2    0    0 -0.35527136788E-14  0.00000000000E+00 -0.19174109453E+03  0.20844384152E+03  0.81756881875E+02 0.  0.
         66    2    3    3    0    0 -0.24869400829E+02 -0.83226527013E+01 -0.17579396568E+03  0.17775058936E+03  0.20000002140E+01 0.  0.
        -13    1    3    3    0    0  0.24869400829E+02  0.83226527013E+01 -0.15947128852E+02  0.30693252161E+02  0.10566000000E+00 0.  1.
         13    1    4    4    0    0 -0.25776827625E+01 -0.12296417464E+01 -0.18035191010E+02  0.18260223055E+02  0.10566000000E+00 0.  1.
        -13    1    4    4    0    0 -0.15038894655E+02 -0.54221747899E+01 -0.10562544116E+03  0.10682842934E+03  0.10566000000E+00 0. -1.
        -14    1    4    4    0    0 -0.72528234115E+01 -0.16708361650E+01 -0.52133333516E+02  0.52661936960E+02  0.00000000000E+00 0.  1.
<mgrwt>
<rscale>  0 0.81756882E+02</rscale>
<asrwt>0</asrwt>
<pdfrwt beam="1">  1        2 0.30783453E-01 0.81756882E+02</pdfrwt>
<pdfrwt beam="2">  1       -1 0.12848268E-02 0.81756882E+02</pdfrwt>
<totfact> 0.20831711E+05</totfact>
</mgrwt>
</event>
<event>
 8    1  0.1226832E-016  0.8070861E+02  0.7818608E-02  0.1327052E+00
          2   -1    0    0  501    0  0.00000000000E+00  0.00000000000E+00  0.37269573120E+03  0.37269573121E+03  0.25500000000E-02 0. -1.
         -1   -1    0    0    0  501 -0.00000000000E+00 -0.00000000000E+00 -0.43694337303E+01  0.43694366371E+01  0.50400000000E-02 0.  1.
         24    2    1    2    0    0  0.00000000000E+00 -0.35527136788E-14  0.36832629747E+03  0.37706516784E+03  0.80708607935E+02 0.  0.
         66    2    3    3    0    0  0.98431612702E+01  0.24388644017E+02  0.32711571070E+03  0.32817736357E+03  0.19999983534E+01 0.  0.
        -13    1    3    3    0    0 -0.98431612702E+01 -0.24388644017E+02  0.41210586767E+02  0.48887804272E+02  0.10566000000E+00 0.  1.
         13    1    4    4    0    0  0.47287946971E+01  0.10413908219E+02  0.14982694151E+03  0.15026288481E+03  0.10566000000E+00 0. -1.
        -13    1    4    4    0    0  0.25348769848E+01  0.56970194013E+01  0.75403966889E+02  0.75661423580E+02  0.10566000000E+00 0. -1.
        -14    1    4    4    0    0  0.25794895883E+01  0.82777163967E+01  0.10188480230E+03  0.10225305518E+03  0.00000000000E+00 0.  1.
<mgrwt>
<rscale>  0 0.80708608E+02</rscale>
<asrwt>0</asrwt>
<pdfrwt beam="1">  1        2 0.57337804E-01 0.80708608E+02</pdfrwt>
<pdfrwt beam="2">  1       -1 0.67222081E-03 0.80708608E+02</pdfrwt>
<totfact> 0.26929568E+05</totfact>
</mgrwt>
</event>
<event>
 8    1  0.1226832E-016  0.8595480E+02  0.7818608E-02  0.1312954E+00
         -1   -1    0    0    0  501 -0.00000000000E+00  0.00000000000E+00  0.94634670305E+01  0.94634683726E+01  0.50400000000E-02 0.  1.
          2   -1    0    0  501    0  0.00000000000E+00 -0.00000000000E+00 -0.19517759847E+03  0.19517759848E+03  0.25500000000E-02 0. -1.
         24    2    1    2    0    0  0.35527136788E-14 -0.44408920985E-15 -0.18571413143E+03  0.20464106685E+03  0.85954799917E+02 0.  0.
         66    2    3    3    0    0 -0.24956839282E+02 -0.35589531119E+01 -0.17570772800E+03  0.17751821214E+03  0.19999969703E+01 0.  0.
        -13    1    3    3    0    0  0.24956839282E+02  0.35589531119E+01 -0.10006403435E+02  0.27122854716E+02  0.10566000000E+00 0.  1.
         13    1    4    4    0    0 -0.75666100709E+01 -0.19320098049E+01 -0.54284813707E+02  0.54843763666E+02  0.10566000000E+00 0. -1.
        -13    1    4    4    0    0 -0.26741054436E+01 -0.57272375951E-01 -0.17932017268E+02  0.18130706754E+02  0.10566000000E+00 0.  1.
         14    1    4    4    0    0 -0.14716123767E+02 -0.15696709310E+01 -0.10349089702E+03  0.10454374172E+03  0.00000000000E+00 0. -1.
<mgrwt>
<rscale>  0 0.85954800E+02</rscale>
<asrwt>0</asrwt>
<pdfrwt beam="1">  1        2 0.30027320E-01 0.85954800E+02</pdfrwt>
<pdfrwt beam="2">  1       -1 0.14559183E-02 0.85954800E+02</pdfrwt>
<totfact> 0.18083552E+05</totfact>
</mgrwt>
</event>
<event>
 8    1  0.1226832E-016  0.8246046E+02  0.7818608E-02  0.1322211E+00
         -1   -1    0    0    0  501 -0.00000000000E+00  0.00000000000E+00  0.69690357082E+01  0.69690375307E+01  0.50400000000E-02 0.  1.
          2   -1    0    0  501    0  0.00000000000E+00 -0.00000000000E+00 -0.24392634925E+03  0.24392634926E+03  0.25500000000E-02 0. -1.
         24    2    1    2    0    0 -0.35527136788E-14  0.00000000000E+00 -0.23695731354E+03  0.25089538679E+03  0.82460455211E+02 0.  0.
         66    2    3    3    0    0 -0.20775184641E+02 -0.69191965834E+01 -0.22475428574E+03  0.22582730690E+03  0.20000006284E+01 0.  0.
        -13    1    3    3    0    0  0.20775184641E+02  0.69191965834E+01 -0.12203027799E+02  0.25068079897E+02  0.10566000000E+00 0.  1.
         13    1    4    4    0    0 -0.10536191183E+02 -0.37745494928E+01 -0.12365418497E+03  0.12415968417E+03  0.10566000000E+00 0. -1.
        -13    1    4    4    0    0 -0.98521609217E+00 -0.15981761871E+00 -0.92113302794E+01  0.92658492310E+01  0.10566000000E+00 0.  1.
         14    1    4    4    0    0 -0.92537773657E+01 -0.29848294719E+01 -0.91888770490E+02  0.92401773493E+02  0.00000000000E+00 0. -1.
<mgrwt>
<rscale>  0 0.82460455E+02</rscale>
<asrwt>0</asrwt>
<pdfrwt beam="1">  1        2 0.37527124E-01 0.82460455E+02</pdfrwt>
<pdfrwt beam="2">  1       -1 0.10721597E-02 0.82460455E+02</pdfrwt>
<totfact> 0.21844814E+05</totfact>
</mgrwt>
</event>
<event>
 8    1  0.1226832E-016  0.7922877E+02  0.7818608E-02  0.1331254E+00
         -1   -1    0    0    0  501 -0.00000000000E+00  0.00000000000E+00  0.66562262921E+01  0.66562282003E+01  0.50400000000E-02 0.  1.
          2   -1    0    0  501    0  0.00000000000E+00 -0.00000000000E+00 -0.23576412693E+03  0.23576412694E+03  0.25500000000E-02 0. -1.
         24    2    1    2    0    0  0.00000000000E+00 -0.17763568394E-14 -0.22910790063E+03  0.24242035514E+03  0.79228772888E+02 0.  0.
         66    2    3    3    0    0 -0.18400029664E+02 -0.10188832257E+02 -0.21725033721E+03  0.21827524448E+03  0.19999851146E+01 0.  0.
        -13    1    3    3    0    0  0.18400029664E+02  0.10188832257E+02 -0.11857563424E+02  0.24145110660E+02  0.10566000000E+00 0.  1.
         13    1    4    4    0    0 -0.51502525173E+01 -0.29139062497E+01 -0.54192514562E+02  0.54514729654E+02  0.10566000000E+00 0. -1.
        -13    1    4    4    0    0 -0.51515731487E+00 -0.21405696606E+00 -0.81906438874E+01  0.82102995542E+01  0.10566000000E+00 0.  1.
         14    1    4    4    0    0 -0.12734619832E+02 -0.70608690413E+01 -0.15486717876E+03  0.15555021527E+03  0.00000000000E+00 0. -1.
<mgrwt>
<rscale>  0 0.79228773E+02</rscale>
<asrwt>0</asrwt>
<pdfrwt beam="1">  1        2 0.36271398E-01 0.79228773E+02</pdfrwt>
<pdfrwt beam="2">  1       -1 0.10240351E-02 0.79228773E+02</pdfrwt>
<totfact> 0.23976905E+05</totfact>
</mgrwt>
</event>
<event>
 8    1  0.1226832E-016  0.8013145E+02  0.7818608E-02  0.1328679E+00
         -1   -1    0    0    0  501 -0.00000000000E+00  0.00000000000E+00  0.44701659520E+01  0.44701687932E+01  0.50400000000E-02 0.  1.
          2   -1    0    0  501    0  0.00000000000E+00 -0.00000000000E+00 -0.35910565180E+03  0.35910565181E+03  0.25500000000E-02 0. -1.
         24    2    1    2    0    0  0.00000000000E+00  0.00000000000E+00 -0.35463548585E+03  0.36357582061E+03  0.80131451403E+02 0.  0.
         66    2    3    3    0    0 -0.68659276100E+01 -0.38526781021E+02 -0.21587512544E+03  0.21940265180E+03  0.20000038988E+01 0.  0.
        -13    1    3    3    0    0  0.68659276100E+01  0.38526781021E+02 -0.13876036041E+03  0.14417316880E+03  0.10566000000E+00 0.  1.
         13    1    4    4    0    0 -0.40916534533E+01 -0.20971959427E+02 -0.12064509853E+03  0.12252271493E+03  0.10566000000E+00 0. -1.
        -13    1    4    4    0    0 -0.86014514626E+00 -0.58827705926E+01 -0.29289958984E+02  0.29887450557E+02  0.10566000000E+00 0.  1.
        -14    1    4    4    0    0 -0.19141290104E+01 -0.11672051001E+02 -0.65940067930E+02  0.66992486318E+02  0.00000000000E+00 0.  1.
<mgrwt>
<rscale>  0 0.80131451E+02</rscale>
<asrwt>0</asrwt>
<pdfrwt beam="1">  1        2 0.55247001E-01 0.80131451E+02</pdfrwt>
<pdfrwt beam="2">  1       -1 0.68771834E-03 0.80131451E+02</pdfrwt>
<totfact> 0.27080813E+05</totfact>
</mgrwt>
</event>
<event>
 8    1  0.1226832E-016  0.8009618E+02  0.7818608E-02  0.1328779E+00
         -1   -1    0    0    0  501 -0.00000000000E+00  0.00000000000E+00  0.34173471582E+02  0.34173471954E+02  0.50400000000E-02 0.  1.
          2   -1    0    0  501    0  0.00000000000E+00 -0.00000000000E+00 -0.46932589986E+02  0.46932590055E+02  0.25500000000E-02 0. -1.
         24    2    1    2    0    0  0.00000000000E+00  0.00000000000E+00 -0.12759118404E+02  0.81106062009E+02  0.80096180884E+02 0.  0.
         66    2    3    3    0    0 -0.11022079029E+02 -0.11328314268E+02 -0.43617062779E+02  0.46435601595E+02  0.19999999375E+01 0.  0.
        -13    1    3    3    0    0  0.11022079029E+02  0.11328314268E+02  0.30857944375E+02  0.34670460414E+02  0.10566000000E+00 0.  1.
         13    1    4    4    0    0 -0.15635899548E+01 -0.10914996978E+01 -0.67529757876E+01  0.70178366439E+01  0.10566000000E+00 0.  1.
        -13    1    4    4    0    0 -0.36972511404E+01 -0.38979543720E+01 -0.15187882310E+02  0.16110451495E+02  0.10566000000E+00 0. -1.
        -14    1    4    4    0    0 -0.57612379334E+01 -0.63388601987E+01 -0.21676204681E+02  0.23307313456E+02  0.00000000000E+00 0.  1.
<mgrwt>
<rscale>  0 0.80096181E+02</rscale>
<asrwt>0</asrwt>
<pdfrwt beam="1">  1        2 0.72203985E-02 0.80096181E+02</pdfrwt>
<pdfrwt beam="2">  1       -1 0.52574572E-02 0.80096181E+02</pdfrwt>
<totfact> 0.14691796E+05</totfact>
</mgrwt>
</event>
<event>
 8    1  0.1226832E-016  0.7831000E+02  0.7818608E-02  0.1333917E+00
         -1   -1    0    0    0  501 -0.00000000000E+00  0.00000000000E+00  0.44981802385E+01  0.44981830621E+01  0.50400000000E-02 0.  1.
          2   -1    0    0  501    0  0.00000000000E+00 -0.00000000000E+00 -0.34082975586E+03  0.34082975587E+03  0.25500000000E-02 0. -1.
         24    2    1    2    0    0  0.71054273576E-14 -0.88817841970E-15 -0.33633157562E+03  0.34532793893E+03  0.78310003490E+02 0.  0.
         66    2    3    3    0    0  0.32207477276E+02 -0.63293080492E+01 -0.26220683587E+03  0.26426086831E+03  0.20000016923E+01 0.  0.
        -13    1    3    3    0    0 -0.32207477276E+02  0.63293080492E+01 -0.74124739746E+02  0.81067070623E+02  0.10566000000E+00 0.  1.
         13    1    4    4    0    0  0.13010606568E+02 -0.27810213276E+01 -0.10974394010E+03  0.11054751700E+03  0.10566000000E+00 0. -1.
        -13    1    4    4    0    0  0.11490247602E+02 -0.25518809394E+01 -0.87966600007E+02  0.88750615587E+02  0.10566000000E+00 0.  1.
        -14    1    4    4    0    0  0.77066231061E+01 -0.99640578228E+00 -0.64496295769E+02  0.64962735719E+02  0.00000000000E+00 0.  1.
<mgrwt>
<rscale>  0 0.78310003E+02</rscale>
<asrwt>0</asrwt>
<pdfrwt beam="1">  1        2 0.52435327E-01 0.78310003E+02</pdfrwt>
<pdfrwt beam="2">  1       -1 0.69202822E-03 0.78310003E+02</pdfrwt>
<totfact> 0.28227464E+05</totfact>
</mgrwt>
</event>
<event>
 8    1  0.1226832E-016  0.7874500E+02  0.7818608E-02  0.1332651E+00
          2   -1    0    0  501    0  0.00000000000E+00  0.00000000000E+00  0.64682376727E+03  0.64682376728E+03  0.25500000000E-02 0. -1.
         -1   -1    0    0    0  501 -0.00000000000E+00 -0.00000000000E+00 -0.23966218839E+01  0.23966271834E+01  0.50400000000E-02 0.  1.
         24    2    1    2    0    0  0.00000000000E+00 -0.35527136788E-14  0.64442714539E+03  0.64922039446E+03  0.78744999018E+02 0.  0.
         66    2    3    3    0    0 -0.17535367913E+01  0.22120243736E+02  0.59031410867E+03  0.59073439630E+03  0.20000000847E+01 0.  0.
        -13    1    3    3    0    0  0.17535367913E+01 -0.22120243736E+02  0.54113036722E+02  0.58485998166E+02  0.10566000000E+00 0.  1.
         13    1    4    4    0    0  0.14590679162E+00  0.22212570845E+01  0.54238878701E+02  0.54284642383E+02  0.10566000000E+00 0. -1.
        -13    1    4    4    0    0  0.86382789145E-01  0.20955527173E+00  0.57781871978E+01  0.57835963488E+01  0.10566000000E+00 0.  1.
         14    1    4    4    0    0 -0.19858263721E+01  0.19689431380E+02  0.53029704277E+03  0.53066615756E+03  0.00000000000E+00 0. -1.
<mgrwt>
<rscale>  0 0.78744999E+02</rscale>
<asrwt>0</asrwt>
<pdfrwt beam="1">  1        2 0.99511346E-01 0.78744999E+02</pdfrwt>
<pdfrwt beam="2">  1       -1 0.36871148E-03 0.78744999E+02</pdfrwt>
<totfact> 0.34192833E+05</totfact>
</mgrwt>
</event>
<event>
 8    1  0.1226832E-016  0.8020056E+02  0.7818608E-02  0.1328483E+00
         -1   -1    0    0    0  501 -0.00000000000E+00  0.00000000000E+00  0.32829481883E+02  0.32829482270E+02  0.50400000000E-02 0.  1.
          2   -1    0    0  501    0  0.00000000000E+00 -0.00000000000E+00 -0.48981355849E+02  0.48981355915E+02  0.25500000000E-02 0. -1.
         24    2    1    2    0    0 -0.35527136788E-14  0.00000000000E+00 -0.16151873966E+02  0.81810838185E+02  0.80200562417E+02 0.  0.
         66    2    3    3    0    0  0.21879140964E+02 -0.50821262288E+01 -0.41936210836E+02  0.47614814905E+02  0.20000007028E+01 0.  0.
        -13    1    3    3    0    0 -0.21879140964E+02  0.50821262288E+01  0.25784336870E+02  0.34196023281E+02  0.10566000000E+00 0.  1.
         13    1    4    4    0    0  0.13700628341E+02 -0.35683381477E+01 -0.26392157379E+02  0.29949914678E+02  0.10566000000E+00 0.  1.
        -13    1    4    4    0    0  0.36580945641E+01 -0.12342376394E+01 -0.72986814006E+01  0.82575367159E+01  0.10566000000E+00 0. -1.
        -14    1    4    4    0    0  0.45204180589E+01 -0.27955044172E+00 -0.82453720566E+01  0.94073635111E+01  0.00000000000E+00 0.  1.
<mgrwt>
<rscale>  0 0.80200562E+02</rscale>
<asrwt>0</asrwt>
<pdfrwt beam="1">  1        2 0.75355932E-02 0.80200562E+02</pdfrwt>
<pdfrwt beam="2">  1       -1 0.50506896E-02 0.80200562E+02</pdfrwt>
<totfact> 0.14774616E+05</totfact>
</mgrwt>
</event>
<event>
 8    1  0.1226832E-016  0.7689314E+02  0.7818608E-02  0.1338107E+00
         -1   -1    0    0    0  501 -0.00000000000E+00  0.00000000000E+00  0.13576587765E+01  0.13576681314E+01  0.50400000000E-02 0.  1.
          2   -1    0    0  501    0  0.00000000000E+00 -0.00000000000E+00 -0.10887372402E+04  0.10887372402E+04  0.25500000000E-02 0. -1.
         24    2    1    2    0    0  0.17763568394E-14 -0.17763568394E-14 -0.10873795814E+04  0.10900949083E+04  0.76893140655E+02 0.  0.
         66    2    3    3    0    0  0.12856630772E+02  0.12591469668E+02 -0.10252932408E+04  0.10254531036E+04  0.19999973358E+01 0.  0.
        -13    1    3    3    0    0 -0.12856630772E+02 -0.12591469668E+02 -0.62086340609E+02  0.64641804720E+02  0.10566000000E+00 0.  1.
         13    1    4    4    0    0  0.27351970112E+00  0.22606139844E+00 -0.34845723718E+02  0.34847690630E+02  0.10566000000E+00 0.  1.
        -13    1    4    4    0    0  0.92869937307E+01  0.95525288951E+01 -0.77121944064E+03  0.77133451618E+03  0.10566000000E+00 0. -1.
         14    1    4    4    0    0  0.32961173400E+01  0.28128793741E+01 -0.21922807647E+03  0.21927089682E+03  0.00000000000E+00 0. -1.
<mgrwt>
<rscale>  0 0.76893141E+02</rscale>
<asrwt>0</asrwt>
<pdfrwt beam="1">  1        2 0.16749734E+00 0.76893141E+02</pdfrwt>
<pdfrwt beam="2">  1       -1 0.20887217E-03 0.76893141E+02</pdfrwt>
<totfact> 0.39072475E+05</totfact>
</mgrwt>
</event>
<event>
 8    1  0.1226832E-016  0.8137617E+02  0.7818608E-02  0.1325191E+00
         -1   -1    0    0    0  501 -0.00000000000E+00  0.00000000000E+00  0.15586220458E+02  0.15586221273E+02  0.50400000000E-02 0.  1.
          2   -1    0    0  501    0  0.00000000000E+00 -0.00000000000E+00 -0.10621691456E+03  0.10621691459E+03  0.25500000000E-02 0. -1.
         24    2    1    2    0    0 -0.35527136788E-14  0.00000000000E+00 -0.90630694104E+02  0.12180313587E+03  0.81376170916E+02 0.  0.
         66    2    3    3    0    0 -0.31134345192E+02  0.12021093593E+02 -0.80114013232E+02  0.86810766950E+02  0.20000001535E+01 0.  0.
        -13    1    3    3    0    0  0.31134345192E+02 -0.12021093593E+02 -0.10516680872E+02  0.34992368916E+02  0.10566000000E+00 0.  1.
         13    1    4    4    0    0 -0.17409969131E+02  0.73377298804E+01 -0.44210165127E+02  0.48078052888E+02  0.10566000000E+00 0. -1.
        -13    1    4    4    0    0 -0.11049268489E+02  0.34253718684E+01 -0.29031979774E+02  0.31251984260E+02  0.10566000000E+00 0.  1.
         14    1    4    4    0    0 -0.26751075717E+01  0.12579918446E+01 -0.68718683318E+01  0.74807298021E+01  0.00000000000E+00 0. -1.
<mgrwt>
<rscale>  0 0.81376171E+02</rscale>
<asrwt>0</asrwt>
<pdfrwt beam="1">  1        2 0.16341063E-01 0.81376171E+02</pdfrwt>
<pdfrwt beam="2">  1       -1 0.23978802E-02 0.81376171E+02</pdfrwt>
<totfact> 0.17226185E+05</totfact>
</mgrwt>
</event>
<event>
 8    1  0.1226832E-016  0.7867617E+02  0.7818608E-02  0.1332851E+00
         -1   -1    0    0    0  501 -0.00000000000E+00  0.00000000000E+00  0.47241079312E+02  0.47241079581E+02  0.50400000000E-02 0.  1.
          2   -1    0    0  501    0  0.00000000000E+00 -0.00000000000E+00 -0.32757186066E+02  0.32757186165E+02  0.25500000000E-02 0. -1.
         24    2    1    2    0    0  0.00000000000E+00  0.00000000000E+00  0.14483893246E+02  0.79998265746E+02  0.78676167667E+02 0.  0.
         66    2    3    3    0    0  0.30404449775E+02 -0.24206574950E+02  0.13269929373E+02  0.41115445513E+02  0.19999993027E+01 0.  0.
        -13    1    3    3    0    0 -0.30404449775E+02  0.24206574950E+02  0.12139638733E+01  0.38882820233E+02  0.10566000000E+00 0.  1.
         13    1    4    4    0    0  0.17419231407E+02 -0.14808544797E+02  0.72240822863E+01  0.23977513439E+02  0.10566000000E+00 0. -1.
        -13    1    4    4    0    0  0.49497564061E+01 -0.37091865005E+01  0.21358337213E+01  0.65445475547E+01  0.10566000000E+00 0.  1.
        -14    1    4    4    0    0  0.80354619622E+01 -0.56888436526E+01  0.39100133650E+01  0.10593384519E+02  0.00000000000E+00 0.  1.
<mgrwt>
<rscale>  0 0.78676168E+02</rscale>
<asrwt>0</asrwt>
<pdfrwt beam="1">  1        2 0.50395671E-02 0.78676168E+02</pdfrwt>
<pdfrwt beam="2">  1       -1 0.72678584E-02 0.78676168E+02</pdfrwt>
<totfact> 0.14343307E+05</totfact>
</mgrwt>
</event>
<event>
 8    1  0.1226832E-016  0.7936819E+02  0.7818608E-02  0.1330854E+00
          2   -1    0    0  501    0  0.00000000000E+00  0.00000000000E+00  0.39691561066E+02  0.39691561148E+02  0.25500000000E-02 0. -1.
         -1   -1    0    0    0  501 -0.00000000000E+00 -0.00000000000E+00 -0.39676629795E+02  0.39676630115E+02  0.50400000000E-02 0.  1.
         24    2    1    2    0    0 -0.35527136788E-14  0.17763568394E-14  0.14931271131E-01  0.79368191264E+02  0.79368189859E+02 0.  0.
         66    2    3    3    0    0  0.26906376490E+02 -0.84976728713E+01  0.27876071529E+02  0.39714467094E+02  0.19999981472E+01 0.  0.
        -13    1    3    3    0    0 -0.26906376490E+02  0.84976728713E+01 -0.27861140258E+02  0.39653724170E+02  0.10566000000E+00 0.  1.
         13    1    4    4    0    0  0.25120982504E+01 -0.88401670662E+00  0.25717623892E+01  0.37036804640E+01  0.10566000000E+00 0. -1.
        -13    1    4    4    0    0  0.12545531083E+02 -0.40161244751E+01  0.14329221976E+02  0.19464258846E+02  0.10566000000E+00 0.  1.
        -14    1    4    4    0    0  0.11848747157E+02 -0.35975316896E+01  0.10975087164E+02  0.16546527784E+02  0.00000000000E+00 0.  1.
<mgrwt>
<rscale>  0 0.79368190E+02</rscale>
<asrwt>0</asrwt>
<pdfrwt beam="1">  1        2 0.61063940E-02 0.79368190E+02</pdfrwt>
<pdfrwt beam="2">  1       -1 0.61040969E-02 0.79368190E+02</pdfrwt>
<totfact> 0.14547937E+05</totfact>
</mgrwt>
</event>
<event>
 8    1  0.1226832E-016  0.8043866E+02  0.7818608E-02  0.1327811E+00
          2   -1    0    0  501    0  0.00000000000E+00  0.00000000000E+00  0.13127043349E+04  0.13127043349E+04  0.25500000000E-02 0. -1.
         -1   -1    0    0    0  501 -0.00000000000E+00 -0.00000000000E+00 -0.12322559436E+01  0.12322662506E+01  0.50400000000E-02 0.  1.
         24    2    1    2    0    0  0.35527136788E-14  0.00000000000E+00  0.13114720790E+04  0.13139366011E+04  0.80438659657E+02 0.  0.
         66    2    3    3    0    0 -0.25335551380E+02  0.44792650754E+00  0.11657964460E+04  0.11660735159E+04  0.19999988002E+01 0.  0.
        -13    1    3    3    0    0  0.25335551380E+02 -0.44792650754E+00  0.14567563291E+03  0.14786308528E+03  0.10566000000E+00 0.  1.
         13    1    4    4    0    0 -0.23806428878E+01  0.34833011471E+00  0.91770581301E+02  0.91802176177E+02  0.10566000000E+00 0. -1.
        -13    1    4    4    0    0 -0.15419599639E+02 -0.22830700994E+00  0.72259135852E+03  0.72275590537E+03  0.10566000000E+00 0.  1.
         14    1    4    4    0    0 -0.75353088537E+01  0.32790340277E+00  0.35143450623E+03  0.35151543432E+03  0.00000000000E+00 0. -1.
<mgrwt>
<rscale>  0 0.80438660E+02</rscale>
<asrwt>0</asrwt>
<pdfrwt beam="1">  1        2 0.20195383E+00 0.80438660E+02</pdfrwt>
<pdfrwt beam="2">  1       -1 0.18957927E-03 0.80438660E+02</pdfrwt>
<totfact> 0.34062627E+05</totfact>
</mgrwt>
</event>
<event>
 8    1  0.1226832E-016  0.7961529E+02  0.7818608E-02  0.1330147E+00
          2   -1    0    0  501    0  0.00000000000E+00  0.00000000000E+00  0.15538153088E+04  0.15538153088E+04  0.25500000000E-02 0. -1.
         -1   -1    0    0    0  501 -0.00000000000E+00 -0.00000000000E+00 -0.10198372815E+01  0.10198497352E+01  0.50400000000E-02 0.  1.
         24    2    1    2    0    0  0.00000000000E+00  0.00000000000E+00  0.15527954715E+04  0.15548351585E+04  0.79615286566E+02 0.  0.
         66    2    3    3    0    0  0.43246788901E+01  0.14049553094E+02  0.14988257564E+04  0.14988991764E+04  0.20000019983E+01 0.  0.
        -13    1    3    3    0    0 -0.43246788901E+01 -0.14049553094E+02  0.53969715058E+02  0.55935982132E+02  0.10566000000E+00 0.  1.
         13    1    4    4    0    0  0.36820281355E+01  0.10458613393E+02  0.11535519032E+04  0.11536051943E+04  0.10566000000E+00 0. -1.
        -13    1    4    4    0    0  0.57403589567E+00  0.33571185695E+01  0.33458826712E+03  0.33460561773E+03  0.10566000000E+00 0.  1.
        -14    1    4    4    0    0  0.68614858934E-01  0.23382113181E+00  0.10685586139E+02  0.10688364302E+02  0.00000000000E+00 0.  1.
<mgrwt>
<rscale>  0 0.79615287E+02</rscale>
<asrwt>0</asrwt>
<pdfrwt beam="1">  1        2 0.23904923E+00 0.79615287E+02</pdfrwt>
<pdfrwt beam="2">  1       -1 0.15689853E-03 0.79615287E+02</pdfrwt>
<totfact> 0.33196582E+05</totfact>
</mgrwt>
</event>
<event>
 8    1  0.1226832E-016  0.8229785E+02  0.7818608E-02  0.1322654E+00
         -1   -1    0    0    0  501 -0.00000000000E+00  0.00000000000E+00  0.35612513706E+01  0.35612549370E+01  0.50400000000E-02 0.  1.
          2   -1    0    0  501    0  0.00000000000E+00 -0.00000000000E+00 -0.47546016679E+03  0.47546016680E+03  0.25500000000E-02 0. -1.
         24    2    1    2    0    0  0.35527136788E-14 -0.35527136788E-14 -0.47189891542E+03  0.47902142173E+03  0.82297849947E+02 0.  0.
         66    2    3    3    0    0 -0.27222018367E+02  0.30020637901E+02 -0.27681255366E+03  0.27977038236E+03  0.19999991965E+01 0.  0.
        -13    1    3    3    0    0  0.27222018367E+02 -0.30020637901E+02 -0.19508636175E+03  0.19925103937E+03  0.10566000000E+00 0.  1.
         13    1    4    4    0    0 -0.66709085037E+01  0.69544768064E+01 -0.63867069986E+02  0.64590088718E+02  0.10566000000E+00 0. -1.
        -13    1    4    4    0    0 -0.19846582261E+01  0.25878505165E+01 -0.25395142713E+02  0.25603911342E+02  0.10566000000E+00 0.  1.
        -14    1    4    4    0    0 -0.18566451637E+02  0.20478310578E+02 -0.18755034097E+03  0.18957638230E+03  0.00000000000E+00 0.  1.
<mgrwt>
<rscale>  0 0.82297850E+02</rscale>
<asrwt>0</asrwt>
<pdfrwt beam="1">  1        2 0.73147668E-01 0.82297850E+02</pdfrwt>
<pdfrwt beam="2">  1       -1 0.54788548E-03 0.82297850E+02</pdfrwt>
<totfact> 0.27824858E+05</totfact>
</mgrwt>
</event>
<event>
 8    1  0.1226832E-016  0.7996649E+02  0.7818608E-02  0.1329147E+00
          2   -1    0    0  501    0  0.00000000000E+00  0.00000000000E+00  0.44094201932E+02  0.44094202005E+02  0.25500000000E-02 0. -1.
         -1   -1    0    0    0  501 -0.00000000000E+00 -0.00000000000E+00 -0.36255559174E+02  0.36255559524E+02  0.50400000000E-02 0.  1.
         24    2    1    2    0    0 -0.17763568394E-14  0.00000000000E+00  0.78386427576E+01  0.80349761530E+02  0.79966492093E+02 0.  0.
         66    2    3    3    0    0 -0.14127853417E+02 -0.97519836956E+01  0.40177355027E+02  0.43736909914E+02  0.20000009143E+01 0.  0.
        -13    1    3    3    0    0  0.14127853417E+02  0.97519836956E+01 -0.32338712270E+02  0.36612851616E+02  0.10566000000E+00 0.  1.
         13    1    4    4    0    0 -0.29579017562E-02 -0.13023698542E+00  0.40900038762E+00  0.44205856425E+00  0.10566000000E+00 0.  1.
        -13    1    4    4    0    0 -0.49335496644E+01 -0.37943698099E+01  0.15077788042E+02  0.16312204352E+02  0.10566000000E+00 0.  1.
         14    1    4    4    0    0 -0.91913458507E+01 -0.58273769002E+01  0.24690566597E+02  0.26982646997E+02  0.00000000000E+00 0. -1.
<mgrwt>
<rscale>  0 0.79966492E+02</rscale>
<asrwt>0</asrwt>
<pdfrwt beam="1">  1        2 0.67837234E-02 0.79966492E+02</pdfrwt>
<pdfrwt beam="2">  1       -1 0.55777784E-02 0.79966492E+02</pdfrwt>
<totfact> 0.14563552E+05</totfact>
</mgrwt>
</event>
<event>
 8    1  0.1226832E-016  0.7669079E+02  0.7818608E-02  0.1338714E+00
          2   -1    0    0  501    0  0.00000000000E+00  0.00000000000E+00  0.13320652543E+03  0.13320652545E+03  0.25500000000E-02 0. -1.
         -1   -1    0    0    0  501 -0.00000000000E+00 -0.00000000000E+00 -0.11038267912E+02  0.11038269063E+02  0.50400000000E-02 0.  1.
         24    2    1    2    0    0  0.00000000000E+00  0.35527136788E-14  0.12216825752E+03  0.14424479451E+03  0.76690792147E+02 0.  0.
         66    2    3    3    0    0  0.11749294165E+02  0.26381309627E+02  0.10849733746E+03  0.11229288330E+03  0.19999983144E+01 0.  0.
        -13    1    3    3    0    0 -0.11749294165E+02 -0.26381309627E+02  0.13670920056E+02  0.31951911214E+02  0.10566000000E+00 0.  1.
         13    1    4    4    0    0  0.35448329427E+01  0.69930808327E+01  0.27972474390E+02  0.29050636958E+02  0.10566000000E+00 0. -1.
        -13    1    4    4    0    0  0.66698218313E+01  0.14407455928E+02  0.61524210612E+02  0.63539758932E+02  0.10566000000E+00 0.  1.
         14    1    4    4    0    0  0.15346393912E+01  0.49807728663E+01  0.19000652457E+02  0.19702487411E+02  0.00000000000E+00 0. -1.
<mgrwt>
<rscale>  0 0.76690792E+02</rscale>
<asrwt>0</asrwt>
<pdfrwt beam="1">  1        2 0.20493312E-01 0.76690792E+02</pdfrwt>
<pdfrwt beam="2">  1       -1 0.16981951E-02 0.76690792E+02</pdfrwt>
<totfact> 0.21580183E+05</totfact>
</mgrwt>
</event>
<event>
 8    1  0.1226832E-016  0.7681646E+02  0.7818608E-02  0.1338337E+00
         -1   -1    0    0    0  501 -0.00000000000E+00  0.00000000000E+00  0.82048813453E+02  0.82048813608E+02  0.50400000000E-02 0.  1.
          2   -1    0    0  501    0  0.00000000000E+00 -0.00000000000E+00 -0.17979446955E+02  0.17979447135E+02  0.25500000000E-02 0. -1.
         24    2    1    2    0    0 -0.71054273576E-14 -0.88817841970E-15  0.64069366498E+02  0.10002826074E+03  0.76816464536E+02 0.  0.
         66    2    3    3    0    0  0.35280804603E+02 -0.52834628295E+01  0.50496550810E+02  0.61859128678E+02  0.20000010385E+01 0.  0.
        -13    1    3    3    0    0 -0.35280804603E+02  0.52834628295E+01  0.13572815688E+02  0.38169132066E+02  0.10566000000E+00 0.  1.
         13    1    4    4    0    0  0.50582199318E+01 -0.89488137497E+00  0.64872423141E+01  0.82753778422E+01  0.10566000000E+00 0. -1.
        -13    1    4    4    0    0  0.11206541182E+01 -0.27251936160E+00  0.13380458392E+01  0.17696505753E+01  0.10566000000E+00 0.  1.
         14    1    4    4    0    0  0.29101930553E+02 -0.41160620929E+01  0.42671262657E+02  0.51814100260E+02  0.00000000000E+00 0. -1.
<mgrwt>
<rscale>  0 0.76816465E+02</rscale>
<asrwt>0</asrwt>
<pdfrwt beam="1">  1        2 0.27660688E-02 0.76816465E+02</pdfrwt>
<pdfrwt beam="2">  1       -1 0.12622894E-01 0.76816465E+02</pdfrwt>
<totfact> 0.13656180E+05</totfact>
</mgrwt>
</event>
<event>
 8    1  0.1226832E-016  0.7941101E+02  0.7818608E-02  0.1330731E+00
         -1   -1    0    0    0  501 -0.00000000000E+00  0.00000000000E+00  0.66256253472E+02  0.66256253664E+02  0.50400000000E-02 0.  1.
          2   -1    0    0  501    0  0.00000000000E+00 -0.00000000000E+00 -0.23794388073E+02  0.23794388209E+02  0.25500000000E-02 0. -1.
         24    2    1    2    0    0  0.00000000000E+00  0.00000000000E+00  0.42461865399E+02  0.90050641873E+02  0.79411007351E+02 0.  0.
         66    2    3    3    0    0  0.25190492305E+02  0.30572452727E+02  0.23851608495E+02  0.46283204269E+02  0.20000003219E+01 0.  0.
        -13    1    3    3    0    0 -0.25190492305E+02 -0.30572452727E+02  0.18610256904E+02  0.43767437604E+02  0.10566000000E+00 0.  1.
         13    1    4    4    0    0  0.16915892521E+02  0.21082802813E+02  0.16373303075E+02  0.31602661468E+02  0.10566000000E+00 0. -1.
        -13    1    4    4    0    0  0.71563695697E+00  0.69232959634E+00  0.32218723297E+00  0.10518674692E+01  0.10566000000E+00 0.  1.
         14    1    4    4    0    0  0.75589628272E+01  0.87973203172E+01  0.71561181878E+01  0.13628675332E+02  0.00000000000E+00 0. -1.
<mgrwt>
<rscale>  0 0.79411007E+02</rscale>
<asrwt>0</asrwt>
<pdfrwt beam="1">  1        2 0.36606751E-02 0.79411007E+02</pdfrwt>
<pdfrwt beam="2">  1       -1 0.10193270E-01 0.79411007E+02</pdfrwt>
<totfact> 0.13126653E+05</totfact>
</mgrwt>
</event>
<event>
 8    1  0.1226832E-016  0.7948823E+02  0.7818608E-02  0.1330510E+00
          2   -1    0    0  501    0  0.00000000000E+00  0.00000000000E+00  0.16674941321E+02  0.16674941516E+02  0.25500000000E-02 0. -1.
         -1   -1    0    0    0  501 -0.00000000000E+00 -0.00000000000E+00 -0.94728657245E+02  0.94728657379E+02  0.50400000000E-02 0.  1.
         24    2    1    2    0    0 -0.71054273576E-14 -0.44408920985E-15 -0.78053715924E+02  0.11140359889E+03  0.79488233577E+02 0.  0.
         66    2    3    3    0    0  0.33602360168E+02  0.25519968969E+01 -0.95878046797E+01  0.35093550647E+02  0.20000003497E+01 0.  0.
        -13    1    3    3    0    0 -0.33602360168E+02 -0.25519968969E+01 -0.68465911244E+02  0.76310048248E+02  0.10566000000E+00 0.  1.
         13    1    4    4    0    0  0.65386970420E+01  0.75093065870E+00 -0.14020664525E+01  0.67301864933E+01  0.10566000000E+00 0. -1.
        -13    1    4    4    0    0  0.20801693321E+02  0.15628597656E+01 -0.57337841279E+01  0.21634241843E+02  0.10566000000E+00 0.  1.
        -14    1    4    4    0    0  0.62619698050E+01  0.23820647262E+00 -0.24519540993E+01  0.67291223104E+01  0.00000000000E+00 0.  1.
<mgrwt>
<rscale>  0 0.79488234E+02</rscale>
<asrwt>0</asrwt>
<pdfrwt beam="1">  1        2 0.25653757E-02 0.79488234E+02</pdfrwt>
<pdfrwt beam="2">  1       -1 0.14573639E-01 0.79488234E+02</pdfrwt>
<totfact> 0.12183114E+05</totfact>
</mgrwt>
</event>
<event>
 8    1  0.1226832E-016  0.8256231E+02  0.7818608E-02  0.1321933E+00
          2   -1    0    0  501    0  0.00000000000E+00  0.00000000000E+00  0.10881806614E+02  0.10881806913E+02  0.25500000000E-02 0. -1.
         -1   -1    0    0    0  501 -0.00000000000E+00 -0.00000000000E+00 -0.15660393788E+03  0.15660393796E+03  0.50400000000E-02 0.  1.
         24    2    1    2    0    0  0.71054273576E-14  0.00000000000E+00 -0.14572213127E+03  0.16748574488E+03  0.82562310986E+02 0.  0.
         66    2    3    3    0    0  0.36764370368E+02 -0.18701153915E+02 -0.74691529999E+02  0.85347388629E+02  0.20000014558E+01 0.  0.
        -13    1    3    3    0    0 -0.36764370368E+02  0.18701153915E+02 -0.71030601270E+02  0.82138356248E+02  0.10566000000E+00 0.  1.
         13    1    4    4    0    0  0.34037115516E+02 -0.17185448668E+02 -0.69166663143E+02  0.78980398409E+02  0.10566000000E+00 0. -1.
        -13    1    4    4    0    0  0.11691711136E+01 -0.85491456527E+00 -0.21986769881E+01  0.26349923226E+01  0.10566000000E+00 0.  1.
         14    1    4    4    0    0  0.15580837382E+01 -0.66079068177E+00 -0.33261898683E+01  0.37319978966E+01  0.00000000000E+00 0. -1.
<mgrwt>
<rscale>  0 0.82562311E+02</rscale>
<asrwt>0</asrwt>
<pdfrwt beam="1">  1        2 0.16741242E-02 0.82562311E+02</pdfrwt>
<pdfrwt beam="2">  1       -1 0.24092912E-01 0.82562311E+02</pdfrwt>
<totfact> 0.98497867E+04</totfact>
</mgrwt>
</event>
<event>
 8    1  0.1226832E-016  0.8030501E+02  0.7818608E-02  0.1328188E+00
         -1   -1    0    0    0  501 -0.00000000000E+00  0.00000000000E+00  0.24637817442E+02  0.24637817957E+02  0.50400000000E-02 0.  1.
          2   -1    0    0  501    0  0.00000000000E+00 -0.00000000000E+00 -0.65436945519E+02  0.65436945568E+02  0.25500000000E-02 0. -1.
         24    2    1    2    0    0  0.35527136788E-14  0.00000000000E+00 -0.40799128077E+02  0.90074763526E+02  0.80305007144E+02 0.  0.
         66    2    3    3    0    0  0.17053689964E+02  0.17889894206E+02 -0.55870453129E+02  0.61125969786E+02  0.19999983582E+01 0.  0.
        -13    1    3    3    0    0 -0.17053689964E+02 -0.17889894206E+02  0.15071325052E+02  0.28948793739E+02  0.10566000000E+00 0.  1.
         13    1    4    4    0    0  0.82407472009E+01  0.75462321031E+01 -0.24752406651E+02  0.27157841086E+02  0.10566000000E+00 0. -1.
        -13    1    4    4    0    0  0.65031501156E+00  0.11177358726E+01 -0.32105925098E+01  0.34628472959E+01  0.10566000000E+00 0.  1.
         14    1    4    4    0    0  0.81626277513E+01  0.92259262305E+01 -0.27907453968E+02  0.30505281405E+02  0.00000000000E+00 0. -1.
<mgrwt>
<rscale>  0 0.80305007E+02</rscale>
<asrwt>0</asrwt>
<pdfrwt beam="1">  1        2 0.10067222E-01 0.80305007E+02</pdfrwt>
<pdfrwt beam="2">  1       -1 0.37904335E-02 0.80305007E+02</pdfrwt>
<totfact> 0.15722930E+05</totfact>
</mgrwt>
</event>
<event>
 8    1  0.1226832E-016  0.7986011E+02  0.7818608E-02  0.1329449E+00
          2   -1    0    0  501    0  0.00000000000E+00  0.00000000000E+00  0.21396232129E+03  0.21396232130E+03  0.25500000000E-02 0. -1.
         -1   -1    0    0    0  501 -0.00000000000E+00 -0.00000000000E+00 -0.74518224165E+01  0.74518241209E+01  0.50400000000E-02 0.  1.
         24    2    1    2    0    0  0.00000000000E+00  0.00000000000E+00  0.20651049887E+03  0.22141414542E+03  0.79860113008E+02 0.  0.
         66    2    3    3    0    0  0.10007541228E+02  0.10442168627E+02  0.20643444777E+03  0.20695016551E+03  0.20000033956E+01 0.  0.
        -13    1    3    3    0    0 -0.10007541228E+02 -0.10442168627E+02  0.76051104150E-01  0.14463979911E+02  0.10566000000E+00 0.  1.
         13    1    4    4    0    0  0.25840121765E+01  0.37245700439E+01  0.68503755927E+02  0.68653661819E+02  0.10566000000E+00 0.  1.
        -13    1    4    4    0    0  0.99592696708E+00  0.10759953180E+01  0.16734519114E+02  0.16798956231E+02  0.10566000000E+00 0. -1.
         14    1    4    4    0    0  0.64276020848E+01  0.56416032653E+01  0.12119617273E+03  0.12149754746E+03  0.00000000000E+00 0. -1.
<mgrwt>
<rscale>  0 0.79860113E+02</rscale>
<asrwt>0</asrwt>
<pdfrwt beam="1">  1        2 0.32917279E-01 0.79860113E+02</pdfrwt>
<pdfrwt beam="2">  1       -1 0.11464344E-02 0.79860113E+02</pdfrwt>
<totfact> 0.22689225E+05</totfact>
</mgrwt>
</event>
<event>
 8    1  0.1226832E-016  0.7992464E+02  0.7818608E-02  0.1329265E+00
          2   -1    0    0  501    0  0.00000000000E+00  0.00000000000E+00  0.25322385969E+02  0.25322386097E+02  0.25500000000E-02 0. -1.
         -1   -1    0    0    0  501 -0.00000000000E+00 -0.00000000000E+00 -0.63066207329E+02  0.63066207531E+02  0.50400000000E-02 0.  1.
         24    2    1    2    0    0  0.00000000000E+00 -0.17763568394E-14 -0.37743821360E+02  0.88388593628E+02  0.79924635956E+02 0.  0.
         66    2    3    3    0    0 -0.35191862417E+02 -0.97029346851E+01 -0.97059258962E+00  0.36572615010E+02  0.19999991912E+01 0.  0.
        -13    1    3    3    0    0  0.35191862417E+02  0.97029346851E+01 -0.36773228771E+02  0.51815978618E+02  0.10566000000E+00 0.  1.
         13    1    4    4    0    0 -0.16941618366E+02 -0.43108865197E+01 -0.59361372309E+00  0.17491875735E+02  0.10566000000E+00 0. -1.
        -13    1    4    4    0    0 -0.16596851550E+02 -0.50668169392E+01  0.29404180498E-02  0.17353365320E+02  0.10566000000E+00 0.  1.
        -14    1    4    4    0    0 -0.16533925012E+01 -0.32523122628E+00 -0.37991928459E+00  0.17273739538E+01  0.00000000000E+00 0.  1.
<mgrwt>
<rscale>  0 0.79924636E+02</rscale>
<asrwt>0</asrwt>
<pdfrwt beam="1">  1        2 0.38957517E-02 0.79924636E+02</pdfrwt>
<pdfrwt beam="2">  1       -1 0.97024935E-02 0.79924636E+02</pdfrwt>
<totfact> 0.13047984E+05</totfact>
</mgrwt>
</event>
<event>
 8    1  0.1226832E-016  0.8090695E+02  0.7818608E-02  0.1326497E+00
          2   -1    0    0  501    0  0.00000000000E+00  0.00000000000E+00  0.12969364712E+02  0.12969364963E+02  0.25500000000E-02 0. -1.
         -1   -1    0    0    0  501 -0.00000000000E+00 -0.00000000000E+00 -0.12618070787E+03  0.12618070797E+03  0.50400000000E-02 0.  1.
         24    2    1    2    0    0  0.00000000000E+00 -0.71054273576E-14 -0.11321134316E+03  0.13915007293E+03  0.80906950120E+02 0.  0.
         66    2    3    3    0    0 -0.11714572857E+00 -0.37394860191E+02 -0.30213897237E+02  0.48117241025E+02  0.20000014368E+01 0.  0.
        -13    1    3    3    0    0  0.11714572857E+00  0.37394860191E+02 -0.82997445922E+02  0.91032831909E+02  0.10566000000E+00 0.  1.
         13    1    4    4    0    0  0.20564520610E+00 -0.38502966389E+01 -0.31673705648E+01  0.49910394197E+01  0.10566000000E+00 0. -1.
        -13    1    4    4    0    0  0.36607522488E+00 -0.44580436021E+01 -0.30868995373E+01  0.54358326518E+01  0.10566000000E+00 0.  1.
         14    1    4    4    0    0 -0.68886615955E+00 -0.29086519950E+02 -0.23959627135E+02  0.37690368953E+02  0.00000000000E+00 0. -1.
<mgrwt>
<rscale>  0 0.80906950E+02</rscale>
<asrwt>0</asrwt>
<pdfrwt beam="1">  1        2 0.19952870E-02 0.80906950E+02</pdfrwt>
<pdfrwt beam="2">  1       -1 0.19412416E-01 0.80906950E+02</pdfrwt>
<totfact> 0.10938252E+05</totfact>
</mgrwt>
</event>
<event>
 8    1  0.1226832E-016  0.8331745E+02  0.7818608E-02  0.1319892E+00
          2   -1    0    0  501    0  0.00000000000E+00  0.00000000000E+00  0.78129419182E+03  0.78129419182E+03  0.25500000000E-02 0. -1.
         -1   -1    0    0    0  501 -0.00000000000E+00 -0.00000000000E+00 -0.22212468036E+01  0.22212525214E+01  0.50400000000E-02 0.  1.
         24    2    1    2    0    0  0.35527136788E-14  0.00000000000E+00  0.77907294501E+03  0.78351544434E+03  0.83317452383E+02 0.  0.
         66    2    3    3    0    0  0.16791044210E+02  0.30315253372E+02  0.60676423297E+03  0.60775635592E+03  0.19999995281E+01 0.  0.
        -13    1    3    3    0    0 -0.16791044210E+02 -0.30315253372E+02  0.17230871204E+03  0.17575908842E+03  0.10566000000E+00 0.  1.
         13    1    4    4    0    0  0.51845909475E+01  0.92816982264E+01  0.19810206729E+03  0.19838717230E+03  0.10566000000E+00 0.  1.
        -13    1    4    4    0    0  0.64524420449E+01  0.11648962941E+02  0.21713800121E+03  0.21754598383E+03  0.10566000000E+00 0. -1.
         14    1    4    4    0    0  0.51540112177E+01  0.93845922051E+01  0.19152416447E+03  0.19182319979E+03  0.00000000000E+00 0. -1.
<mgrwt>
<rscale>  0 0.83317452E+02</rscale>
<asrwt>0</asrwt>
<pdfrwt beam="1">  1        2 0.12019902E+00 0.83317452E+02</pdfrwt>
<pdfrwt beam="2">  1       -1 0.34173095E-03 0.83317452E+02</pdfrwt>
<totfact> 0.30786287E+05</totfact>
</mgrwt>
</event>
<event>
 8    1  0.1226832E-016  0.7988900E+02  0.7818608E-02  0.1329367E+00
         -1   -1    0    0    0  501 -0.00000000000E+00  0.00000000000E+00  0.95485200071E+02  0.95485200204E+02  0.50400000000E-02 0.  1.
          2   -1    0    0  501    0  0.00000000000E+00 -0.00000000000E+00 -0.16710054582E+02  0.16710054776E+02  0.25500000000E-02 0. -1.
         24    2    1    2    0    0  0.00000000000E+00  0.35527136788E-14  0.78775145489E+02  0.11219525498E+03  0.79888996071E+02 0.  0.
         66    2    3    3    0    0 -0.17627048677E+02 -0.28593178340E+02  0.91191737454E+01  0.34863190116E+02  0.20000006510E+01 0.  0.
        -13    1    3    3    0    0  0.17627048677E+02  0.28593178340E+02  0.69655971743E+02  0.77332064864E+02  0.10566000000E+00 0.  1.
         13    1    4    4    0    0 -0.41214114127E+01 -0.63146107184E+01  0.24349591034E+01  0.79246785695E+01  0.10566000000E+00 0. -1.
        -13    1    4    4    0    0 -0.82752625626E+01 -0.14580130598E+02  0.37458361206E+01  0.17178551482E+02  0.10566000000E+00 0.  1.
        -14    1    4    4    0    0 -0.52303747018E+01 -0.76984370236E+01  0.29383785214E+01  0.97599600646E+01  0.00000000000E+00 0.  1.
<mgrwt>
<rscale>  0 0.79888996E+02</rscale>
<asrwt>0</asrwt>
<pdfrwt beam="1">  1        2 0.25707776E-02 0.79888996E+02</pdfrwt>
<pdfrwt beam="2">  1       -1 0.14690031E-01 0.79888996E+02</pdfrwt>
<totfact> 0.12011515E+05</totfact>
</mgrwt>
</event>
<event>
 8    1  0.1226832E-016  0.8017232E+02  0.7818608E-02  0.1328563E+00
         -1   -1    0    0    0  501 -0.00000000000E+00  0.00000000000E+00  0.12699928144E+01  0.12700028151E+01  0.50400000000E-02 0.  1.
          2   -1    0    0  501    0  0.00000000000E+00 -0.00000000000E+00 -0.12652779526E+04  0.12652779526E+04  0.25500000000E-02 0. -1.
         24    2    1    2    0    0  0.00000000000E+00  0.00000000000E+00 -0.12640079598E+04  0.12665479554E+04  0.80172320481E+02 0.  0.
         66    2    3    3    0    0 -0.22221620472E+02 -0.14937961364E+02 -0.11031479690E+04  0.11034746869E+04  0.20000023965E+01 0.  0.
        -13    1    3    3    0    0  0.22221620472E+02  0.14937961364E+02 -0.16085999078E+03  0.16307326852E+03  0.10566000000E+00 0.  1.
         13    1    4    4    0    0 -0.84283709115E+01 -0.63047407497E+01 -0.42199717323E+03  0.42212843137E+03  0.10566000000E+00 0.  1.
        -13    1    4    4    0    0 -0.17267337407E+01 -0.72339523971E+00 -0.69213043616E+02  0.69238439329E+02  0.10566000000E+00 0. -1.
         14    1    4    4    0    0 -0.12066515819E+02 -0.79098253750E+01 -0.61193775215E+03  0.61210781620E+03  0.00000000000E+00 0. -1.
<mgrwt>
<rscale>  0 0.80172320E+02</rscale>
<asrwt>0</asrwt>
<pdfrwt beam="1">  1        2 0.19465714E+00 0.80172320E+02</pdfrwt>
<pdfrwt beam="2">  1       -1 0.19538529E-03 0.80172320E+02</pdfrwt>
<totfact> 0.34591207E+05</totfact>
</mgrwt>
</event>
<event>
 8    1  0.1226832E-016  0.7951427E+02  0.7818608E-02  0.1330436E+00
         -1   -1    0    0    0  501 -0.00000000000E+00  0.00000000000E+00  0.10621531271E+03  0.10621531283E+03  0.50400000000E-02 0.  1.
          2   -1    0    0  501    0  0.00000000000E+00 -0.00000000000E+00 -0.14881375249E+02  0.14881375468E+02  0.25500000000E-02 0. -1.
         24    2    1    2    0    0  0.71054273576E-14  0.55511151231E-16  0.91333937456E+02  0.12109668829E+03  0.79514274092E+02 0.  0.
         66    2    3    3    0    0  0.38090254278E+02  0.40817737930E+00  0.28493062845E+02  0.47611854717E+02  0.19999998970E+01 0.  0.
        -13    1    3    3    0    0 -0.38090254278E+02 -0.40817737930E+00  0.62840874612E+02  0.73484833576E+02  0.10566000000E+00 0.  1.
         13    1    4    4    0    0  0.26053377233E+02  0.56778871778E+00  0.19768409946E+02  0.32709357149E+02  0.10566000000E+00 0. -1.
        -13    1    4    4    0    0  0.19047496944E+01  0.32839217584E+00  0.13000356127E+01  0.23317738847E+01  0.10566000000E+00 0.  1.
         14    1    4    4    0    0  0.10132127351E+02 -0.48800351432E+00  0.74246172861E+01  0.12570723683E+02  0.00000000000E+00 0. -1.
<mgrwt>
<rscale>  0 0.79514274E+02</rscale>
<asrwt>0</asrwt>
<pdfrwt beam="1">  1        2 0.22894424E-02 0.79514274E+02</pdfrwt>
<pdfrwt beam="2">  1       -1 0.16340817E-01 0.79514274E+02</pdfrwt>
<totfact> 0.11878739E+05</totfact>
</mgrwt>
</event>
<event>
 8    1  0.1226832E-016  0.8056236E+02  0.7818608E-02  0.1327463E+00
          2   -1    0    0  501    0  0.00000000000E+00  0.00000000000E+00  0.35697766547E+03  0.35697766548E+03  0.25500000000E-02 0. -1.
         -1   -1    0    0    0  501 -0.00000000000E+00 -0.00000000000E+00 -0.45453070712E+01  0.45453098655E+01  0.50400000000E-02 0.  1.
         24    2    1    2    0    0  0.35527136788E-14 -0.35527136788E-14  0.35243235840E+03  0.36152297535E+03  0.80562363766E+02 0.  0.
         66    2    3    3    0    0 -0.16618136051E+02  0.92201718413E+01  0.33557637836E+03  0.33612003769E+03  0.20000015748E+01 0.  0.
        -13    1    3    3    0    0  0.16618136051E+02 -0.92201718413E+01  0.16855980040E+02  0.25402937660E+02  0.10566000000E+00 0.  1.
         13    1    4    4    0    0 -0.37173555115E+01  0.27896255314E+01  0.79242596270E+02  0.79378844601E+02  0.10566000000E+00 0. -1.
        -13    1    4    4    0    0 -0.22642516036E+00  0.24431328804E+00  0.73217677953E+01  0.73301026609E+01  0.10566000000E+00 0. -1.
        -14    1    4    4    0    0 -0.12674355379E+02  0.61862330219E+01  0.24901201430E+03  0.24941109043E+03  0.00000000000E+00 0.  1.
<mgrwt>
<rscale>  0 0.80562364E+02</rscale>
<asrwt>0</asrwt>
<pdfrwt beam="1">  1        2 0.54919626E-01 0.80562364E+02</pdfrwt>
<pdfrwt beam="2">  1       -1 0.69927842E-03 0.80562364E+02</pdfrwt>
<totfact> 0.26646968E+05</totfact>
</mgrwt>
</event>
<event>
 8    1  0.1226832E-016  0.8173948E+02  0.7818608E-02  0.1324186E+00
         -1   -1    0    0    0  501 -0.00000000000E+00  0.00000000000E+00  0.25476101157E+03  0.25476101162E+03  0.50400000000E-02 0.  1.
          2   -1    0    0  501    0  0.00000000000E+00 -0.00000000000E+00 -0.65564797209E+01  0.65564802168E+01  0.25500000000E-02 0. -1.
         24    2    1    2    0    0  0.00000000000E+00  0.00000000000E+00  0.24820453185E+03  0.26131749184E+03  0.81739475833E+02 0.  0.
         66    2    3    3    0    0  0.29779198782E+00  0.38237535537E+02  0.78276633682E+02  0.87140284535E+02  0.20000010460E+01 0.  0.
        -13    1    3    3    0    0 -0.29779198782E+00 -0.38237535537E+02  0.16992789817E+03  0.17417720731E+03  0.10566000000E+00 0.  1.
         13    1    4    4    0    0 -0.28381114242E-02  0.26726077795E+02  0.54489749242E+02  0.60691244664E+02  0.10566000000E+00 0. -1.
        -13    1    4    4    0    0  0.23156400138E+00  0.11092217675E+02  0.23271492225E+02  0.25781086658E+02  0.10566000000E+00 0.  1.
         14    1    4    4    0    0  0.69066097863E-01  0.41924006692E+00  0.51539221506E+00  0.66795321313E+00  0.00000000000E+00 0. -1.
<mgrwt>
<rscale>  0 0.81739476E+02</rscale>
<asrwt>0</asrwt>
<pdfrwt beam="1">  1        2 0.10086895E-02 0.81739476E+02</pdfrwt>
<pdfrwt beam="2">  1       -1 0.39193992E-01 0.81739476E+02</pdfrwt>
<totfact> 0.87063544E+04</totfact>
</mgrwt>
</event>
<event>
 8    1  0.1226832E-016  0.7968296E+02  0.7818608E-02  0.1329954E+00
          2   -1    0    0  501    0  0.00000000000E+00  0.00000000000E+00  0.17180016889E+03  0.17180016891E+03  0.25500000000E-02 0. -1.
         -1   -1    0    0    0  501 -0.00000000000E+00 -0.00000000000E+00 -0.92394749237E+01  0.92394762984E+01  0.50400000000E-02 0.  1.
         24    2    1    2    0    0  0.00000000000E+00  0.00000000000E+00  0.16256069397E+03  0.18103964521E+03  0.79682958743E+02 0.  0.
         66    2    3    3    0    0  0.12596488994E+02 -0.36488786950E+02  0.59159275729E+02  0.70667694217E+02  0.19999982671E+01 0.  0.
        -13    1    3    3    0    0 -0.12596488994E+02  0.36488786950E+02  0.10340141824E+03  0.11037195099E+03  0.10566000000E+00 0.  1.
         13    1    4    4    0    0  0.29786919138E+01 -0.10382320962E+02  0.15888967434E+02  0.19212903066E+02  0.10566000000E+00 0.  1.
        -13    1    4    4    0    0  0.71662873205E+00 -0.13647390231E+01  0.26203999571E+01  0.30419942984E+01  0.10566000000E+00 0. -1.
         14    1    4    4    0    0  0.89011683481E+01 -0.24741726965E+02  0.40649908338E+02  0.48412796852E+02  0.00000000000E+00 0. -1.
<mgrwt>
<rscale>  0 0.79682959E+02</rscale>
<asrwt>0</asrwt>
<pdfrwt beam="1">  1        2 0.26430797E-01 0.79682959E+02</pdfrwt>
<pdfrwt beam="2">  1       -1 0.14214577E-02 0.79682959E+02</pdfrwt>
<totfact> 0.21164064E+05</totfact>
</mgrwt>
</event>
<event>
 8    1  0.1226832E-016  0.8060580E+02  0.7818608E-02  0.1327341E+00
         -1   -1    0    0    0  501 -0.00000000000E+00  0.00000000000E+00  0.20823603776E+02  0.20823604386E+02  0.50400000000E-02 0.  1.
          2   -1    0    0  501    0  0.00000000000E+00 -0.00000000000E+00 -0.78003958755E+02  0.78003958796E+02  0.25500000000E-02 0. -1.
         24    2    1    2    0    0  0.00000000000E+00  0.00000000000E+00 -0.57180354978E+02  0.98827563183E+02  0.80605795382E+02 0.  0.
         66    2    3    3    0    0  0.12986335048E+02  0.18958620402E+02 -0.69165025152E+02  0.72910046543E+02  0.19999992759E+01 0.  0.
        -13    1    3    3    0    0 -0.12986335048E+02 -0.18958620402E+02  0.11984670174E+02  0.25917516639E+02  0.10566000000E+00 0.  1.
         13    1    4    4    0    0  0.67058307579E+01  0.95053070104E+01 -0.33952078760E+02  0.35889745662E+02  0.10566000000E+00 0. -1.
        -13    1    4    4    0    0  0.87242866521E+00  0.18056000930E+01 -0.76559334391E+01  0.79149102542E+01  0.10566000000E+00 0.  1.
        -14    1    4    4    0    0  0.54080756253E+01  0.76477132981E+01 -0.27557012953E+02  0.29105390627E+02  0.00000000000E+00 0.  1.
<mgrwt>
<rscale>  0 0.80605795E+02</rscale>
<asrwt>0</asrwt>
<pdfrwt beam="1">  1        2 0.12000609E-01 0.80605795E+02</pdfrwt>
<pdfrwt beam="2">  1       -1 0.32036314E-02 0.80605795E+02</pdfrwt>
<totfact> 0.16253798E+05</totfact>
</mgrwt>
</event>
<event>
 8    1  0.1226832E-016  0.7782020E+02  0.7818608E-02  0.1335354E+00
          2   -1    0    0  501    0  0.00000000000E+00  0.00000000000E+00  0.11367991306E+03  0.11367991308E+03  0.25500000000E-02 0. -1.
         -1   -1    0    0    0  501 -0.00000000000E+00 -0.00000000000E+00 -0.13318060921E+02  0.13318061875E+02  0.50400000000E-02 0.  1.
         24    2    1    2    0    0 -0.71054273576E-14 -0.35527136788E-14  0.10036185213E+03  0.12699797496E+03  0.77820204831E+02 0.  0.
         66    2    3    3    0    0 -0.25657909706E+02 -0.20305449932E+02  0.84498392886E+02  0.90634529980E+02  0.19999992185E+01 0.  0.
        -13    1    3    3    0    0  0.25657909706E+02  0.20305449932E+02  0.15863459249E+02  0.36363444980E+02  0.10566000000E+00 0.  1.
         13    1    4    4    0    0 -0.12249055610E+01 -0.10220865478E+01  0.40950376775E+01  0.43960837299E+01  0.10566000000E+00 0. -1.
        -13    1    4    4    0    0 -0.19536031833E+02 -0.16247671041E+02  0.66434008668E+02  0.71127575706E+02  0.10566000000E+00 0.  1.
        -14    1    4    4    0    0 -0.48969723119E+01 -0.30356923434E+01  0.13969346540E+02  0.15110870544E+02  0.00000000000E+00 0.  1.
<mgrwt>
<rscale>  0 0.77820205E+02</rscale>
<asrwt>0</asrwt>
<pdfrwt beam="1">  1        2 0.17489217E-01 0.77820205E+02</pdfrwt>
<pdfrwt beam="2">  1       -1 0.20489325E-02 0.77820205E+02</pdfrwt>
<totfact> 0.19794963E+05</totfact>
</mgrwt>
</event>
<event>
 8    1  0.1226832E-016  0.7454449E+02  0.7818608E-02  0.1345287E+00
         -1   -1    0    0    0  501 -0.00000000000E+00  0.00000000000E+00  0.31393655770E+02  0.31393656175E+02  0.50400000000E-02 0.  1.
          2   -1    0    0  501    0  0.00000000000E+00 -0.00000000000E+00 -0.44251620092E+02  0.44251620166E+02  0.25500000000E-02 0. -1.
         24    2    1    2    0    0  0.00000000000E+00  0.00000000000E+00 -0.12857964322E+02  0.75645276340E+02  0.74544487295E+02 0.  0.
         66    2    3    3    0    0  0.12223407859E+02  0.26887569805E+02 -0.29459240332E+02  0.41763619963E+02  0.20000004371E+01 0.  0.
        -13    1    3    3    0    0 -0.12223407859E+02 -0.26887569805E+02  0.16601276010E+02  0.33881656378E+02  0.10566000000E+00 0.  1.
         13    1    4    4    0    0  0.61084391935E+01  0.13488085486E+02 -0.15377024114E+02  0.21347260108E+02  0.10566000000E+00 0. -1.
        -13    1    4    4    0    0  0.38787749942E+01  0.83616234125E+01 -0.96319508459E+01  0.13332189718E+02  0.10566000000E+00 0.  1.
         14    1    4    4    0    0  0.22361936712E+01  0.50378609064E+01 -0.44502653718E+01  0.70841701368E+01  0.00000000000E+00 0. -1.
<mgrwt>
<rscale>  0 0.74544487E+02</rscale>
<asrwt>0</asrwt>
<pdfrwt beam="1">  1        2 0.68079416E-02 0.74544487E+02</pdfrwt>
<pdfrwt beam="2">  1       -1 0.48297932E-02 0.74544487E+02</pdfrwt>
<totfact> 0.17662660E+05</totfact>
</mgrwt>
</event>
<event>
 8    1  0.1226832E-016  0.7835185E+02  0.7818608E-02  0.1333795E+00
          2   -1    0    0  501    0  0.00000000000E+00  0.00000000000E+00  0.75790776427E+03  0.75790776427E+03  0.25500000000E-02 0. -1.
         -1   -1    0    0    0  501 -0.00000000000E+00 -0.00000000000E+00 -0.20249835838E+01  0.20249898558E+01  0.50400000000E-02 0.  1.
         24    2    1    2    0    0  0.71054273576E-14  0.35527136788E-14  0.75588278068E+03  0.75993275413E+03  0.78351851681E+02 0.  0.
         66    2    3    3    0    0 -0.28690167671E+02  0.17558376091E+02  0.57248772528E+03  0.57347852435E+03  0.20000001580E+01 0.  0.
        -13    1    3    3    0    0  0.28690167671E+02 -0.17558376091E+02  0.18339505540E+03  0.18645422978E+03  0.10566000000E+00 0.  1.
         13    1    4    4    0    0 -0.32544921615E+01  0.21992321402E+01  0.63032551542E+02  0.63154905266E+02  0.10566000000E+00 0. -1.
        -13    1    4    4    0    0 -0.24846718420E+01  0.15254658930E+01  0.42334728094E+02  0.42435138826E+02  0.10566000000E+00 0.  1.
         14    1    4    4    0    0 -0.22951003668E+02  0.13833678058E+02  0.46712044565E+03  0.46788848026E+03  0.00000000000E+00 0. -1.
<mgrwt>
<rscale>  0 0.78351852E+02</rscale>
<asrwt>0</asrwt>
<pdfrwt beam="1">  1        2 0.11660136E+00 0.78351852E+02</pdfrwt>
<pdfrwt beam="2">  1       -1 0.31153599E-03 0.78351852E+02</pdfrwt>
<totfact> 0.35912857E+05</totfact>
</mgrwt>
</event>
<event>
 8    1  0.1226832E-016  0.8254505E+02  0.7818608E-02  0.1321980E+00
         -1   -1    0    0    0  501 -0.00000000000E+00  0.00000000000E+00  0.49307746280E+01  0.49307772038E+01  0.50400000000E-02 0.  1.
          2   -1    0    0  501    0  0.00000000000E+00 -0.00000000000E+00 -0.34546718471E+03  0.34546718472E+03  0.25500000000E-02 0. -1.
         24    2    1    2    0    0  0.71054273576E-14 -0.17763568394E-14 -0.34053641008E+03  0.35039796192E+03  0.82545049085E+02 0.  0.
         66    2    3    3    0    0 -0.31461296834E+02  0.15171446405E+02 -0.26350810092E+03  0.26582043795E+03  0.19999997104E+01 0.  0.
        -13    1    3    3    0    0  0.31461296834E+02 -0.15171446405E+02 -0.77028309165E+02  0.84577523972E+02  0.10566000000E+00 0.  1.
         13    1    4    4    0    0 -0.10155596322E+02  0.51418890875E+01 -0.89265643074E+02  0.89988562370E+02  0.10566000000E+00 0. -1.
        -13    1    4    4    0    0 -0.18481317980E+02  0.89063549757E+01 -0.15470936854E+03  0.15606371183E+03  0.10566000000E+00 0.  1.
        -14    1    4    4    0    0 -0.28243825315E+01  0.11232023418E+01 -0.19533089305E+02  0.19768163749E+02  0.00000000000E+00 0.  1.
<mgrwt>
<rscale>  0 0.82545049E+02</rscale>
<asrwt>0</asrwt>
<pdfrwt beam="1">  1        2 0.53148779E-01 0.82545049E+02</pdfrwt>
<pdfrwt beam="2">  1       -1 0.75858118E-03 0.82545049E+02</pdfrwt>
<totfact> 0.24710462E+05</totfact>
</mgrwt>
</event>
<event>
 8    1  0.1226832E-016  0.8011169E+02  0.7818608E-02  0.1328735E+00
         -1   -1    0    0    0  501 -0.00000000000E+00  0.00000000000E+00  0.29716271608E+01  0.29716314348E+01  0.50400000000E-02 0.  1.
          2   -1    0    0  501    0  0.00000000000E+00 -0.00000000000E+00 -0.53992966514E+03  0.53992966514E+03  0.25500000000E-02 0. -1.
         24    2    1    2    0    0  0.00000000000E+00  0.71054273576E-14 -0.53695803798E+03  0.54290129658E+03  0.80111692521E+02 0.  0.
         66    2    3    3    0    0 -0.24430746565E+02 -0.31297263592E+02 -0.30325789065E+03  0.30585246171E+03  0.20000022054E+01 0.  0.
        -13    1    3    3    0    0  0.24430746565E+02  0.31297263592E+02 -0.23370014733E+03  0.23704883486E+03  0.10566000000E+00 0.  1.
         13    1    4    4    0    0 -0.59346192958E+01 -0.65748882896E+01 -0.68775777161E+02  0.69343835705E+02  0.10566000000E+00 0. -1.
        -13    1    4    4    0    0 -0.10938823068E+02 -0.13852323087E+02 -0.13197512797E+03  0.13315025449E+03  0.10566000000E+00 0.  1.
         14    1    4    4    0    0 -0.75573042013E+01 -0.10870052215E+02 -0.10250698552E+03  0.10335837152E+03  0.00000000000E+00 0. -1.
<mgrwt>
<rscale>  0 0.80111693E+02</rscale>
<asrwt>0</asrwt>
<pdfrwt beam="1">  1        2 0.83066024E-01 0.80111693E+02</pdfrwt>
<pdfrwt beam="2">  1       -1 0.45717417E-03 0.80111693E+02</pdfrwt>
<totfact> 0.31075166E+05</totfact>
</mgrwt>
</event>
<event>
 8    1  0.1226832E-016  0.7648211E+02  0.7818608E-02  0.1339342E+00
          2   -1    0    0  501    0  0.00000000000E+00  0.00000000000E+00  0.21017195802E+04  0.21017195802E+04  0.25500000000E-02 0. -1.
         -1   -1    0    0    0  501 -0.00000000000E+00 -0.00000000000E+00 -0.69579165853E+00  0.69580991203E+00  0.50400000000E-02 0.  1.
         24    2    1    2    0    0  0.17763568394E-14  0.00000000000E+00  0.21010237886E+04  0.21024153902E+04  0.76482106204E+02 0.  0.
         66    2    3    3    0    0  0.14243457390E+02 -0.31110444957E+01  0.20222621859E+04  0.20223157279E+04  0.20000024594E+01 0.  0.
        -13    1    3    3    0    0 -0.14243457390E+02  0.31110444957E+01  0.78761602671E+02  0.80099662269E+02  0.10566000000E+00 0.  1.
         13    1    4    4    0    0  0.78213631462E+01 -0.18939993144E+01  0.10461509898E+04  0.10461819467E+04  0.10566000000E+00 0. -1.
        -13    1    4    4    0    0  0.15633566549E+01 -0.81049696658E+00  0.25522479876E+03  0.25523089557E+03  0.10566000000E+00 0.  1.
        -14    1    4    4    0    0  0.48587375884E+01 -0.40654821466E+00  0.72088639735E+03  0.72090288562E+03  0.00000000000E+00 0.  1.
<mgrwt>
<rscale>  0 0.76482106E+02</rscale>
<asrwt>0</asrwt>
<pdfrwt beam="1">  1        2 0.32334110E+00 0.76482106E+02</pdfrwt>
<pdfrwt beam="2">  1       -1 0.10704640E-03 0.76482106E+02</pdfrwt>
<totfact> 0.29712497E+05</totfact>
</mgrwt>
</event>
<event>
 8    1  0.1226832E-016  0.8115200E+02  0.7818608E-02  0.1325814E+00
          2   -1    0    0  501    0  0.00000000000E+00  0.00000000000E+00  0.14799279490E+02  0.14799279709E+02  0.25500000000E-02 0. -1.
         -1   -1    0    0    0  501 -0.00000000000E+00 -0.00000000000E+00 -0.11124945474E+03  0.11124945486E+03  0.50400000000E-02 0.  1.
         24    2    1    2    0    0  0.00000000000E+00 -0.35527136788E-14 -0.96450175254E+02  0.12604873457E+03  0.81152000465E+02 0.  0.
         66    2    3    3    0    0 -0.24672136704E+02  0.20510956159E+02 -0.97353501798E+01  0.33588550143E+02  0.20000013717E+01 0.  0.
        -13    1    3    3    0    0  0.24672136704E+02 -0.20510956159E+02 -0.86714825075E+02  0.92460184425E+02  0.10566000000E+00 0.  1.
         13    1    4    4    0    0 -0.10575250100E+02  0.87032022896E+01 -0.37823163963E+01  0.14209107155E+02  0.10566000000E+00 0. -1.
        -13    1    4    4    0    0 -0.15574189425E+01  0.19139291934E+01 -0.79198302333E+00  0.25936614785E+01  0.10566000000E+00 0.  1.
        -14    1    4    4    0    0 -0.12539467661E+02  0.98938246758E+01 -0.51610507602E+01  0.16785781510E+02  0.00000000000E+00 0.  1.
<mgrwt>
<rscale>  0 0.81152000E+02</rscale>
<asrwt>0</asrwt>
<pdfrwt beam="1">  1        2 0.22768123E-02 0.81152000E+02</pdfrwt>
<pdfrwt beam="2">  1       -1 0.17115300E-01 0.81152000E+02</pdfrwt>
<totfact> 0.11173439E+05</totfact>
</mgrwt>
</event>
<event>
 8    1  0.1226832E-016  0.8032778E+02  0.7818608E-02  0.1328124E+00
         -1   -1    0    0    0  501 -0.00000000000E+00  0.00000000000E+00  0.21831965134E+01  0.21832023309E+01  0.50400000000E-02 0.  1.
          2   -1    0    0  501    0  0.00000000000E+00 -0.00000000000E+00 -0.73888716894E+03  0.73888716894E+03  0.25500000000E-02 0. -1.
         24    2    1    2    0    0  0.00000000000E+00  0.00000000000E+00 -0.73670397243E+03  0.74107037128E+03  0.80327779710E+02 0.  0.
         66    2    3    3    0    0  0.11517648518E+02  0.22033480379E+02 -0.65929565692E+03  0.65976730270E+03  0.20000007603E+01 0.  0.
        -13    1    3    3    0    0 -0.11517648518E+02 -0.22033480379E+02 -0.77408315509E+02  0.81303068571E+02  0.10566000000E+00 0.  1.
         13    1    4    4    0    0  0.72011136342E+01  0.14138669676E+02 -0.40860539076E+03  0.40891335823E+03  0.10566000000E+00 0. -1.
        -13    1    4    4    0    0  0.14627682499E+01  0.29762766320E+01 -0.79342614237E+02  0.79411960759E+02  0.10566000000E+00 0.  1.
         14    1    4    4    0    0  0.28537666344E+01  0.49185340713E+01 -0.17134765192E+03  0.17144198372E+03  0.00000000000E+00 0. -1.
<mgrwt>
<rscale>  0 0.80327780E+02</rscale>
<asrwt>0</asrwt>
<pdfrwt beam="1">  1        2 0.11367475E+00 0.80327780E+02</pdfrwt>
<pdfrwt beam="2">  1       -1 0.33587742E-03 0.80327780E+02</pdfrwt>
<totfact> 0.33491323E+05</totfact>
</mgrwt>
</event>
<event>
 8    1  0.1226832E-016  0.7902561E+02  0.7818608E-02  0.1331840E+00
         -1   -1    0    0    0  501 -0.00000000000E+00  0.00000000000E+00  0.20124820058E+01  0.20124883168E+01  0.50400000000E-02 0.  1.
          2   -1    0    0  501    0  0.00000000000E+00 -0.00000000000E+00 -0.77578799191E+03  0.77578799192E+03  0.25500000000E-02 0. -1.
         24    2    1    2    0    0 -0.17763568394E-14  0.35527136788E-14 -0.77377550991E+03  0.77780048024E+03  0.79025611797E+02 0.  0.
         66    2    3    3    0    0  0.94403934024E+01 -0.27906988139E+02 -0.64592331337E+03  0.64659790276E+03  0.20000182768E+01 0.  0.
        -13    1    3    3    0    0 -0.94403934024E+01  0.27906988139E+02 -0.12785219653E+03  0.13120257748E+03  0.10566000000E+00 0.  1.
         13    1    4    4    0    0  0.56257515774E+01 -0.16107572863E+02 -0.37985966266E+03  0.38024265603E+03  0.10566000000E+00 0. -1.
        -13    1    4    4    0    0  0.36830254964E+01 -0.10084231280E+02 -0.22709267648E+03  0.22734632452E+03  0.10566000000E+00 0.  1.
        -14    1    4    4    0    0  0.13161632861E+00 -0.17151839964E+01 -0.38970974237E+02  0.39008922210E+02  0.00000000000E+00 0.  1.
<mgrwt>
<rscale>  0 0.79025612E+02</rscale>
<asrwt>0</asrwt>
<pdfrwt beam="1">  1        2 0.11935176E+00 0.79025612E+02</pdfrwt>
<pdfrwt beam="2">  1       -1 0.30961372E-03 0.79025612E+02</pdfrwt>
<totfact> 0.35281376E+05</totfact>
</mgrwt>
</event>
<event>
 8    1  0.1226832E-016  0.7933270E+02  0.7818608E-02  0.1330956E+00
         -1   -1    0    0    0  501 -0.00000000000E+00  0.00000000000E+00  0.13870482138E+01  0.13870573705E+01  0.50400000000E-02 0.  1.
          2   -1    0    0  501    0  0.00000000000E+00 -0.00000000000E+00 -0.11343614245E+04  0.11343614245E+04  0.25500000000E-02 0. -1.
         24    2    1    2    0    0  0.00000000000E+00  0.00000000000E+00 -0.11329743763E+04  0.11357484819E+04  0.79332696645E+02 0.  0.
         66    2    3    3    0    0 -0.24299312855E+02  0.86441184603E+01 -0.99781995753E+03  0.99815522091E+03  0.19999993200E+01 0.  0.
        -13    1    3    3    0    0  0.24299312855E+02 -0.86441184603E+01 -0.13515441880E+03  0.13759326101E+03  0.10566000000E+00 0.  1.
         13    1    4    4    0    0 -0.99165045383E+01  0.38468501390E+01 -0.38012870744E+03  0.38027750486E+03  0.10566000000E+00 0. -1.
        -13    1    4    4    0    0 -0.11137811966E+02  0.38577551737E+01 -0.46919356226E+03  0.46934160605E+03  0.10566000000E+00 0.  1.
         14    1    4    4    0    0 -0.32449963505E+01  0.93951314765E+00 -0.14849768783E+03  0.14853611001E+03  0.00000000000E+00 0. -1.
<mgrwt>
<rscale>  0 0.79332697E+02</rscale>
<asrwt>0</asrwt>
<pdfrwt beam="1">  1        2 0.17451640E+00 0.79332697E+02</pdfrwt>
<pdfrwt beam="2">  1       -1 0.21339364E-03 0.79332697E+02</pdfrwt>
<totfact> 0.35977047E+05</totfact>
</mgrwt>
</event>
<event>
 8    1  0.1226832E-016  0.7794485E+02  0.7818608E-02  0.1334987E+00
          2   -1    0    0  501    0  0.00000000000E+00  0.00000000000E+00  0.50271883160E+03  0.50271883161E+03  0.25500000000E-02 0. -1.
         -1   -1    0    0    0  501 -0.00000000000E+00 -0.00000000000E+00 -0.30212686676E+01  0.30212728714E+01  0.50400000000E-02 0.  1.
         24    2    1    2    0    0  0.00000000000E+00  0.00000000000E+00  0.49969756293E+03  0.50574010448E+03  0.77944845094E+02 0.  0.
         66    2    3    3    0    0  0.12290279245E+02  0.15868391191E+02  0.46657382173E+03  0.46700962297E+03  0.20000040871E+01 0.  0.
        -13    1    3    3    0    0 -0.12290279245E+02 -0.15868391191E+02  0.33123741206E+02  0.38730481515E+02  0.10566000000E+00 0.  1.
         13    1    4    4    0    0  0.28505803299E+01  0.40394281475E+01  0.11583050585E+03  0.11593601699E+03  0.10566000000E+00 0.  1.
        -13    1    4    4    0    0  0.56862902638E+01  0.61544340907E+01  0.20638664039E+03  0.20655669307E+03  0.10566000000E+00 0.  1.
         14    1    4    4    0    0  0.37534086510E+01  0.56745289524E+01  0.14435667549E+03  0.14451691290E+03  0.00000000000E+00 0. -1.
<mgrwt>
<rscale>  0 0.77944845E+02</rscale>
<asrwt>0</asrwt>
<pdfrwt beam="1">  1        2 0.77341411E-01 0.77944845E+02</pdfrwt>
<pdfrwt beam="2">  1       -1 0.46481058E-03 0.77944845E+02</pdfrwt>
<totfact> 0.32641756E+05</totfact>
</mgrwt>
</event>
<event>
 8    1  0.1226832E-016  0.8143433E+02  0.7818608E-02  0.1325030E+00
          2   -1    0    0  501    0  0.00000000000E+00  0.00000000000E+00  0.35881658555E+03  0.35881658556E+03  0.25500000000E-02 0. -1.
         -1   -1    0    0    0  501 -0.00000000000E+00 -0.00000000000E+00 -0.46204298012E+01  0.46204325500E+01  0.50400000000E-02 0.  1.
         24    2    1    2    0    0  0.00000000000E+00  0.00000000000E+00  0.35419615575E+03  0.36343701811E+03  0.81434325593E+02 0.  0.
         66    2    3    3    0    0  0.48196770339E+01  0.23587707458E+02  0.32361870264E+03  0.32451914262E+03  0.19999997966E+01 0.  0.
        -13    1    3    3    0    0 -0.48196770339E+01 -0.23587707458E+02  0.30577453108E+02  0.38917875488E+02  0.10566000000E+00 0.  1.
         13    1    4    4    0    0 -0.51318983492E-01  0.10318978555E+01  0.11332656124E+02  0.11380145240E+02  0.10566000000E+00 0. -1.
        -13    1    4    4    0    0  0.26222811742E+01  0.11014356635E+02  0.14746441570E+03  0.14789847015E+03  0.10566000000E+00 0.  1.
         14    1    4    4    0    0  0.22487148432E+01  0.11541452968E+02  0.16482163081E+03  0.16524052723E+03  0.00000000000E+00 0. -1.
<mgrwt>
<rscale>  0 0.81434326E+02</rscale>
<asrwt>0</asrwt>
<pdfrwt beam="1">  1        2 0.55202591E-01 0.81434326E+02</pdfrwt>
<pdfrwt beam="2">  1       -1 0.71083506E-03 0.81434326E+02</pdfrwt>
<totfact> 0.25953645E+05</totfact>
</mgrwt>
</event>
<event>
 8    1  0.1226832E-016  0.7779505E+02  0.7818608E-02  0.1335428E+00
          2   -1    0    0  501    0  0.00000000000E+00  0.00000000000E+00  0.11257792193E+03  0.11257792196E+03  0.25500000000E-02 0. -1.
         -1   -1    0    0    0  501 -0.00000000000E+00 -0.00000000000E+00 -0.13439736139E+02  0.13439737084E+02  0.50400000000E-02 0.  1.
         24    2    1    2    0    0 -0.17763568394E-14  0.00000000000E+00  0.99138185794E+02  0.12601765905E+03  0.77795054527E+02 0.  0.
         66    2    3    3    0    0 -0.15307667137E+02  0.22971553754E+02  0.93933943860E+02  0.97926517146E+02  0.19999990630E+01 0.  0.
        -13    1    3    3    0    0  0.15307667137E+02 -0.22971553754E+02  0.52042419339E+01  0.28091141899E+02  0.10566000000E+00 0.  1.
         13    1    4    4    0    0 -0.91271026397E+01  0.13367772456E+02  0.55618485359E+02  0.57926059944E+02  0.10566000000E+00 0. -1.
        -13    1    4    4    0    0 -0.36707402061E+01  0.66996156544E+01  0.26240585029E+02  0.27330178380E+02  0.10566000000E+00 0.  1.
        -14    1    4    4    0    0 -0.25098242913E+01  0.29041656432E+01  0.12074873472E+02  0.12670278822E+02  0.00000000000E+00 0.  1.
<mgrwt>
<rscale>  0 0.77795055E+02</rscale>
<asrwt>0</asrwt>
<pdfrwt beam="1">  1        2 0.17319681E-01 0.77795055E+02</pdfrwt>
<pdfrwt beam="2">  1       -1 0.20676517E-02 0.77795055E+02</pdfrwt>
<totfact> 0.19755903E+05</totfact>
</mgrwt>
</event>
<event>
 8    1  0.1226832E-016  0.7826813E+02  0.7818608E-02  0.1334039E+00
          2   -1    0    0  501    0  0.00000000000E+00  0.00000000000E+00  0.21317113487E+02  0.21317113639E+02  0.25500000000E-02 0. -1.
         -1   -1    0    0    0  501 -0.00000000000E+00 -0.00000000000E+00 -0.71842513818E+02  0.71842513995E+02  0.50400000000E-02 0.  1.
         24    2    1    2    0    0  0.00000000000E+00 -0.35527136788E-14 -0.50525400331E+02  0.93159627634E+02  0.78268129799E+02 0.  0.
         66    2    3    3    0    0  0.39249368348E+01  0.20412238877E+02  0.14150811415E+02  0.25225187509E+02  0.19999990096E+01 0.  0.
        -13    1    3    3    0    0 -0.39249368348E+01 -0.20412238877E+02 -0.64676211747E+02  0.67934440125E+02  0.10566000000E+00 0.  1.
         13    1    4    4    0    0  0.11873229428E+01  0.57577921036E+01  0.34773660207E+01  0.68311890734E+01  0.10566000000E+00 0. -1.
        -13    1    4    4    0    0  0.52469455818E-01  0.32935450695E+01  0.20623343348E+01  0.38877473056E+01  0.10566000000E+00 0.  1.
        -14    1    4    4    0    0  0.26851444363E+01  0.11360901704E+02  0.86111110600E+01  0.14506251130E+02  0.00000000000E+00 0.  1.
<mgrwt>
<rscale>  0 0.78268130E+02</rscale>
<asrwt>0</asrwt>
<pdfrwt beam="1">  1        2 0.32795560E-02 0.78268130E+02</pdfrwt>
<pdfrwt beam="2">  1       -1 0.11052694E-01 0.78268130E+02</pdfrwt>
<totfact> 0.13386631E+05</totfact>
</mgrwt>
</event>
<event>
 8    1  0.1226832E-016  0.8441269E+02  0.7818608E-02  0.1316976E+00
          2   -1    0    0  501    0  0.00000000000E+00  0.00000000000E+00  0.44419469925E+02  0.44419469998E+02  0.25500000000E-02 0. -1.
         -1   -1    0    0    0  501 -0.00000000000E+00 -0.00000000000E+00 -0.40103487939E+02  0.40103488256E+02  0.50400000000E-02 0.  1.
         24    2    1    2    0    0 -0.35527136788E-14  0.00000000000E+00  0.43159819857E+01  0.84522958253E+02  0.84412693189E+02 0.  0.
         66    2    3    3    0    0  0.28031806875E+02  0.27043547858E+01  0.33605236766E+02  0.43890860829E+02  0.19999986732E+01 0.  0.
        -13    1    3    3    0    0 -0.28031806875E+02 -0.27043547858E+01 -0.29289254781E+02  0.40632097425E+02  0.10566000000E+00 0.  1.
         13    1    4    4    0    0  0.15084334028E+02  0.14004445255E+01  0.16997939600E+02  0.22769266405E+02  0.10566000000E+00 0. -1.
        -13    1    4    4    0    0  0.39898374206E+01  0.69058232332E+00  0.46121645939E+01  0.61383167779E+01  0.10566000000E+00 0.  1.
         14    1    4    4    0    0  0.89576354261E+01  0.61332793700E+00  0.11995132572E+02  0.14983277646E+02  0.00000000000E+00 0. -1.
<mgrwt>
<rscale>  0 0.84412693E+02</rscale>
<asrwt>0</asrwt>
<pdfrwt beam="1">  1        2 0.68337646E-02 0.84412693E+02</pdfrwt>
<pdfrwt beam="2">  1       -1 0.61697675E-02 0.84412693E+02</pdfrwt>
<totfact> 0.12560477E+05</totfact>
</mgrwt>
</event>
<event>
 8    1  0.1226832E-016  0.7572808E+02  0.7818608E-02  0.1341631E+00
          2   -1    0    0  501    0  0.00000000000E+00  0.00000000000E+00  0.10849712113E+04  0.10849712113E+04  0.25500000000E-02 0. -1.
         -1   -1    0    0    0  501 -0.00000000000E+00 -0.00000000000E+00 -0.13213993081E+01  0.13214089197E+01  0.50400000000E-02 0.  1.
         24    2    1    2    0    0  0.00000000000E+00  0.00000000000E+00  0.10836498120E+04  0.10862926202E+04  0.75728077490E+02 0.  0.
         66    2    3    3    0    0  0.19164906631E+02 -0.11566179425E+01  0.10099009100E+04  0.10100853823E+04  0.19999980200E+01 0.  0.
        -13    1    3    3    0    0 -0.19164906631E+02  0.11566179425E+01  0.73748901967E+02  0.76207237955E+02  0.10566000000E+00 0.  1.
         13    1    4    4    0    0  0.31015724848E+01 -0.47264890190E+00  0.14114693859E+03  0.14118184227E+03  0.10566000000E+00 0. -1.
        -13    1    4    4    0    0  0.34828961773E+01 -0.14334308336E+00  0.16386980154E+03  0.16390690691E+03  0.10566000000E+00 0.  1.
        -14    1    4    4    0    0  0.12580437969E+02 -0.54062595726E+00  0.70488416991E+03  0.70499663310E+03  0.00000000000E+00 0.  1.
<mgrwt>
<rscale>  0 0.75728077E+02</rscale>
<asrwt>0</asrwt>
<pdfrwt beam="1">  1        2 0.16691907E+00 0.75728077E+02</pdfrwt>
<pdfrwt beam="2">  1       -1 0.20329243E-03 0.75728077E+02</pdfrwt>
<totfact> 0.40647236E+05</totfact>
</mgrwt>
</event>
<event>
 8    1  0.1226832E-016  0.8128235E+02  0.7818608E-02  0.1325451E+00
          2   -1    0    0  501    0  0.00000000000E+00  0.00000000000E+00  0.31029406103E+03  0.31029406104E+03  0.25500000000E-02 0. -1.
         -1   -1    0    0    0  501 -0.00000000000E+00 -0.00000000000E+00 -0.53230300933E+01  0.53230324793E+01  0.50400000000E-02 0.  1.
         24    2    1    2    0    0  0.17763568394E-14  0.17763568394E-14  0.30497103093E+03  0.31561709352E+03  0.81282347476E+02 0.  0.
         66    2    3    3    0    0  0.13697240614E+02  0.10891348062E+02  0.29490130911E+03  0.29542684031E+03  0.19999994022E+01 0.  0.
        -13    1    3    3    0    0 -0.13697240614E+02 -0.10891348062E+02  0.10069721830E+02  0.20190253213E+02  0.10566000000E+00 0.  1.
         13    1    4    4    0    0  0.34827540915E+01  0.32128185297E+01  0.70542790134E+02  0.70701825881E+02  0.10566000000E+00 0. -1.
        -13    1    4    4    0    0  0.62794831597E+01  0.51758662959E+01  0.14956149525E+03  0.14978275443E+03  0.10566000000E+00 0.  1.
         14    1    4    4    0    0  0.39350033623E+01  0.25026632366E+01  0.74797023723E+02  0.74942259991E+02  0.00000000000E+00 0. -1.
<mgrwt>
<rscale>  0 0.81282347E+02</rscale>
<asrwt>0</asrwt>
<pdfrwt beam="1">  1        2 0.47737547E-01 0.81282347E+02</pdfrwt>
<pdfrwt beam="2">  1       -1 0.81892791E-03 0.81282347E+02</pdfrwt>
<totfact> 0.24753389E+05</totfact>
</mgrwt>
</event>
<event>
 8    1  0.1226832E-016  0.7678865E+02  0.7818608E-02  0.1338420E+00
         -1   -1    0    0    0  501 -0.00000000000E+00  0.00000000000E+00  0.61762714843E+01  0.61762735407E+01  0.50400000000E-02 0.  1.
          2   -1    0    0  501    0  0.00000000000E+00 -0.00000000000E+00 -0.23867536368E+03  0.23867536369E+03  0.25500000000E-02 0. -1.
         24    2    1    2    0    0  0.00000000000E+00  0.00000000000E+00 -0.23249909219E+03  0.24485163723E+03  0.76788647497E+02 0.  0.
         66    2    3    3    0    0  0.25688699909E+02 -0.22952522655E+02 -0.17019565704E+03  0.17365854209E+03  0.19999920436E+01 0.  0.
        -13    1    3    3    0    0 -0.25688699909E+02  0.22952522655E+02 -0.62303435155E+02  0.71193095138E+02  0.10566000000E+00 0.  1.
         13    1    4    4    0    0  0.18377573338E+02 -0.16020654060E+02 -0.12072225521E+03  0.12315953323E+03  0.10566000000E+00 0. -1.
        -13    1    4    4    0    0  0.32097258309E+01 -0.36284607681E+01 -0.25035610372E+02  0.25500216042E+02  0.10566000000E+00 0.  1.
        -14    1    4    4    0    0  0.41014007401E+01 -0.33034078271E+01 -0.24437791454E+02  0.24998792820E+02  0.00000000000E+00 0.  1.
<mgrwt>
<rscale>  0 0.76788647E+02</rscale>
<asrwt>0</asrwt>
<pdfrwt beam="1">  1        2 0.36719280E-01 0.76788647E+02</pdfrwt>
<pdfrwt beam="2">  1       -1 0.95019596E-03 0.76788647E+02</pdfrwt>
<totfact> 0.26142139E+05</totfact>
</mgrwt>
</event>
<event>
 8    1  0.1226832E-016  0.8039629E+02  0.7818608E-02  0.1327931E+00
          2   -1    0    0  501    0  0.00000000000E+00  0.00000000000E+00  0.21099464935E+02  0.21099465089E+02  0.25500000000E-02 0. -1.
         -1   -1    0    0    0  501 -0.00000000000E+00 -0.00000000000E+00 -0.76584438506E+02  0.76584438671E+02  0.50400000000E-02 0.  1.
         24    2    1    2    0    0 -0.17763568394E-14  0.00000000000E+00 -0.55484973571E+02  0.97683903760E+02  0.80396285745E+02 0.  0.
         66    2    3    3    0    0 -0.13492803057E+02  0.12858996048E+02  0.15480378146E+02  0.24311553232E+02  0.19999998220E+01 0.  0.
        -13    1    3    3    0    0  0.13492803057E+02 -0.12858996048E+02 -0.70965351717E+02  0.73372350528E+02  0.10566000000E+00 0.  1.
         13    1    4    4    0    0 -0.18602910630E+01  0.16271425788E+01  0.20031593398E+01  0.31830939645E+01  0.10566000000E+00 0. -1.
        -13    1    4    4    0    0 -0.10960657020E+02  0.10146543036E+02  0.11886680654E+02  0.19089072238E+02  0.10566000000E+00 0.  1.
        -14    1    4    4    0    0 -0.67185497471E+00  0.10853104332E+01  0.15905381516E+01  0.20393870293E+01  0.00000000000E+00 0.  1.
<mgrwt>
<rscale>  0 0.80396286E+02</rscale>
<asrwt>0</asrwt>
<pdfrwt beam="1">  1        2 0.32460716E-02 0.80396286E+02</pdfrwt>
<pdfrwt beam="2">  1       -1 0.11782221E-01 0.80396286E+02</pdfrwt>
<totfact> 0.12373955E+05</totfact>
</mgrwt>
</event>
<event>
 8    1  0.1226832E-016  0.7913076E+02  0.7818608E-02  0.1331536E+00
         -1   -1    0    0    0  501 -0.00000000000E+00  0.00000000000E+00  0.10136803248E+02  0.10136804501E+02  0.50400000000E-02 0.  1.
          2   -1    0    0  501    0  0.00000000000E+00 -0.00000000000E+00 -0.15442927109E+03  0.15442927112E+03  0.25500000000E-02 0. -1.
         24    2    1    2    0    0  0.00000000000E+00  0.71054273576E-14 -0.14429246785E+03  0.16456607562E+03  0.79130758662E+02 0.  0.
         66    2    3    3    0    0 -0.57796969625E+01 -0.39078413934E+02 -0.68658608593E+02  0.79237187411E+02  0.20000005981E+01 0.  0.
        -13    1    3    3    0    0  0.57796969625E+01  0.39078413934E+02 -0.75633859254E+02  0.85328888205E+02  0.10566000000E+00 0.  1.
         13    1    4    4    0    0 -0.13436105234E+01 -0.89627415123E+01 -0.16949782229E+02  0.19220882037E+02  0.10566000000E+00 0.  1.
        -13    1    4    4    0    0 -0.28393748468E+01 -0.15352588272E+02 -0.26933628287E+02  0.31131905064E+02  0.10566000000E+00 0. -1.
        -14    1    4    4    0    0 -0.15967115923E+01 -0.14763084150E+02 -0.24775198077E+02  0.28884400310E+02  0.00000000000E+00 0.  1.
<mgrwt>
<rscale>  0 0.79130759E+02</rscale>
<asrwt>0</asrwt>
<pdfrwt beam="1">  1        2 0.23758348E-01 0.79130759E+02</pdfrwt>
<pdfrwt beam="2">  1       -1 0.15595084E-02 0.79130759E+02</pdfrwt>
<totfact> 0.20813525E+05</totfact>
</mgrwt>
</event>
<event>
 8    1  0.1226832E-016  0.7733227E+02  0.7818608E-02  0.1336797E+00
          2   -1    0    0  501    0  0.00000000000E+00  0.00000000000E+00  0.91351498956E+01  0.91351502515E+01  0.25500000000E-02 0. -1.
         -1   -1    0    0    0  501 -0.00000000000E+00 -0.00000000000E+00 -0.16366121938E+03  0.16366121946E+03  0.50400000000E-02 0.  1.
         24    2    1    2    0    0 -0.44408920985E-15 -0.35527136788E-14 -0.15452606949E+03  0.17279636971E+03  0.77332265158E+02 0.  0.
         66    2    3    3    0    0  0.23052826850E+01 -0.30417465913E+02 -0.24318204654E+02  0.39062919188E+02  0.20000042543E+01 0.  0.
        -13    1    3    3    0    0 -0.23052826850E+01  0.30417465913E+02 -0.13020786483E+03  0.13373345053E+03  0.10566000000E+00 0.  1.
         13    1    4    4    0    0  0.36538217266E+00 -0.11361497153E+02 -0.99331549078E+01  0.15096219797E+02  0.10566000000E+00 0. -1.
        -13    1    4    4    0    0  0.36247006183E+00 -0.44476705227E+01 -0.37257421580E+01  0.58142476975E+01  0.10566000000E+00 0.  1.
         14    1    4    4    0    0  0.15774304505E+01 -0.14608298237E+02 -0.10659307589E+02  0.18152451694E+02  0.00000000000E+00 0. -1.
<mgrwt>
<rscale>  0 0.77332265E+02</rscale>
<asrwt>0</asrwt>
<pdfrwt beam="1">  1        2 0.14054078E-02 0.77332265E+02</pdfrwt>
<pdfrwt beam="2">  1       -1 0.25178647E-01 0.77332265E+02</pdfrwt>
<totfact> 0.11490287E+05</totfact>
</mgrwt>
</event>
<event>
 8    1  0.1226832E-016  0.8024968E+02  0.7818608E-02  0.1328344E+00
          2   -1    0    0  501    0  0.00000000000E+00  0.00000000000E+00  0.30141808355E+04  0.30141808355E+04  0.25500000000E-02 0. -1.
         -1   -1    0    0    0  501 -0.00000000000E+00 -0.00000000000E+00 -0.53413086833E+00  0.53415464624E+00  0.50400000000E-02 0.  1.
         24    2    1    2    0    0  0.00000000000E+00 -0.44408920985E-15  0.30136467046E+04  0.30147149901E+04  0.80249682128E+02 0.  0.
         66    2    3    3    0    0  0.11777823598E+02  0.37769230983E+01  0.29407255663E+04  0.29407522573E+04  0.20000001835E+01 0.  0.
        -13    1    3    3    0    0 -0.11777823598E+02 -0.37769230983E+01  0.72921138308E+02  0.73962732866E+02  0.10566000000E+00 0.  1.
         13    1    4    4    0    0  0.57541530338E+01  0.24350580985E+01  0.15122809649E+04  0.15122938761E+04  0.10566000000E+00 0. -1.
        -13    1    4    4    0    0  0.22822498834E+01  0.24873262968E+00  0.42563183856E+03  0.42563804305E+03  0.10566000000E+00 0.  1.
        -14    1    4    4    0    0  0.37414206804E+01  0.10931323701E+01  0.10028127629E+04  0.10028203381E+04  0.00000000000E+00 0.  1.
<mgrwt>
<rscale>  0 0.80249682E+02</rscale>
<asrwt>0</asrwt>
<pdfrwt beam="1">  1        2 0.46372205E+00 0.80249682E+02</pdfrwt>
<pdfrwt beam="2">  1       -1 0.82175469E-04 0.80249682E+02</pdfrwt>
<totfact> 0.14137643E+05</totfact>
</mgrwt>
</event>
<event>
 8    1  0.1226832E-016  0.7914636E+02  0.7818608E-02  0.1331492E+00
         -1   -1    0    0    0  501 -0.00000000000E+00  0.00000000000E+00  0.17523885551E+02  0.17523886276E+02  0.50400000000E-02 0.  1.
          2   -1    0    0  501    0  0.00000000000E+00 -0.00000000000E+00 -0.89365821472E+02  0.89365821509E+02  0.25500000000E-02 0. -1.
         24    2    1    2    0    0  0.17763568394E-14  0.00000000000E+00 -0.71841935921E+02  0.10688970778E+03  0.79146357296E+02 0.  0.
         66    2    3    3    0    0  0.15321006789E+02 -0.35914911330E+02 -0.44422927443E+02  0.59177787944E+02  0.19999996009E+01 0.  0.
        -13    1    3    3    0    0 -0.15321006789E+02  0.35914911330E+02 -0.27419008478E+02  0.47711919840E+02  0.10566000000E+00 0.  1.
         13    1    4    4    0    0  0.58528683263E+01 -0.15350770701E+02 -0.18924427458E+02  0.25060872838E+02  0.10566000000E+00 0. -1.
        -13    1    4    4    0    0  0.85770211148E+01 -0.18551016641E+02 -0.23491237955E+02  0.31137677085E+02  0.10566000000E+00 0.  1.
        -14    1    4    4    0    0  0.89111734764E+00 -0.20131239888E+01 -0.20072620308E+01  0.29792380203E+01  0.00000000000E+00 0.  1.
<mgrwt>
<rscale>  0 0.79146357E+02</rscale>
<asrwt>0</asrwt>
<pdfrwt beam="1">  1        2 0.13748588E-01 0.79146357E+02</pdfrwt>
<pdfrwt beam="2">  1       -1 0.26959825E-02 0.79146357E+02</pdfrwt>
<totfact> 0.17690355E+05</totfact>
</mgrwt>
</event>
<event>
 8    1  0.1226832E-016  0.7855040E+02  0.7818608E-02  0.1333216E+00
          2   -1    0    0  501    0  0.00000000000E+00  0.00000000000E+00  0.41937580138E+03  0.41937580138E+03  0.25500000000E-02 0. -1.
         -1   -1    0    0    0  501 -0.00000000000E+00 -0.00000000000E+00 -0.36781820168E+01  0.36781854698E+01  0.50400000000E-02 0.  1.
         24    2    1    2    0    0 -0.35527136788E-14  0.00000000000E+00  0.41569761936E+03  0.42305398685E+03  0.78550398165E+02 0.  0.
         66    2    3    3    0    0  0.25884410224E+02 -0.21907946208E+02  0.31442196459E+03  0.31625169187E+03  0.19999994446E+01 0.  0.
        -13    1    3    3    0    0 -0.25884410224E+02  0.21907946208E+02  0.10127565477E+03  0.10680229498E+03  0.10566000000E+00 0.  1.
         13    1    4    4    0    0  0.16333214958E+02 -0.13815116142E+02  0.19732739890E+03  0.19848361359E+03  0.10566000000E+00 0. -1.
        -13    1    4    4    0    0  0.59056831538E+01 -0.55595126428E+01  0.71967665070E+02  0.72423347437E+02  0.10566000000E+00 0.  1.
         14    1    4    4    0    0  0.36455121115E+01 -0.25333174230E+01  0.45126900622E+02  0.45344730845E+02  0.00000000000E+00 0. -1.
<mgrwt>
<rscale>  0 0.78550398E+02</rscale>
<asrwt>0</asrwt>
<pdfrwt beam="1">  1        2 0.64519359E-01 0.78550398E+02</pdfrwt>
<pdfrwt beam="2">  1       -1 0.56587438E-03 0.78550398E+02</pdfrwt>
<totfact> 0.30124567E+05</totfact>
</mgrwt>
</event>
<event>
 8    1  0.1226832E-016  0.8195239E+02  0.7818608E-02  0.1323600E+00
         -1   -1    0    0    0  501 -0.00000000000E+00  0.00000000000E+00  0.21076337323E+01  0.21076397583E+01  0.50400000000E-02 0.  1.
          2   -1    0    0  501    0  0.00000000000E+00 -0.00000000000E+00 -0.79664993166E+03  0.79664993167E+03  0.25500000000E-02 0. -1.
         24    2    1    2    0    0  0.17763568394E-14  0.00000000000E+00 -0.79454229793E+03  0.79875757142E+03  0.81952392939E+02 0.  0.
         66    2    3    3    0    0  0.11140428155E+02 -0.73488618537E+01 -0.77485665319E+03  0.77497415949E+03  0.19999969780E+01 0.  0.
        -13    1    3    3    0    0 -0.11140428155E+02  0.73488618537E+01 -0.19685644745E+02  0.23783411931E+02  0.10566000000E+00 0.  1.
         13    1    4    4    0    0  0.74097214635E+01 -0.46709502614E+01 -0.55042573056E+03  0.55049542939E+03  0.10566000000E+00 0. -1.
        -13    1    4    4    0    0  0.74652971215E+00 -0.33056832554E+00 -0.46733995894E+02  0.46741246435E+02  0.10566000000E+00 0. -1.
        -14    1    4    4    0    0  0.29841769792E+01 -0.23473432667E+01 -0.17769692673E+03  0.17773748367E+03  0.00000000000E+00 0.  1.
<mgrwt>
<rscale>  0 0.81952393E+02</rscale>
<asrwt>0</asrwt>
<pdfrwt beam="1">  1        2 0.12256129E+00 0.81952393E+02</pdfrwt>
<pdfrwt beam="2">  1       -1 0.32425244E-03 0.81952393E+02</pdfrwt>
<totfact> 0.32253162E+05</totfact>
</mgrwt>
</event>
<event>
 8    1  0.1226832E-016  0.8065558E+02  0.7818608E-02  0.1327201E+00
         -1   -1    0    0    0  501 -0.00000000000E+00  0.00000000000E+00  0.41868942528E+01  0.41868972862E+01  0.50400000000E-02 0.  1.
          2   -1    0    0  501    0  0.00000000000E+00 -0.00000000000E+00 -0.38843347199E+03  0.38843347200E+03  0.25500000000E-02 0. -1.
         24    2    1    2    0    0  0.35527136788E-14 -0.55511151231E-16 -0.38424657774E+03  0.39262036929E+03  0.80655575594E+02 0.  0.
         66    2    3    3    0    0 -0.23031792915E+02  0.34420151680E+00 -0.35323008461E+03  0.35398598086E+03  0.20000017348E+01 0.  0.
        -13    1    3    3    0    0  0.23031792915E+02 -0.34420151680E+00 -0.31016493126E+02  0.38634388431E+02  0.10566000000E+00 0.  1.
         13    1    4    4    0    0 -0.91222146792E+00 -0.76853440344E-01 -0.13060919885E+02  0.13093389429E+02  0.10566000000E+00 0. -1.
        -13    1    4    4    0    0 -0.82937037907E+01 -0.70411274351E+00 -0.12916323025E+03  0.12943118832E+03  0.10566000000E+00 0.  1.
        -14    1    4    4    0    0 -0.13825867656E+02  0.11251677007E+01 -0.21100593448E+03  0.21146140310E+03  0.00000000000E+00 0.  1.
<mgrwt>
<rscale>  0 0.80655576E+02</rscale>
<asrwt>0</asrwt>
<pdfrwt beam="1">  1        2 0.59758967E-01 0.80655576E+02</pdfrwt>
<pdfrwt beam="2">  1       -1 0.64413812E-03 0.80655576E+02</pdfrwt>
<totfact> 0.27373919E+05</totfact>
</mgrwt>
</event>
<event>
 8    1  0.1226832E-016  0.7981489E+02  0.7818608E-02  0.1329578E+00
         -1   -1    0    0    0  501 -0.00000000000E+00  0.00000000000E+00  0.99278261175E+02  0.99278261303E+02  0.50400000000E-02 0.  1.
          2   -1    0    0  501    0  0.00000000000E+00 -0.00000000000E+00 -0.16041822571E+02  0.16041822774E+02  0.25500000000E-02 0. -1.
         24    2    1    2    0    0  0.00000000000E+00 -0.35527136788E-14  0.83236438604E+02  0.11532008408E+03  0.79814892596E+02 0.  0.
         66    2    3    3    0    0  0.29435298562E+01 -0.31217442217E+02  0.60352075875E+01  0.31994011920E+02  0.20000003896E+01 0.  0.
        -13    1    3    3    0    0 -0.29435298562E+01  0.31217442217E+02  0.77201231016E+02  0.83326072157E+02  0.10566000000E+00 0.  1.
         13    1    4    4    0    0  0.17595570576E+01 -0.19363717360E+02  0.37966924861E+01  0.19810997675E+02  0.10566000000E+00 0. -1.
        -13    1    4    4    0    0 -0.15867678498E+00 -0.39888306414E+01  0.88647757133E+00  0.40905934445E+01  0.10566000000E+00 0.  1.
         14    1    4    4    0    0  0.13426495836E+01 -0.78648942157E+01  0.13520375300E+01  0.80924208004E+01  0.00000000000E+00 0. -1.
<mgrwt>
<rscale>  0 0.79814893E+02</rscale>
<asrwt>0</asrwt>
<pdfrwt beam="1">  1        2 0.24679728E-02 0.79814893E+02</pdfrwt>
<pdfrwt beam="2">  1       -1 0.15273579E-01 0.79814893E+02</pdfrwt>
<totfact> 0.11940116E+05</totfact>
</mgrwt>
</event>
<event>
 8    1  0.1226832E-016  0.8194307E+02  0.7818608E-02  0.1323626E+00
          2   -1    0    0  501    0  0.00000000000E+00  0.00000000000E+00  0.32824680293E+03  0.32824680294E+03  0.25500000000E-02 0. -1.
         -1   -1    0    0    0  501 -0.00000000000E+00 -0.00000000000E+00 -0.51140363646E+01  0.51140388481E+01  0.50400000000E-02 0.  1.
         24    2    1    2    0    0  0.00000000000E+00  0.88817841970E-15  0.32313276657E+03  0.33336084179E+03  0.81943065658E+02 0.  0.
         66    2    3    3    0    0  0.94933161587E+01 -0.78738954362E+01  0.32050672950E+03  0.32075019091E+03  0.20000077827E+01 0.  0.
        -13    1    3    3    0    0 -0.94933161587E+01  0.78738954362E+01  0.26260370700E+01  0.12610650886E+02  0.10566000000E+00 0.  1.
         13    1    4    4    0    0  0.42108537862E+01 -0.45560078779E+01  0.14746361583E+03  0.14759409763E+03  0.10566000000E+00 0. -1.
        -13    1    4    4    0    0  0.51269442778E+01 -0.32942827891E+01  0.16799507781E+03  0.16810560725E+03  0.10566000000E+00 0.  1.
        -14    1    4    4    0    0  0.15551809473E+00 -0.23604769149E-01  0.50480358596E+01  0.50504860264E+01  0.00000000000E+00 0.  1.
<mgrwt>
<rscale>  0 0.81943066E+02</rscale>
<asrwt>0</asrwt>
<pdfrwt beam="1">  1        2 0.50499506E-01 0.81943066E+02</pdfrwt>
<pdfrwt beam="2">  1       -1 0.78677506E-03 0.81943066E+02</pdfrwt>
<totfact> 0.24730636E+05</totfact>
</mgrwt>
</event>
<event>
 8    1  0.1226832E-016  0.8331365E+02  0.7818608E-02  0.1319902E+00
         -1   -1    0    0    0  501 -0.00000000000E+00  0.00000000000E+00  0.28348772449E+01  0.28348817251E+01  0.50400000000E-02 0.  1.
          2   -1    0    0  501    0  0.00000000000E+00 -0.00000000000E+00 -0.61212170366E+03  0.61212170367E+03  0.25500000000E-02 0. -1.
         24    2    1    2    0    0 -0.88817841970E-15  0.00000000000E+00 -0.60928682642E+03  0.61495658539E+03  0.83313654776E+02 0.  0.
         66    2    3    3    0    0 -0.36908960824E+01 -0.21388388386E+02 -0.56705454896E+03  0.56747330102E+03  0.20000003852E+01 0.  0.
        -13    1    3    3    0    0  0.36908960824E+01  0.21388388386E+02 -0.42232277457E+02  0.47483284373E+02  0.10566000000E+00 0.  1.
         13    1    4    4    0    0 -0.40123407979E-01 -0.16240011416E+00 -0.70019187711E+01  0.70047137128E+01  0.10566000000E+00 0. -1.
        -13    1    4    4    0    0 -0.15110476766E+00 -0.12243763211E+01 -0.41752811205E+02  0.41771166342E+02  0.10566000000E+00 0.  1.
         14    1    4    4    0    0 -0.34996679067E+01 -0.20001611951E+02 -0.51829981898E+03  0.51869742096E+03  0.00000000000E+00 0. -1.
<mgrwt>
<rscale>  0 0.83313655E+02</rscale>
<asrwt>0</asrwt>
<pdfrwt beam="1">  1        2 0.94172464E-01 0.83313655E+02</pdfrwt>
<pdfrwt beam="2">  1       -1 0.43613580E-03 0.83313655E+02</pdfrwt>
<totfact> 0.29094133E+05</totfact>
</mgrwt>
</event>
<event>
 8    1  0.1226832E-016  0.7779501E+02  0.7818608E-02  0.1335428E+00
          2   -1    0    0  501    0  0.00000000000E+00  0.00000000000E+00  0.15677310678E+03  0.15677310680E+03  0.25500000000E-02 0. -1.
         -1   -1    0    0    0  501 -0.00000000000E+00 -0.00000000000E+00 -0.96509907433E+01  0.96509920593E+01  0.50400000000E-02 0.  1.
         24    2    1    2    0    0  0.35527136788E-14  0.00000000000E+00  0.14712211603E+03  0.16642409886E+03  0.77795010471E+02 0.  0.
         66    2    3    3    0    0 -0.20904273259E+02 -0.32230001126E+02  0.86310608405E+02  0.94494882004E+02  0.19999971530E+01 0.  0.
        -13    1    3    3    0    0  0.20904273259E+02  0.32230001126E+02  0.60811507628E+02  0.71929216853E+02  0.10566000000E+00 0.  1.
         13    1    4    4    0    0 -0.15719340064E+02 -0.25382279198E+02  0.65715523446E+02  0.72179629641E+02  0.10566000000E+00 0. -1.
        -13    1    4    4    0    0 -0.28872652279E+01 -0.39123156486E+01  0.11738611252E+02  0.12706245409E+02  0.10566000000E+00 0.  1.
         14    1    4    4    0    0 -0.22976679667E+01 -0.29354062784E+01  0.88564737067E+01  0.96090069530E+01  0.00000000000E+00 0. -1.
<mgrwt>
<rscale>  0 0.77795010E+02</rscale>
<asrwt>0</asrwt>
<pdfrwt beam="1">  1        2 0.24118938E-01 0.77795010E+02</pdfrwt>
<pdfrwt beam="2">  1       -1 0.14847680E-02 0.77795010E+02</pdfrwt>
<totfact> 0.21879239E+05</totfact>
</mgrwt>
</event>
<event>
 8    1  0.1226832E-016  0.8688145E+02  0.7818608E-02  0.1310584E+00
          2   -1    0    0  501    0  0.00000000000E+00  0.00000000000E+00  0.14373365016E+02  0.14373365242E+02  0.25500000000E-02 0. -1.
         -1   -1    0    0    0  501 -0.00000000000E+00 -0.00000000000E+00 -0.13129121082E+03  0.13129121092E+03  0.50400000000E-02 0.  1.
         24    2    1    2    0    0  0.00000000000E+00  0.00000000000E+00 -0.11691784580E+03  0.14566457616E+03  0.86881448422E+02 0.  0.
         66    2    3    3    0    0 -0.19311170355E+02  0.15843024140E+02  0.10508251204E+01  0.25080409710E+02  0.20000008510E+01 0.  0.
        -13    1    3    3    0    0  0.19311170355E+02 -0.15843024140E+02 -0.11796867092E+03  0.12058416645E+03  0.10566000000E+00 0.  1.
         13    1    4    4    0    0 -0.93124917035E+01  0.84327610221E+01  0.94020526499E+00  0.12598774153E+02  0.10566000000E+00 0. -1.
        -13    1    4    4    0    0 -0.70353435361E+00  0.39514394992E+00 -0.17709575205E+00  0.83284228331E+00  0.10566000000E+00 0.  1.
        -14    1    4    4    0    0 -0.92951442978E+01  0.70151191676E+01  0.28771560748E+00  0.11648793273E+02  0.00000000000E+00 0.  1.
<mgrwt>
<rscale>  0 0.86881448E+02</rscale>
<asrwt>0</asrwt>
<pdfrwt beam="1">  1        2 0.22112870E-02 0.86881448E+02</pdfrwt>
<pdfrwt beam="2">  1       -1 0.20198647E-01 0.86881448E+02</pdfrwt>
<totfact> 0.90557386E+04</totfact>
</mgrwt>
</event>
<event>
 8    1  0.1226832E-016  0.8000623E+02  0.7818608E-02  0.1329034E+00
          2   -1    0    0  501    0  0.00000000000E+00  0.00000000000E+00  0.46699869321E+02  0.46699869390E+02  0.25500000000E-02 0. -1.
         -1   -1    0    0    0  501 -0.00000000000E+00 -0.00000000000E+00 -0.34266673056E+02  0.34266673426E+02  0.50400000000E-02 0.  1.
         24    2    1    2    0    0  0.00000000000E+00  0.00000000000E+00  0.12433196265E+02  0.80966542817E+02  0.80006229047E+02 0.  0.
         66    2    3    3    0    0 -0.19800001684E+01 -0.35920486608E+02  0.23866579068E+02  0.43218229408E+02  0.19999994908E+01 0.  0.
        -13    1    3    3    0    0  0.19800001684E+01  0.35920486608E+02 -0.11433382803E+02  0.37748313408E+02  0.10566000000E+00 0.  1.
         13    1    4    4    0    0 -0.30404013203E+00 -0.61346720030E+01  0.37616267392E+01  0.72033076255E+01  0.10566000000E+00 0. -1.
        -13    1    4    4    0    0  0.14578007147E+00 -0.81399202808E+01  0.60196461961E+01  0.10125554719E+02  0.10566000000E+00 0.  1.
         14    1    4    4    0    0 -0.18217401079E+01 -0.21645894324E+02  0.14085306133E+02  0.25889367064E+02  0.00000000000E+00 0. -1.
<mgrwt>
<rscale>  0 0.80006229E+02</rscale>
<asrwt>0</asrwt>
<pdfrwt beam="1">  1        2 0.71845953E-02 0.80006229E+02</pdfrwt>
<pdfrwt beam="2">  1       -1 0.52717959E-02 0.80006229E+02</pdfrwt>
<totfact> 0.14721566E+05</totfact>
</mgrwt>
</event>
<event>
 8    1  0.1226832E-016  0.7668887E+02  0.7818608E-02  0.1338719E+00
          2   -1    0    0  501    0  0.00000000000E+00  0.00000000000E+00  0.32866373938E+02  0.32866374037E+02  0.25500000000E-02 0. -1.
         -1   -1    0    0    0  501 -0.00000000000E+00 -0.00000000000E+00 -0.44735563391E+02  0.44735563675E+02  0.50400000000E-02 0.  1.
         24    2    1    2    0    0  0.00000000000E+00  0.00000000000E+00 -0.11869189453E+02  0.77601937711E+02  0.76688871933E+02 0.  0.
         66    2    3    3    0    0  0.16187885720E+02 -0.34597041512E+02 -0.28547228021E+01  0.38355604144E+02  0.20000003824E+01 0.  0.
        -13    1    3    3    0    0 -0.16187885720E+02  0.34597041512E+02 -0.90144666511E+01  0.39246333567E+02  0.10566000000E+00 0.  1.
         13    1    4    4    0    0  0.13775369121E+02 -0.28324945410E+02 -0.23967275535E+01  0.31588269878E+02  0.10566000000E+00 0. -1.
        -13    1    4    4    0    0  0.10841771478E+01 -0.22468734481E+01  0.55374179012E-01  0.24976210111E+01  0.10566000000E+00 0.  1.
        -14    1    4    4    0    0  0.13283394514E+01 -0.40252226533E+01 -0.51336942762E+00  0.42697132545E+01  0.00000000000E+00 0.  1.
<mgrwt>
<rscale>  0 0.76688872E+02</rscale>
<asrwt>0</asrwt>
<pdfrwt beam="1">  1        2 0.50563652E-02 0.76688872E+02</pdfrwt>
<pdfrwt beam="2">  1       -1 0.68823944E-02 0.76688872E+02</pdfrwt>
<totfact> 0.15409320E+05</totfact>
</mgrwt>
</event>
<event>
 8    1  0.1226832E-016  0.8126186E+02  0.7818608E-02  0.1325508E+00
          2   -1    0    0  501    0  0.00000000000E+00  0.00000000000E+00  0.25877820145E+03  0.25877820147E+03  0.25500000000E-02 0. -1.
         -1   -1    0    0    0  501 -0.00000000000E+00 -0.00000000000E+00 -0.63794878845E+01  0.63794898753E+01  0.50400000000E-02 0.  1.
         24    2    1    2    0    0 -0.22204460493E-15  0.00000000000E+00  0.25239871357E+03  0.26515769134E+03  0.81261864772E+02 0.  0.
         66    2    3    3    0    0  0.13103843791E+01  0.39258477609E+02  0.15985797674E+03  0.16462538655E+03  0.19999988236E+01 0.  0.
        -13    1    3    3    0    0 -0.13103843791E+01 -0.39258477609E+02  0.92540736826E+02  0.10053230480E+03  0.10566000000E+00 0.  1.
         13    1    4    4    0    0  0.69059419532E+00  0.32933359075E+02  0.13182596463E+03  0.13587928163E+03  0.10566000000E+00 0. -1.
        -13    1    4    4    0    0  0.10351377391E+00  0.67961294084E+00  0.28026103169E+01  0.28876248847E+01  0.10566000000E+00 0.  1.
         14    1    4    4    0    0  0.51627640981E+00  0.56455055933E+01  0.25229401795E+02  0.25858480034E+02  0.00000000000E+00 0. -1.
<mgrwt>
<rscale>  0 0.81261865E+02</rscale>
<asrwt>0</asrwt>
<pdfrwt beam="1">  1        2 0.39812041E-01 0.81261865E+02</pdfrwt>
<pdfrwt beam="2">  1       -1 0.98145957E-03 0.81261865E+02</pdfrwt>
<totfact> 0.23191760E+05</totfact>
</mgrwt>
</event>
<event>
 8    1  0.1226832E-016  0.7516081E+02  0.7818608E-02  0.1343374E+00
          2   -1    0    0  501    0  0.00000000000E+00  0.00000000000E+00  0.47011198704E+02  0.47011198774E+02  0.25500000000E-02 0. -1.
         -1   -1    0    0    0  501 -0.00000000000E+00 -0.00000000000E+00 -0.30041496363E+02  0.30041496785E+02  0.50400000000E-02 0.  1.
         24    2    1    2    0    0  0.00000000000E+00  0.00000000000E+00  0.16969702342E+02  0.77052695559E+02  0.75160808240E+02 0.  0.
         66    2    3    3    0    0  0.33707864771E+02 -0.49796380193E+01 -0.76946909172E+01  0.34988929666E+02  0.19999971609E+01 0.  0.
        -13    1    3    3    0    0 -0.33707864771E+02  0.49796380193E+01  0.24664393259E+02  0.42063765893E+02  0.10566000000E+00 0.  1.
         13    1    4    4    0    0  0.33327211302E+01 -0.20207910250E+00 -0.57399771619E+00  0.33894695026E+01  0.10566000000E+00 0. -1.
        -13    1    4    4    0    0  0.15521572977E+01 -0.17042061975E+00 -0.47351301466E-01  0.15657719009E+01  0.10566000000E+00 0.  1.
         14    1    4    4    0    0  0.28822986343E+02 -0.46071382971E+01 -0.70733418995E+01  0.30033688263E+02  0.00000000000E+00 0. -1.
<mgrwt>
<rscale>  0 0.75160808E+02</rscale>
<asrwt>0</asrwt>
<pdfrwt beam="1">  1        2 0.72324921E-02 0.75160808E+02</pdfrwt>
<pdfrwt beam="2">  1       -1 0.46217687E-02 0.75160808E+02</pdfrwt>
<totfact> 0.17487504E+05</totfact>
</mgrwt>
</event>
<event>
 8    1  0.1226832E-016  0.7975359E+02  0.7818608E-02  0.1329752E+00
         -1   -1    0    0    0  501 -0.00000000000E+00  0.00000000000E+00  0.64694477871E+00  0.64696441038E+00  0.50400000000E-02 0.  1.
          2   -1    0    0  501    0  0.00000000000E+00 -0.00000000000E+00 -0.24579140848E+04  0.24579140848E+04  0.25500000000E-02 0. -1.
         24    2    1    2    0    0 -0.17763568394E-14  0.00000000000E+00 -0.24572671400E+04  0.24585610492E+04  0.79753590970E+02 0.  0.
         66    2    3    3    0    0 -0.81912819779E+01  0.12444686106E+02 -0.23688290847E+04  0.23688767802E+04  0.20000007192E+01 0.  0.
        -13    1    3    3    0    0  0.81912819779E+01 -0.12444686106E+02 -0.88438055357E+02  0.89684269034E+02  0.10566000000E+00 0.  1.
         13    1    4    4    0    0 -0.31952141127E+01  0.53975101332E+01 -0.94331128595E+03  0.94333214504E+03  0.10566000000E+00 0. -1.
        -13    1    4    4    0    0 -0.31171239945E+00  0.12360251151E+01 -0.19386882943E+03  0.19387304895E+03  0.10566000000E+00 0.  1.
        -14    1    4    4    0    0 -0.46843554658E+01  0.58111508579E+01 -0.12316489693E+04  0.12316715862E+04  0.00000000000E+00 0.  1.
<mgrwt>
<rscale>  0 0.79753591E+02</rscale>
<asrwt>0</asrwt>
<pdfrwt beam="1">  1        2 0.37813315E+00 0.79753591E+02</pdfrwt>
<pdfrwt beam="2">  1       -1 0.99533444E-04 0.79753591E+02</pdfrwt>
<totfact> 0.21741549E+05</totfact>
</mgrwt>
</event>
<event>
 8    1  0.1226832E-016  0.8089946E+02  0.7818608E-02  0.1326518E+00
          2   -1    0    0  501    0  0.00000000000E+00  0.00000000000E+00  0.51291021658E+03  0.51291021658E+03  0.25500000000E-02 0. -1.
         -1   -1    0    0    0  501 -0.00000000000E+00 -0.00000000000E+00 -0.31899924419E+01  0.31899964233E+01  0.50400000000E-02 0.  1.
         24    2    1    2    0    0  0.00000000000E+00  0.00000000000E+00  0.50972022413E+03  0.51610021301E+03  0.80899462131E+02 0.  0.
         66    2    3    3    0    0 -0.31287311197E+02 -0.19157662315E+02  0.36332917836E+03  0.36518215142E+03  0.19999993364E+01 0.  0.
        -13    1    3    3    0    0  0.31287311197E+02  0.19157662315E+02  0.14639104577E+03  0.15091806159E+03  0.10566000000E+00 0.  1.
         13    1    4    4    0    0 -0.58005091963E+01 -0.39401764222E+01  0.66335647473E+02  0.66705323527E+02  0.10566000000E+00 0. -1.
        -13    1    4    4    0    0 -0.49463065100E+01 -0.34638694693E+01  0.64237103673E+02  0.64520392064E+02  0.10566000000E+00 0.  1.
         14    1    4    4    0    0 -0.20540495490E+02 -0.11753616423E+02  0.23275642721E+03  0.23395643582E+03  0.00000000000E+00 0. -1.
<mgrwt>
<rscale>  0 0.80899462E+02</rscale>
<asrwt>0</asrwt>
<pdfrwt beam="1">  1        2 0.78909286E-01 0.80899462E+02</pdfrwt>
<pdfrwt beam="2">  1       -1 0.49076824E-03 0.80899462E+02</pdfrwt>
<totfact> 0.29815986E+05</totfact>
</mgrwt>
</event>
<event>
 8    1  0.1226832E-016  0.8119144E+02  0.7818608E-02  0.1325704E+00
         -1   -1    0    0    0  501 -0.00000000000E+00  0.00000000000E+00  0.78883583197E+01  0.78883599298E+01  0.50400000000E-02 0.  1.
          2   -1    0    0  501    0  0.00000000000E+00 -0.00000000000E+00 -0.20891702625E+03  0.20891702626E+03  0.25500000000E-02 0. -1.
         24    2    1    2    0    0  0.00000000000E+00 -0.71054273576E-14 -0.20102866793E+03  0.21680538619E+03  0.81191441380E+02 0.  0.
         66    2    3    3    0    0  0.29579083597E+02  0.25617519418E+02 -0.12918950283E+03  0.13500039678E+03  0.20000001414E+01 0.  0.
        -13    1    3    3    0    0 -0.29579083597E+02 -0.25617519418E+02 -0.71839165098E+02  0.81804989417E+02  0.10566000000E+00 0.  1.
         13    1    4    4    0    0  0.66426463486E+01  0.66390891571E+01 -0.29971940991E+02  0.31409085726E+02  0.10566000000E+00 0. -1.
        -13    1    4    4    0    0  0.35336658808E+01  0.28653511410E+01 -0.16228708487E+02  0.16854648466E+02  0.10566000000E+00 0.  1.
        -14    1    4    4    0    0  0.19402771368E+02  0.16113079120E+02 -0.82988853351E+02  0.86736662583E+02  0.00000000000E+00 0.  1.
<mgrwt>
<rscale>  0 0.81191441E+02</rscale>
<asrwt>0</asrwt>
<pdfrwt beam="1">  1        2 0.32141077E-01 0.81191441E+02</pdfrwt>
<pdfrwt beam="2">  1       -1 0.12135939E-02 0.81191441E+02</pdfrwt>
<totfact> 0.21539769E+05</totfact>
</mgrwt>
</event>
<event>
 8    1  0.1363364E-016  0.8013870E+02  0.7818608E-02  0.1328658E+00
         -1   -1    0    0    0  501 -0.00000000000E+00  0.00000000000E+00  0.19154572235E+01  0.19154638541E+01  0.50400000000E-02 0.  1.
          2   -1    0    0  501    0  0.00000000000E+00 -0.00000000000E+00 -0.83820726537E+03  0.83820726538E+03  0.25500000000E-02 0. -1.
         24    2    1    2    0    0  0.44408920985E-15 -0.35527136788E-14 -0.83629180815E+03  0.84012272923E+03  0.80138703462E+02 0.  0.
         66    2    3    3    0    0  0.30451380243E+01  0.31032794602E+02 -0.68179480431E+03  0.68251041192E+03  0.19999997262E+01 0.  0.
        -13    1    3    3    0    0 -0.30451380243E+01 -0.31032794602E+02 -0.15449700385E+03  0.15761231731E+03  0.10566000000E+00 0.  1.
         13    1    4    4    0    0  0.20667137905E+01  0.18312725447E+02 -0.40420074444E+03  0.40462066208E+03  0.10566000000E+00 0. -1.
        -13    1    4    4    0    0  0.80235403663E+00  0.10572209700E+02 -0.23979187041E+03  0.24002618122E+03  0.10566000000E+00 0.  1.
        -14    1    4    4    0    0  0.17607019717E+00  0.21478594545E+01 -0.37802189457E+02  0.37863568621E+02  0.00000000000E+00 0.  1.
<mgrwt>
<rscale>  0 0.80138703E+02</rscale>
<asrwt>0</asrwt>
<pdfrwt beam="1">  1        2 0.12895467E+00 0.80138703E+02</pdfrwt>
<pdfrwt beam="2">  1       -1 0.29468691E-03 0.80138703E+02</pdfrwt>
<totfact> 0.34469323E+05</totfact>
</mgrwt>
</event>
<event>
 8    1  0.1226832E-016  0.8146636E+02  0.7818608E-02  0.1324941E+00
         -1   -1    0    0    0  501 -0.00000000000E+00  0.00000000000E+00  0.30319431412E+03  0.30319431416E+03  0.50400000000E-02 0.  1.
          2   -1    0    0  501    0  0.00000000000E+00 -0.00000000000E+00 -0.54723706250E+01  0.54723712191E+01  0.25500000000E-02 0. -1.
         24    2    1    2    0    0  0.00000000000E+00  0.17763568394E-14  0.29772194349E+03  0.30866668538E+03  0.81466355176E+02 0.  0.
         66    2    3    3    0    0 -0.37555522881E+02 -0.14411999340E+02  0.17263136624E+03  0.17726734479E+03  0.19999744208E+01 0.  0.
        -13    1    3    3    0    0  0.37555522881E+02  0.14411999340E+02  0.12509057726E+03  0.13139934059E+03  0.10566000000E+00 0.  1.
         13    1    4    4    0    0 -0.14599870749E+02 -0.54108249172E+01  0.66834580074E+02  0.68624379850E+02  0.10566000000E+00 0. -1.
        -13    1    4    4    0    0 -0.13949097882E+01 -0.53057639482E+00  0.50301787728E+01  0.52479660012E+01  0.10566000000E+00 0.  1.
         14    1    4    4    0    0 -0.21560742344E+02 -0.84705980284E+01  0.10076660739E+03  0.10339499894E+03  0.00000000000E+00 0. -1.
<mgrwt>
<rscale>  0 0.81466355E+02</rscale>
<asrwt>0</asrwt>
<pdfrwt beam="1">  1        2 0.84190297E-03 0.81466355E+02</pdfrwt>
<pdfrwt beam="2">  1       -1 0.46645293E-01 0.81466355E+02</pdfrwt>
<totfact> 0.82142388E+04</totfact>
</mgrwt>
</event>
<event>
 8    1  0.1226832E-016  0.8088173E+02  0.7818608E-02  0.1326568E+00
         -1   -1    0    0    0  501 -0.00000000000E+00  0.00000000000E+00  0.11778527163E+02  0.11778528241E+02  0.50400000000E-02 0.  1.
          2   -1    0    0  501    0  0.00000000000E+00 -0.00000000000E+00 -0.13885127820E+03  0.13885127822E+03  0.25500000000E-02 0. -1.
         24    2    1    2    0    0  0.71054273576E-14  0.17763568394E-14 -0.12707275104E+03  0.15062980647E+03  0.80881731802E+02 0.  0.
         66    2    3    3    0    0  0.23986602046E+02  0.13006372909E+02 -0.11910102619E+03  0.12220301672E+03  0.20000108160E+01 0.  0.
        -13    1    3    3    0    0 -0.23986602046E+02 -0.13006372909E+02 -0.79717248511E+01  0.28426789743E+02  0.10566000000E+00 0.  1.
         13    1    4    4    0    0  0.40682070883E+01  0.26409240164E+01 -0.21078595736E+02  0.21629682171E+02  0.10566000000E+00 0. -1.
        -13    1    4    4    0    0  0.10371787982E+02  0.54343681750E+01 -0.54556535125E+02  0.55799041500E+02  0.10566000000E+00 0.  1.
         14    1    4    4    0    0  0.95466069755E+01  0.49310807171E+01 -0.43465895326E+02  0.44774293052E+02  0.00000000000E+00 0. -1.
<mgrwt>
<rscale>  0 0.80881732E+02</rscale>
<asrwt>0</asrwt>
<pdfrwt beam="1">  1        2 0.21361734E-01 0.80881732E+02</pdfrwt>
<pdfrwt beam="2">  1       -1 0.18120813E-02 0.80881732E+02</pdfrwt>
<totfact> 0.18981854E+05</totfact>
</mgrwt>
</event>
<event>
 8    1  0.1226832E-016  0.8002605E+02  0.7818608E-02  0.1328978E+00
          2   -1    0    0  501    0  0.00000000000E+00  0.00000000000E+00  0.14250702011E+02  0.14250702239E+02  0.25500000000E-02 0. -1.
         -1   -1    0    0    0  501 -0.00000000000E+00 -0.00000000000E+00 -0.11234830991E+03  0.11234831002E+03  0.50400000000E-02 0.  1.
         24    2    1    2    0    0 -0.35527136788E-14 -0.35527136788E-14 -0.98097607897E+02  0.12659901226E+03  0.80026053445E+02 0.  0.
         66    2    3    3    0    0  0.17566738356E+02  0.26962226343E+02 -0.11526733385E+02  0.34240583172E+02  0.20000018949E+01 0.  0.
        -13    1    3    3    0    0 -0.17566738356E+02 -0.26962226343E+02 -0.86570874512E+02  0.92358429088E+02  0.10566000000E+00 0.  1.
         13    1    4    4    0    0  0.65700671839E+01  0.11096022173E+02 -0.47897588140E+01  0.13756469184E+02  0.10566000000E+00 0. -1.
        -13    1    4    4    0    0  0.10740820416E+02  0.15231856690E+02 -0.66741885550E+01  0.19797238150E+02  0.10566000000E+00 0.  1.
         14    1    4    4    0    0  0.25585075596E+00  0.63434747946E+00 -0.62786016437E-01  0.68687583876E+00  0.00000000000E+00 0. -1.
<mgrwt>
<rscale>  0 0.80026053E+02</rscale>
<asrwt>0</asrwt>
<pdfrwt beam="1">  1        2 0.21924158E-02 0.80026053E+02</pdfrwt>
<pdfrwt beam="2">  1       -1 0.17284355E-01 0.80026053E+02</pdfrwt>
<totfact> 0.11545821E+05</totfact>
</mgrwt>
</event>
<event>
 8    1  0.1226832E-016  0.8181717E+02  0.7818608E-02  0.1323972E+00
          2   -1    0    0  501    0  0.00000000000E+00  0.00000000000E+00  0.13039570325E+04  0.13039570325E+04  0.25500000000E-02 0. -1.
         -1   -1    0    0    0  501 -0.00000000000E+00 -0.00000000000E+00 -0.12834055699E+01  0.12834154661E+01  0.50400000000E-02 0.  1.
         24    2    1    2    0    0  0.00000000000E+00  0.17763568394E-14  0.13026736270E+04  0.13052404480E+04  0.81817166379E+02 0.  0.
         66    2    3    3    0    0  0.20862343347E+02 -0.13852160002E+02  0.11672822047E+04  0.11675525107E+04  0.20000000189E+01 0.  0.
        -13    1    3    3    0    0 -0.20862343347E+02  0.13852160002E+02  0.13539142224E+03  0.13768793733E+03  0.10566000000E+00 0.  1.
         13    1    4    4    0    0  0.10895939634E+02 -0.70016862732E+01  0.62399206602E+03  0.62412647334E+03  0.10566000000E+00 0. -1.
        -13    1    4    4    0    0  0.33589250693E+01 -0.29998261412E+01  0.20009599973E+03  0.20014670021E+03  0.10566000000E+00 0.  1.
        -14    1    4    4    0    0  0.66074786440E+01 -0.38506475876E+01  0.34319413899E+03  0.34327933712E+03  0.00000000000E+00 0.  1.
<mgrwt>
<rscale>  0 0.81817166E+02</rscale>
<asrwt>0</asrwt>
<pdfrwt beam="1">  1        2 0.20060961E+00 0.81817166E+02</pdfrwt>
<pdfrwt beam="2">  1       -1 0.19744695E-03 0.81817166E+02</pdfrwt>
<totfact> 0.32633852E+05</totfact>
</mgrwt>
</event>
<event>
 8    1  0.1226832E-016  0.7819354E+02  0.7818608E-02  0.1334257E+00
          2   -1    0    0  501    0  0.00000000000E+00  0.00000000000E+00  0.75622252249E+02  0.75622252292E+02  0.25500000000E-02 0. -1.
         -1   -1    0    0    0  501 -0.00000000000E+00 -0.00000000000E+00 -0.20213062979E+02  0.20213063608E+02  0.50400000000E-02 0.  1.
         24    2    1    2    0    0 -0.17763568394E-14  0.17763568394E-14  0.55409189270E+02  0.95835315900E+02  0.78193538852E+02 0.  0.
         66    2    3    3    0    0 -0.11262601609E+02  0.15055722028E+02  0.69699489695E+02  0.72218694400E+02  0.19999990764E+01 0.  0.
        -13    1    3    3    0    0  0.11262601609E+02 -0.15055722028E+02 -0.14290300425E+02  0.23616621500E+02  0.10566000000E+00 0.  1.
         13    1    4    4    0    0 -0.94290280990E+01  0.13009525907E+02  0.58534956278E+02  0.60700136785E+02  0.10566000000E+00 0. -1.
        -13    1    4    4    0    0 -0.15634282708E+00  0.29288576447E-01  0.47676035780E+00  0.51358093292E+00  0.10566000000E+00 0. -1.
         14    1    4    4    0    0 -0.16772306833E+01  0.20169075444E+01  0.10687773060E+02  0.11004976683E+02  0.00000000000E+00 0. -1.
<mgrwt>
<rscale>  0 0.78193539E+02</rscale>
<asrwt>0</asrwt>
<pdfrwt beam="1">  1        2 0.11634193E-01 0.78193539E+02</pdfrwt>
<pdfrwt beam="2">  1       -1 0.31097021E-02 0.78193539E+02</pdfrwt>
<totfact> 0.17504076E+05</totfact>
</mgrwt>
</event>
<event>
 8    1  0.1226832E-016  0.8009714E+02  0.7818608E-02  0.1328776E+00
         -1   -1    0    0    0  501 -0.00000000000E+00  0.00000000000E+00  0.24554904203E+02  0.24554904720E+02  0.50400000000E-02 0.  1.
          2   -1    0    0  501    0  0.00000000000E+00 -0.00000000000E+00 -0.65318429220E+02  0.65318429270E+02  0.25500000000E-02 0. -1.
         24    2    1    2    0    0  0.00000000000E+00  0.00000000000E+00 -0.40763525017E+02  0.89873333990E+02  0.80097135971E+02 0.  0.
         66    2    3    3    0    0 -0.33214697940E+02 -0.20740152263E+02 -0.29681951248E+02  0.49177111606E+02  0.20000002267E+01 0.  0.
        -13    1    3    3    0    0  0.33214697940E+02  0.20740152263E+02 -0.11081573769E+02  0.40696222384E+02  0.10566000000E+00 0.  1.
         13    1    4    4    0    0 -0.16771757720E+02 -0.10737796744E+02 -0.14906726541E+02  0.24875968245E+02  0.10566000000E+00 0. -1.
        -13    1    4    4    0    0 -0.11043152551E+02 -0.66712577688E+01 -0.10686517094E+02  0.16753199996E+02  0.10566000000E+00 0.  1.
         14    1    4    4    0    0 -0.53997876693E+01 -0.33310977496E+01 -0.40887076134E+01  0.75479433648E+01  0.00000000000E+00 0. -1.
<mgrwt>
<rscale>  0 0.80097136E+02</rscale>
<asrwt>0</asrwt>
<pdfrwt beam="1">  1        2 0.10048989E-01 0.80097136E+02</pdfrwt>
<pdfrwt beam="2">  1       -1 0.37776777E-02 0.80097136E+02</pdfrwt>
<totfact> 0.15827069E+05</totfact>
</mgrwt>
</event>
<event>
 8    1  0.1226832E-016  0.7689918E+02  0.7818608E-02  0.1338089E+00
         -1   -1    0    0    0  501 -0.00000000000E+00  0.00000000000E+00  0.17130396600E+02  0.17130397341E+02  0.50400000000E-02 0.  1.
          2   -1    0    0  501    0  0.00000000000E+00 -0.00000000000E+00 -0.86301041867E+02  0.86301041905E+02  0.25500000000E-02 0. -1.
         24    2    1    2    0    0 -0.22204460493E-15  0.00000000000E+00 -0.69170645267E+02  0.10343143925E+03  0.76899183726E+02 0.  0.
         66    2    3    3    0    0  0.11965230924E+01 -0.19156754724E+02 -0.79379112215E+02  0.81691225803E+02  0.19999995210E+01 0.  0.
        -13    1    3    3    0    0 -0.11965230924E+01  0.19156754724E+02  0.10208466948E+02  0.21740213443E+02  0.10566000000E+00 0.  1.
         13    1    4    4    0    0  0.44538931406E+00 -0.68171187126E+01 -0.30242736396E+02  0.31004931026E+02  0.10566000000E+00 0. -1.
        -13    1    4    4    0    0  0.81524356020E+00 -0.64724488616E+01 -0.28048249833E+02  0.28797095323E+02  0.10566000000E+00 0.  1.
         14    1    4    4    0    0 -0.64109781873E-01 -0.58671871501E+01 -0.21088125986E+02  0.21889199454E+02  0.00000000000E+00 0. -1.
<mgrwt>
<rscale>  0 0.76899184E+02</rscale>
<asrwt>0</asrwt>
<pdfrwt beam="1">  1        2 0.13277083E-01 0.76899184E+02</pdfrwt>
<pdfrwt beam="2">  1       -1 0.26354457E-02 0.76899184E+02</pdfrwt>
<totfact> 0.18934389E+05</totfact>
</mgrwt>
</event>
<event>
 8    1  0.1226832E-016  0.8077211E+02  0.7818608E-02  0.1326874E+00
         -1   -1    0    0    0  501 -0.00000000000E+00  0.00000000000E+00  0.64259877327E+01  0.64259897092E+01  0.50400000000E-02 0.  1.
          2   -1    0    0  501    0  0.00000000000E+00 -0.00000000000E+00 -0.25381825960E+03  0.25381825961E+03  0.25500000000E-02 0. -1.
         24    2    1    2    0    0  0.00000000000E+00  0.00000000000E+00 -0.24739227186E+03  0.26024424932E+03  0.80772106110E+02 0.  0.
         66    2    3    3    0    0 -0.21580224229E+02 -0.24007156532E+02 -0.20183218512E+03  0.20440714417E+03  0.19999994371E+01 0.  0.
        -13    1    3    3    0    0  0.21580224229E+02  0.24007156532E+02 -0.45560086748E+02  0.55837105146E+02  0.10566000000E+00 0.  1.
         13    1    4    4    0    0 -0.45281199796E+01 -0.59250185720E+01 -0.44847675298E+02  0.45463555287E+02  0.10566000000E+00 0. -1.
        -13    1    4    4    0    0 -0.10445519623E+02 -0.11423841851E+02 -0.94736407922E+02  0.95992766357E+02  0.10566000000E+00 0.  1.
        -14    1    4    4    0    0 -0.66065846265E+01 -0.66582961086E+01 -0.62248101895E+02  0.62950822529E+02  0.00000000000E+00 0.  1.
<mgrwt>
<rscale>  0 0.80772106E+02</rscale>
<asrwt>0</asrwt>
<pdfrwt beam="1">  1        2 0.39048955E-01 0.80772106E+02</pdfrwt>
<pdfrwt beam="2">  1       -1 0.98861385E-03 0.80772106E+02</pdfrwt>
<totfact> 0.23399835E+05</totfact>
</mgrwt>
</event>
<event>
 8    1  0.1226832E-016  0.8355124E+02  0.7818608E-02  0.1319265E+00
         -1   -1    0    0    0  501 -0.00000000000E+00  0.00000000000E+00  0.32665838203E+02  0.32665838592E+02  0.50400000000E-02 0.  1.
          2   -1    0    0  501    0  0.00000000000E+00 -0.00000000000E+00 -0.53425914060E+02  0.53425914121E+02  0.25500000000E-02 0. -1.
         24    2    1    2    0    0  0.35527136788E-14  0.35527136788E-14 -0.20760075857E+02  0.86091752713E+02  0.83551236589E+02 0.  0.
         66    2    3    3    0    0  0.23118428442E+02  0.30785599865E+02 -0.27032136697E+02  0.47084512309E+02  0.19999980763E+01 0.  0.
        -13    1    3    3    0    0 -0.23118428442E+02 -0.30785599865E+02  0.62720608394E+01  0.39007240404E+02  0.10566000000E+00 0.  1.
         13    1    4    4    0    0  0.77719437571E+01  0.10180562431E+02 -0.90598323703E+01  0.15688807724E+02  0.10566000000E+00 0. -1.
        -13    1    4    4    0    0  0.64828729576E+01  0.89587994523E+01 -0.86917697346E+01  0.14065765339E+02  0.10566000000E+00 0.  1.
        -14    1    4    4    0    0  0.88636117278E+01  0.11646237982E+02 -0.92805345918E+01  0.17329939247E+02  0.00000000000E+00 0.  1.
<mgrwt>
<rscale>  0 0.83551237E+02</rscale>
<asrwt>0</asrwt>
<pdfrwt beam="1">  1        2 0.82193714E-02 0.83551237E+02</pdfrwt>
<pdfrwt beam="2">  1       -1 0.50255136E-02 0.83551237E+02</pdfrwt>
<totfact> 0.13460669E+05</totfact>
</mgrwt>
</event>
<event>
 8    1  0.1226832E-016  0.7916644E+02  0.7818608E-02  0.1331434E+00
          2   -1    0    0  501    0  0.00000000000E+00  0.00000000000E+00  0.98664364965E+02  0.98664364998E+02  0.25500000000E-02 0. -1.
         -1   -1    0    0    0  501 -0.00000000000E+00 -0.00000000000E+00 -0.15880416133E+02  0.15880416933E+02  0.50400000000E-02 0.  1.
         24    2    1    2    0    0  0.35527136788E-14  0.00000000000E+00  0.82783948832E+02  0.11454478193E+03  0.79166437859E+02 0.  0.
         66    2    3    3    0    0 -0.26625106990E+02  0.22015532709E+02  0.69296552258E+02  0.77457034182E+02  0.19999966890E+01 0.  0.
        -13    1    3    3    0    0  0.26625106990E+02 -0.22015532709E+02  0.13487396574E+02  0.37087747748E+02  0.10566000000E+00 0.  1.
         13    1    4    4    0    0 -0.13500894622E+02  0.10393508741E+02  0.35471840840E+02  0.39351770432E+02  0.10566000000E+00 0. -1.
        -13    1    4    4    0    0 -0.10067393108E+02  0.87887457161E+01  0.25102044583E+02  0.28437972177E+02  0.10566000000E+00 0.  1.
        -14    1    4    4    0    0 -0.30568192600E+01  0.28332782509E+01  0.87226668356E+01  0.96672915731E+01  0.00000000000E+00 0.  1.
<mgrwt>
<rscale>  0 0.79166438E+02</rscale>
<asrwt>0</asrwt>
<pdfrwt beam="1">  1        2 0.15179133E-01 0.79166438E+02</pdfrwt>
<pdfrwt beam="2">  1       -1 0.24431410E-02 0.79166438E+02</pdfrwt>
<totfact> 0.18161814E+05</totfact>
</mgrwt>
</event>
<event>
 8    1  0.1226832E-016  0.7889631E+02  0.7818608E-02  0.1332213E+00
         -1   -1    0    0    0  501 -0.00000000000E+00  0.00000000000E+00  0.48098571727E+01  0.48098598133E+01  0.50400000000E-02 0.  1.
          2   -1    0    0  501    0  0.00000000000E+00 -0.00000000000E+00 -0.32353487337E+03  0.32353487338E+03  0.25500000000E-02 0. -1.
         24    2    1    2    0    0  0.35527136788E-14  0.17763568394E-14 -0.31872501620E+03  0.32834473320E+03  0.78896310851E+02 0.  0.
         66    2    3    3    0    0 -0.29419625030E+02 -0.91828679630E+01 -0.26177135708E+03  0.26358695488E+03  0.19999989619E+01 0.  0.
        -13    1    3    3    0    0  0.29419625030E+02  0.91828679630E+01 -0.56953659121E+02  0.64757778314E+02  0.10566000000E+00 0.  1.
         13    1    4    4    0    0 -0.73541043736E+01 -0.18326348332E+01 -0.68645674808E+02  0.69062878852E+02  0.10566000000E+00 0. -1.
        -13    1    4    4    0    0 -0.13732996778E+02 -0.47770269652E+01 -0.12471924276E+03  0.12556399112E+03  0.10566000000E+00 0.  1.
        -14    1    4    4    0    0 -0.83325238777E+01 -0.25732061646E+01 -0.68406439516E+02  0.68960084914E+02  0.00000000000E+00 0.  1.
<mgrwt>
<rscale>  0 0.78896311E+02</rscale>
<asrwt>0</asrwt>
<pdfrwt beam="1">  1        2 0.49774579E-01 0.78896311E+02</pdfrwt>
<pdfrwt beam="2">  1       -1 0.73997849E-03 0.78896311E+02</pdfrwt>
<totfact> 0.27169978E+05</totfact>
</mgrwt>
</event>
<event>
 8    1  0.1226832E-016  0.7834156E+02  0.7818608E-02  0.1333825E+00
          2   -1    0    0  501    0  0.00000000000E+00  0.00000000000E+00  0.11127326414E+03  0.11127326417E+03  0.25500000000E-02 0. -1.
         -1   -1    0    0    0  501 -0.00000000000E+00 -0.00000000000E+00 -0.13789026151E+02  0.13789027072E+02  0.50400000000E-02 0.  1.
         24    2    1    2    0    0  0.00000000000E+00  0.00000000000E+00  0.97484237990E+02  0.12506229124E+03  0.78341560069E+02 0.  0.
         66    2    3    3    0    0 -0.16207516902E+02 -0.35616567701E+02  0.50464425702E+02  0.63889606074E+02  0.20000009929E+01 0.  0.
        -13    1    3    3    0    0  0.16207516902E+02  0.35616567701E+02  0.47019812288E+02  0.61172685167E+02  0.10566000000E+00 0.  1.
         13    1    4    4    0    0 -0.56197324987E+01 -0.12307914434E+02  0.18214541389E+02  0.22690236515E+02  0.10566000000E+00 0. -1.
        -13    1    4    4    0    0 -0.68134463287E+01 -0.14041041604E+02  0.20524020194E+02  0.25784112727E+02  0.10566000000E+00 0.  1.
        -14    1    4    4    0    0 -0.37743380747E+01 -0.92676116630E+01  0.11725864119E+02  0.15415256832E+02  0.00000000000E+00 0.  1.
<mgrwt>
<rscale>  0 0.78341560E+02</rscale>
<asrwt>0</asrwt>
<pdfrwt beam="1">  1        2 0.17118964E-01 0.78341560E+02</pdfrwt>
<pdfrwt beam="2">  1       -1 0.21213887E-02 0.78341560E+02</pdfrwt>
<totfact> 0.19325435E+05</totfact>
</mgrwt>
</event>
<event>
 8    1  0.1226832E-016  0.7824168E+02  0.7818608E-02  0.1334117E+00
          2   -1    0    0  501    0  0.00000000000E+00  0.00000000000E+00  0.16224336607E+03  0.16224336609E+03  0.25500000000E-02 0. -1.
         -1   -1    0    0    0  501 -0.00000000000E+00 -0.00000000000E+00 -0.94329898072E+01  0.94329911536E+01  0.50400000000E-02 0.  1.
         24    2    1    2    0    0  0.00000000000E+00 -0.35527136788E-14  0.15281037626E+03  0.17167635724E+03  0.78241680342E+02 0.  0.
         66    2    3    3    0    0  0.85584249570E+01  0.27047154275E+02  0.13547964765E+03  0.13843240275E+03  0.20000027052E+01 0.  0.
        -13    1    3    3    0    0 -0.85584249570E+01 -0.27047154275E+02  0.17330728607E+02  0.33243954491E+02  0.10566000000E+00 0.  1.
         13    1    4    4    0    0  0.81101125887E+01  0.24335900175E+02  0.12175545498E+03  0.12442834061E+03  0.10566000000E+00 0.  1.
        -13    1    4    4    0    0  0.30179938178E+00  0.17857877320E+01  0.79526880391E+01  0.81569928143E+01  0.10566000000E+00 0. -1.
        -14    1    4    4    0    0  0.14651298651E+00  0.92546636784E+00  0.57715046318E+01  0.58470693316E+01  0.00000000000E+00 0.  1.
<mgrwt>
<rscale>  0 0.78241680E+02</rscale>
<asrwt>0</asrwt>
<pdfrwt beam="1">  1        2 0.24960518E-01 0.78241680E+02</pdfrwt>
<pdfrwt beam="2">  1       -1 0.14512293E-02 0.78241680E+02</pdfrwt>
<totfact> 0.21793399E+05</totfact>
</mgrwt>
</event>
<event>
 8    1  0.1226832E-016  0.8428248E+02  0.7818608E-02  0.1317320E+00
          2   -1    0    0  501    0  0.00000000000E+00  0.00000000000E+00  0.31221428339E+02  0.31221428443E+02  0.25500000000E-02 0. -1.
         -1   -1    0    0    0  501 -0.00000000000E+00 -0.00000000000E+00 -0.56880289850E+02  0.56880290073E+02  0.50400000000E-02 0.  1.
         24    2    1    2    0    0  0.00000000000E+00  0.00000000000E+00 -0.25658861511E+02  0.88101718516E+02  0.84282475233E+02 0.  0.
         66    2    3    3    0    0  0.32642339229E+02 -0.21676757235E+02  0.33057732370E+01  0.39374258653E+02  0.19999983179E+01 0.  0.
        -13    1    3    3    0    0 -0.32642339229E+02  0.21676757235E+02 -0.28964634748E+02  0.48727459863E+02  0.10566000000E+00 0.  1.
         13    1    4    4    0    0  0.11850207801E+02 -0.80576018934E+01  0.19877138703E+01  0.14467706925E+02  0.10566000000E+00 0.  1.
        -13    1    4    4    0    0  0.28323057248E+01 -0.20023690520E+01  0.45312007487E+00  0.34997027556E+01  0.10566000000E+00 0. -1.
        -14    1    4    4    0    0  0.17959825703E+02 -0.11616786289E+02  0.86493929184E+00  0.21406848973E+02  0.00000000000E+00 0.  1.
<mgrwt>
<rscale>  0 0.84282475E+02</rscale>
<asrwt>0</asrwt>
<pdfrwt beam="1">  1        2 0.48032967E-02 0.84282475E+02</pdfrwt>
<pdfrwt beam="2">  1       -1 0.87508139E-02 0.84282475E+02</pdfrwt>
<totfact> 0.11713554E+05</totfact>
</mgrwt>
</event>
<event>
 8    1  0.1226832E-016  0.8154941E+02  0.7818608E-02  0.1324711E+00
          2   -1    0    0  501    0  0.00000000000E+00  0.00000000000E+00  0.19674555232E+03  0.19674555234E+03  0.25500000000E-02 0. -1.
         -1   -1    0    0    0  501 -0.00000000000E+00 -0.00000000000E+00 -0.84503881712E+01  0.84503896742E+01  0.50400000000E-02 0.  1.
         24    2    1    2    0    0  0.00000000000E+00  0.00000000000E+00  0.18829516415E+03  0.20519594201E+03  0.81549406962E+02 0.  0.
         66    2    3    3    0    0 -0.15113630543E+02  0.46920221552E+01  0.18869239583E+03  0.18936540642E+03  0.20000006733E+01 0.  0.
        -13    1    3    3    0    0  0.15113630543E+02 -0.46920221552E+01 -0.39723168375E+00  0.15830535593E+02  0.10566000000E+00 0.  1.
         13    1    4    4    0    0 -0.12164286420E+02  0.30620529262E+01  0.15252777815E+03  0.15304274012E+03  0.10566000000E+00 0. -1.
        -13    1    4    4    0    0 -0.19732970395E+01  0.12431031094E+01  0.24751748930E+02  0.24861605855E+02  0.10566000000E+00 0.  1.
        -14    1    4    4    0    0 -0.97604708348E+00  0.38686611959E+00  0.11412868751E+02  0.11461060441E+02  0.00000000000E+00 0.  1.
<mgrwt>
<rscale>  0 0.81549407E+02</rscale>
<asrwt>0</asrwt>
<pdfrwt beam="1">  1        2 0.30268544E-01 0.81549407E+02</pdfrwt>
<pdfrwt beam="2">  1       -1 0.13000600E-02 0.81549407E+02</pdfrwt>
<totfact> 0.20849525E+05</totfact>
</mgrwt>
</event>
<event>
 8    1  0.1226832E-016  0.7928736E+02  0.7818608E-02  0.1331086E+00
         -1   -1    0    0    0  501 -0.00000000000E+00  0.00000000000E+00  0.13336839441E+03  0.13336839451E+03  0.50400000000E-02 0.  1.
          2   -1    0    0  501    0  0.00000000000E+00 -0.00000000000E+00 -0.11784059922E+02  0.11784060198E+02  0.25500000000E-02 0. -1.
         24    2    1    2    0    0  0.00000000000E+00  0.35527136788E-14  0.12158433449E+03  0.14515245470E+03  0.79287355319E+02 0.  0.
         66    2    3    3    0    0 -0.17613696640E+02  0.29327293602E+02  0.24249260148E+02  0.41980460828E+02  0.20000035741E+01 0.  0.
        -13    1    3    3    0    0  0.17613696640E+02 -0.29327293602E+02  0.97335074341E+02  0.10317199388E+03  0.10566000000E+00 0.  1.
         13    1    4    4    0    0 -0.28677184211E+01  0.40083176733E+01  0.32247086005E+01  0.58906985245E+01  0.10566000000E+00 0. -1.
        -13    1    4    4    0    0 -0.10763192671E+01  0.13561498321E+01  0.14846476634E+01  0.22831881771E+01  0.10566000000E+00 0.  1.
        -14    1    4    4    0    0 -0.13669658952E+02  0.23962826096E+02  0.19539903884E+02  0.33806574127E+02  0.00000000000E+00 0.  1.
<mgrwt>
<rscale>  0 0.79287355E+02</rscale>
<asrwt>0</asrwt>
<pdfrwt beam="1">  1        2 0.18129324E-02 0.79287355E+02</pdfrwt>
<pdfrwt beam="2">  1       -1 0.20518214E-01 0.79287355E+02</pdfrwt>
<totfact> 0.11358725E+05</totfact>
</mgrwt>
</event>
<event>
 8    1  0.1226832E-016  0.7974293E+02  0.7818608E-02  0.1329783E+00
          2   -1    0    0  501    0  0.00000000000E+00  0.00000000000E+00  0.47595707691E+03  0.47595707692E+03  0.25500000000E-02 0. -1.
         -1   -1    0    0    0  501 -0.00000000000E+00 -0.00000000000E+00 -0.33400757676E+01  0.33400795702E+01  0.50400000000E-02 0.  1.
         24    2    1    2    0    0  0.17763568394E-14  0.00000000000E+00  0.47261700115E+03  0.47929715649E+03  0.79742927259E+02 0.  0.
         66    2    3    3    0    0  0.14337468656E+02 -0.95053588942E+01  0.45248602235E+03  0.45281730894E+03  0.19999986792E+01 0.  0.
        -13    1    3    3    0    0 -0.14337468656E+02  0.95053588942E+01  0.20130978794E+02  0.26479847553E+02  0.10566000000E+00 0.  1.
         13    1    4    4    0    0  0.84998080854E+01 -0.63455521366E+01  0.27278005925E+03  0.27298623529E+03  0.10566000000E+00 0. -1.
        -13    1    4    4    0    0  0.32026070694E+01 -0.15938925064E+01  0.84434765555E+02  0.84510579123E+02  0.10566000000E+00 0.  1.
        -14    1    4    4    0    0  0.26350535012E+01 -0.15659142512E+01  0.95271197544E+02  0.95320494522E+02  0.00000000000E+00 0.  1.
<mgrwt>
<rscale>  0 0.79742927E+02</rscale>
<asrwt>0</asrwt>
<pdfrwt beam="1">  1        2 0.73224190E-01 0.79742927E+02</pdfrwt>
<pdfrwt beam="2">  1       -1 0.51385793E-03 0.79742927E+02</pdfrwt>
<totfact> 0.30223046E+05</totfact>
</mgrwt>
</event>
<event>
 8    1  0.1226832E-016  0.7913340E+02  0.7818608E-02  0.1331529E+00
          2   -1    0    0  501    0  0.00000000000E+00  0.00000000000E+00  0.34889506659E+03  0.34889506660E+03  0.25500000000E-02 0. -1.
         -1   -1    0    0    0  501 -0.00000000000E+00 -0.00000000000E+00 -0.44870889880E+01  0.44870918185E+01  0.50400000000E-02 0.  1.
         24    2    1    2    0    0  0.71054273576E-14 -0.44408920985E-15  0.34440797761E+03  0.35338215842E+03  0.79133399094E+02 0.  0.
         66    2    3    3    0    0  0.38062994904E+02 -0.21686046457E+01  0.21915500582E+03  0.22245541352E+03  0.19999995218E+01 0.  0.
        -13    1    3    3    0    0 -0.38062994904E+02  0.21686046457E+01  0.12525297178E+03  0.13092674490E+03  0.10566000000E+00 0.  1.
         13    1    4    4    0    0  0.17431857816E+02 -0.46143984695E+00  0.95992666736E+02  0.97563752617E+02  0.10566000000E+00 0. -1.
        -13    1    4    4    0    0  0.77536517087E+01 -0.66540856199E+00  0.48103318821E+02  0.48728865460E+02  0.10566000000E+00 0.  1.
         14    1    4    4    0    0  0.12877485378E+02 -0.10417562368E+01  0.75059020266E+02  0.76162795439E+02  0.00000000000E+00 0. -1.
<mgrwt>
<rscale>  0 0.79133399E+02</rscale>
<asrwt>0</asrwt>
<pdfrwt beam="1">  1        2 0.53676173E-01 0.79133399E+02</pdfrwt>
<pdfrwt beam="2">  1       -1 0.69032149E-03 0.79133399E+02</pdfrwt>
<totfact> 0.27696954E+05</totfact>
</mgrwt>
</event>
<event>
 8    1  0.1226832E-016  0.8043459E+02  0.7818608E-02  0.1327823E+00
          2   -1    0    0  501    0  0.00000000000E+00  0.00000000000E+00  0.29552075845E+02  0.29552075955E+02  0.25500000000E-02 0. -1.
         -1   -1    0    0    0  501 -0.00000000000E+00 -0.00000000000E+00 -0.54731542725E+02  0.54731542957E+02  0.50400000000E-02 0.  1.
         24    2    1    2    0    0 -0.71054273576E-14  0.88817841970E-15 -0.25179466880E+02  0.84283618912E+02  0.80434587489E+02 0.  0.
         66    2    3    3    0    0  0.34130778868E+02 -0.68783144605E+01  0.84433413833E+01  0.35881907418E+02  0.19999975775E+01 0.  0.
        -13    1    3    3    0    0 -0.34130778868E+02  0.68783144605E+01 -0.33622808264E+02  0.48401711494E+02  0.10566000000E+00 0.  1.
         13    1    4    4    0    0  0.92044275106E+01 -0.17358030240E+01  0.24842507416E+01  0.96910868183E+01  0.10566000000E+00 0. -1.
        -13    1    4    4    0    0  0.80741746304E+00  0.31668832623E-01  0.59172393094E-02  0.81493860131E+00  0.10566000000E+00 0. -1.
        -14    1    4    4    0    0  0.24118933894E+02 -0.51741802691E+01  0.59531734023E+01  0.25375881999E+02  0.00000000000E+00 0.  1.
<mgrwt>
<rscale>  0 0.80434587E+02</rscale>
<asrwt>0</asrwt>
<pdfrwt beam="1">  1        2 0.45464732E-02 0.80434587E+02</pdfrwt>
<pdfrwt beam="2">  1       -1 0.84202374E-02 0.80434587E+02</pdfrwt>
<totfact> 0.13212923E+05</totfact>
</mgrwt>
</event>
<event>
 8    1  0.1226832E-016  0.8008149E+02  0.7818608E-02  0.1328820E+00
         -1   -1    0    0    0  501 -0.00000000000E+00  0.00000000000E+00  0.38532110014E+01  0.38532142975E+01  0.50400000000E-02 0.  1.
          2   -1    0    0  501    0  0.00000000000E+00 -0.00000000000E+00 -0.41608431571E+03  0.41608431572E+03  0.25500000000E-02 0. -1.
         24    2    1    2    0    0 -0.88817841970E-15 -0.35527136788E-14 -0.41223110471E+03  0.41993753001E+03  0.80081492407E+02 0.  0.
         66    2    3    3    0    0 -0.61065923991E+01 -0.24983906156E+02 -0.36699835132E+03  0.36790389492E+03  0.19999980057E+01 0.  0.
        -13    1    3    3    0    0  0.61065923991E+01  0.24983906156E+02 -0.45232753390E+02  0.52033635092E+02  0.10566000000E+00 0.  1.
         13    1    4    4    0    0 -0.46635455964E+01 -0.18615356468E+02 -0.26523851120E+03  0.26593186936E+03  0.10566000000E+00 0. -1.
        -13    1    4    4    0    0 -0.13983227084E+01 -0.54451913287E+01 -0.90349121463E+02  0.90523921303E+02  0.10566000000E+00 0.  1.
         14    1    4    4    0    0 -0.44724094301E-01 -0.92335836015E+00 -0.11410718649E+02  0.11448104253E+02  0.00000000000E+00 0. -1.
<mgrwt>
<rscale>  0 0.80081492E+02</rscale>
<asrwt>0</asrwt>
<pdfrwt beam="1">  1        2 0.64012936E-01 0.80081492E+02</pdfrwt>
<pdfrwt beam="2">  1       -1 0.59280228E-03 0.80081492E+02</pdfrwt>
<totfact> 0.28567342E+05</totfact>
</mgrwt>
</event>
<event>
 8    1  0.1226832E-016  0.8012200E+02  0.7818608E-02  0.1328706E+00
         -1   -1    0    0    0  501 -0.00000000000E+00  0.00000000000E+00  0.29830439053E+03  0.29830439057E+03  0.50400000000E-02 0.  1.
          2   -1    0    0  501    0  0.00000000000E+00 -0.00000000000E+00 -0.53800203700E+01  0.53800209743E+01  0.25500000000E-02 0. -1.
         24    2    1    2    0    0  0.71054273576E-14  0.00000000000E+00  0.29292437016E+03  0.30368441155E+03  0.80122001866E+02 0.  0.
         66    2    3    3    0    0 -0.34487564246E+02  0.10063971087E+02  0.79581787365E+02  0.87338058679E+02  0.20000029753E+01 0.  0.
        -13    1    3    3    0    0  0.34487564246E+02 -0.10063971087E+02  0.21334258279E+03  0.21634635287E+03  0.10566000000E+00 0.  1.
         13    1    4    4    0    0 -0.16696825740E+02  0.51894936841E+01  0.39238592048E+02  0.42958038880E+02  0.10566000000E+00 0. -1.
        -13    1    4    4    0    0 -0.11396967394E+02  0.27793115551E+01  0.26910623243E+02  0.29356570744E+02  0.10566000000E+00 0.  1.
         14    1    4    4    0    0 -0.63937711122E+01  0.20951658482E+01  0.13432572074E+02  0.15023449054E+02  0.00000000000E+00 0. -1.
<mgrwt>
<rscale>  0 0.80122002E+02</rscale>
<asrwt>0</asrwt>
<pdfrwt beam="1">  1        2 0.82769538E-03 0.80122002E+02</pdfrwt>
<pdfrwt beam="2">  1       -1 0.45892989E-01 0.80122002E+02</pdfrwt>
<totfact> 0.86293125E+04</totfact>
</mgrwt>
</event>
<event>
 8    1  0.1226832E-016  0.8074853E+02  0.7818608E-02  0.1326941E+00
          2   -1    0    0  501    0  0.00000000000E+00  0.00000000000E+00  0.22991297254E+03  0.22991297256E+03  0.25500000000E-02 0. -1.
         -1   -1    0    0    0  501 -0.00000000000E+00 -0.00000000000E+00 -0.70899922191E+01  0.70899940105E+01  0.50400000000E-02 0.  1.
         24    2    1    2    0    0  0.35527136788E-14  0.17763568394E-14  0.22282298032E+03  0.23700296657E+03  0.80748533122E+02 0.  0.
         66    2    3    3    0    0  0.25268501496E+02  0.14509760598E+02  0.19340167968E+03  0.19559458075E+03  0.19999986915E+01 0.  0.
        -13    1    3    3    0    0 -0.25268501496E+02 -0.14509760598E+02  0.29421300644E+02  0.41408385818E+02  0.10566000000E+00 0.  1.
         13    1    4    4    0    0  0.11925599940E+02  0.59317544917E+01  0.85388339172E+02  0.86420977059E+02  0.10566000000E+00 0. -1.
        -13    1    4    4    0    0  0.12052757351E+02  0.75320102274E+01  0.96933192266E+02  0.97969664003E+02  0.10566000000E+00 0.  1.
        -14    1    4    4    0    0  0.12901442047E+01  0.10459958793E+01  0.11080148241E+02  0.11203939686E+02  0.00000000000E+00 0.  1.
<mgrwt>
<rscale>  0 0.80748533E+02</rscale>
<asrwt>0</asrwt>
<pdfrwt beam="1">  1        2 0.35371220E-01 0.80748533E+02</pdfrwt>
<pdfrwt beam="2">  1       -1 0.10907684E-02 0.80748533E+02</pdfrwt>
<totfact> 0.22604503E+05</totfact>
</mgrwt>
</event>
<event>
 8    1  0.1226832E-016  0.7986552E+02  0.7818608E-02  0.1329433E+00
         -1   -1    0    0    0  501 -0.00000000000E+00  0.00000000000E+00  0.13379729152E+01  0.13379824078E+01  0.50400000000E-02 0.  1.
          2   -1    0    0  501    0  0.00000000000E+00 -0.00000000000E+00 -0.11918176483E+04  0.11918176483E+04  0.25500000000E-02 0. -1.
         24    2    1    2    0    0  0.00000000000E+00  0.00000000000E+00 -0.11904796754E+04  0.11931556307E+04  0.79865521923E+02 0.  0.
         66    2    3    3    0    0  0.26236268573E+02 -0.68023728454E+01 -0.10332178231E+04  0.10335751952E+04  0.19999993488E+01 0.  0.
        -13    1    3    3    0    0 -0.26236268573E+02  0.68023728454E+01 -0.15726185229E+03  0.15958043557E+03  0.10566000000E+00 0.  1.
         13    1    4    4    0    0  0.11429533409E+02 -0.37176003800E+01 -0.43946417669E+03  0.43962851198E+03  0.10566000000E+00 0. -1.
        -13    1    4    4    0    0  0.11580322941E+02 -0.21162625738E+01 -0.46352423555E+03  0.46367371130E+03  0.10566000000E+00 0.  1.
        -14    1    4    4    0    0  0.32264122232E+01 -0.96850989161E+00 -0.13022941088E+03  0.13027297189E+03  0.00000000000E+00 0.  1.
<mgrwt>
<rscale>  0 0.79865522E+02</rscale>
<asrwt>0</asrwt>
<pdfrwt beam="1">  1        2 0.18335571E+00 0.79865522E+02</pdfrwt>
<pdfrwt beam="2">  1       -1 0.20584367E-03 0.79865522E+02</pdfrwt>
<totfact> 0.35217212E+05</totfact>
</mgrwt>
</event>
<event>
 8    1  0.1226832E-016  0.7757106E+02  0.7818608E-02  0.1336089E+00
          2   -1    0    0  501    0  0.00000000000E+00  0.00000000000E+00  0.12502724608E+04  0.12502724608E+04  0.25500000000E-02 0. -1.
         -1   -1    0    0    0  501 -0.00000000000E+00 -0.00000000000E+00 -0.12031864055E+01  0.12031969614E+01  0.50400000000E-02 0.  1.
         24    2    1    2    0    0 -0.17763568394E-14 -0.17763568394E-14  0.12490692744E+04  0.12514756577E+04  0.77571062512E+02 0.  0.
         66    2    3    3    0    0 -0.13825654038E+02 -0.15146826464E+02  0.11555686208E+04  0.11557523145E+04  0.19999996749E+01 0.  0.
        -13    1    3    3    0    0  0.13825654038E+02  0.15146826464E+02  0.93500653521E+02  0.95723343206E+02  0.10566000000E+00 0.  1.
         13    1    4    4    0    0 -0.12538448886E+00 -0.53526570718E+00  0.35987405611E+02  0.35991759574E+02  0.10566000000E+00 0.  1.
        -13    1    4    4    0    0 -0.10533656772E+01 -0.98858935248E+00  0.86222563545E+02  0.86234729178E+02  0.10566000000E+00 0. -1.
        -14    1    4    4    0    0 -0.12646903872E+02 -0.13622971404E+02  0.10333586517E+04  0.10335258258E+04  0.00000000000E+00 0.  1.
<mgrwt>
<rscale>  0 0.77571063E+02</rscale>
<asrwt>0</asrwt>
<pdfrwt beam="1">  1        2 0.19234915E+00 0.77571063E+02</pdfrwt>
<pdfrwt beam="2">  1       -1 0.18510686E-03 0.77571063E+02</pdfrwt>
<totfact> 0.37750541E+05</totfact>
</mgrwt>
</event>
<event>
 8    1  0.1615246E-016  0.7876620E+02  0.7818608E-02  0.1332590E+00
         -1   -1    0    0    0  501 -0.00000000000E+00  0.00000000000E+00  0.53890759176E+02  0.53890759412E+02  0.50400000000E-02 0.  1.
          2   -1    0    0  501    0  0.00000000000E+00 -0.00000000000E+00 -0.28780972617E+02  0.28780972730E+02  0.25500000000E-02 0. -1.
         24    2    1    2    0    0  0.00000000000E+00  0.00000000000E+00  0.25109786559E+02  0.82671732141E+02  0.78766197789E+02 0.  0.
         66    2    3    3    0    0 -0.23825978788E+02  0.11189450103E+02 -0.18147767204E+02  0.32034708331E+02  0.20000061360E+01 0.  0.
        -13    1    3    3    0    0  0.23825978788E+02 -0.11189450103E+02  0.43257553763E+02  0.50637023810E+02  0.10566000000E+00 0.  1.
         13    1    4    4    0    0 -0.14588199964E+02  0.71700227196E+01 -0.10824480820E+02  0.19529601969E+02  0.10566000000E+00 0. -1.
        -13    1    4    4    0    0 -0.62388148473E+01  0.32208597180E+01 -0.48069977023E+01  0.85097085125E+01  0.10566000000E+00 0.  1.
        -14    1    4    4    0    0 -0.29989639767E+01  0.79856766498E+00 -0.25162886810E+01  0.39953978494E+01  0.00000000000E+00 0.  1.
<mgrwt>
<rscale>  0 0.78766198E+02</rscale>
<asrwt>0</asrwt>
<pdfrwt beam="1">  1        2 0.44278420E-02 0.78766198E+02</pdfrwt>
<pdfrwt beam="2">  1       -1 0.82908860E-02 0.78766198E+02</pdfrwt>
<totfact> 0.13940372E+05</totfact>
</mgrwt>
</event>
<event>
 8    1  0.1226832E-016  0.7968021E+02  0.7818608E-02  0.1329961E+00
         -1   -1    0    0    0  501 -0.00000000000E+00  0.00000000000E+00  0.42860582984E+02  0.42860583281E+02  0.50400000000E-02 0.  1.
          2   -1    0    0  501    0  0.00000000000E+00 -0.00000000000E+00 -0.37032484537E+02  0.37032484625E+02  0.25500000000E-02 0. -1.
         24    2    1    2    0    0  0.17763568394E-14  0.00000000000E+00  0.58280984471E+01  0.79893067906E+02  0.79680208132E+02 0.  0.
         66    2    3    3    0    0  0.15515795035E+02  0.28476394482E+02 -0.20245265178E+02  0.38282055025E+02  0.20000091404E+01 0.  0.
        -13    1    3    3    0    0 -0.15515795035E+02 -0.28476394482E+02  0.26073363625E+02  0.41611012881E+02  0.10566000000E+00 0.  1.
         13    1    4    4    0    0  0.73372541601E+01  0.13866917587E+02 -0.10301705278E+02  0.18768670642E+02  0.10566000000E+00 0. -1.
        -13    1    4    4    0    0  0.34838030554E+01  0.71928536802E+01 -0.42717989733E+01  0.90627511440E+01  0.10566000000E+00 0.  1.
         14    1    4    4    0    0  0.46947378192E+01  0.74166232143E+01 -0.56717609263E+01  0.10450633239E+02  0.00000000000E+00 0. -1.
<mgrwt>
<rscale>  0 0.79680208E+02</rscale>
<asrwt>0</asrwt>
<pdfrwt beam="1">  1        2 0.56973053E-02 0.79680208E+02</pdfrwt>
<pdfrwt beam="2">  1       -1 0.65939359E-02 0.79680208E+02</pdfrwt>
<totfact> 0.14189545E+05</totfact>
</mgrwt>
</event>
<event>
 8    1  0.1226832E-016  0.7984819E+02  0.7818608E-02  0.1329483E+00
          2   -1    0    0  501    0  0.00000000000E+00  0.00000000000E+00  0.20841182388E+03  0.20841182389E+03  0.25500000000E-02 0. -1.
         -1   -1    0    0    0  501 -0.00000000000E+00 -0.00000000000E+00 -0.76479980831E+01  0.76479997437E+01  0.50400000000E-02 0.  1.
         24    2    1    2    0    0  0.00000000000E+00  0.00000000000E+00  0.20076382579E+03  0.21605982364E+03  0.79848191228E+02 0.  0.
         66    2    3    3    0    0 -0.27083402106E+02  0.10274067425E+02  0.17468958053E+03  0.17708618433E+03  0.20000004083E+01 0.  0.
        -13    1    3    3    0    0  0.27083402106E+02 -0.10274067425E+02  0.26074245263E+02  0.38973639312E+02  0.10566000000E+00 0.  1.
         13    1    4    4    0    0 -0.13575918912E+02  0.56083519665E+01  0.86198852535E+02  0.87441480594E+02  0.10566000000E+00 0. -1.
        -13    1    4    4    0    0 -0.34543159333E+01  0.17212512503E+01  0.23329713848E+02  0.23647023421E+02  0.10566000000E+00 0.  1.
         14    1    4    4    0    0 -0.10053167261E+02  0.29444642084E+01  0.65161014149E+02  0.65997680310E+02  0.00000000000E+00 0. -1.
<mgrwt>
<rscale>  0 0.79848191E+02</rscale>
<asrwt>0</asrwt>
<pdfrwt beam="1">  1        2 0.32063353E-01 0.79848191E+02</pdfrwt>
<pdfrwt beam="2">  1       -1 0.11766154E-02 0.79848191E+02</pdfrwt>
<totfact> 0.22489979E+05</totfact>
</mgrwt>
</event>
<event>
 8    1  0.1226832E-016  0.7967346E+02  0.7818608E-02  0.1329981E+00
         -1   -1    0    0    0  501 -0.00000000000E+00  0.00000000000E+00  0.25105493307E+02  0.25105493813E+02  0.50400000000E-02 0.  1.
          2   -1    0    0  501    0  0.00000000000E+00 -0.00000000000E+00 -0.63211871467E+02  0.63211871518E+02  0.25500000000E-02 0. -1.
         24    2    1    2    0    0  0.00000000000E+00  0.00000000000E+00 -0.38106378160E+02  0.88317365331E+02  0.79673464607E+02 0.  0.
         66    2    3    3    0    0  0.74977916495E+01  0.30855849755E+02 -0.45684195909E+02  0.55671770994E+02  0.19999965167E+01 0.  0.
        -13    1    3    3    0    0 -0.74977916495E+01 -0.30855849755E+02  0.75778177494E+01  0.32645594336E+02  0.10566000000E+00 0.  1.
         13    1    4    4    0    0  0.36517434191E+01  0.12836401776E+02 -0.18849580876E+02  0.23096023549E+02  0.10566000000E+00 0. -1.
        -13    1    4    4    0    0  0.13740787078E+01  0.49437497968E+01 -0.66710513536E+01  0.84168191466E+01  0.10566000000E+00 0.  1.
        -14    1    4    4    0    0  0.24719695226E+01  0.13075698182E+02 -0.20163563680E+02  0.24158928298E+02  0.00000000000E+00 0.  1.
<mgrwt>
<rscale>  0 0.79673465E+02</rscale>
<asrwt>0</asrwt>
<pdfrwt beam="1">  1        2 0.97249033E-02 0.79673465E+02</pdfrwt>
<pdfrwt beam="2">  1       -1 0.38623837E-02 0.79673465E+02</pdfrwt>
<totfact> 0.15932502E+05</totfact>
</mgrwt>
</event>
<event>
 8    1  0.1226832E-016  0.7985585E+02  0.7818608E-02  0.1329461E+00
         -1   -1    0    0    0  501 -0.00000000000E+00  0.00000000000E+00  0.12314761846E+03  0.12314761856E+03  0.50400000000E-02 0.  1.
          2   -1    0    0  501    0  0.00000000000E+00 -0.00000000000E+00 -0.12945758126E+02  0.12945758377E+02  0.25500000000E-02 0. -1.
         24    2    1    2    0    0 -0.35527136788E-14 -0.71054273576E-14  0.11020186033E+03  0.13609337694E+03  0.79855852794E+02 0.  0.
         66    2    3    3    0    0  0.24025623042E+02  0.20614351840E+02  0.13737765582E+02  0.34567445254E+02  0.20000009614E+01 0.  0.
        -13    1    3    3    0    0 -0.24025623042E+02 -0.20614351840E+02  0.96464094748E+02  0.10152593168E+03  0.10566000000E+00 0.  1.
         13    1    4    4    0    0  0.16089953793E+01  0.12562980753E+01  0.74745213987E+00  0.21764649599E+01  0.10566000000E+00 0. -1.
        -13    1    4    4    0    0  0.39510740419E+01  0.25616489926E+01  0.20317268182E+01  0.51295330728E+01  0.10566000000E+00 0.  1.
        -14    1    4    4    0    0  0.18465553621E+02  0.16796404772E+02  0.10958586624E+02  0.27261447221E+02  0.00000000000E+00 0.  1.
<mgrwt>
<rscale>  0 0.79855853E+02</rscale>
<asrwt>0</asrwt>
<pdfrwt beam="1">  1        2 0.19916551E-02 0.79855853E+02</pdfrwt>
<pdfrwt beam="2">  1       -1 0.18945788E-01 0.79855853E+02</pdfrwt>
<totfact> 0.11368123E+05</totfact>
</mgrwt>
</event>
<event>
 8    1  0.1226832E-016  0.7999744E+02  0.7818608E-02  0.1329059E+00
         -1   -1    0    0    0  501 -0.00000000000E+00  0.00000000000E+00  0.17640043743E+01  0.17640115743E+01  0.50400000000E-02 0.  1.
          2   -1    0    0  501    0  0.00000000000E+00 -0.00000000000E+00 -0.90696731322E+03  0.90696731322E+03  0.25500000000E-02 0. -1.
         24    2    1    2    0    0 -0.88817841970E-15  0.00000000000E+00 -0.90520330884E+03  0.90873132479E+03  0.79997439483E+02 0.  0.
         66    2    3    3    0    0  0.63487282594E+01 -0.25371074460E+02 -0.79628948072E+03  0.79672136591E+03  0.20000043056E+01 0.  0.
        -13    1    3    3    0    0 -0.63487282594E+01  0.25371074460E+02 -0.10891382812E+03  0.11200995889E+03  0.10566000000E+00 0.  1.
         13    1    4    4    0    0  0.12297739188E+01 -0.56340744966E+01 -0.19827230400E+03  0.19835617671E+03  0.10566000000E+00 0. -1.
        -13    1    4    4    0    0  0.23543647589E+00 -0.59812073889E+00 -0.17945750689E+02  0.17957569729E+02  0.10566000000E+00 0.  1.
         14    1    4    4    0    0  0.48835178647E+01 -0.19138879224E+02 -0.58007142603E+03  0.58040761947E+03  0.00000000000E+00 0. -1.
<mgrwt>
<rscale>  0 0.79997439E+02</rscale>
<asrwt>0</asrwt>
<pdfrwt beam="1">  1        2 0.13953306E+00 0.79997439E+02</pdfrwt>
<pdfrwt beam="2">  1       -1 0.27138657E-03 0.79997439E+02</pdfrwt>
<totfact> 0.34978507E+05</totfact>
</mgrwt>
</event>
<event>
 8    1  0.1226832E-016  0.8771487E+02  0.7818608E-02  0.1308482E+00
         -1   -1    0    0    0  501 -0.00000000000E+00  0.00000000000E+00  0.21636899893E+03  0.21636899898E+03  0.50400000000E-02 0.  1.
          2   -1    0    0  501    0  0.00000000000E+00 -0.00000000000E+00 -0.88897890818E+01  0.88897894475E+01  0.25500000000E-02 0. -1.
         24    2    1    2    0    0 -0.35527136788E-14 -0.35527136788E-14  0.20747920984E+03  0.22525878843E+03  0.87714874727E+02 0.  0.
         66    2    3    3    0    0 -0.30275566911E+02 -0.20047972367E+02  0.40734684596E+02  0.54606278893E+02  0.20000043975E+01 0.  0.
        -13    1    3    3    0    0  0.30275566911E+02  0.20047972367E+02  0.16674452525E+03  0.17065250954E+03  0.10566000000E+00 0.  1.
         13    1    4    4    0    0 -0.22419125457E+02 -0.14646109824E+02  0.30459129409E+02  0.40557310656E+02  0.10566000000E+00 0. -1.
        -13    1    4    4    0    0 -0.25474137012E+01 -0.17796065754E+01  0.39994315324E+01  0.50658595269E+01  0.10566000000E+00 0. -1.
        -14    1    4    4    0    0 -0.53090277522E+01 -0.36222559672E+01  0.62761236543E+01  0.89831087097E+01  0.00000000000E+00 0.  1.
<mgrwt>
<rscale>  0 0.87714875E+02</rscale>
<asrwt>0</asrwt>
<pdfrwt beam="1">  1        2 0.13676599E-02 0.87714875E+02</pdfrwt>
<pdfrwt beam="2">  1       -1 0.33287538E-01 0.87714875E+02</pdfrwt>
<totfact> 0.76834514E+04</totfact>
</mgrwt>
</event>
<event>
 8    1  0.1226832E-016  0.7858694E+02  0.7818608E-02  0.1333110E+00
          2   -1    0    0  501    0  0.00000000000E+00  0.00000000000E+00  0.22864216644E+03  0.22864216645E+03  0.25500000000E-02 0. -1.
         -1   -1    0    0    0  501 -0.00000000000E+00 -0.00000000000E+00 -0.67528079250E+01  0.67528098058E+01  0.50400000000E-02 0.  1.
         24    2    1    2    0    0  0.00000000000E+00  0.00000000000E+00  0.22188935851E+03  0.23539497626E+03  0.78586941830E+02 0.  0.
         66    2    3    3    0    0  0.22112897992E+02 -0.31991486352E+02  0.12729527193E+03  0.13311844994E+03  0.20000000529E+01 0.  0.
        -13    1    3    3    0    0 -0.22112897992E+02  0.31991486352E+02  0.94594086582E+02  0.10227652632E+03  0.10566000000E+00 0.  1.
         13    1    4    4    0    0  0.46377449547E+01 -0.66826492897E+01  0.24831693749E+02  0.26130263264E+02  0.10566000000E+00 0. -1.
        -13    1    4    4    0    0  0.14385031472E+02 -0.20214688963E+02  0.81242393010E+02  0.84946455879E+02  0.10566000000E+00 0.  1.
        -14    1    4    4    0    0  0.30901215651E+01 -0.50941480995E+01  0.21221185174E+02  0.22041730792E+02  0.00000000000E+00 0.  1.
<mgrwt>
<rscale>  0 0.78586942E+02</rscale>
<asrwt>0</asrwt>
<pdfrwt beam="1">  1        2 0.35175719E-01 0.78586942E+02</pdfrwt>
<pdfrwt beam="2">  1       -1 0.10388936E-02 0.78586942E+02</pdfrwt>
<totfact> 0.24229865E+05</totfact>
</mgrwt>
</event>
<event>
 8    1  0.1226832E-016  0.8126224E+02  0.7818608E-02  0.1325507E+00
         -1   -1    0    0    0  501 -0.00000000000E+00  0.00000000000E+00  0.23151849991E+01  0.23151904850E+01  0.50400000000E-02 0.  1.
          2   -1    0    0  501    0  0.00000000000E+00 -0.00000000000E+00 -0.71306864458E+03  0.71306864459E+03  0.25500000000E-02 0. -1.
         24    2    1    2    0    0  0.35527136788E-14  0.00000000000E+00 -0.71075345958E+03  0.71538383507E+03  0.81262237064E+02 0.  0.
         66    2    3    3    0    0 -0.26888510684E+02 -0.17821189086E+02 -0.57271539648E+03  0.57362663132E+03  0.20000007337E+01 0.  0.
        -13    1    3    3    0    0  0.26888510684E+02  0.17821189086E+02 -0.13803806310E+03  0.14175720375E+03  0.10566000000E+00 0.  1.
         13    1    4    4    0    0 -0.29239535476E+01 -0.17222277660E+01 -0.64676729280E+02  0.64765778365E+02  0.10566000000E+00 0. -1.
        -13    1    4    4    0    0 -0.15825028948E+02 -0.99335143374E+01 -0.31951003682E+03  0.32005590300E+03  0.10566000000E+00 0.  1.
         14    1    4    4    0    0 -0.81395281879E+01 -0.61654469828E+01 -0.18852863038E+03  0.18880494996E+03  0.00000000000E+00 0. -1.
<mgrwt>
<rscale>  0 0.81262237E+02</rscale>
<asrwt>0</asrwt>
<pdfrwt beam="1">  1        2 0.10970269E+00 0.81262237E+02</pdfrwt>
<pdfrwt beam="2">  1       -1 0.35618330E-03 0.81262237E+02</pdfrwt>
<totfact> 0.32250993E+05</totfact>
</mgrwt>
</event>
<event>
 8    1  0.1226832E-016  0.7945246E+02  0.7818608E-02  0.1330612E+00
         -1   -1    0    0    0  501 -0.00000000000E+00  0.00000000000E+00  0.47070918915E+02  0.47070919185E+02  0.50400000000E-02 0.  1.
          2   -1    0    0  501    0  0.00000000000E+00 -0.00000000000E+00 -0.33527567620E+02  0.33527567717E+02  0.25500000000E-02 0. -1.
         24    2    1    2    0    0 -0.35527136788E-14  0.44408920985E-15  0.13543351295E+02  0.80598486902E+02  0.79452462055E+02 0.  0.
         66    2    3    3    0    0  0.31552600520E+02 -0.34533866529E+01 -0.17414942894E+02  0.36259794747E+02  0.20000000315E+01 0.  0.
        -13    1    3    3    0    0 -0.31552600520E+02  0.34533866529E+01  0.30958294188E+02  0.44338692155E+02  0.10566000000E+00 0.  1.
         13    1    4    4    0    0  0.50963464404E+01 -0.76730419264E+00 -0.29969270611E+01  0.59627375097E+01  0.10566000000E+00 0. -1.
        -13    1    4    4    0    0  0.22343788407E+02 -0.18070015225E+01 -0.12601558734E+02  0.25716154095E+02  0.10566000000E+00 0.  1.
        -14    1    4    4    0    0  0.41124656727E+01 -0.87908093779E+00 -0.18164570983E+01  0.45809031418E+01  0.00000000000E+00 0.  1.
<mgrwt>
<rscale>  0 0.79452462E+02</rscale>
<asrwt>0</asrwt>
<pdfrwt beam="1">  1        2 0.51580873E-02 0.79452462E+02</pdfrwt>
<pdfrwt beam="2">  1       -1 0.72416799E-02 0.79452462E+02</pdfrwt>
<totfact> 0.14020888E+05</totfact>
</mgrwt>
</event>
<event>
 8    1  0.1226832E-016  0.7938906E+02  0.7818608E-02  0.1330794E+00
         -1   -1    0    0    0  501 -0.00000000000E+00  0.00000000000E+00  0.22226094174E+02  0.22226094746E+02  0.50400000000E-02 0.  1.
          2   -1    0    0  501    0  0.00000000000E+00 -0.00000000000E+00 -0.70892157497E+02  0.70892157542E+02  0.25500000000E-02 0. -1.
         24    2    1    2    0    0  0.00000000000E+00  0.00000000000E+00 -0.48666063322E+02  0.93118252288E+02  0.79389062155E+02 0.  0.
         66    2    3    3    0    0 -0.97727940959E+01 -0.35001953306E+02 -0.43005356927E+02  0.56339195739E+02  0.20000031222E+01 0.  0.
        -13    1    3    3    0    0  0.97727940959E+01  0.35001953306E+02 -0.56607063957E+01  0.36779056549E+02  0.10566000000E+00 0.  1.
         13    1    4    4    0    0 -0.25473851025E+01 -0.77531674030E+01 -0.85950196572E+01  0.11852691786E+02  0.10566000000E+00 0. -1.
        -13    1    4    4    0    0 -0.61808068941E+00 -0.19766766829E+01 -0.25483612563E+01  0.32855111590E+01  0.10566000000E+00 0. -1.
         14    1    4    4    0    0 -0.66073283040E+01 -0.25272109220E+02 -0.31861976013E+02  0.41200992794E+02  0.00000000000E+00 0. -1.
<mgrwt>
<rscale>  0 0.79389062E+02</rscale>
<asrwt>0</asrwt>
<pdfrwt beam="1">  1        2 0.10906486E-01 0.79389062E+02</pdfrwt>
<pdfrwt beam="2">  1       -1 0.34193992E-02 0.79389062E+02</pdfrwt>
<totfact> 0.16535941E+05</totfact>
</mgrwt>
</event>
<event>
 8    1  0.1226832E-016  0.7889077E+02  0.7818608E-02  0.1332229E+00
          2   -1    0    0  501    0  0.00000000000E+00  0.00000000000E+00  0.82107895088E+03  0.82107895088E+03  0.25500000000E-02 0. -1.
         -1   -1    0    0    0  501 -0.00000000000E+00 -0.00000000000E+00 -0.18949888444E+01  0.18949955467E+01  0.50400000000E-02 0.  1.
         24    2    1    2    0    0  0.00000000000E+00  0.00000000000E+00  0.81918396203E+03  0.82297394643E+03  0.78890765286E+02 0.  0.
         66    2    3    3    0    0  0.22713019344E+02 -0.23091796087E+02  0.64423884223E+03  0.64505565507E+03  0.20000001788E+01 0.  0.
        -13    1    3    3    0    0 -0.22713019344E+02  0.23091796087E+02  0.17494511980E+03  0.17791829136E+03  0.10566000000E+00 0.  1.
         13    1    4    4    0    0  0.10172700220E+02 -0.10191340461E+02  0.28038454781E+03  0.28075407934E+03  0.10566000000E+00 0. -1.
        -13    1    4    4    0    0  0.10905179347E+02 -0.11711799386E+02  0.32841414728E+03  0.32880382066E+03  0.10566000000E+00 0.  1.
        -14    1    4    4    0    0  0.16351397775E+01 -0.11886562396E+01  0.35440147146E+02  0.35497755077E+02  0.00000000000E+00 0.  1.
<mgrwt>
<rscale>  0 0.78890765E+02</rscale>
<asrwt>0</asrwt>
<pdfrwt beam="1">  1        2 0.12631985E+00 0.78890765E+02</pdfrwt>
<pdfrwt beam="2">  1       -1 0.29153723E-03 0.78890765E+02</pdfrwt>
<totfact> 0.35788221E+05</totfact>
</mgrwt>
</event>
<event>
 8    1  0.1226832E-016  0.7715314E+02  0.7818608E-02  0.1337330E+00
          2   -1    0    0  501    0  0.00000000000E+00  0.00000000000E+00  0.26255057990E+02  0.26255058114E+02  0.25500000000E-02 0. -1.
         -1   -1    0    0    0  501 -0.00000000000E+00 -0.00000000000E+00 -0.56680579017E+02  0.56680579241E+02  0.50400000000E-02 0.  1.
         24    2    1    2    0    0 -0.35527136788E-14  0.00000000000E+00 -0.30425521027E+02  0.82935637355E+02  0.77153143900E+02 0.  0.
         66    2    3    3    0    0  0.23739969608E+02  0.17516924310E+02  0.11450456105E+02  0.31710278215E+02  0.20000012982E+01 0.  0.
        -13    1    3    3    0    0 -0.23739969608E+02 -0.17516924310E+02 -0.41875977132E+02  0.51225359140E+02  0.10566000000E+00 0.  1.
         13    1    4    4    0    0  0.17179453792E+02  0.12597051340E+02  0.73785278412E+01  0.22544914553E+02  0.10566000000E+00 0. -1.
        -13    1    4    4    0    0  0.33913139818E+01  0.22997403632E+01  0.19990637565E+01  0.45603986887E+01  0.10566000000E+00 0.  1.
         14    1    4    4    0    0  0.31692018345E+01  0.26201326070E+01  0.20728645069E+01  0.46049649738E+01  0.00000000000E+00 0. -1.
<mgrwt>
<rscale>  0 0.77153144E+02</rscale>
<asrwt>0</asrwt>
<pdfrwt beam="1">  1        2 0.40392397E-02 0.77153144E+02</pdfrwt>
<pdfrwt beam="2">  1       -1 0.87200891E-02 0.77153144E+02</pdfrwt>
<totfact> 0.14513453E+05</totfact>
</mgrwt>
</event>
<event>
 8    1  0.1226832E-016  0.8172048E+02  0.7818608E-02  0.1324239E+00
          2   -1    0    0  501    0  0.00000000000E+00  0.00000000000E+00  0.21816259176E+03  0.21816259177E+03  0.25500000000E-02 0. -1.
         -1   -1    0    0    0  501 -0.00000000000E+00 -0.00000000000E+00 -0.76528189655E+01  0.76528206251E+01  0.50400000000E-02 0.  1.
         24    2    1    2    0    0 -0.35527136788E-14  0.17763568394E-14  0.21050977279E+03  0.22581541240E+03  0.81720475007E+02 0.  0.
         66    2    3    3    0    0  0.31139415298E+02  0.15957885959E+02  0.16349331241E+03  0.16720759705E+03  0.19999994200E+01 0.  0.
        -13    1    3    3    0    0 -0.31139415298E+02 -0.15957885959E+02  0.47016460381E+02  0.58607815351E+02  0.10566000000E+00 0.  1.
         13    1    4    4    0    0  0.20557994573E+02  0.10983803106E+02  0.11057987741E+03  0.11300971429E+03  0.10566000000E+00 0. -1.
        -13    1    4    4    0    0  0.16508829928E+01  0.10911499669E+01  0.81561328390E+01  0.83934313501E+01  0.10566000000E+00 0.  1.
         14    1    4    4    0    0  0.89305377320E+01  0.38829328866E+01  0.44757302163E+02  0.45804451409E+02  0.00000000000E+00 0. -1.
<mgrwt>
<rscale>  0 0.81720475E+02</rscale>
<asrwt>0</asrwt>
<pdfrwt beam="1">  1        2 0.33563484E-01 0.81720475E+02</pdfrwt>
<pdfrwt beam="2">  1       -1 0.11773566E-02 0.81720475E+02</pdfrwt>
<totfact> 0.21498780E+05</totfact>
</mgrwt>
</event>
<event>
 8    1  0.1226832E-016  0.8144155E+02  0.7818608E-02  0.1325010E+00
          2   -1    0    0  501    0  0.00000000000E+00  0.00000000000E+00  0.14021433116E+03  0.14021433118E+03  0.25500000000E-02 0. -1.
         -1   -1    0    0    0  501 -0.00000000000E+00 -0.00000000000E+00 -0.11826049360E+02  0.11826050434E+02  0.50400000000E-02 0.  1.
         24    2    1    2    0    0  0.00000000000E+00  0.35527136788E-14  0.12838828180E+03  0.15204038161E+03  0.81441554126E+02 0.  0.
         66    2    3    3    0    0 -0.12544316851E+02 -0.18829035264E+02  0.12738369208E+03  0.12939280296E+03  0.19999989843E+01 0.  0.
        -13    1    3    3    0    0  0.12544316851E+02  0.18829035264E+02  0.10045897152E+01  0.22647578651E+02  0.10566000000E+00 0.  1.
         13    1    4    4    0    0 -0.78974878785E+01 -0.10794232747E+02  0.73011282411E+02  0.74226304628E+02  0.10566000000E+00 0. -1.
        -13    1    4    4    0    0 -0.39106226479E+01 -0.62616473686E+01  0.41491249517E+02  0.42143043884E+02  0.10566000000E+00 0.  1.
        -14    1    4    4    0    0 -0.73620632409E+00 -0.17731551485E+01  0.12881160153E+02  0.13023454450E+02  0.00000000000E+00 0.  1.
<mgrwt>
<rscale>  0 0.81441554E+02</rscale>
<asrwt>0</asrwt>
<pdfrwt beam="1">  1        2 0.21571436E-01 0.81441554E+02</pdfrwt>
<pdfrwt beam="2">  1       -1 0.18193923E-02 0.81441554E+02</pdfrwt>
<totfact> 0.18694158E+05</totfact>
</mgrwt>
</event>
<event>
 8    1  0.1226832E-016  0.7941886E+02  0.7818608E-02  0.1330709E+00
          2   -1    0    0  501    0  0.00000000000E+00  0.00000000000E+00  0.10410070633E+03  0.10410070637E+03  0.25500000000E-02 0. -1.
         -1   -1    0    0    0  501 -0.00000000000E+00 -0.00000000000E+00 -0.15147242015E+02  0.15147242854E+02  0.50400000000E-02 0.  1.
         24    2    1    2    0    0 -0.44408920985E-15  0.35527136788E-14  0.88953464319E+02  0.11924794922E+03  0.79418855310E+02 0.  0.
         66    2    3    3    0    0 -0.29376595714E+01  0.20310399644E+02  0.95505090977E+02  0.97705499189E+02  0.19999979494E+01 0.  0.
        -13    1    3    3    0    0  0.29376595714E+01 -0.20310399644E+02 -0.65516266576E+01  0.21542450031E+02  0.10566000000E+00 0.  1.
         13    1    4    4    0    0 -0.20363452342E+00  0.66435430104E+00  0.33369221665E+01  0.34101388882E+01  0.10566000000E+00 0.  1.
        -13    1    4    4    0    0 -0.24267097956E+00  0.12175931273E+01  0.40950524914E+01  0.42804253493E+01  0.10566000000E+00 0.  1.
         14    1    4    4    0    0 -0.24913540685E+01  0.18428452215E+02  0.88073116319E+02  0.90014934951E+02  0.00000000000E+00 0. -1.
<mgrwt>
<rscale>  0 0.79418855E+02</rscale>
<asrwt>0</asrwt>
<pdfrwt beam="1">  1        2 0.16015494E-01 0.79418855E+02</pdfrwt>
<pdfrwt beam="2">  1       -1 0.23303450E-02 0.79418855E+02</pdfrwt>
<totfact> 0.18280962E+05</totfact>
</mgrwt>
</event>
<event>
 8    1  0.1226832E-016  0.7960540E+02  0.7818608E-02  0.1330175E+00
          2   -1    0    0  501    0  0.00000000000E+00  0.00000000000E+00  0.18957174612E+03  0.18957174614E+03  0.25500000000E-02 0. -1.
         -1   -1    0    0    0  501 -0.00000000000E+00 -0.00000000000E+00 -0.83570193724E+01  0.83570208922E+01  0.50400000000E-02 0.  1.
         24    2    1    2    0    0  0.00000000000E+00  0.00000000000E+00  0.18121472675E+03  0.19792876703E+03  0.79605399488E+02 0.  0.
         66    2    3    3    0    0 -0.78626901600E+01 -0.35117309852E+02  0.13280110192E+03  0.13760515987E+03  0.20000009462E+01 0.  0.
        -13    1    3    3    0    0  0.78626901600E+01  0.35117309852E+02  0.48413624827E+02  0.60323607159E+02  0.10566000000E+00 0.  1.
         13    1    4    4    0    0 -0.29730735885E+01 -0.14665588150E+02  0.53802366200E+02  0.55844645357E+02  0.10566000000E+00 0. -1.
        -13    1    4    4    0    0 -0.12575415409E+01 -0.80398166028E+01  0.30684184154E+02  0.31745084391E+02  0.10566000000E+00 0.  1.
         14    1    4    4    0    0 -0.36320750306E+01 -0.12411905099E+02  0.48314551569E+02  0.50015430125E+02  0.00000000000E+00 0. -1.
<mgrwt>
<rscale>  0 0.79605399E+02</rscale>
<asrwt>0</asrwt>
<pdfrwt beam="1">  1        2 0.29164882E-01 0.79605399E+02</pdfrwt>
<pdfrwt beam="2">  1       -1 0.12856955E-02 0.79605399E+02</pdfrwt>
<totfact> 0.21938854E+05</totfact>
</mgrwt>
</event>
<event>
 8    1  0.1226832E-016  0.7949466E+02  0.7818608E-02  0.1330492E+00
          2   -1    0    0  501    0  0.00000000000E+00  0.00000000000E+00  0.13480938570E+03  0.13480938573E+03  0.25500000000E-02 0. -1.
         -1   -1    0    0    0  501 -0.00000000000E+00 -0.00000000000E+00 -0.11719142112E+02  0.11719143196E+02  0.50400000000E-02 0.  1.
         24    2    1    2    0    0  0.00000000000E+00  0.00000000000E+00  0.12309024359E+03  0.14652852892E+03  0.79494664733E+02 0.  0.
         66    2    3    3    0    0  0.26149910501E+02  0.19832257037E+02  0.10282951069E+03  0.10795853152E+03  0.20000047797E+01 0.  0.
        -13    1    3    3    0    0 -0.26149910501E+02 -0.19832257037E+02  0.20260732896E+02  0.38569997406E+02  0.10566000000E+00 0.  1.
         13    1    4    4    0    0  0.78301244994E+01  0.57649648331E+01  0.30210542925E+02  0.31736945932E+02  0.10566000000E+00 0. -1.
        -13    1    4    4    0    0  0.10003401108E+00  0.25176402941E+00  0.93826160850E+00  0.98228855814E+00  0.10566000000E+00 0.  1.
        -14    1    4    4    0    0  0.18219751990E+02  0.13815528174E+02  0.71680706161E+02  0.75239297027E+02  0.00000000000E+00 0.  1.
<mgrwt>
<rscale>  0 0.79494665E+02</rscale>
<asrwt>0</asrwt>
<pdfrwt beam="1">  1        2 0.20739906E-01 0.79494665E+02</pdfrwt>
<pdfrwt beam="2">  1       -1 0.18029450E-02 0.79494665E+02</pdfrwt>
<totfact> 0.19692283E+05</totfact>
</mgrwt>
</event>
<event>
 8    1  0.1226832E-016  0.7908840E+02  0.7818608E-02  0.1331659E+00
         -1   -1    0    0    0  501 -0.00000000000E+00  0.00000000000E+00  0.54007865816E+01  0.54007889333E+01  0.50400000000E-02 0.  1.
          2   -1    0    0  501    0  0.00000000000E+00 -0.00000000000E+00 -0.28953991295E+03  0.28953991296E+03  0.25500000000E-02 0. -1.
         24    2    1    2    0    0 -0.35527136788E-14  0.00000000000E+00 -0.28413912637E+03  0.29494070189E+03  0.79088396750E+02 0.  0.
         66    2    3    3    0    0 -0.21459119755E+02 -0.30923098525E+02 -0.18706738251E+03  0.19082698299E+03  0.19999992981E+01 0.  0.
        -13    1    3    3    0    0  0.21459119755E+02  0.30923098525E+02 -0.97071743857E+02  0.10411371890E+03  0.10566000000E+00 0.  1.
         13    1    4    4    0    0 -0.65018667375E+01 -0.95589847407E+01 -0.54937668559E+02  0.56140956984E+02  0.10566000000E+00 0. -1.
        -13    1    4    4    0    0 -0.70684808349E+01 -0.99828314947E+01 -0.65511276690E+02  0.66643520942E+02  0.10566000000E+00 0.  1.
        -14    1    4    4    0    0 -0.78887721829E+01 -0.11381282290E+02 -0.66618437260E+02  0.68042505069E+02  0.00000000000E+00 0.  1.
<mgrwt>
<rscale>  0 0.79088397E+02</rscale>
<asrwt>0</asrwt>
<pdfrwt beam="1">  1        2 0.44544590E-01 0.79088397E+02</pdfrwt>
<pdfrwt beam="2">  1       -1 0.83089065E-03 0.79088397E+02</pdfrwt>
<totfact> 0.25936524E+05</totfact>
</mgrwt>
</event>
<event>
 8    1  0.1226832E-016  0.8045126E+02  0.7818608E-02  0.1327776E+00
         -1   -1    0    0    0  501 -0.00000000000E+00  0.00000000000E+00  0.95613614661E+01  0.95613627944E+01  0.50400000000E-02 0.  1.
          2   -1    0    0  501    0  0.00000000000E+00 -0.00000000000E+00 -0.16923333578E+03  0.16923333580E+03  0.25500000000E-02 0. -1.
         24    2    1    2    0    0  0.00000000000E+00  0.00000000000E+00 -0.15967197432E+03  0.17879469860E+03  0.80451257690E+02 0.  0.
         66    2    3    3    0    0 -0.26970194777E+02  0.11095685286E+02 -0.14137739832E+03  0.14436784406E+03  0.20000010337E+01 0.  0.
        -13    1    3    3    0    0  0.26970194777E+02 -0.11095685286E+02 -0.18294575991E+02  0.34426854533E+02  0.10566000000E+00 0.  1.
         13    1    4    4    0    0 -0.21925438077E+02  0.84947752338E+01 -0.11197450305E+03  0.11441672316E+03  0.10566000000E+00 0. -1.
        -13    1    4    4    0    0 -0.47584805200E+01  0.23615248288E+01 -0.26801390720E+02  0.27322987482E+02  0.10566000000E+00 0.  1.
         14    1    4    4    0    0 -0.28627617956E+00  0.23938522301E+00 -0.26015045571E+01  0.26281334244E+01  0.00000000000E+00 0. -1.
<mgrwt>
<rscale>  0 0.80451258E+02</rscale>
<asrwt>0</asrwt>
<pdfrwt beam="1">  1        2 0.26035896E-01 0.80451258E+02</pdfrwt>
<pdfrwt beam="2">  1       -1 0.14709789E-02 0.80451258E+02</pdfrwt>
<totfact> 0.20529848E+05</totfact>
</mgrwt>
</event>
<event>
 8    1  0.1226832E-016  0.8005964E+02  0.7818608E-02  0.1328882E+00
         -1   -1    0    0    0  501 -0.00000000000E+00  0.00000000000E+00  0.67104267321E+02  0.67104267510E+02  0.50400000000E-02 0.  1.
          2   -1    0    0  501    0  0.00000000000E+00 -0.00000000000E+00 -0.23879055698E+02  0.23879055834E+02  0.25500000000E-02 0. -1.
         24    2    1    2    0    0 -0.71054273576E-14  0.00000000000E+00  0.43225211623E+02  0.90983323344E+02  0.80059641561E+02 0.  0.
         66    2    3    3    0    0 -0.36598036995E+02  0.60864955267E+01  0.46203580608E+01  0.37440745685E+02  0.19999972944E+01 0.  0.
        -13    1    3    3    0    0  0.36598036995E+02 -0.60864955267E+01  0.38604853563E+02  0.53542577658E+02  0.10566000000E+00 0.  1.
         13    1    4    4    0    0 -0.20719991251E+01  0.71182152726E+00  0.29836673556E+00  0.22136072383E+01  0.10566000000E+00 0. -1.
        -13    1    4    4    0    0 -0.98058349113E+01  0.18687824020E+01  0.16259322240E+01  0.10114423642E+02  0.10566000000E+00 0. -1.
         14    1    4    4    0    0 -0.24720202959E+02  0.35058915975E+01  0.26960591013E+01  0.25112714805E+02  0.00000000000E+00 0. -1.
<mgrwt>
<rscale>  0 0.80059642E+02</rscale>
<asrwt>0</asrwt>
<pdfrwt beam="1">  1        2 0.36737009E-02 0.80059642E+02</pdfrwt>
<pdfrwt beam="2">  1       -1 0.10323733E-01 0.80059642E+02</pdfrwt>
<totfact> 0.12836065E+05</totfact>
</mgrwt>
</event>
<event>
 8    1  0.1226832E-016  0.7980497E+02  0.7818608E-02  0.1329606E+00
          2   -1    0    0  501    0  0.00000000000E+00  0.00000000000E+00  0.29790977693E+02  0.29790977802E+02  0.25500000000E-02 0. -1.
         -1   -1    0    0    0  501 -0.00000000000E+00 -0.00000000000E+00 -0.53445994173E+02  0.53445994411E+02  0.50400000000E-02 0.  1.
         24    2    1    2    0    0 -0.35527136788E-14  0.00000000000E+00 -0.23655016480E+02  0.83236972213E+02  0.79804973144E+02 0.  0.
         66    2    3    3    0    0  0.25355783429E+02 -0.27072250953E+02 -0.27106335773E+02  0.45984518685E+02  0.19999986931E+01 0.  0.
        -13    1    3    3    0    0 -0.25355783429E+02  0.27072250953E+02  0.34513192923E+01  0.37252453528E+02  0.10566000000E+00 0.  1.
         13    1    4    4    0    0  0.69060406014E+01 -0.75030012114E+01 -0.73272022268E+01  0.12557367577E+02  0.10566000000E+00 0. -1.
        -13    1    4    4    0    0  0.61683853503E+01 -0.72512450860E+01 -0.77872765430E+01  0.12299689960E+02  0.10566000000E+00 0.  1.
         14    1    4    4    0    0  0.12281357477E+02 -0.12318004655E+02 -0.11991857003E+02  0.21127461148E+02  0.00000000000E+00 0. -1.
<mgrwt>
<rscale>  0 0.79804973E+02</rscale>
<asrwt>0</asrwt>
<pdfrwt beam="1">  1        2 0.45832273E-02 0.79804973E+02</pdfrwt>
<pdfrwt beam="2">  1       -1 0.82224607E-02 0.79804973E+02</pdfrwt>
<totfact> 0.13528922E+05</totfact>
</mgrwt>
</event>
<event>
 8    1  0.1226832E-016  0.7684119E+02  0.7818608E-02  0.1338262E+00
         -1   -1    0    0    0  501 -0.00000000000E+00  0.00000000000E+00  0.51652485187E+01  0.51652509776E+01  0.50400000000E-02 0.  1.
          2   -1    0    0  501    0  0.00000000000E+00 -0.00000000000E+00 -0.28578330350E+03  0.28578330351E+03  0.25500000000E-02 0. -1.
         24    2    1    2    0    0 -0.35527136788E-14  0.17763568394E-14 -0.28061805498E+03  0.29094855449E+03  0.76841190632E+02 0.  0.
         66    2    3    3    0    0 -0.16082732831E+02  0.83188089001E+01 -0.26859776761E+03  0.26921481691E+03  0.19999998594E+01 0.  0.
        -13    1    3    3    0    0  0.16082732831E+02 -0.83188089001E+01 -0.12020287371E+02  0.21733737583E+02  0.10566000000E+00 0.  1.
         13    1    4    4    0    0 -0.22319221411E+01  0.14724595977E+01 -0.32228320064E+02  0.32339223736E+02  0.10566000000E+00 0. -1.
        -13    1    4    4    0    0 -0.78949940518E+01  0.34865792646E+01 -0.12822607670E+03  0.12851624441E+03  0.10566000000E+00 0.  1.
         14    1    4    4    0    0 -0.59558166379E+01  0.33597700378E+01 -0.10814337085E+03  0.10835934876E+03  0.00000000000E+00 0. -1.
<mgrwt>
<rscale>  0 0.76841191E+02</rscale>
<asrwt>0</asrwt>
<pdfrwt beam="1">  1        2 0.43966650E-01 0.76841191E+02</pdfrwt>
<pdfrwt beam="2">  1       -1 0.79465403E-03 0.76841191E+02</pdfrwt>
<totfact> 0.27836711E+05</totfact>
</mgrwt>
</event>
<event>
 8    1  0.1226832E-016  0.7984904E+02  0.7818608E-02  0.1329480E+00
          2   -1    0    0  501    0  0.00000000000E+00  0.00000000000E+00  0.24692134300E+03  0.24692134302E+03  0.25500000000E-02 0. -1.
         -1   -1    0    0    0  501 -0.00000000000E+00 -0.00000000000E+00 -0.64553632859E+01  0.64553652533E+01  0.50400000000E-02 0.  1.
         24    2    1    2    0    0  0.00000000000E+00 -0.35527136788E-14  0.24046597972E+03  0.25337670827E+03  0.79849038142E+02 0.  0.
         66    2    3    3    0    0  0.87976746967E+01 -0.20833788041E+02  0.22461502671E+03  0.22575950929E+03  0.20000017492E+01 0.  0.
        -13    1    3    3    0    0 -0.87976746967E+01  0.20833788041E+02  0.15850953008E+02  0.27617198980E+02  0.10566000000E+00 0.  1.
         13    1    4    4    0    0  0.10773137345E+01 -0.30514918442E+01  0.34615783060E+02  0.34766878034E+02  0.10566000000E+00 0. -1.
        -13    1    4    4    0    0  0.15509944147E+01 -0.24461358683E+01  0.32004911198E+02  0.32135878223E+02  0.10566000000E+00 0.  1.
        -14    1    4    4    0    0  0.61693665474E+01 -0.15336160328E+02  0.15799433245E+03  0.15885675303E+03  0.00000000000E+00 0.  1.
<mgrwt>
<rscale>  0 0.79849038E+02</rscale>
<asrwt>0</asrwt>
<pdfrwt beam="1">  1        2 0.37987901E-01 0.79849038E+02</pdfrwt>
<pdfrwt beam="2">  1       -1 0.99313292E-03 0.79849038E+02</pdfrwt>
<totfact> 0.23881027E+05</totfact>
</mgrwt>
</event>
<event>
 8    1  0.1226832E-016  0.8105593E+02  0.7818608E-02  0.1326081E+00
         -1   -1    0    0    0  501 -0.00000000000E+00  0.00000000000E+00  0.54423622483E+01  0.54423645820E+01  0.50400000000E-02 0.  1.
          2   -1    0    0  501    0  0.00000000000E+00 -0.00000000000E+00 -0.30180198272E+03  0.30180198273E+03  0.25500000000E-02 0. -1.
         24    2    1    2    0    0  0.00000000000E+00 -0.71054273576E-14 -0.29635962047E+03  0.30724434732E+03  0.81055933216E+02 0.  0.
         66    2    3    3    0    0  0.17997980532E+02 -0.36187757606E+02 -0.13821952627E+03  0.14402124337E+03  0.19999986806E+01 0.  0.
        -13    1    3    3    0    0 -0.17997980532E+02  0.36187757606E+02 -0.15814009420E+03  0.16322310395E+03  0.10566000000E+00 0.  1.
         13    1    4    4    0    0  0.10131221534E+01 -0.28304632721E+01 -0.91930669741E+01  0.96727236732E+01  0.10566000000E+00 0. -1.
        -13    1    4    4    0    0  0.16385665659E+02 -0.32107295353E+02 -0.12468912693E+03  0.12979506151E+03  0.10566000000E+00 0.  1.
        -14    1    4    4    0    0  0.59919271989E+00 -0.12499989807E+01 -0.43373323699E+01  0.45534581863E+01  0.00000000000E+00 0.  1.
<mgrwt>
<rscale>  0 0.81055933E+02</rscale>
<asrwt>0</asrwt>
<pdfrwt beam="1">  1        2 0.46431061E-01 0.81055933E+02</pdfrwt>
<pdfrwt beam="2">  1       -1 0.83728691E-03 0.81055933E+02</pdfrwt>
<totfact> 0.24685882E+05</totfact>
</mgrwt>
</event>
<event>
 8    1  0.1226832E-016  0.8081427E+02  0.7818608E-02  0.1326756E+00
         -1   -1    0    0    0  501 -0.00000000000E+00  0.00000000000E+00  0.17390762602E+01  0.17390835634E+01  0.50400000000E-02 0.  1.
          2   -1    0    0  501    0  0.00000000000E+00 -0.00000000000E+00 -0.93885070991E+03  0.93885070992E+03  0.25500000000E-02 0. -1.
         24    2    1    2    0    0  0.35527136788E-14 -0.17763568394E-14 -0.93711163365E+03  0.94058979348E+03  0.80814266507E+02 0.  0.
         66    2    3    3    0    0 -0.22929434186E+02  0.13780348570E+02 -0.82092125711E+03  0.82135946293E+03  0.20000009160E+01 0.  0.
        -13    1    3    3    0    0  0.22929434186E+02 -0.13780348570E+02 -0.11619037654E+03  0.11923033055E+03  0.10566000000E+00 0.  1.
         13    1    4    4    0    0 -0.59689544882E+01  0.34307731675E+01 -0.19675019032E+03  0.19687063564E+03  0.10566000000E+00 0. -1.
        -13    1    4    4    0    0 -0.49438296979E+00  0.30852728036E+00 -0.26697036176E+02  0.26703604779E+02  0.10566000000E+00 0.  1.
         14    1    4    4    0    0 -0.16466096728E+02  0.10041048122E+02 -0.59747403062E+03  0.59778522251E+03  0.00000000000E+00 0. -1.
<mgrwt>
<rscale>  0 0.80814267E+02</rscale>
<asrwt>0</asrwt>
<pdfrwt beam="1">  1        2 0.14443817E+00 0.80814267E+02</pdfrwt>
<pdfrwt beam="2">  1       -1 0.26755151E-03 0.80814267E+02</pdfrwt>
<totfact> 0.34179404E+05</totfact>
</mgrwt>
</event>
<event>
 8    1  0.1226832E-016  0.7991324E+02  0.7818608E-02  0.1329298E+00
         -1   -1    0    0    0  501 -0.00000000000E+00  0.00000000000E+00  0.31295665304E+01  0.31295705887E+01  0.50400000000E-02 0.  1.
          2   -1    0    0  501    0  0.00000000000E+00 -0.00000000000E+00 -0.51014428013E+03  0.51014428014E+03  0.25500000000E-02 0. -1.
         24    2    1    2    0    0  0.00000000000E+00  0.35527136788E-14 -0.50701471360E+03  0.51327385073E+03  0.79913240653E+02 0.  0.
         66    2    3    3    0    0  0.21841095865E+02 -0.28553313623E+02 -0.36532081024E+03  0.36709075115E+03  0.19999999097E+01 0.  0.
        -13    1    3    3    0    0 -0.21841095865E+02  0.28553313623E+02 -0.14169390337E+03  0.14618309958E+03  0.10566000000E+00 0.  1.
         13    1    4    4    0    0  0.59141851307E+01 -0.66945538210E+01 -0.90448354550E+02  0.90888451640E+02  0.10566000000E+00 0. -1.
        -13    1    4    4    0    0  0.17154265915E+01 -0.26919857125E+01 -0.29457597054E+02  0.29630232259E+02  0.10566000000E+00 0.  1.
         14    1    4    4    0    0  0.14211484143E+02 -0.19166774090E+02 -0.24541485863E+03  0.24657206725E+03  0.00000000000E+00 0. -1.
<mgrwt>
<rscale>  0 0.79913241E+02</rscale>
<asrwt>0</asrwt>
<pdfrwt beam="1">  1        2 0.78483669E-01 0.79913241E+02</pdfrwt>
<pdfrwt beam="2">  1       -1 0.48147249E-03 0.79913241E+02</pdfrwt>
<totfact> 0.30732473E+05</totfact>
</mgrwt>
</event>
<event>
 8    1  0.1226832E-016  0.7812879E+02  0.7818608E-02  0.1334447E+00
         -1   -1    0    0    0  501 -0.00000000000E+00  0.00000000000E+00  0.41042166384E+02  0.41042166694E+02  0.50400000000E-02 0.  1.
          2   -1    0    0  501    0  0.00000000000E+00 -0.00000000000E+00 -0.37181928541E+02  0.37181928628E+02  0.25500000000E-02 0. -1.
         24    2    1    2    0    0 -0.16653345369E-15  0.00000000000E+00  0.38602378435E+01  0.78224095322E+02  0.78128788886E+02 0.  0.
         66    2    3    3    0    0 -0.37101078310E+00 -0.18515398614E+02 -0.32477159151E+02  0.37439598032E+02  0.19999998652E+01 0.  0.
        -13    1    3    3    0    0  0.37101078310E+00  0.18515398614E+02  0.36337396994E+02  0.40784497290E+02  0.10566000000E+00 0.  1.
         13    1    4    4    0    0 -0.93286780732E+00 -0.86169527983E+01 -0.14256214909E+02  0.16684512143E+02  0.10566000000E+00 0. -1.
        -13    1    4    4    0    0  0.26348615042E+00 -0.13393447708E+01 -0.27438228166E+01  0.30664306695E+01  0.10566000000E+00 0.  1.
         14    1    4    4    0    0  0.29837087380E+00 -0.85591010452E+01 -0.15477121425E+02  0.17688655220E+02  0.00000000000E+00 0. -1.
<mgrwt>
<rscale>  0 0.78128789E+02</rscale>
<asrwt>0</asrwt>
<pdfrwt beam="1">  1        2 0.57202968E-02 0.78128789E+02</pdfrwt>
<pdfrwt beam="2">  1       -1 0.63141794E-02 0.78128789E+02</pdfrwt>
<totfact> 0.14995340E+05</totfact>
</mgrwt>
</event>
<event>
 8    1  0.1226832E-016  0.8054340E+02  0.7818608E-02  0.1327516E+00
         -1   -1    0    0    0  501 -0.00000000000E+00  0.00000000000E+00  0.94492680109E+02  0.94492680244E+02  0.50400000000E-02 0.  1.
          2   -1    0    0  501    0  0.00000000000E+00 -0.00000000000E+00 -0.17163338324E+02  0.17163338514E+02  0.25500000000E-02 0. -1.
         24    2    1    2    0    0 -0.53290705182E-14 -0.71054273576E-14  0.77329341785E+02  0.11165601876E+03  0.80543400871E+02 0.  0.
         66    2    3    3    0    0 -0.15500493873E+02 -0.27365696817E+02  0.38748233479E+01  0.31751550074E+02  0.20000008871E+01 0.  0.
        -13    1    3    3    0    0  0.15500493873E+02  0.27365696817E+02  0.73454518437E+02  0.79904468683E+02  0.10566000000E+00 0.  1.
         13    1    4    4    0    0 -0.71820048330E+01 -0.11670121413E+02  0.10411380372E+01  0.13742927623E+02  0.10566000000E+00 0. -1.
        -13    1    4    4    0    0 -0.43454182555E+01 -0.73556656105E+01  0.15083872597E+01  0.86761092979E+01  0.10566000000E+00 0.  1.
        -14    1    4    4    0    0 -0.39730707843E+01 -0.83399097943E+01  0.13252980509E+01  0.93325131533E+01  0.00000000000E+00 0.  1.
<mgrwt>
<rscale>  0 0.80543401E+02</rscale>
<asrwt>0</asrwt>
<pdfrwt beam="1">  1        2 0.26405137E-02 0.80543401E+02</pdfrwt>
<pdfrwt beam="2">  1       -1 0.14537335E-01 0.80543401E+02</pdfrwt>
<totfact> 0.11796281E+05</totfact>
</mgrwt>
</event>
<event>
 8    1  0.1226832E-016  0.8092818E+02  0.7818608E-02  0.1326438E+00
          2   -1    0    0  501    0  0.00000000000E+00  0.00000000000E+00  0.77114903592E+03  0.77114903592E+03  0.25500000000E-02 0. -1.
         -1   -1    0    0    0  501 -0.00000000000E+00 -0.00000000000E+00 -0.21232473169E+01  0.21232532987E+01  0.50400000000E-02 0.  1.
         24    2    1    2    0    0  0.00000000000E+00 -0.44408920985E-15  0.76902578860E+03  0.77327228922E+03  0.80928176449E+02 0.  0.
         66    2    3    3    0    0  0.25301342040E+02 -0.33193329948E+01  0.68450170596E+03  0.68498011748E+03  0.19999995684E+01 0.  0.
        -13    1    3    3    0    0 -0.25301342040E+02  0.33193329948E+01  0.84524082635E+02  0.88292171736E+02  0.10566000000E+00 0.  1.
         13    1    4    4    0    0  0.55093373326E+01 -0.40598864121E+00  0.13484042712E+03  0.13495358303E+03  0.10566000000E+00 0. -1.
        -13    1    4    4    0    0  0.19133300569E+02 -0.25947578167E+01  0.52843224285E+03  0.52878489238E+03  0.10566000000E+00 0.  1.
        -14    1    4    4    0    0  0.65870413830E+00 -0.31858653687E+00  0.21229035994E+02  0.21241642069E+02  0.00000000000E+00 0.  1.
<mgrwt>
<rscale>  0 0.80928176E+02</rscale>
<asrwt>0</asrwt>
<pdfrwt beam="1">  1        2 0.11863839E+00 0.80928176E+02</pdfrwt>
<pdfrwt beam="2">  1       -1 0.32665367E-03 0.80928176E+02</pdfrwt>
<totfact> 0.33129383E+05</totfact>
</mgrwt>
</event>
<event>
 8    1  0.1226832E-016  0.8447730E+02  0.7818608E-02  0.1316805E+00
          2   -1    0    0  501    0  0.00000000000E+00  0.00000000000E+00  0.60710702059E+03  0.60710702060E+03  0.25500000000E-02 0. -1.
         -1   -1    0    0    0  501 -0.00000000000E+00 -0.00000000000E+00 -0.29386949539E+01  0.29386992759E+01  0.50400000000E-02 0.  1.
         24    2    1    2    0    0 -0.35527136788E-14  0.00000000000E+00  0.60416832564E+03  0.61004571988E+03  0.84477302463E+02 0.  0.
         66    2    3    3    0    0  0.20159627174E+02  0.15915018308E+02  0.54418663113E+03  0.54479609753E+03  0.20000026144E+01 0.  0.
        -13    1    3    3    0    0 -0.20159627174E+02 -0.15915018308E+02  0.59981694509E+02  0.65249622342E+02  0.10566000000E+00 0.  1.
         13    1    4    4    0    0  0.34042035826E+01  0.28466573250E+01  0.88835127873E+02  0.88945956447E+02  0.10566000000E+00 0. -1.
        -13    1    4    4    0    0  0.86346155308E+01  0.77935575178E+01  0.24847980991E+03  0.24875193109E+03  0.10566000000E+00 0.  1.
         14    1    4    4    0    0  0.81208080607E+01  0.52748034648E+01  0.20687169334E+03  0.20709820999E+03  0.00000000000E+00 0. -1.
<mgrwt>
<rscale>  0 0.84477302E+02</rscale>
<asrwt>0</asrwt>
<pdfrwt beam="1">  1        2 0.93401097E-01 0.84477302E+02</pdfrwt>
<pdfrwt beam="2">  1       -1 0.45210717E-03 0.84477302E+02</pdfrwt>
<totfact> 0.27994825E+05</totfact>
</mgrwt>
</event>
<event>
 8    1  0.1226832E-016  0.7777617E+02  0.7818608E-02  0.1335483E+00
         -1   -1    0    0    0  501 -0.00000000000E+00  0.00000000000E+00  0.39059877785E+01  0.39059910301E+01  0.50400000000E-02 0.  1.
          2   -1    0    0  501    0  0.00000000000E+00 -0.00000000000E+00 -0.38717027291E+03  0.38717027292E+03  0.25500000000E-02 0. -1.
         24    2    1    2    0    0 -0.17763568394E-14  0.71054273576E-14 -0.38326428513E+03  0.39107626395E+03  0.77776165800E+02 0.  0.
         66    2    3    3    0    0 -0.14798210449E+02  0.29253962813E+02 -0.29669036312E+03  0.29850285249E+03  0.20000007838E+01 0.  0.
        -13    1    3    3    0    0  0.14798210449E+02 -0.29253962813E+02 -0.86573922014E+02  0.92573411462E+02  0.10566000000E+00 0.  1.
         13    1    4    4    0    0 -0.67787842724E+01  0.15080442727E+02 -0.15416891063E+03  0.15505300977E+03  0.10566000000E+00 0. -1.
        -13    1    4    4    0    0 -0.69928833633E+01  0.11983309006E+02 -0.12165330018E+03  0.12244197288E+03  0.10566000000E+00 0.  1.
        -14    1    4    4    0    0 -0.10265428133E+01  0.21902110805E+01 -0.20868152304E+02  0.21007869842E+02  0.00000000000E+00 0.  1.
<mgrwt>
<rscale>  0 0.77776166E+02</rscale>
<asrwt>0</asrwt>
<pdfrwt beam="1">  1        2 0.59564627E-01 0.77776166E+02</pdfrwt>
<pdfrwt beam="2">  1       -1 0.60092175E-03 0.77776166E+02</pdfrwt>
<totfact> 0.30064497E+05</totfact>
</mgrwt>
</event>
<event>
 8    1  0.1226832E-016  0.7945401E+02  0.7818608E-02  0.1330608E+00
          2   -1    0    0  501    0  0.00000000000E+00  0.00000000000E+00  0.22148550985E+03  0.22148550986E+03  0.25500000000E-02 0. -1.
         -1   -1    0    0    0  501 -0.00000000000E+00 -0.00000000000E+00 -0.71256792170E+01  0.71256809994E+01  0.50400000000E-02 0.  1.
         24    2    1    2    0    0 -0.71054273576E-14 -0.88817841970E-15  0.21435983063E+03  0.22861119086E+03  0.79454009333E+02 0.  0.
         66    2    3    3    0    0 -0.32231047397E+02 -0.66444565456E+01  0.17114914906E+03  0.17429578434E+03  0.19999994832E+01 0.  0.
        -13    1    3    3    0    0  0.32231047397E+02  0.66444565456E+01  0.43210681571E+02  0.54315406516E+02  0.10566000000E+00 0.  1.
         13    1    4    4    0    0 -0.12342837025E+02 -0.29266042636E+01  0.63598788225E+02  0.64851581831E+02  0.10566000000E+00 0.  1.
        -13    1    4    4    0    0 -0.63471160439E+01 -0.83856202895E+00  0.31533770387E+02  0.32177304225E+02  0.10566000000E+00 0. -1.
         14    1    4    4    0    0 -0.13541094328E+02 -0.28792902531E+01  0.76016590447E+02  0.77266898289E+02  0.00000000000E+00 0. -1.
<mgrwt>
<rscale>  0 0.79454009E+02</rscale>
<asrwt>0</asrwt>
<pdfrwt beam="1">  1        2 0.34074693E-01 0.79454009E+02</pdfrwt>
<pdfrwt beam="2">  1       -1 0.10962585E-02 0.79454009E+02</pdfrwt>
<totfact> 0.23277466E+05</totfact>
</mgrwt>
</event>
<event>
 8    1  0.1226832E-016  0.8203019E+02  0.7818608E-02  0.1323387E+00
         -1   -1    0    0    0  501 -0.00000000000E+00  0.00000000000E+00  0.17226907871E+01  0.17226981597E+01  0.50400000000E-02 0.  1.
          2   -1    0    0  501    0  0.00000000000E+00 -0.00000000000E+00 -0.97651559647E+03  0.97651559647E+03  0.25500000000E-02 0. -1.
         24    2    1    2    0    0  0.00000000000E+00  0.00000000000E+00 -0.97479290568E+03  0.97823829463E+03  0.82030190277E+02 0.  0.
         66    2    3    3    0    0 -0.19346299738E+02 -0.11774286044E+02 -0.89512746247E+03  0.89541615308E+03  0.20000000167E+01 0.  0.
        -13    1    3    3    0    0  0.19346299738E+02  0.11774286044E+02 -0.79665443210E+02  0.82822141552E+02  0.10566000000E+00 0.  1.
         13    1    4    4    0    0 -0.11994013234E+02 -0.79205390695E+01 -0.59518326359E+03  0.59535680034E+03  0.10566000000E+00 0. -1.
        -13    1    4    4    0    0 -0.28451387297E+01 -0.16319358271E+01 -0.11318431247E+03  0.11323187617E+03  0.10566000000E+00 0.  1.
         14    1    4    4    0    0 -0.45071477737E+01 -0.22218111469E+01 -0.18675988642E+03  0.18682747657E+03  0.00000000000E+00 0. -1.
<mgrwt>
<rscale>  0 0.82030190E+02</rscale>
<asrwt>0</asrwt>
<pdfrwt beam="1">  1        2 0.15023273E+00 0.82030190E+02</pdfrwt>
<pdfrwt beam="2">  1       -1 0.26503070E-03 0.82030190E+02</pdfrwt>
<totfact> 0.32969815E+05</totfact>
</mgrwt>
</event>
<event>
 8    1  0.1226832E-016  0.7772375E+02  0.7818608E-02  0.1335638E+00
         -1   -1    0    0    0  501 -0.00000000000E+00  0.00000000000E+00  0.19366863702E+01  0.19366929282E+01  0.50400000000E-02 0.  1.
          2   -1    0    0  501    0  0.00000000000E+00 -0.00000000000E+00 -0.77980755005E+03  0.77980755006E+03  0.25500000000E-02 0. -1.
         24    2    1    2    0    0 -0.17763568394E-14  0.00000000000E+00 -0.77787086368E+03  0.78174424299E+03  0.77723747169E+02 0.  0.
         66    2    3    3    0    0 -0.12138646902E+02  0.13103935184E+02 -0.73603676481E+03  0.73625619116E+03  0.20000024380E+01 0.  0.
        -13    1    3    3    0    0  0.12138646902E+02 -0.13103935184E+02 -0.41834098873E+02  0.45488051821E+02  0.10566000000E+00 0.  1.
         13    1    4    4    0    0 -0.20499739640E+01  0.19358562264E+01 -0.12472941277E+03  0.12476132216E+03  0.10566000000E+00 0. -1.
        -13    1    4    4    0    0 -0.80496280075E+01  0.97954516023E+01 -0.51794955356E+03  0.51810471777E+03  0.10566000000E+00 0.  1.
        -14    1    4    4    0    0 -0.20390449310E+01  0.13726273557E+01 -0.93357798482E+02  0.93390151234E+02  0.00000000000E+00 0.  1.
<mgrwt>
<rscale>  0 0.77723747E+02</rscale>
<asrwt>0</asrwt>
<pdfrwt beam="1">  1        2 0.11997014E+00 0.77723747E+02</pdfrwt>
<pdfrwt beam="2">  1       -1 0.29795288E-03 0.77723747E+02</pdfrwt>
<totfact> 0.36869256E+05</totfact>
</mgrwt>
</event>
<event>
 8    1  0.1226832E-016  0.8090084E+02  0.7818608E-02  0.1326514E+00
          2   -1    0    0  501    0  0.00000000000E+00  0.00000000000E+00  0.82053079281E+03  0.82053079281E+03  0.25500000000E-02 0. -1.
         -1   -1    0    0    0  501 -0.00000000000E+00 -0.00000000000E+00 -0.19941161046E+01  0.19941224737E+01  0.50400000000E-02 0.  1.
         24    2    1    2    0    0  0.00000000000E+00  0.00000000000E+00  0.81853667670E+03  0.82252491529E+03  0.80900835330E+02 0.  0.
         66    2    3    3    0    0  0.28596296390E+01  0.11877591858E+02  0.80131004245E+03  0.80140566431E+03  0.19999971719E+01 0.  0.
        -13    1    3    3    0    0 -0.28596296390E+01 -0.11877591858E+02  0.17226634256E+02  0.21119250977E+02  0.10566000000E+00 0.  1.
         13    1    4    4    0    0  0.14970211929E+01  0.52002098350E+01  0.34168091849E+03  0.34172378390E+03  0.10566000000E+00 0. -1.
        -13    1    4    4    0    0  0.78620482372E+00  0.11531805514E+01  0.10294503591E+03  0.10295455078E+03  0.10566000000E+00 0.  1.
        -14    1    4    4    0    0  0.57640362243E+00  0.55242014713E+01  0.35668408805E+03  0.35672732964E+03  0.00000000000E+00 0.  1.
<mgrwt>
<rscale>  0 0.80900835E+02</rscale>
<asrwt>0</asrwt>
<pdfrwt beam="1">  1        2 0.12623582E+00 0.80900835E+02</pdfrwt>
<pdfrwt beam="2">  1       -1 0.30678683E-03 0.80900835E+02</pdfrwt>
<totfact> 0.33520982E+05</totfact>
</mgrwt>
</event>
<event>
 8    1  0.1226832E-016  0.8026678E+02  0.7818608E-02  0.1328296E+00
          2   -1    0    0  501    0  0.00000000000E+00  0.00000000000E+00  0.10741678464E+02  0.10741678767E+02  0.25500000000E-02 0. -1.
         -1   -1    0    0    0  501 -0.00000000000E+00 -0.00000000000E+00 -0.14994759968E+03  0.14994759976E+03  0.50400000000E-02 0.  1.
         24    2    1    2    0    0 -0.71054273576E-14  0.17763568394E-14 -0.13920592121E+03  0.16068927853E+03  0.80266778516E+02 0.  0.
         66    2    3    3    0    0 -0.33758145837E+02  0.13561284679E+02 -0.10345236098E+03  0.10968095484E+03  0.20000022451E+01 0.  0.
        -13    1    3    3    0    0  0.33758145837E+02 -0.13561284679E+02 -0.35753560234E+02  0.51008323693E+02  0.10566000000E+00 0.  1.
         13    1    4    4    0    0 -0.10905792380E+02  0.39082970153E+01 -0.32050656266E+02  0.34080299648E+02  0.10566000000E+00 0. -1.
        -13    1    4    4    0    0 -0.13045614522E+02  0.61889528550E+01 -0.40797243774E+02  0.43277216400E+02  0.10566000000E+00 0.  1.
        -14    1    4    4    0    0 -0.98067389348E+01  0.34640348091E+01 -0.30604460940E+02  0.32323438788E+02  0.00000000000E+00 0.  1.
<mgrwt>
<rscale>  0 0.80266779E+02</rscale>
<asrwt>0</asrwt>
<pdfrwt beam="1">  1        2 0.16525661E-02 0.80266779E+02</pdfrwt>
<pdfrwt beam="2">  1       -1 0.23068860E-01 0.80266779E+02</pdfrwt>
<totfact> 0.10697823E+05</totfact>
</mgrwt>
</event>
<event>
 8    1  0.1226832E-016  0.7628825E+02  0.7818608E-02  0.1339928E+00
          2   -1    0    0  501    0  0.00000000000E+00  0.00000000000E+00  0.60546068345E+02  0.60546068399E+02  0.25500000000E-02 0. -1.
         -1   -1    0    0    0  501 -0.00000000000E+00 -0.00000000000E+00 -0.24030865443E+02  0.24030865972E+02  0.50400000000E-02 0.  1.
         24    2    1    2    0    0  0.00000000000E+00  0.22204460493E-15  0.36515202902E+02  0.84576934370E+02  0.76288254565E+02 0.  0.
         66    2    3    3    0    0  0.24768716991E+02  0.16961455660E+01  0.50336798450E+02  0.56161904568E+02  0.19999988397E+01 0.  0.
        -13    1    3    3    0    0 -0.24768716991E+02 -0.16961455660E+01 -0.13821595548E+02  0.28415029802E+02  0.10566000000E+00 0.  1.
         13    1    4    4    0    0  0.11735317735E+02  0.13087665525E+01  0.24737881490E+02  0.27411758369E+02  0.10566000000E+00 0. -1.
        -13    1    4    4    0    0  0.45770387862E+01 -0.22010668031E+00  0.81468186269E+01  0.93477028609E+01  0.10566000000E+00 0.  1.
         14    1    4    4    0    0  0.84563604695E+01  0.60748569386E+00  0.17452098333E+02  0.19402443338E+02  0.00000000000E+00 0. -1.
<mgrwt>
<rscale>  0 0.76288255E+02</rscale>
<asrwt>0</asrwt>
<pdfrwt beam="1">  1        2 0.93147796E-02 0.76288255E+02</pdfrwt>
<pdfrwt beam="2">  1       -1 0.36970563E-02 0.76288255E+02</pdfrwt>
<totfact> 0.17743132E+05</totfact>
</mgrwt>
</event>
<event>
 8    1  0.1226832E-016  0.7980041E+02  0.7818608E-02  0.1329619E+00
          2   -1    0    0  501    0  0.00000000000E+00  0.00000000000E+00  0.41126665224E+02  0.41126665303E+02  0.25500000000E-02 0. -1.
         -1   -1    0    0    0  501 -0.00000000000E+00 -0.00000000000E+00 -0.38710317179E+02  0.38710317507E+02  0.50400000000E-02 0.  1.
         24    2    1    2    0    0  0.00000000000E+00  0.00000000000E+00  0.24163480452E+01  0.79836982809E+02  0.79800407807E+02 0.  0.
         66    2    3    3    0    0  0.37769513929E+02 -0.12227034173E+02  0.49502662502E+01  0.40056730766E+02  0.19999991633E+01 0.  0.
        -13    1    3    3    0    0 -0.37769513929E+02  0.12227034173E+02 -0.25339182050E+01  0.39780252043E+02  0.10566000000E+00 0.  1.
         13    1    4    4    0    0  0.28163997392E+02 -0.87553462519E+01  0.42397201568E+01  0.29796866079E+02  0.10566000000E+00 0. -1.
        -13    1    4    4    0    0  0.52875473756E+01 -0.19502269258E+01  0.70540086571E-01  0.56371697021E+01  0.10566000000E+00 0.  1.
        -14    1    4    4    0    0  0.43179691618E+01 -0.15214609950E+01  0.64000600684E+00  0.46226949856E+01  0.00000000000E+00 0.  1.
<mgrwt>
<rscale>  0 0.79800408E+02</rscale>
<asrwt>0</asrwt>
<pdfrwt beam="1">  1        2 0.63271792E-02 0.79800408E+02</pdfrwt>
<pdfrwt beam="2">  1       -1 0.59554335E-02 0.79800408E+02</pdfrwt>
<totfact> 0.14436291E+05</totfact>
</mgrwt>
</event>
<event>
 8    1  0.1226832E-016  0.8022823E+02  0.7818608E-02  0.1328405E+00
          2   -1    0    0  501    0  0.00000000000E+00  0.00000000000E+00  0.11023490603E+04  0.11023490603E+04  0.25500000000E-02 0. -1.
         -1   -1    0    0    0  501 -0.00000000000E+00 -0.00000000000E+00 -0.14597347633E+01  0.14597434641E+01  0.50400000000E-02 0.  1.
         24    2    1    2    0    0  0.17763568394E-14  0.00000000000E+00  0.11008893256E+04  0.11038088038E+04  0.80228225663E+02 0.  0.
         66    2    3    3    0    0 -0.15034303552E+02 -0.65038091175E+01  0.10542002540E+04  0.10543294103E+04  0.19999994680E+01 0.  0.
        -13    1    3    3    0    0  0.15034303552E+02  0.65038091175E+01  0.46689071522E+02  0.49479393489E+02  0.10566000000E+00 0.  1.
         13    1    4    4    0    0 -0.37766230679E+01 -0.17116683018E+01  0.30675319189E+03  0.30678123246E+03  0.10566000000E+00 0. -1.
        -13    1    4    4    0    0 -0.14430252845E+01 -0.93058386913E+00  0.88569112712E+02  0.88585818272E+02  0.10566000000E+00 0.  1.
        -14    1    4    4    0    0 -0.98146551999E+01 -0.38615569467E+01  0.65887794943E+03  0.65896235957E+03  0.00000000000E+00 0.  1.
<mgrwt>
<rscale>  0 0.80228226E+02</rscale>
<asrwt>0</asrwt>
<pdfrwt beam="1">  1        2 0.16959218E+00 0.80228226E+02</pdfrwt>
<pdfrwt beam="2">  1       -1 0.22457523E-03 0.80228226E+02</pdfrwt>
<totfact> 0.34989680E+05</totfact>
</mgrwt>
</event>
<event>
 8    1  0.1226832E-016  0.7843219E+02  0.7818608E-02  0.1333560E+00
          2   -1    0    0  501    0  0.00000000000E+00  0.00000000000E+00  0.51151520836E+03  0.51151520837E+03  0.25500000000E-02 0. -1.
         -1   -1    0    0    0  501 -0.00000000000E+00 -0.00000000000E+00 -0.30065599465E+01  0.30065641709E+01  0.50400000000E-02 0.  1.
         24    2    1    2    0    0  0.00000000000E+00  0.00000000000E+00  0.50850864842E+03  0.51452177254E+03  0.78432193031E+02 0.  0.
         66    2    3    3    0    0 -0.10967275513E+02  0.31040553520E+02  0.39390394179E+03  0.39528232001E+03  0.20000147827E+01 0.  0.
        -13    1    3    3    0    0  0.10967275513E+02 -0.31040553520E+02  0.11460470663E+03  0.11923945253E+03  0.10566000000E+00 0.  1.
         13    1    4    4    0    0 -0.20382480559E+01  0.70797859192E+01  0.94306291655E+02  0.94593687070E+02  0.10566000000E+00 0. -1.
        -13    1    4    4    0    0 -0.15346937584E+01  0.37675866399E+01  0.43790708293E+02  0.43979396208E+02  0.10566000000E+00 0.  1.
         14    1    4    4    0    0 -0.73943336987E+01  0.20193180960E+02  0.25580694184E+03  0.25670923673E+03  0.00000000000E+00 0. -1.
<mgrwt>
<rscale>  0 0.78432193E+02</rscale>
<asrwt>0</asrwt>
<pdfrwt beam="1">  1        2 0.78694635E-01 0.78432193E+02</pdfrwt>
<pdfrwt beam="2">  1       -1 0.46254809E-03 0.78432193E+02</pdfrwt>
<totfact> 0.32293267E+05</totfact>
</mgrwt>
</event>
<event>
 8    1  0.1226832E-016  0.8108244E+02  0.7818608E-02  0.1326007E+00
         -1   -1    0    0    0  501 -0.00000000000E+00  0.00000000000E+00  0.20609514878E+02  0.20609515494E+02  0.50400000000E-02 0.  1.
          2   -1    0    0  501    0  0.00000000000E+00 -0.00000000000E+00 -0.79749119889E+02  0.79749119930E+02  0.25500000000E-02 0. -1.
         24    2    1    2    0    0  0.17763568394E-14  0.00000000000E+00 -0.59139605011E+02  0.10035863542E+03  0.81082444606E+02 0.  0.
         66    2    3    3    0    0  0.14286335475E+02  0.36788660066E+02 -0.40937235447E+02  0.56897821896E+02  0.19999999476E+01 0.  0.
        -13    1    3    3    0    0 -0.14286335475E+02 -0.36788660066E+02 -0.18202369564E+02  0.43460813528E+02  0.10566000000E+00 0.  1.
         13    1    4    4    0    0  0.55728356203E+01  0.13036920709E+02 -0.14719854537E+02  0.20437785595E+02  0.10566000000E+00 0. -1.
        -13    1    4    4    0    0  0.66169539649E+01  0.17669293382E+02 -0.20376890552E+02  0.27770791149E+02  0.10566000000E+00 0.  1.
        -14    1    4    4    0    0  0.20965458899E+01  0.60824459744E+01 -0.58404903578E+01  0.86892451524E+01  0.00000000000E+00 0.  1.
<mgrwt>
<rscale>  0 0.81082445E+02</rscale>
<asrwt>0</asrwt>
<pdfrwt beam="1">  1        2 0.12269095E-01 0.81082445E+02</pdfrwt>
<pdfrwt beam="2">  1       -1 0.31706947E-02 0.81082445E+02</pdfrwt>
<totfact> 0.16088035E+05</totfact>
</mgrwt>
</event>
<event>
 8    1  0.1226832E-016  0.8046490E+02  0.7818608E-02  0.1327737E+00
          2   -1    0    0  501    0  0.00000000000E+00  0.00000000000E+00  0.19112649261E+03  0.19112649262E+03  0.25500000000E-02 0. -1.
         -1   -1    0    0    0  501 -0.00000000000E+00 -0.00000000000E+00 -0.84689974625E+01  0.84689989622E+01  0.50400000000E-02 0.  1.
         24    2    1    2    0    0 -0.71054273576E-14  0.00000000000E+00  0.18265749514E+03  0.19959549158E+03  0.80464897496E+02 0.  0.
         66    2    3    3    0    0  0.34155815004E+02  0.20513192115E+02  0.77973122509E+02  0.87585492982E+02  0.19999994112E+01 0.  0.
        -13    1    3    3    0    0 -0.34155815004E+02 -0.20513192115E+02  0.10468437263E+03  0.11200999860E+03  0.10566000000E+00 0.  1.
         13    1    4    4    0    0  0.35864442634E+01  0.22718908387E+01  0.84967341984E+01  0.94989329144E+01  0.10566000000E+00 0. -1.
        -13    1    4    4    0    0  0.19428121973E+02  0.12408275641E+02  0.43822432877E+02  0.49515997567E+02  0.10566000000E+00 0.  1.
        -14    1    4    4    0    0  0.11141248768E+02  0.58330256351E+01  0.25653955434E+02  0.28570562501E+02  0.00000000000E+00 0.  1.
<mgrwt>
<rscale>  0 0.80464897E+02</rscale>
<asrwt>0</asrwt>
<pdfrwt beam="1">  1        2 0.29404071E-01 0.80464897E+02</pdfrwt>
<pdfrwt beam="2">  1       -1 0.13029230E-02 0.80464897E+02</pdfrwt>
<totfact> 0.21385318E+05</totfact>
</mgrwt>
</event>
<event>
 8    1  0.1226832E-016  0.7771460E+02  0.7818608E-02  0.1335665E+00
         -1   -1    0    0    0  501 -0.00000000000E+00  0.00000000000E+00  0.32165179558E+01  0.32165219044E+01  0.50400000000E-02 0.  1.
          2   -1    0    0  501    0  0.00000000000E+00 -0.00000000000E+00 -0.46941719596E+03  0.46941719597E+03  0.25500000000E-02 0. -1.
         24    2    1    2    0    0  0.00000000000E+00  0.00000000000E+00 -0.46620067800E+03  0.47263371787E+03  0.77714600284E+02 0.  0.
         66    2    3    3    0    0 -0.24087796473E+02  0.15361330061E+02 -0.39320221215E+03  0.39424379772E+03  0.20000003526E+01 0.  0.
        -13    1    3    3    0    0  0.24087796473E+02 -0.15361330061E+02 -0.72998465856E+02  0.78389920152E+02  0.10566000000E+00 0.  1.
         13    1    4    4    0    0 -0.89159809415E+00  0.81698598392E+00 -0.16594658479E+02  0.16638998387E+02  0.10566000000E+00 0. -1.
        -13    1    4    4    0    0 -0.44732276343E+01  0.29706772369E+01 -0.82617662518E+02  0.82792052835E+02  0.10566000000E+00 0.  1.
         14    1    4    4    0    0 -0.18722970744E+02  0.11573666840E+02 -0.29398989115E+03  0.29481274650E+03  0.00000000000E+00 0. -1.
<mgrwt>
<rscale>  0 0.77714600E+02</rscale>
<asrwt>0</asrwt>
<pdfrwt beam="1">  1        2 0.72217976E-01 0.77714600E+02</pdfrwt>
<pdfrwt beam="2">  1       -1 0.49484959E-03 0.77714600E+02</pdfrwt>
<totfact> 0.32173624E+05</totfact>
</mgrwt>
</event>
<event>
 8    1  0.1226832E-016  0.7473062E+02  0.7818608E-02  0.1344707E+00
         -1   -1    0    0    0  501 -0.00000000000E+00  0.00000000000E+00  0.91083094176E+01  0.91083108120E+01  0.50400000000E-02 0.  1.
          2   -1    0    0  501    0  0.00000000000E+00 -0.00000000000E+00 -0.15328488990E+03  0.15328488992E+03  0.25500000000E-02 0. -1.
         24    2    1    2    0    0  0.71054273576E-14 -0.55511151231E-16 -0.14417658048E+03  0.16239320073E+03  0.74730618120E+02 0.  0.
         66    2    3    3    0    0  0.37224023317E+02 -0.30111606990E+00 -0.78453917342E+02  0.86860438324E+02  0.20000041921E+01 0.  0.
        -13    1    3    3    0    0 -0.37224023317E+02  0.30111606990E+00 -0.65722663137E+02  0.75532762406E+02  0.10566000000E+00 0.  1.
         13    1    4    4    0    0  0.19426185685E+02  0.41042851638E+00 -0.42030100377E+02  0.46304272411E+02  0.10566000000E+00 0.  1.
        -13    1    4    4    0    0  0.10129484042E+02 -0.24444368274E+00 -0.19759420209E+02  0.22206126423E+02  0.10566000000E+00 0. -1.
        -14    1    4    4    0    0  0.76683535896E+01 -0.46710090354E+00 -0.16664396756E+02  0.18350039490E+02  0.00000000000E+00 0.  1.
<mgrwt>
<rscale>  0 0.74730618E+02</rscale>
<asrwt>0</asrwt>
<pdfrwt beam="1">  1        2 0.23582289E-01 0.74730618E+02</pdfrwt>
<pdfrwt beam="2">  1       -1 0.14012786E-02 0.74730618E+02</pdfrwt>
<totfact> 0.24149039E+05</totfact>
</mgrwt>
</event>
<event>
 8    1  0.1226832E-016  0.7885695E+02  0.7818608E-02  0.1332327E+00
          2   -1    0    0  501    0  0.00000000000E+00  0.00000000000E+00  0.34484395475E+03  0.34484395475E+03  0.25500000000E-02 0. -1.
         -1   -1    0    0    0  501 -0.00000000000E+00 -0.00000000000E+00 -0.45081375764E+01  0.45081403937E+01  0.50400000000E-02 0.  1.
         24    2    1    2    0    0  0.17763568394E-14  0.00000000000E+00  0.34033581717E+03  0.34935209515E+03  0.78856946026E+02 0.  0.
         66    2    3    3    0    0 -0.15826677614E+02  0.67661065301E+01  0.32730475118E+03  0.32776312188E+03  0.19999998082E+01 0.  0.
        -13    1    3    3    0    0  0.15826677614E+02 -0.67661065301E+01  0.13031065991E+02  0.21588973268E+02  0.10566000000E+00 0.  1.
         13    1    4    4    0    0 -0.79517145743E+00  0.32336936647E+00  0.17791273712E+02  0.17812283675E+02  0.10566000000E+00 0. -1.
        -13    1    4    4    0    0 -0.34159956574E+01  0.92986826284E+00  0.56532697253E+02  0.56643540709E+02  0.10566000000E+00 0.  1.
         14    1    4    4    0    0 -0.11615510499E+02  0.55128689008E+01  0.25298078021E+03  0.25330729750E+03  0.00000000000E+00 0. -1.
<mgrwt>
<rscale>  0 0.78856946E+02</rscale>
<asrwt>0</asrwt>
<pdfrwt beam="1">  1        2 0.53052896E-01 0.78856946E+02</pdfrwt>
<pdfrwt beam="2">  1       -1 0.69356011E-03 0.78856946E+02</pdfrwt>
<totfact> 0.27835102E+05</totfact>
</mgrwt>
</event>
<event>
 8    1  0.1226832E-016  0.7975651E+02  0.7818608E-02  0.1329744E+00
         -1   -1    0    0    0  501 -0.00000000000E+00  0.00000000000E+00  0.67480073483E+02  0.67480073671E+02  0.50400000000E-02 0.  1.
          2   -1    0    0  501    0  0.00000000000E+00 -0.00000000000E+00 -0.23566588795E+02  0.23566588933E+02  0.25500000000E-02 0. -1.
         24    2    1    2    0    0  0.00000000000E+00 -0.35527136788E-14  0.43913484687E+02  0.91046662604E+02  0.79756508412E+02 0.  0.
         66    2    3    3    0    0 -0.17105919863E+02 -0.31554156817E+02  0.21983840675E+01  0.36015416112E+02  0.19999996150E+01 0.  0.
        -13    1    3    3    0    0  0.17105919863E+02  0.31554156817E+02  0.41715100620E+02  0.55031246492E+02  0.10566000000E+00 0.  1.
         13    1    4    4    0    0 -0.75032278735E+01 -0.12208845489E+02  0.12059353823E+01  0.14381230159E+02  0.10566000000E+00 0. -1.
        -13    1    4    4    0    0 -0.21361641995E+01 -0.37070753045E+01  0.32336158489E+00  0.42920078694E+01  0.10566000000E+00 0.  1.
        -14    1    4    4    0    0 -0.74665277896E+01 -0.15638236023E+02  0.66908710032E+00  0.17342178084E+02  0.00000000000E+00 0.  1.
<mgrwt>
<rscale>  0 0.79756508E+02</rscale>
<asrwt>0</asrwt>
<pdfrwt beam="1">  1        2 0.36256291E-02 0.79756508E+02</pdfrwt>
<pdfrwt beam="2">  1       -1 0.10381550E-01 0.79756508E+02</pdfrwt>
<totfact> 0.12941349E+05</totfact>
</mgrwt>
</event>
<event>
 8    1  0.1226832E-016  0.8124223E+02  0.7818608E-02  0.1325563E+00
          2   -1    0    0  501    0  0.00000000000E+00  0.00000000000E+00  0.19188622736E+03  0.19188622738E+03  0.25500000000E-02 0. -1.
         -1   -1    0    0    0  501 -0.00000000000E+00 -0.00000000000E+00 -0.85992356305E+01  0.85992371075E+01  0.50400000000E-02 0.  1.
         24    2    1    2    0    0  0.00000000000E+00  0.00000000000E+00  0.18328699173E+03  0.20048546448E+03  0.81242231212E+02 0.  0.
         66    2    3    3    0    0 -0.31135247080E+01 -0.40405601343E+02  0.97623222946E+02  0.10571944155E+03  0.20000019978E+01 0.  0.
        -13    1    3    3    0    0  0.31135247080E+01  0.40405601343E+02  0.85663768784E+02  0.94766022931E+02  0.10566000000E+00 0.  1.
         13    1    4    4    0    0 -0.13028888015E+01 -0.12563784847E+02  0.32647270610E+02  0.35005737404E+02  0.10566000000E+00 0. -1.
        -13    1    4    4    0    0 -0.12890267108E+01 -0.21707176214E+02  0.50726410813E+02  0.55190968528E+02  0.10566000000E+00 0.  1.
         14    1    4    4    0    0 -0.52160919574E+00 -0.61346402822E+01  0.14249541523E+02  0.15522735621E+02  0.00000000000E+00 0. -1.
<mgrwt>
<rscale>  0 0.81242231E+02</rscale>
<asrwt>0</asrwt>
<pdfrwt beam="1">  1        2 0.29520958E-01 0.81242231E+02</pdfrwt>
<pdfrwt beam="2">  1       -1 0.13229594E-02 0.81242231E+02</pdfrwt>
<totfact> 0.20877170E+05</totfact>
</mgrwt>
</event>
<event>
 8    1  0.1226832E-016  0.8127850E+02  0.7818608E-02  0.1325462E+00
          2   -1    0    0  501    0  0.00000000000E+00  0.00000000000E+00  0.54649321127E+02  0.54649321186E+02  0.25500000000E-02 0. -1.
         -1   -1    0    0    0  501 -0.00000000000E+00 -0.00000000000E+00 -0.30220844854E+02  0.30220845274E+02  0.50400000000E-02 0.  1.
         24    2    1    2    0    0 -0.88817841970E-15 -0.35527136788E-14  0.24428476273E+02  0.84870166460E+02  0.81278500860E+02 0.  0.
         66    2    3    3    0    0 -0.51799368454E+01 -0.15547074807E+02  0.51025593205E+02  0.53629790760E+02  0.20000035671E+01 0.  0.
        -13    1    3    3    0    0  0.51799368454E+01  0.15547074807E+02 -0.26597116932E+02  0.31240375700E+02  0.10566000000E+00 0.  1.
         13    1    4    4    0    0 -0.18790434725E+01 -0.82368610686E+01  0.25066913868E+02  0.26452561682E+02  0.10566000000E+00 0. -1.
        -13    1    4    4    0    0 -0.14705794015E+01 -0.28748543060E+01  0.95754400055E+01  0.10105820421E+02  0.10566000000E+00 0.  1.
         14    1    4    4    0    0 -0.18303139714E+01 -0.44353594322E+01  0.16383239331E+02  0.17071408657E+02  0.00000000000E+00 0. -1.
<mgrwt>
<rscale>  0 0.81278501E+02</rscale>
<asrwt>0</asrwt>
<pdfrwt beam="1">  1        2 0.84075877E-02 0.81278501E+02</pdfrwt>
<pdfrwt beam="2">  1       -1 0.46493609E-02 0.81278501E+02</pdfrwt>
<totfact> 0.14592835E+05</totfact>
</mgrwt>
</event>
<event>
 8    1  0.1226832E-016  0.7897407E+02  0.7818608E-02  0.1331988E+00
          2   -1    0    0  501    0  0.00000000000E+00  0.00000000000E+00  0.13311683116E+03  0.13311683118E+03  0.25500000000E-02 0. -1.
         -1   -1    0    0    0  501 -0.00000000000E+00 -0.00000000000E+00 -0.11713212721E+02  0.11713213805E+02  0.50400000000E-02 0.  1.
         24    2    1    2    0    0 -0.35527136788E-14  0.00000000000E+00  0.12140361844E+03  0.14483004499E+03  0.78974067651E+02 0.  0.
         66    2    3    3    0    0  0.16426896376E+02 -0.27876671527E+02  0.10216670915E+03  0.10718669786E+03  0.19999999309E+01 0.  0.
        -13    1    3    3    0    0 -0.16426896376E+02  0.27876671527E+02  0.19236909287E+02  0.37643347127E+02  0.10566000000E+00 0.  1.
         13    1    4    4    0    0  0.67908652765E+00 -0.11410106466E+01  0.34669688013E+01  0.37140409950E+01  0.10566000000E+00 0. -1.
        -13    1    4    4    0    0  0.17319323379E+01 -0.22573737086E+01  0.98147828170E+01  0.10219415417E+02  0.10566000000E+00 0.  1.
         14    1    4    4    0    0  0.14015877510E+02 -0.24478287172E+02  0.88884957532E+02  0.93253241449E+02  0.00000000000E+00 0. -1.
<mgrwt>
<rscale>  0 0.78974068E+02</rscale>
<asrwt>0</asrwt>
<pdfrwt beam="1">  1        2 0.20479511E-01 0.78974068E+02</pdfrwt>
<pdfrwt beam="2">  1       -1 0.18020330E-02 0.78974068E+02</pdfrwt>
<totfact> 0.19960604E+05</totfact>
</mgrwt>
</event>
<event>
 8    1  0.1226832E-016  0.8063996E+02  0.7818608E-02  0.1327245E+00
          2   -1    0    0  501    0  0.00000000000E+00  0.00000000000E+00  0.47965487490E+01  0.47965494268E+01  0.25500000000E-02 0. -1.
         -1   -1    0    0    0  501 -0.00000000000E+00 -0.00000000000E+00 -0.33893132692E+03  0.33893132696E+03  0.50400000000E-02 0.  1.
         24    2    1    2    0    0 -0.71054273576E-14  0.00000000000E+00 -0.33413477817E+03  0.34372787639E+03  0.80639959203E+02 0.  0.
         66    2    3    3    0    0  0.39319111577E+02  0.80475037930E+01 -0.18250358637E+03  0.18687512905E+03  0.19999926154E+01 0.  0.
        -13    1    3    3    0    0 -0.39319111577E+02 -0.80475037930E+01 -0.15163119181E+03  0.15685274733E+03  0.10566000000E+00 0.  1.
         13    1    4    4    0    0  0.26940467709E+02  0.63705986025E+01 -0.12599005190E+03  0.12899564981E+03  0.10566000000E+00 0. -1.
        -13    1    4    4    0    0  0.55232219947E+01  0.70205919412E+00 -0.24222379092E+02  0.24854248756E+02  0.10566000000E+00 0.  1.
        -14    1    4    4    0    0  0.68554218734E+01  0.97484599641E+00 -0.32291155372E+02  0.33025230492E+02  0.00000000000E+00 0.  1.
<mgrwt>
<rscale>  0 0.80639959E+02</rscale>
<asrwt>0</asrwt>
<pdfrwt beam="1">  1        2 0.73793090E-03 0.80639959E+02</pdfrwt>
<pdfrwt beam="2">  1       -1 0.52143262E-01 0.80639959E+02</pdfrwt>
<totfact> 0.80397614E+04</totfact>
</mgrwt>
</event>
<event>
 8    1  0.1226832E-016  0.8035837E+02  0.7818608E-02  0.1328037E+00
          2   -1    0    0  501    0  0.00000000000E+00  0.00000000000E+00  0.17113316546E+02  0.17113316736E+02  0.25500000000E-02 0. -1.
         -1   -1    0    0    0  501 -0.00000000000E+00 -0.00000000000E+00 -0.94333959689E+02  0.94333959824E+02  0.50400000000E-02 0.  1.
         24    2    1    2    0    0 -0.17763568394E-14  0.00000000000E+00 -0.77220643143E+02  0.11144727656E+03  0.80358370598E+02 0.  0.
         66    2    3    3    0    0 -0.11209991557E+02  0.18509733726E+02  0.82761077389E+01  0.23254421244E+02  0.19999986928E+01 0.  0.
        -13    1    3    3    0    0  0.11209991557E+02 -0.18509733726E+02 -0.85496750882E+02  0.88192855316E+02  0.10566000000E+00 0.  1.
         13    1    4    4    0    0 -0.32373792192E+01  0.53678089863E+01  0.23803661586E+01  0.67060647631E+01  0.10566000000E+00 0. -1.
        -13    1    4    4    0    0 -0.65229393846E+01  0.93975133879E+01  0.45850719766E+01  0.12324611359E+02  0.10566000000E+00 0.  1.
        -14    1    4    4    0    0 -0.14496729534E+01  0.37444113514E+01  0.13106696036E+01  0.42237451214E+01  0.00000000000E+00 0.  1.
<mgrwt>
<rscale>  0 0.80358371E+02</rscale>
<asrwt>0</asrwt>
<pdfrwt beam="1">  1        2 0.26328180E-02 0.80358371E+02</pdfrwt>
<pdfrwt beam="2">  1       -1 0.14512917E-01 0.80358371E+02</pdfrwt>
<totfact> 0.11868144E+05</totfact>
</mgrwt>
</event>
<event>
 8    1  0.1226832E-016  0.8072269E+02  0.7818608E-02  0.1327013E+00
          2   -1    0    0  501    0  0.00000000000E+00  0.00000000000E+00  0.11757450775E+03  0.11757450778E+03  0.25500000000E-02 0. -1.
         -1   -1    0    0    0  501 -0.00000000000E+00 -0.00000000000E+00 -0.13855367517E+02  0.13855368434E+02  0.50400000000E-02 0.  1.
         24    2    1    2    0    0 -0.35527136788E-14  0.00000000000E+00  0.10371914023E+03  0.13142987621E+03  0.80722687705E+02 0.  0.
         66    2    3    3    0    0 -0.28384247818E+02  0.16834920564E+02  0.89654678938E+02  0.95556483423E+02  0.19999985358E+01 0.  0.
        -13    1    3    3    0    0  0.28384247818E+02 -0.16834920564E+02  0.14064461295E+02  0.35873392788E+02  0.10566000000E+00 0.  1.
         13    1    4    4    0    0 -0.25631661185E+02  0.15415751839E+02  0.79615249149E+02  0.85048377533E+02  0.10566000000E+00 0. -1.
        -13    1    4    4    0    0 -0.24393384818E+01  0.13099813366E+01  0.88968904381E+01  0.93183822004E+01  0.10566000000E+00 0.  1.
         14    1    4    4    0    0 -0.31324815058E+00  0.10918738834E+00  0.11425393507E+01  0.11897236895E+01  0.00000000000E+00 0. -1.
<mgrwt>
<rscale>  0 0.80722688E+02</rscale>
<asrwt>0</asrwt>
<pdfrwt beam="1">  1        2 0.18088386E-01 0.80722688E+02</pdfrwt>
<pdfrwt beam="2">  1       -1 0.21315950E-02 0.80722688E+02</pdfrwt>
<totfact> 0.18132603E+05</totfact>
</mgrwt>
</event>
<event>
 8    1  0.1226832E-016  0.7930058E+02  0.7818608E-02  0.1331048E+00
         -1   -1    0    0    0  501 -0.00000000000E+00  0.00000000000E+00  0.16403583831E+01  0.16403661258E+01  0.50400000000E-02 0.  1.
          2   -1    0    0  501    0  0.00000000000E+00 -0.00000000000E+00 -0.95841352485E+03  0.95841352485E+03  0.25500000000E-02 0. -1.
         24    2    1    2    0    0 -0.35527136788E-14  0.00000000000E+00 -0.95677316646E+03  0.96005389097E+03  0.79300577003E+02 0.  0.
         66    2    3    3    0    0  0.24153547284E+02 -0.11313034169E+02 -0.83346716738E+03  0.83389621518E+03  0.20000000237E+01 0.  0.
        -13    1    3    3    0    0 -0.24153547284E+02  0.11313034169E+02 -0.12330599908E+03  0.12615767579E+03  0.10566000000E+00 0.  1.
         13    1    4    4    0    0  0.18346983356E+02 -0.81288148483E+01 -0.63844730674E+03  0.63876260385E+03  0.10566000000E+00 0. -1.
        -13    1    4    4    0    0  0.12264978748E+01 -0.37405660898E+00 -0.35926516361E+02  0.35949547386E+02  0.10566000000E+00 0.  1.
         14    1    4    4    0    0  0.45800660537E+01 -0.28101627118E+01 -0.15909334428E+03  0.15918406394E+03  0.00000000000E+00 0. -1.
<mgrwt>
<rscale>  0 0.79300577E+02</rscale>
<asrwt>0</asrwt>
<pdfrwt beam="1">  1        2 0.14744779E+00 0.79300577E+02</pdfrwt>
<pdfrwt beam="2">  1       -1 0.25236419E-03 0.79300577E+02</pdfrwt>
<totfact> 0.35956806E+05</totfact>
</mgrwt>
</event>
<event>
 8    1  0.1226832E-016  0.8366206E+02  0.7818608E-02  0.1318969E+00
          2   -1    0    0  501    0  0.00000000000E+00  0.00000000000E+00  0.13601630682E+03  0.13601630684E+03  0.25500000000E-02 0. -1.
         -1   -1    0    0    0  501 -0.00000000000E+00 -0.00000000000E+00 -0.12864892188E+02  0.12864893175E+02  0.50400000000E-02 0.  1.
         24    2    1    2    0    0 -0.71054273576E-14  0.00000000000E+00  0.12315141463E+03  0.14888120002E+03  0.83662063046E+02 0.  0.
         66    2    3    3    0    0  0.39072620065E+02  0.14687768536E+02  0.57464017447E+02  0.71052892211E+02  0.20000017623E+01 0.  0.
        -13    1    3    3    0    0 -0.39072620065E+02 -0.14687768536E+02  0.65687397183E+02  0.77828307806E+02  0.10566000000E+00 0.  1.
         13    1    4    4    0    0  0.32538520889E+02  0.12627830115E+02  0.47063824490E+02  0.58593789557E+02  0.10566000000E+00 0. -1.
        -13    1    4    4    0    0  0.47608272091E+01  0.16155050578E+01  0.74431411766E+01  0.89825857590E+01  0.10566000000E+00 0.  1.
         14    1    4    4    0    0  0.17732719669E+01  0.44443336227E+00  0.29570517807E+01  0.34765168943E+01  0.00000000000E+00 0. -1.
<mgrwt>
<rscale>  0 0.83662063E+02</rscale>
<asrwt>0</asrwt>
<pdfrwt beam="1">  1        2 0.20925586E-01 0.83662063E+02</pdfrwt>
<pdfrwt beam="2">  1       -1 0.19792142E-02 0.83662063E+02</pdfrwt>
<totfact> 0.17233491E+05</totfact>
</mgrwt>
</event>
<event>
 8    1  0.1226832E-016  0.8290058E+02  0.7818608E-02  0.1321016E+00
          2   -1    0    0  501    0  0.00000000000E+00  0.00000000000E+00  0.17848679556E+03  0.17848679558E+03  0.25500000000E-02 0. -1.
         -1   -1    0    0    0  501 -0.00000000000E+00 -0.00000000000E+00 -0.96260697887E+01  0.96260711081E+01  0.50400000000E-02 0.  1.
         24    2    1    2    0    0 -0.35527136788E-14 -0.35527136788E-14  0.16886072577E+03  0.18811286668E+03  0.82900578435E+02 0.  0.
         66    2    3    3    0    0  0.28863351047E+02  0.29715663521E+02  0.84279201245E+02  0.93931344362E+02  0.19999997491E+01 0.  0.
        -13    1    3    3    0    0 -0.28863351047E+02 -0.29715663521E+02  0.84581524524E+02  0.94181522323E+02  0.10566000000E+00 0.  1.
         13    1    4    4    0    0  0.16832223152E+02  0.17915391425E+02  0.49120937779E+02  0.54928705414E+02  0.10566000000E+00 0. -1.
        -13    1    4    4    0    0  0.44772276119E+01  0.43887326344E+01  0.11938771576E+02  0.13485250164E+02  0.10566000000E+00 0.  1.
         14    1    4    4    0    0  0.75539002827E+01  0.74115394612E+01  0.23219491891E+02  0.25517388784E+02  0.00000000000E+00 0. -1.
<mgrwt>
<rscale>  0 0.82900578E+02</rscale>
<asrwt>0</asrwt>
<pdfrwt beam="1">  1        2 0.27459505E-01 0.82900578E+02</pdfrwt>
<pdfrwt beam="2">  1       -1 0.14809340E-02 0.82900578E+02</pdfrwt>
<totfact> 0.19303460E+05</totfact>
</mgrwt>
</event>
<event>
 8    1  0.1226832E-016  0.8054533E+02  0.7818608E-02  0.1327511E+00
          2   -1    0    0  501    0  0.00000000000E+00  0.00000000000E+00  0.12458279003E+03  0.12458279006E+03  0.25500000000E-02 0. -1.
         -1   -1    0    0    0  501 -0.00000000000E+00 -0.00000000000E+00 -0.13018551063E+02  0.13018552039E+02  0.50400000000E-02 0.  1.
         24    2    1    2    0    0  0.00000000000E+00  0.00000000000E+00  0.11156423897E+03  0.13760134210E+03  0.80545328420E+02 0.  0.
         66    2    3    3    0    0 -0.38188188341E+02 -0.41796975427E+01  0.35310627080E+02  0.52217314958E+02  0.19999990924E+01 0.  0.
        -13    1    3    3    0    0  0.38188188341E+02  0.41796975427E+01  0.76253611891E+02  0.85384027140E+02  0.10566000000E+00 0.  1.
         13    1    4    4    0    0 -0.25066517362E+02 -0.18576448400E+01  0.23500324242E+02  0.34410137177E+02  0.10566000000E+00 0. -1.
        -13    1    4    4    0    0 -0.70072116504E+01 -0.12315644745E+01  0.62093856708E+01  0.94438022329E+01  0.10566000000E+00 0.  1.
         14    1    4    4    0    0 -0.61144593282E+01 -0.10904882281E+01  0.56009171677E+01  0.83633755488E+01  0.00000000000E+00 0. -1.
<mgrwt>
<rscale>  0 0.80545328E+02</rscale>
<asrwt>0</asrwt>
<pdfrwt beam="1">  1        2 0.19166583E-01 0.80545328E+02</pdfrwt>
<pdfrwt beam="2">  1       -1 0.20028541E-02 0.80545328E+02</pdfrwt>
<totfact> 0.18559778E+05</totfact>
</mgrwt>
</event>
<event>
 8    1  0.1226832E-016  0.7916841E+02  0.7818608E-02  0.1331428E+00
         -1   -1    0    0    0  501 -0.00000000000E+00  0.00000000000E+00  0.24326613981E+01  0.24326666190E+01  0.50400000000E-02 0.  1.
          2   -1    0    0  501    0  0.00000000000E+00 -0.00000000000E+00 -0.64411255587E+03  0.64411255588E+03  0.25500000000E-02 0. -1.
         24    2    1    2    0    0  0.00000000000E+00  0.00000000000E+00 -0.64167989447E+03  0.64654522250E+03  0.79168413906E+02 0.  0.
         66    2    3    3    0    0  0.51657566442E+01 -0.21604060400E+02 -0.58836928170E+03  0.58879184107E+03  0.19999995946E+01 0.  0.
        -13    1    3    3    0    0 -0.51657566442E+01  0.21604060400E+02 -0.53310612778E+02  0.57753381427E+02  0.10566000000E+00 0.  1.
         13    1    4    4    0    0  0.33463685538E+01 -0.11124484227E+02 -0.31567299227E+03  0.31588669099E+03  0.10566000000E+00 0. -1.
        -13    1    4    4    0    0  0.18452568053E+01 -0.88363791215E+01 -0.22795085674E+03  0.22812954832E+03  0.10566000000E+00 0.  1.
        -14    1    4    4    0    0 -0.25868714882E-01 -0.16431970520E+01 -0.44745432689E+02  0.44775601752E+02  0.00000000000E+00 0.  1.
<mgrwt>
<rscale>  0 0.79168414E+02</rscale>
<asrwt>0</asrwt>
<pdfrwt beam="1">  1        2 0.99094104E-01 0.79168414E+02</pdfrwt>
<pdfrwt beam="2">  1       -1 0.37425652E-03 0.79168414E+02</pdfrwt>
<totfact> 0.33683560E+05</totfact>
</mgrwt>
</event>
<event>
 8    1  0.1226832E-016  0.8009874E+02  0.7818608E-02  0.1328771E+00
          2   -1    0    0  501    0  0.00000000000E+00  0.00000000000E+00  0.82583347925E+03  0.82583347926E+03  0.25500000000E-02 0. -1.
         -1   -1    0    0    0  501 -0.00000000000E+00 -0.00000000000E+00 -0.19422189200E+01  0.19422254593E+01  0.50400000000E-02 0.  1.
         24    2    1    2    0    0  0.17763568394E-14  0.00000000000E+00  0.82389126033E+03  0.82777570472E+03  0.80098741971E+02 0.  0.
         66    2    3    3    0    0  0.10484855703E+02 -0.33154075217E+02  0.61702771549E+03  0.61800997288E+03  0.19999992693E+01 0.  0.
        -13    1    3    3    0    0 -0.10484855703E+02  0.33154075217E+02  0.20686354484E+03  0.20976573183E+03  0.10566000000E+00 0.  1.
         13    1    4    4    0    0  0.59393828762E+01 -0.20796965101E+02  0.38261432826E+03  0.38322516277E+03  0.10566000000E+00 0. -1.
        -13    1    4    4    0    0  0.41232879814E+01 -0.11808793284E+02  0.22155676272E+03  0.22190957477E+03  0.10566000000E+00 0.  1.
        -14    1    4    4    0    0  0.42218484493E+00 -0.54831683177E+00  0.12856624513E+02  0.12875235347E+02  0.00000000000E+00 0.  1.
<mgrwt>
<rscale>  0 0.80098742E+02</rscale>
<asrwt>0</asrwt>
<pdfrwt beam="1">  1        2 0.12705146E+00 0.80098742E+02</pdfrwt>
<pdfrwt beam="2">  1       -1 0.29880306E-03 0.80098742E+02</pdfrwt>
<totfact> 0.34435531E+05</totfact>
</mgrwt>
</event>
<event>
 8    1  0.1226832E-016  0.8445034E+02  0.7818608E-02  0.1316876E+00
         -1   -1    0    0    0  501 -0.00000000000E+00  0.00000000000E+00  0.65522188926E+01  0.65522208310E+01  0.50400000000E-02 0.  1.
          2   -1    0    0  501    0  0.00000000000E+00 -0.00000000000E+00 -0.27211618019E+03  0.27211618020E+03  0.25500000000E-02 0. -1.
         24    2    1    2    0    0  0.00000000000E+00  0.00000000000E+00 -0.26556396129E+03  0.27866840103E+03  0.84450341588E+02 0.  0.
         66    2    3    3    0    0 -0.11505928432E+02 -0.16625248792E+02 -0.25508996417E+03  0.25589778254E+03  0.20000010651E+01 0.  0.
        -13    1    3    3    0    0  0.11505928432E+02  0.16625248792E+02 -0.10473997126E+02  0.22770618487E+02  0.10566000000E+00 0.  1.
         13    1    4    4    0    0 -0.41154301039E+01 -0.58968141060E+01 -0.99029608954E+02  0.99290401324E+02  0.10566000000E+00 0. -1.
        -13    1    4    4    0    0 -0.53343773787E+01 -0.69849970330E+01 -0.10114439237E+03  0.10152558809E+03  0.10566000000E+00 0.  1.
         14    1    4    4    0    0 -0.20561209492E+01 -0.37434376530E+01 -0.54915962842E+02  0.55081793124E+02  0.00000000000E+00 0. -1.
<mgrwt>
<rscale>  0 0.84450342E+02</rscale>
<asrwt>0</asrwt>
<pdfrwt beam="1">  1        2 0.41864019E-01 0.84450342E+02</pdfrwt>
<pdfrwt beam="2">  1       -1 0.10080340E-02 0.84450342E+02</pdfrwt>
<totfact> 0.21340370E+05</totfact>
</mgrwt>
</event>
<event>
 8    1  0.1226832E-016  0.7949709E+02  0.7818608E-02  0.1330485E+00
          2   -1    0    0  501    0  0.00000000000E+00  0.00000000000E+00  0.10288246596E+04  0.10288246596E+04  0.25500000000E-02 0. -1.
         -1   -1    0    0    0  501 -0.00000000000E+00 -0.00000000000E+00 -0.15356773374E+01  0.15356856079E+01  0.50400000000E-02 0.  1.
         24    2    1    2    0    0  0.00000000000E+00  0.00000000000E+00  0.10272889823E+04  0.10303603452E+04  0.79497093692E+02 0.  0.
         66    2    3    3    0    0 -0.91603579556E+01  0.22035917374E+02  0.92555856253E+03  0.92586832027E+03  0.20000009151E+01 0.  0.
        -13    1    3    3    0    0  0.91603579556E+01 -0.22035917374E+02  0.10173041976E+03  0.10449202496E+03  0.10566000000E+00 0.  1.
         13    1    4    4    0    0 -0.37259228614E+01  0.97275544791E+01  0.36974632846E+03  0.36989304723E+03  0.10566000000E+00 0. -1.
        -13    1    4    4    0    0 -0.10697026976E+01  0.28639588840E+01  0.12759533751E+03  0.12763200164E+03  0.10566000000E+00 0.  1.
         14    1    4    4    0    0 -0.43647323967E+01  0.94444040111E+01  0.42821689656E+03  0.42834327140E+03  0.00000000000E+00 0. -1.
<mgrwt>
<rscale>  0 0.79497094E+02</rscale>
<asrwt>0</asrwt>
<pdfrwt beam="1">  1        2 0.15828107E+00 0.79497094E+02</pdfrwt>
<pdfrwt beam="2">  1       -1 0.23625817E-03 0.79497094E+02</pdfrwt>
<totfact> 0.35844764E+05</totfact>
</mgrwt>
</event>
<event>
 8    1  0.1226832E-016  0.7784885E+02  0.7818608E-02  0.1335269E+00
          2   -1    0    0  501    0  0.00000000000E+00  0.00000000000E+00  0.96200622382E+03  0.96200622382E+03  0.25500000000E-02 0. -1.
         -1   -1    0    0    0  501 -0.00000000000E+00 -0.00000000000E+00 -0.15749452288E+01  0.15749532931E+01  0.50400000000E-02 0.  1.
         24    2    1    2    0    0  0.00000000000E+00  0.35527136788E-14  0.96043127859E+03  0.96358117712E+03  0.77848853536E+02 0.  0.
         66    2    3    3    0    0  0.13919327784E+02 -0.21372495160E+02  0.84405686968E+03  0.84444451001E+03  0.20000000180E+01 0.  0.
        -13    1    3    3    0    0 -0.13919327784E+02  0.21372495160E+02  0.11637440892E+03  0.11913666711E+03  0.10566000000E+00 0.  1.
         13    1    4    4    0    0  0.47063612948E+01 -0.70495340966E+01  0.25868281598E+03  0.25882166875E+03  0.10566000000E+00 0. -1.
        -13    1    4    4    0    0  0.34854718001E+01 -0.52839514173E+01  0.19936606768E+03  0.19946656051E+03  0.10566000000E+00 0.  1.
         14    1    4    4    0    0  0.57274946893E+01 -0.90390096462E+01  0.38600798602E+03  0.38615628075E+03  0.00000000000E+00 0. -1.
<mgrwt>
<rscale>  0 0.77848854E+02</rscale>
<asrwt>0</asrwt>
<pdfrwt beam="1">  1        2 0.14800122E+00 0.77848854E+02</pdfrwt>
<pdfrwt beam="2">  1       -1 0.24229945E-03 0.77848854E+02</pdfrwt>
<totfact> 0.37730175E+05</totfact>
</mgrwt>
</event>
<event>
 8    1  0.1226832E-016  0.7937812E+02  0.7818608E-02  0.1330826E+00
         -1   -1    0    0    0  501 -0.00000000000E+00  0.00000000000E+00  0.60270977611E+01  0.60270998684E+01  0.50400000000E-02 0.  1.
          2   -1    0    0  501    0  0.00000000000E+00 -0.00000000000E+00 -0.26135648654E+03  0.26135648656E+03  0.25500000000E-02 0. -1.
         24    2    1    2    0    0  0.00000000000E+00  0.17763568394E-14 -0.25532938878E+03  0.26738358642E+03  0.79378117345E+02 0.  0.
         66    2    3    3    0    0  0.12562045072E+02  0.11353408540E+02 -0.24856606065E+03  0.24915013822E+03  0.20000015614E+01 0.  0.
        -13    1    3    3    0    0 -0.12562045072E+02 -0.11353408540E+02 -0.67633281277E+01  0.18233448200E+02  0.10566000000E+00 0.  1.
         13    1    4    4    0    0  0.24995727383E+01  0.21366096067E+01 -0.46794618588E+02  0.46910131712E+02  0.10566000000E+00 0. -1.
        -13    1    4    4    0    0  0.38936780683E+01  0.45848034025E+01 -0.94925165215E+02  0.95115610213E+02  0.10566000000E+00 0.  1.
        -14    1    4    4    0    0  0.61687942650E+01  0.46319955304E+01 -0.10684627685E+03  0.10712439630E+03  0.00000000000E+00 0.  1.
<mgrwt>
<rscale>  0 0.79378117E+02</rscale>
<asrwt>0</asrwt>
<pdfrwt beam="1">  1        2 0.40208682E-01 0.79378117E+02</pdfrwt>
<pdfrwt beam="2">  1       -1 0.92724617E-03 0.79378117E+02</pdfrwt>
<totfact> 0.24754935E+05</totfact>
</mgrwt>
</event>
<event>
 8    1  0.1226832E-016  0.8416423E+02  0.7818608E-02  0.1317633E+00
          2   -1    0    0  501    0  0.00000000000E+00  0.00000000000E+00  0.63548376237E+03  0.63548376238E+03  0.25500000000E-02 0. -1.
         -1   -1    0    0    0  501 -0.00000000000E+00 -0.00000000000E+00 -0.27867002642E+01  0.27867048219E+01  0.50400000000E-02 0.  1.
         24    2    1    2    0    0  0.71054273576E-14  0.00000000000E+00  0.63269706211E+03  0.63827046720E+03  0.84164225765E+02 0.  0.
         66    2    3    3    0    0  0.34987050788E+02 -0.21068301770E+02  0.39271561434E+03  0.39483860096E+03  0.20000004818E+01 0.  0.
        -13    1    3    3    0    0 -0.34987050788E+02  0.21068301770E+02  0.23998144777E+03  0.24343186624E+03  0.10566000000E+00 0.  1.
         13    1    4    4    0    0  0.13157157397E+02 -0.73712633671E+01  0.14940085131E+03  0.15016015401E+03  0.10566000000E+00 0. -1.
        -13    1    4    4    0    0  0.14307554339E+02 -0.90179280039E+01  0.16472579063E+03  0.16559174617E+03  0.10566000000E+00 0.  1.
        -14    1    4    4    0    0  0.75223390515E+01 -0.46791103988E+01  0.78588972390E+02  0.79086700780E+02  0.00000000000E+00 0.  1.
<mgrwt>
<rscale>  0 0.84164226E+02</rscale>
<asrwt>0</asrwt>
<pdfrwt beam="1">  1        2 0.97766706E-01 0.84164226E+02</pdfrwt>
<pdfrwt beam="2">  1       -1 0.42872359E-03 0.84164226E+02</pdfrwt>
<totfact> 0.28617846E+05</totfact>
</mgrwt>
</event>
<event>
 8    1  0.1226832E-016  0.7942644E+02  0.7818608E-02  0.1330687E+00
          2   -1    0    0  501    0  0.00000000000E+00  0.00000000000E+00  0.66649464384E+03  0.66649464384E+03  0.25500000000E-02 0. -1.
         -1   -1    0    0    0  501 -0.00000000000E+00 -0.00000000000E+00 -0.23663177653E+01  0.23663231326E+01  0.50400000000E-02 0.  1.
         24    2    1    2    0    0  0.00000000000E+00  0.35527136788E-14  0.66412832607E+03  0.66886096697E+03  0.79426441764E+02 0.  0.
         66    2    3    3    0    0  0.24610043577E+02 -0.28082076555E+02  0.44553065336E+03  0.44709710395E+03  0.20000001429E+01 0.  0.
        -13    1    3    3    0    0 -0.24610043577E+02  0.28082076555E+02  0.21859767271E+03  0.22176386303E+03  0.10566000000E+00 0.  1.
         13    1    4    4    0    0  0.55399434352E+01 -0.72682957923E+01  0.11464960586E+03  0.11501331395E+03  0.10566000000E+00 0. -1.
        -13    1    4    4    0    0  0.78023752072E+01 -0.87801583131E+01  0.13432307461E+03  0.13483570661E+03  0.10566000000E+00 0.  1.
         14    1    4    4    0    0  0.11267724934E+02 -0.12033622450E+02  0.19655797289E+03  0.19724808339E+03  0.00000000000E+00 0. -1.
<mgrwt>
<rscale>  0 0.79426442E+02</rscale>
<asrwt>0</asrwt>
<pdfrwt beam="1">  1        2 0.10253751E+00 0.79426442E+02</pdfrwt>
<pdfrwt beam="2">  1       -1 0.36404974E-03 0.79426442E+02</pdfrwt>
<totfact> 0.33688293E+05</totfact>
</mgrwt>
</event>
<event>
 8    1  0.1241075E-016  0.8050180E+02  0.7818608E-02  0.1327633E+00
         -1   -1    0    0    0  501 -0.00000000000E+00  0.00000000000E+00  0.38928671956E+01  0.38928704582E+01  0.50400000000E-02 0.  1.
          2   -1    0    0  501    0  0.00000000000E+00 -0.00000000000E+00 -0.41618024454E+03  0.41618024455E+03  0.25500000000E-02 0. -1.
         24    2    1    2    0    0  0.00000000000E+00  0.00000000000E+00 -0.41228737734E+03  0.42007311500E+03  0.80501803913E+02 0.  0.
         66    2    3    3    0    0 -0.25646956281E+02 -0.30822076397E+02 -0.22306905439E+03  0.22665297215E+03  0.19999985899E+01 0.  0.
        -13    1    3    3    0    0  0.25646956281E+02  0.30822076397E+02 -0.18921832295E+03  0.19342014286E+03  0.10566000000E+00 0.  1.
         13    1    4    4    0    0 -0.10196637262E+02 -0.12334908582E+02 -0.92037066658E+02  0.93418168384E+02  0.10566000000E+00 0. -1.
        -13    1    4    4    0    0 -0.13947028288E+02 -0.16048384157E+02 -0.11568882182E+03  0.11762646339E+03  0.10566000000E+00 0.  1.
        -14    1    4    4    0    0 -0.15032907312E+01 -0.24387836578E+01 -0.15343165914E+02  0.15608340367E+02  0.00000000000E+00 0.  1.
<mgrwt>
<rscale>  0 0.80501804E+02</rscale>
<asrwt>0</asrwt>
<pdfrwt beam="1">  1        2 0.64027695E-01 0.80501804E+02</pdfrwt>
<pdfrwt beam="2">  1       -1 0.59890323E-03 0.80501804E+02</pdfrwt>
<totfact> 0.28181634E+05</totfact>
</mgrwt>
</event>
<event>
 8    1  0.1429722E-016  0.7939512E+02  0.7818608E-02  0.1330777E+00
          2   -1    0    0  501    0  0.00000000000E+00  0.00000000000E+00  0.31322507384E+03  0.31322507385E+03  0.25500000000E-02 0. -1.
         -1   -1    0    0    0  501 -0.00000000000E+00 -0.00000000000E+00 -0.50311931355E+01  0.50311956599E+01  0.50400000000E-02 0.  1.
         24    2    1    2    0    0  0.00000000000E+00  0.00000000000E+00  0.30819388071E+03  0.31825626951E+03  0.79395119365E+02 0.  0.
         66    2    3    3    0    0 -0.33022387107E+01  0.15585324866E+02  0.29983555842E+03  0.30026516484E+03  0.19999989371E+01 0.  0.
        -13    1    3    3    0    0  0.33022387107E+01 -0.15585324866E+02  0.83583222909E+01  0.17991104670E+02  0.10566000000E+00 0.  1.
         13    1    4    4    0    0 -0.10197868400E+01  0.57738076262E+01  0.11848052043E+03  0.11862555249E+03  0.10566000000E+00 0. -1.
        -13    1    4    4    0    0 -0.17938454537E+01  0.64623241411E+01  0.13027452081E+03  0.13044708295E+03  0.10566000000E+00 0.  1.
        -14    1    4    4    0    0 -0.48860641702E+00  0.33491930990E+01  0.51080517185E+02  0.51192529401E+02  0.00000000000E+00 0.  1.
<mgrwt>
<rscale>  0 0.79395119E+02</rscale>
<asrwt>0</asrwt>
<pdfrwt beam="1">  1        2 0.48188481E-01 0.79395119E+02</pdfrwt>
<pdfrwt beam="2">  1       -1 0.77402978E-03 0.79395119E+02</pdfrwt>
<totfact> 0.26415362E+05</totfact>
</mgrwt>
</event>
<event>
 8    1  0.1226832E-016  0.8099889E+02  0.7818608E-02  0.1326240E+00
         -1   -1    0    0    0  501 -0.00000000000E+00  0.00000000000E+00  0.65281357250E+01  0.65281376705E+01  0.50400000000E-02 0.  1.
          2   -1    0    0  501    0  0.00000000000E+00 -0.00000000000E+00 -0.25125166179E+03  0.25125166180E+03  0.25500000000E-02 0. -1.
         24    2    1    2    0    0  0.00000000000E+00  0.44408920985E-15 -0.24472352607E+03  0.25777979947E+03  0.80998893862E+02 0.  0.
         66    2    3    3    0    0 -0.98297095284E+01  0.23786977469E+01 -0.24716127513E+03  0.24737618583E+03  0.20000000165E+01 0.  0.
        -13    1    3    3    0    0  0.98297095284E+01 -0.23786977469E+01  0.24377490609E+01  0.10403613646E+02  0.10566000000E+00 0.  1.
         13    1    4    4    0    0 -0.45739768174E+01  0.11050171065E+01 -0.10949167091E+03  0.10959278941E+03  0.10566000000E+00 0. -1.
        -13    1    4    4    0    0 -0.31608611841E+01  0.92149151211E+00 -0.99710428950E+02  0.99764828449E+02  0.10566000000E+00 0.  1.
        -14    1    4    4    0    0 -0.20948715270E+01  0.35218912822E+00 -0.37959175262E+02  0.38018567970E+02  0.00000000000E+00 0.  1.
<mgrwt>
<rscale>  0 0.80998894E+02</rscale>
<asrwt>0</asrwt>
<pdfrwt beam="1">  1        2 0.38654094E-01 0.80998894E+02</pdfrwt>
<pdfrwt beam="2">  1       -1 0.10043289E-02 0.80998894E+02</pdfrwt>
<totfact> 0.23143237E+05</totfact>
</mgrwt>
</event>
<event>
 8    1  0.1226832E-016  0.7845680E+02  0.7818608E-02  0.1333489E+00
          2   -1    0    0  501    0  0.00000000000E+00  0.00000000000E+00  0.63188629126E+03  0.63188629127E+03  0.25500000000E-02 0. -1.
         -1   -1    0    0    0  501 -0.00000000000E+00 -0.00000000000E+00 -0.24353524881E+01  0.24353577033E+01  0.50400000000E-02 0.  1.
         24    2    1    2    0    0  0.00000000000E+00  0.35527136788E-14  0.62945093877E+03  0.63432164897E+03  0.78456803588E+02 0.  0.
         66    2    3    3    0    0 -0.94431171189E+01 -0.27948300223E+02  0.52366953079E+03  0.52450362957E+03  0.20000015328E+01 0.  0.
        -13    1    3    3    0    0  0.94431171189E+01  0.27948300223E+02  0.10578140798E+03  0.10981801940E+03  0.10566000000E+00 0.  1.
         13    1    4    4    0    0 -0.21904888521E+01 -0.68971686572E+01  0.12275700296E+03  0.12297016759E+03  0.10566000000E+00 0. -1.
        -13    1    4    4    0    0 -0.33297282359E+01 -0.10809443243E+02  0.21605486770E+03  0.21635075265E+03  0.10566000000E+00 0.  1.
        -14    1    4    4    0    0 -0.39229000309E+01 -0.10241688323E+02  0.18485766014E+03  0.18518270933E+03  0.00000000000E+00 0.  1.
<mgrwt>
<rscale>  0 0.78456804E+02</rscale>
<asrwt>0</asrwt>
<pdfrwt beam="1">  1        2 0.97213425E-01 0.78456804E+02</pdfrwt>
<pdfrwt beam="2">  1       -1 0.37466944E-03 0.78456804E+02</pdfrwt>
<totfact> 0.34311423E+05</totfact>
</mgrwt>
</event>
<event>
 8    1  0.1226832E-016  0.8138038E+02  0.7818608E-02  0.1325179E+00
         -1   -1    0    0    0  501 -0.00000000000E+00  0.00000000000E+00  0.44464764136E+01  0.44464792700E+01  0.50400000000E-02 0.  1.
          2   -1    0    0  501    0  0.00000000000E+00 -0.00000000000E+00 -0.37236025555E+03  0.37236025556E+03  0.25500000000E-02 0. -1.
         24    2    1    2    0    0  0.44408920985E-15 -0.35527136788E-14 -0.36791377914E+03  0.37680673483E+03  0.81380381751E+02 0.  0.
         66    2    3    3    0    0  0.19301599681E+01 -0.21563091409E+02 -0.34345620979E+03  0.34414366254E+03  0.19999998048E+01 0.  0.
        -13    1    3    3    0    0 -0.19301599681E+01  0.21563091409E+02 -0.24457569353E+02  0.32663072289E+02  0.10566000000E+00 0.  1.
         13    1    4    4    0    0  0.61744907182E+00 -0.15089095268E+02 -0.23529574093E+03  0.23577989503E+03  0.10566000000E+00 0. -1.
        -13    1    4    4    0    0  0.12809373199E+01 -0.55319485719E+01 -0.90259110172E+02  0.90437610476E+02  0.10566000000E+00 0.  1.
        -14    1    4    4    0    0  0.31773576315E-01 -0.94204756945E+00 -0.17901358689E+02  0.17926157037E+02  0.00000000000E+00 0.  1.
<mgrwt>
<rscale>  0 0.81380382E+02</rscale>
<asrwt>0</asrwt>
<pdfrwt beam="1">  1        2 0.57286169E-01 0.81380382E+02</pdfrwt>
<pdfrwt beam="2">  1       -1 0.68407381E-03 0.81380382E+02</pdfrwt>
<totfact> 0.26343063E+05</totfact>
</mgrwt>
</event>
<event>
 8    1  0.1226832E-016  0.7985269E+02  0.7818608E-02  0.1329470E+00
          2   -1    0    0  501    0  0.00000000000E+00  0.00000000000E+00  0.56682947640E+02  0.56682947697E+02  0.25500000000E-02 0. -1.
         -1   -1    0    0    0  501 -0.00000000000E+00 -0.00000000000E+00 -0.28123323551E+02  0.28123324002E+02  0.50400000000E-02 0.  1.
         24    2    1    2    0    0  0.00000000000E+00  0.00000000000E+00  0.28559624089E+02  0.84806271699E+02  0.79852686814E+02 0.  0.
         66    2    3    3    0    0 -0.20047735923E+02 -0.31475186584E+02  0.29289721301E+02  0.47481436909E+02  0.19999977389E+01 0.  0.
        -13    1    3    3    0    0  0.20047735923E+02  0.31475186584E+02 -0.73009721191E+00  0.37324834790E+02  0.10566000000E+00 0.  1.
         13    1    4    4    0    0 -0.16504039720E+02 -0.26274570344E+02  0.23545731443E+02  0.38950597005E+02  0.10566000000E+00 0. -1.
        -13    1    4    4    0    0 -0.31574711967E+01 -0.44040593870E+01  0.48612357446E+01  0.72806689557E+01  0.10566000000E+00 0.  1.
         14    1    4    4    0    0 -0.38622500578E+00 -0.79655685348E+00  0.88275411373E+00  0.12501709488E+01  0.00000000000E+00 0. -1.
<mgrwt>
<rscale>  0 0.79852687E+02</rscale>
<asrwt>0</asrwt>
<pdfrwt beam="1">  1        2 0.87204535E-02 0.79852687E+02</pdfrwt>
<pdfrwt beam="2">  1       -1 0.43266652E-02 0.79852687E+02</pdfrwt>
<totfact> 0.15442409E+05</totfact>
</mgrwt>
</event>
<event>
 8    1  0.1226832E-016  0.7868573E+02  0.7818608E-02  0.1332823E+00
          2   -1    0    0  501    0  0.00000000000E+00  0.00000000000E+00  0.25796479124E+03  0.25796479125E+03  0.25500000000E-02 0. -1.
         -1   -1    0    0    0  501 -0.00000000000E+00 -0.00000000000E+00 -0.60002784890E+01  0.60002806057E+01  0.50400000000E-02 0.  1.
         24    2    1    2    0    0  0.17763568394E-14  0.71054273576E-14  0.25196451275E+03  0.26396507186E+03  0.78685725995E+02 0.  0.
         66    2    3    3    0    0 -0.98348036792E+01 -0.19629050334E+02  0.23548103096E+03  0.23651075860E+03  0.20000030558E+01 0.  0.
        -13    1    3    3    0    0  0.98348036792E+01  0.19629050334E+02  0.16483481793E+02  0.27454313258E+02  0.10566000000E+00 0.  1.
         13    1    4    4    0    0 -0.31190514879E+00 -0.45532566213E+00  0.90026979391E+01  0.90202184285E+01  0.10566000000E+00 0. -1.
        -13    1    4    4    0    0 -0.48228238198E+00 -0.88575077420E+00  0.87534013745E+01  0.88119436215E+01  0.10566000000E+00 0.  1.
         14    1    4    4    0    0 -0.90406161484E+01 -0.18287973897E+02  0.21772493165E+03  0.21867859655E+03  0.00000000000E+00 0. -1.
<mgrwt>
<rscale>  0 0.78685726E+02</rscale>
<asrwt>0</asrwt>
<pdfrwt beam="1">  1        2 0.39686886E-01 0.78685726E+02</pdfrwt>
<pdfrwt beam="2">  1       -1 0.92312004E-03 0.78685726E+02</pdfrwt>
<totfact> 0.25211561E+05</totfact>
</mgrwt>
</event>
<event>
 8    1  0.1226832E-016  0.7844086E+02  0.7818608E-02  0.1333535E+00
         -1   -1    0    0    0  501 -0.00000000000E+00  0.00000000000E+00  0.51222380371E+01  0.51222405167E+01  0.50400000000E-02 0.  1.
          2   -1    0    0  501    0  0.00000000000E+00 -0.00000000000E+00 -0.30030659204E+03  0.30030659205E+03  0.25500000000E-02 0. -1.
         24    2    1    2    0    0  0.00000000000E+00  0.00000000000E+00 -0.29518435401E+03  0.30542883257E+03  0.78440862537E+02 0.  0.
         66    2    3    3    0    0 -0.84454057207E+01  0.20418244966E+02 -0.27373990593E+03  0.27463751687E+03  0.19999919928E+01 0.  0.
        -13    1    3    3    0    0  0.84454057207E+01 -0.20418244966E+02 -0.21444448072E+02  0.30791315698E+02  0.10566000000E+00 0.  1.
         13    1    4    4    0    0 -0.53670611726E+01  0.14828463318E+02 -0.20051390480E+03  0.20113310481E+03  0.10566000000E+00 0. -1.
        -13    1    4    4    0    0 -0.23905301658E+01  0.44280239340E+01 -0.59204942726E+02  0.59418502486E+02  0.10566000000E+00 0.  1.
         14    1    4    4    0    0 -0.68781438232E+00  0.11617577136E+01 -0.14021058411E+02  0.14085909576E+02  0.00000000000E+00 0. -1.
<mgrwt>
<rscale>  0 0.78440863E+02</rscale>
<asrwt>0</asrwt>
<pdfrwt beam="1">  1        2 0.46201000E-01 0.78440863E+02</pdfrwt>
<pdfrwt beam="2">  1       -1 0.78803705E-03 0.78440863E+02</pdfrwt>
<totfact> 0.26853118E+05</totfact>
</mgrwt>
</event>
<event>
 8    1  0.1226832E-016  0.8110241E+02  0.7818608E-02  0.1325952E+00
         -1   -1    0    0    0  501 -0.00000000000E+00  0.00000000000E+00  0.31943536032E+01  0.31943575793E+01  0.50400000000E-02 0.  1.
          2   -1    0    0  501    0  0.00000000000E+00 -0.00000000000E+00 -0.51478303505E+03  0.51478303506E+03  0.25500000000E-02 0. -1.
         24    2    1    2    0    0 -0.35527136788E-14  0.00000000000E+00 -0.51158868145E+03  0.51797739264E+03  0.81102406235E+02 0.  0.
         66    2    3    3    0    0 -0.25716306091E+02 -0.29658385186E+02 -0.32027692464E+03  0.32267980517E+03  0.20000003071E+01 0.  0.
        -13    1    3    3    0    0  0.25716306091E+02  0.29658385186E+02 -0.19131175681E+03  0.19529758746E+03  0.10566000000E+00 0.  1.
         13    1    4    4    0    0 -0.56767284664E+01 -0.58329846109E+01 -0.70312505329E+02  0.70782120096E+02  0.10566000000E+00 0. -1.
        -13    1    4    4    0    0 -0.98484322170E+01 -0.12439994527E+02 -0.12611909181E+03  0.12711326274E+03  0.10566000000E+00 0.  1.
        -14    1    4    4    0    0 -0.10191145407E+02 -0.11385406047E+02 -0.12384532750E+03  0.12478442234E+03  0.00000000000E+00 0.  1.
<mgrwt>
<rscale>  0 0.81102406E+02</rscale>
<asrwt>0</asrwt>
<pdfrwt beam="1">  1        2 0.79197324E-01 0.81102406E+02</pdfrwt>
<pdfrwt beam="2">  1       -1 0.49143973E-03 0.81102406E+02</pdfrwt>
<totfact> 0.29655629E+05</totfact>
</mgrwt>
</event>
<event>
 8    1  0.1226832E-016  0.7840789E+02  0.7818608E-02  0.1333631E+00
          2   -1    0    0  501    0  0.00000000000E+00  0.00000000000E+00  0.18327535796E+03  0.18327535798E+03  0.25500000000E-02 0. -1.
         -1   -1    0    0    0  501 -0.00000000000E+00 -0.00000000000E+00 -0.83860118613E+01  0.83860133758E+01  0.50400000000E-02 0.  1.
         24    2    1    2    0    0 -0.88817841970E-15 -0.35527136788E-14  0.17488934610E+03  0.19166137136E+03  0.78407894311E+02 0.  0.
         66    2    3    3    0    0  0.61998258096E+01  0.21194897287E+02  0.16660693702E+03  0.16807597385E+03  0.20000032872E+01 0.  0.
        -13    1    3    3    0    0 -0.61998258096E+01 -0.21194897287E+02  0.82824090822E+01  0.23585397502E+02  0.10566000000E+00 0.  1.
         13    1    4    4    0    0  0.85393675771E+00  0.43230927500E+01  0.30739502772E+02  0.31053929439E+02  0.10566000000E+00 0.  1.
        -13    1    4    4    0    0  0.24816068196E+01  0.78015879014E+01  0.57687472552E+02  0.58265588470E+02  0.10566000000E+00 0. -1.
         14    1    4    4    0    0  0.28642822323E+01  0.90702166355E+01  0.78179961695E+02  0.78756455946E+02  0.00000000000E+00 0. -1.
<mgrwt>
<rscale>  0 0.78407894E+02</rscale>
<asrwt>0</asrwt>
<pdfrwt beam="1">  1        2 0.28196207E-01 0.78407894E+02</pdfrwt>
<pdfrwt beam="2">  1       -1 0.12901559E-02 0.78407894E+02</pdfrwt>
<totfact> 0.22572033E+05</totfact>
</mgrwt>
</event>
<event>
 8    1  0.1226832E-016  0.8086863E+02  0.7818608E-02  0.1326604E+00
          2   -1    0    0  501    0  0.00000000000E+00  0.00000000000E+00  0.23621071557E+02  0.23621071695E+02  0.25500000000E-02 0. -1.
         -1   -1    0    0    0  501 -0.00000000000E+00 -0.00000000000E+00 -0.69215065111E+02  0.69215065294E+02  0.50400000000E-02 0.  1.
         24    2    1    2    0    0  0.35527136788E-14  0.35527136788E-14 -0.45593993554E+02  0.92836136990E+02  0.80868634729E+02 0.  0.
         66    2    3    3    0    0 -0.20002234992E+02 -0.31327087175E+02 -0.46069539850E+01  0.37505997173E+02  0.20000008391E+01 0.  0.
        -13    1    3    3    0    0  0.20002234992E+02  0.31327087175E+02 -0.40987039569E+02  0.55330139817E+02  0.10566000000E+00 0.  1.
         13    1    4    4    0    0 -0.63216070961E+01 -0.96763061982E+01 -0.22839544458E+01  0.11782242141E+02  0.10566000000E+00 0. -1.
        -13    1    4    4    0    0 -0.78869184291E+00 -0.13641028622E+01 -0.49371674897E-01  0.15800041265E+01  0.10566000000E+00 0. -1.
         14    1    4    4    0    0 -0.12891936053E+02 -0.20286678115E+02 -0.22736278643E+01  0.24143750905E+02  0.00000000000E+00 0. -1.
<mgrwt>
<rscale>  0 0.80868635E+02</rscale>
<asrwt>0</asrwt>
<pdfrwt beam="1">  1        2 0.36340111E-02 0.80868635E+02</pdfrwt>
<pdfrwt beam="2">  1       -1 0.10648471E-01 0.80868635E+02</pdfrwt>
<totfact> 0.12447360E+05</totfact>
</mgrwt>
</event>
<event>
 8    1  0.1226832E-016  0.7950159E+02  0.7818608E-02  0.1330472E+00
         -1   -1    0    0    0  501 -0.00000000000E+00  0.00000000000E+00  0.43054474285E+01  0.43054503784E+01  0.50400000000E-02 0.  1.
          2   -1    0    0  501    0  0.00000000000E+00 -0.00000000000E+00 -0.36700605780E+03  0.36700605781E+03  0.25500000000E-02 0. -1.
         24    2    1    2    0    0  0.00000000000E+00  0.00000000000E+00 -0.36270061037E+03  0.37131150819E+03  0.79501593370E+02 0.  0.
         66    2    3    3    0    0  0.91885096063E+01  0.74854923338E+01 -0.35855335586E+03  0.35875474952E+03  0.19999999215E+01 0.  0.
        -13    1    3    3    0    0 -0.91885096063E+01 -0.74854923338E+01 -0.41472545133E+01  0.12556758670E+02  0.10566000000E+00 0.  1.
         13    1    4    4    0    0  0.54051643704E+01  0.48384546755E+01 -0.20779934288E+03  0.20792595921E+03  0.10566000000E+00 0. -1.
        -13    1    4    4    0    0 -0.25062685108E-01  0.16486549289E+00 -0.49720403271E+01  0.49759579800E+01  0.10566000000E+00 0.  1.
         14    1    4    4    0    0  0.38084079211E+01  0.24821721653E+01 -0.14578197265E+03  0.14585283233E+03  0.00000000000E+00 0. -1.
<mgrwt>
<rscale>  0 0.79501593E+02</rscale>
<asrwt>0</asrwt>
<pdfrwt beam="1">  1        2 0.56462446E-01 0.79501593E+02</pdfrwt>
<pdfrwt beam="2">  1       -1 0.66237705E-03 0.79501593E+02</pdfrwt>
<totfact> 0.27859716E+05</totfact>
</mgrwt>
</event>
<event>
 8    1  0.1226832E-016  0.7995391E+02  0.7818608E-02  0.1329182E+00
         -1   -1    0    0    0  501 -0.00000000000E+00  0.00000000000E+00  0.14273872020E+02  0.14273872910E+02  0.50400000000E-02 0.  1.
          2   -1    0    0  501    0  0.00000000000E+00 -0.00000000000E+00 -0.11196380743E+03  0.11196380746E+03  0.25500000000E-02 0. -1.
         24    2    1    2    0    0  0.00000000000E+00  0.71054273576E-14 -0.97689935409E+02  0.12623768037E+03  0.79953914630E+02 0.  0.
         66    2    3    3    0    0 -0.10574160096E+02  0.38410557326E+02 -0.44147131585E+02  0.59499184872E+02  0.19999993367E+01 0.  0.
        -13    1    3    3    0    0  0.10574160096E+02 -0.38410557326E+02 -0.53542803824E+02  0.66738495497E+02  0.10566000000E+00 0.  1.
         13    1    4    4    0    0 -0.21587746626E+01  0.68585008155E+01 -0.77896656309E+01  0.10601386521E+02  0.10566000000E+00 0. -1.
        -13    1    4    4    0    0 -0.71730261715E+00  0.17782234596E+01 -0.26049501086E+01  0.32362834889E+01  0.10566000000E+00 0.  1.
        -14    1    4    4    0    0 -0.76980828166E+01  0.29773833051E+02 -0.33752515846E+02  0.45661514862E+02  0.00000000000E+00 0.  1.
<mgrwt>
<rscale>  0 0.79953915E+02</rscale>
<asrwt>0</asrwt>
<pdfrwt beam="1">  1        2 0.17225201E-01 0.79953915E+02</pdfrwt>
<pdfrwt beam="2">  1       -1 0.21959805E-02 0.79953915E+02</pdfrwt>
<totfact> 0.18335964E+05</totfact>
</mgrwt>
</event>
<event>
 8    1  0.1226832E-016  0.8082199E+02  0.7818608E-02  0.1326735E+00
         -1   -1    0    0    0  501 -0.00000000000E+00  0.00000000000E+00  0.27124321479E+01  0.27124368304E+01  0.50400000000E-02 0.  1.
          2   -1    0    0  501    0  0.00000000000E+00 -0.00000000000E+00 -0.60206014502E+03  0.60206014503E+03  0.25500000000E-02 0. -1.
         24    2    1    2    0    0 -0.44408920985E-15  0.00000000000E+00 -0.59934771288E+03  0.60477258186E+03  0.80821994776E+02 0.  0.
         66    2    3    3    0    0  0.29159894770E+01  0.11582393927E+02 -0.58853953690E+03  0.58866411590E+03  0.20000016897E+01 0.  0.
        -13    1    3    3    0    0 -0.29159894770E+01 -0.11582393927E+02 -0.10808175977E+02  0.16108465963E+02  0.10566000000E+00 0.  1.
         13    1    4    4    0    0  0.14021050633E+01  0.50037223004E+01 -0.21999869841E+03  0.22006008634E+03  0.10566000000E+00 0. -1.
        -13    1    4    4    0    0  0.10213207073E+01  0.23274962363E+01 -0.14114898020E+03  0.14117190269E+03  0.10566000000E+00 0.  1.
         14    1    4    4    0    0  0.49256370643E+00  0.42511753903E+01 -0.22739185829E+03  0.22743212686E+03  0.00000000000E+00 0. -1.
<mgrwt>
<rscale>  0 0.80821995E+02</rscale>
<asrwt>0</asrwt>
<pdfrwt beam="1">  1        2 0.92624531E-01 0.80821995E+02</pdfrwt>
<pdfrwt beam="2">  1       -1 0.41729810E-03 0.80821995E+02</pdfrwt>
<totfact> 0.31348666E+05</totfact>
</mgrwt>
</event>
<event>
 8    1  0.1226832E-016  0.7907071E+02  0.7818608E-02  0.1331710E+00
         -1   -1    0    0    0  501 -0.00000000000E+00  0.00000000000E+00  0.45182895173E+01  0.45182923283E+01  0.50400000000E-02 0.  1.
          2   -1    0    0  501    0  0.00000000000E+00 -0.00000000000E+00 -0.34593703094E+03  0.34593703095E+03  0.25500000000E-02 0. -1.
         24    2    1    2    0    0  0.00000000000E+00 -0.35527136788E-14 -0.34141874142E+03  0.35045532328E+03  0.79070706453E+02 0.  0.
         66    2    3    3    0    0 -0.16105335850E+02 -0.21376862288E+02 -0.29963284902E+03  0.30083250542E+03  0.20000054425E+01 0.  0.
        -13    1    3    3    0    0  0.16105335850E+02  0.21376862288E+02 -0.41785892401E+02  0.49622817855E+02  0.10566000000E+00 0.  1.
         13    1    4    4    0    0 -0.67126446635E+01 -0.83723743080E+01 -0.12895159882E+03  0.12939738117E+03  0.10566000000E+00 0. -1.
        -13    1    4    4    0    0 -0.19675181647E+01 -0.26321865663E+01 -0.32024498973E+02  0.32192844427E+02  0.10566000000E+00 0.  1.
         14    1    4    4    0    0 -0.74251730221E+01 -0.10372301413E+02 -0.13865675122E+03  0.13924227983E+03  0.00000000000E+00 0. -1.
<mgrwt>
<rscale>  0 0.79070706E+02</rscale>
<asrwt>0</asrwt>
<pdfrwt beam="1">  1        2 0.53221061E-01 0.79070706E+02</pdfrwt>
<pdfrwt beam="2">  1       -1 0.69512196E-03 0.79070706E+02</pdfrwt>
<totfact> 0.27670132E+05</totfact>
</mgrwt>
</event>
<event>
 8    1  0.1226832E-016  0.7899558E+02  0.7818608E-02  0.1331926E+00
         -1   -1    0    0    0  501 -0.00000000000E+00  0.00000000000E+00  0.38231448340E+01  0.38231481561E+01  0.50400000000E-02 0.  1.
          2   -1    0    0  501    0  0.00000000000E+00 -0.00000000000E+00 -0.40806059932E+03  0.40806059933E+03  0.25500000000E-02 0. -1.
         24    2    1    2    0    0  0.00000000000E+00  0.35527136788E-14 -0.40423745448E+03  0.41188374748E+03  0.78995581093E+02 0.  0.
         66    2    3    3    0    0 -0.88327112585E+01 -0.31730886267E+02 -0.31566966842E+03  0.31738967453E+03  0.20000009911E+01 0.  0.
        -13    1    3    3    0    0  0.88327112585E+01  0.31730886267E+02 -0.88567786062E+02  0.94494072954E+02  0.10566000000E+00 0.  1.
         13    1    4    4    0    0 -0.33971682039E+01 -0.13666889792E+02 -0.12696757070E+03  0.12774623205E+03  0.10566000000E+00 0. -1.
        -13    1    4    4    0    0 -0.32090026606E+01 -0.10729344163E+02 -0.11462665117E+03  0.11517246566E+03  0.10566000000E+00 0.  1.
         14    1    4    4    0    0 -0.22265403940E+01 -0.73346523114E+01 -0.74075446550E+02  0.74470976818E+02  0.00000000000E+00 0. -1.
<mgrwt>
<rscale>  0 0.78995581E+02</rscale>
<asrwt>0</asrwt>
<pdfrwt beam="1">  1        2 0.62778519E-01 0.78995581E+02</pdfrwt>
<pdfrwt beam="2">  1       -1 0.58817671E-03 0.78995581E+02</pdfrwt>
<totfact> 0.29404622E+05</totfact>
</mgrwt>
</event>
<event>
 8    1  0.1226832E-016  0.7766736E+02  0.7818608E-02  0.1335805E+00
          2   -1    0    0  501    0  0.00000000000E+00  0.00000000000E+00  0.28392518925E+03  0.28392518926E+03  0.25500000000E-02 0. -1.
         -1   -1    0    0    0  501 -0.00000000000E+00 -0.00000000000E+00 -0.53114500840E+01  0.53114524752E+01  0.50400000000E-02 0.  1.
         24    2    1    2    0    0 -0.17763568394E-14  0.71054273576E-14  0.27861373917E+03  0.28923664174E+03  0.77667362972E+02 0.  0.
         66    2    3    3    0    0 -0.92709678906E+01  0.37384311399E+02  0.15706850786E+03  0.16173451625E+03  0.20000008265E+01 0.  0.
        -13    1    3    3    0    0  0.92709678906E+01 -0.37384311399E+02  0.12154523131E+03  0.12750212548E+03  0.10566000000E+00 0.  1.
         13    1    4    4    0    0 -0.18680478291E+01  0.55578535347E+01  0.22671583287E+02  0.23417753764E+02  0.10566000000E+00 0. -1.
        -13    1    4    4    0    0 -0.39186308665E+00  0.95348944363E+00  0.43329899776E+01  0.44551840567E+01  0.10566000000E+00 0.  1.
         14    1    4    4    0    0 -0.70110569748E+01  0.30872968421E+02  0.13006393459E+03  0.13386157843E+03  0.00000000000E+00 0. -1.
<mgrwt>
<rscale>  0 0.77667363E+02</rscale>
<asrwt>0</asrwt>
<pdfrwt beam="1">  1        2 0.43680807E-01 0.77667363E+02</pdfrwt>
<pdfrwt beam="2">  1       -1 0.81714620E-03 0.77667363E+02</pdfrwt>
<totfact> 0.27005489E+05</totfact>
</mgrwt>
</event>
<event>
 8    1  0.1226832E-016  0.8031764E+02  0.7818608E-02  0.1328152E+00
         -1   -1    0    0    0  501 -0.00000000000E+00  0.00000000000E+00  0.14131644902E+01  0.14131734777E+01  0.50400000000E-02 0.  1.
          2   -1    0    0  501    0  0.00000000000E+00 -0.00000000000E+00 -0.11412158868E+04  0.11412158868E+04  0.25500000000E-02 0. -1.
         24    2    1    2    0    0 -0.35527136788E-14 -0.17763568394E-14 -0.11398027223E+04  0.11426290603E+04  0.80317641977E+02 0.  0.
         66    2    3    3    0    0 -0.23650971464E+02 -0.86295405053E+01 -0.10149022375E+04  0.10152164248E+04  0.19999997276E+01 0.  0.
        -13    1    3    3    0    0  0.23650971464E+02  0.86295405053E+01 -0.12490048480E+03  0.12741263551E+03  0.10566000000E+00 0.  1.
         13    1    4    4    0    0 -0.95253046277E+01 -0.34989753356E+01 -0.41967671047E+03  0.41979938867E+03  0.10566000000E+00 0. -1.
        -13    1    4    4    0    0 -0.13084237449E+02 -0.50065509206E+01 -0.54100843336E+03  0.54118979938E+03  0.10566000000E+00 0.  1.
        -14    1    4    4    0    0 -0.10414293873E+01 -0.12401424914E+00 -0.54217093695E+02  0.54227236731E+02  0.00000000000E+00 0.  1.
<mgrwt>
<rscale>  0 0.80317642E+02</rscale>
<asrwt>0</asrwt>
<pdfrwt beam="1">  1        2 0.17557094E+00 0.80317642E+02</pdfrwt>
<pdfrwt beam="2">  1       -1 0.21741153E-03 0.80317642E+02</pdfrwt>
<totfact> 0.34830368E+05</totfact>
</mgrwt>
</event>
<event>
 8    1  0.1226832E-016  0.7617133E+02  0.7818608E-02  0.1340282E+00
         -1   -1    0    0    0  501 -0.00000000000E+00  0.00000000000E+00  0.13297132954E+02  0.13297133909E+02  0.50400000000E-02 0.  1.
          2   -1    0    0  501    0  0.00000000000E+00 -0.00000000000E+00 -0.10908500923E+03  0.10908500926E+03  0.25500000000E-02 0. -1.
         24    2    1    2    0    0  0.00000000000E+00  0.00000000000E+00 -0.95787876272E+02  0.12238214316E+03  0.76171331384E+02 0.  0.
         66    2    3    3    0    0  0.15457730919E+02  0.16882829115E+02 -0.96779697391E+02  0.99470001465E+02  0.20000000638E+01 0.  0.
        -13    1    3    3    0    0 -0.15457730919E+02 -0.16882829115E+02  0.99182111865E+00  0.22912141700E+02  0.10566000000E+00 0.  1.
         13    1    4    4    0    0  0.77115526917E+01  0.72910372733E+01 -0.42553503457E+02  0.43857030109E+02  0.10566000000E+00 0. -1.
        -13    1    4    4    0    0  0.66959654727E+00  0.98692851169E+00 -0.56725442043E+01  0.57975261284E+01  0.10566000000E+00 0.  1.
         14    1    4    4    0    0  0.70765816797E+01  0.86048633304E+01 -0.48553649729E+02  0.49815445228E+02  0.00000000000E+00 0. -1.
<mgrwt>
<rscale>  0 0.76171331E+02</rscale>
<asrwt>0</asrwt>
<pdfrwt beam="1">  1        2 0.16782309E-01 0.76171331E+02</pdfrwt>
<pdfrwt beam="2">  1       -1 0.20457129E-02 0.76171331E+02</pdfrwt>
<totfact> 0.20707106E+05</totfact>
</mgrwt>
</event>
<event>
 8    1  0.1226832E-016  0.7999470E+02  0.7818608E-02  0.1329066E+00
          2   -1    0    0  501    0  0.00000000000E+00  0.00000000000E+00  0.14033729677E+03  0.14033729679E+03  0.25500000000E-02 0. -1.
         -1   -1    0    0    0  501 -0.00000000000E+00 -0.00000000000E+00 -0.11399592890E+02  0.11399594004E+02  0.50400000000E-02 0.  1.
         24    2    1    2    0    0  0.00000000000E+00  0.00000000000E+00  0.12893770388E+03  0.15173689080E+03  0.79994703244E+02 0.  0.
         66    2    3    3    0    0  0.23447506938E+02 -0.22386609202E+02  0.10886571699E+03  0.11360761497E+03  0.19999976438E+01 0.  0.
        -13    1    3    3    0    0 -0.23447506938E+02  0.22386609202E+02  0.20071986886E+02  0.38129275823E+02  0.10566000000E+00 0.  1.
         13    1    4    4    0    0  0.21566681380E+02 -0.20249369085E+02  0.99283879735E+02  0.10359758025E+03  0.10566000000E+00 0. -1.
        -13    1    4    4    0    0  0.16730749014E+00 -0.68911465536E-01  0.76305586627E+00  0.79130201376E+00  0.10566000000E+00 0. -1.
         14    1    4    4    0    0  0.17135180677E+01 -0.20683286516E+01  0.88187813904E+01  0.92187327107E+01  0.00000000000E+00 0. -1.
<mgrwt>
<rscale>  0 0.79994703E+02</rscale>
<asrwt>0</asrwt>
<pdfrwt beam="1">  1        2 0.21590354E-01 0.79994703E+02</pdfrwt>
<pdfrwt beam="2">  1       -1 0.17537836E-02 0.79994703E+02</pdfrwt>
<totfact> 0.19612474E+05</totfact>
</mgrwt>
</event>
<event>
 8    1  0.1226832E-016  0.7865026E+02  0.7818608E-02  0.1332926E+00
         -1   -1    0    0    0  501 -0.00000000000E+00  0.00000000000E+00  0.50227833157E+01  0.50227858444E+01  0.50400000000E-02 0.  1.
          2   -1    0    0  501    0  0.00000000000E+00 -0.00000000000E+00 -0.30789017425E+03  0.30789017426E+03  0.25500000000E-02 0. -1.
         24    2    1    2    0    0  0.17763568394E-14 -0.35527136788E-14 -0.30286739093E+03  0.31291296010E+03  0.78650264528E+02 0.  0.
         66    2    3    3    0    0  0.98644730617E+01 -0.30520486134E+02 -0.24187594795E+03  0.24400160266E+03  0.20000011688E+01 0.  0.
        -13    1    3    3    0    0 -0.98644730617E+01  0.30520486134E+02 -0.60991442986E+02  0.68911357440E+02  0.10566000000E+00 0.  1.
         13    1    4    4    0    0  0.39252846535E+01 -0.11955831223E+02 -0.10199770620E+03  0.10277107081E+03  0.10566000000E+00 0. -1.
        -13    1    4    4    0    0  0.75534790399E+00 -0.28002629131E+01 -0.20980155398E+02  0.21179945878E+02  0.10566000000E+00 0.  1.
         14    1    4    4    0    0  0.51838405042E+01 -0.15764391998E+02 -0.11889808634E+03  0.12005058598E+03  0.00000000000E+00 0. -1.
<mgrwt>
<rscale>  0 0.78650265E+02</rscale>
<asrwt>0</asrwt>
<pdfrwt beam="1">  1        2 0.47367704E-01 0.78650265E+02</pdfrwt>
<pdfrwt beam="2">  1       -1 0.77273634E-03 0.78650265E+02</pdfrwt>
<totfact> 0.26907750E+05</totfact>
</mgrwt>
</event>
<event>
 8    1  0.1226832E-016  0.7827688E+02  0.7818608E-02  0.1334014E+00
          2   -1    0    0  501    0  0.00000000000E+00  0.00000000000E+00  0.54572572431E+03  0.54572572432E+03  0.25500000000E-02 0. -1.
         -1   -1    0    0    0  501 -0.00000000000E+00 -0.00000000000E+00 -0.28069341058E+01  0.28069386306E+01  0.50400000000E-02 0.  1.
         24    2    1    2    0    0  0.00000000000E+00  0.00000000000E+00  0.54291879021E+03  0.54853266295E+03  0.78276877573E+02 0.  0.
         66    2    3    3    0    0  0.29848858306E+02  0.20471545558E+02  0.37552213099E+03  0.37726768930E+03  0.20000007984E+01 0.  0.
        -13    1    3    3    0    0 -0.29848858306E+02 -0.20471545558E+02  0.16739665921E+03  0.17126497365E+03  0.10566000000E+00 0.  1.
         13    1    4    4    0    0  0.23724427851E+02  0.17106755654E+02  0.30381091026E+03  0.30521561218E+03  0.10566000000E+00 0. -1.
        -13    1    4    4    0    0  0.11870397168E+01  0.79897266297E+00  0.14184995822E+02  0.14257373219E+02  0.10566000000E+00 0.  1.
         14    1    4    4    0    0  0.49373907380E+01  0.25658172415E+01  0.57526224913E+02  0.57794703894E+02  0.00000000000E+00 0. -1.
<mgrwt>
<rscale>  0 0.78276878E+02</rscale>
<asrwt>0</asrwt>
<pdfrwt beam="1">  1        2 0.83957846E-01 0.78276878E+02</pdfrwt>
<pdfrwt beam="2">  1       -1 0.43183615E-03 0.78276878E+02</pdfrwt>
<totfact> 0.33112912E+05</totfact>
</mgrwt>
</event>
<event>
 8    1  0.1226832E-016  0.8006128E+02  0.7818608E-02  0.1328878E+00
         -1   -1    0    0    0  501 -0.00000000000E+00  0.00000000000E+00  0.80856727195E+02  0.80856727352E+02  0.50400000000E-02 0.  1.
          2   -1    0    0  501    0  0.00000000000E+00 -0.00000000000E+00 -0.19818414290E+02  0.19818414454E+02  0.25500000000E-02 0. -1.
         24    2    1    2    0    0  0.00000000000E+00  0.00000000000E+00  0.61038312905E+02  0.10067514181E+03  0.80061279875E+02 0.  0.
         66    2    3    3    0    0  0.84733224769E+01 -0.34556892857E+02  0.75407325066E+01  0.36425796982E+02  0.20000003273E+01 0.  0.
        -13    1    3    3    0    0 -0.84733224769E+01  0.34556892857E+02  0.53497580399E+02  0.64249344824E+02  0.10566000000E+00 0.  1.
         13    1    4    4    0    0  0.69986499959E+01 -0.29122271204E+02  0.60127088482E+01  0.30549167150E+02  0.10566000000E+00 0. -1.
        -13    1    4    4    0    0  0.95064544435E-01 -0.21405735125E+00 -0.24451262103E-01  0.25810795620E+00  0.10566000000E+00 0. -1.
         14    1    4    4    0    0  0.13796079366E+01 -0.52205643020E+01  0.15524749205E+01  0.56185218758E+01  0.00000000000E+00 0. -1.
<mgrwt>
<rscale>  0 0.80061280E+02</rscale>
<asrwt>0</asrwt>
<pdfrwt beam="1">  1        2 0.30489869E-02 0.80061280E+02</pdfrwt>
<pdfrwt beam="2">  1       -1 0.12439496E-01 0.80061280E+02</pdfrwt>
<totfact> 0.12365573E+05</totfact>
</mgrwt>
</event>
<event>
 8    1  0.1226832E-016  0.7959141E+02  0.7818608E-02  0.1330215E+00
          2   -1    0    0  501    0  0.00000000000E+00  0.00000000000E+00  0.65243770304E+02  0.65243770354E+02  0.25500000000E-02 0. -1.
         -1   -1    0    0    0  501 -0.00000000000E+00 -0.00000000000E+00 -0.24273554205E+02  0.24273554728E+02  0.50400000000E-02 0.  1.
         24    2    1    2    0    0  0.00000000000E+00  0.00000000000E+00  0.40970216100E+02  0.89517325082E+02  0.79591412116E+02 0.  0.
         66    2    3    3    0    0 -0.75619867353E+00 -0.13993964330E+02  0.62359170608E+02  0.63945828976E+02  0.20000025998E+01 0.  0.
        -13    1    3    3    0    0  0.75619867353E+00  0.13993964330E+02 -0.21388954508E+02  0.25571496106E+02  0.10566000000E+00 0.  1.
         13    1    4    4    0    0 -0.11790663547E+01 -0.65568210883E+01  0.28630245757E+02  0.29395309768E+02  0.10566000000E+00 0.  1.
        -13    1    4    4    0    0  0.92939192944E-01 -0.63850659822E+01  0.28922080782E+02  0.29618839040E+02  0.10566000000E+00 0. -1.
         14    1    4    4    0    0  0.32992848818E+00 -0.10520772598E+01  0.48068440693E+01  0.49316801675E+01  0.00000000000E+00 0. -1.
<mgrwt>
<rscale>  0 0.79591412E+02</rscale>
<asrwt>0</asrwt>
<pdfrwt beam="1">  1        2 0.10037503E-01 0.79591412E+02</pdfrwt>
<pdfrwt beam="2">  1       -1 0.37343931E-02 0.79591412E+02</pdfrwt>
<totfact> 0.16096935E+05</totfact>
</mgrwt>
</event>
<event>
 8    1  0.1226832E-016  0.7868819E+02  0.7818608E-02  0.1332816E+00
          2   -1    0    0  501    0  0.00000000000E+00  0.00000000000E+00  0.27474378407E+03  0.27474378408E+03  0.25500000000E-02 0. -1.
         -1   -1    0    0    0  501 -0.00000000000E+00 -0.00000000000E+00 -0.56341853433E+01  0.56341875976E+01  0.50400000000E-02 0.  1.
         24    2    1    2    0    0  0.00000000000E+00  0.00000000000E+00  0.26910959873E+03  0.28037797168E+03  0.78688187654E+02 0.  0.
         66    2    3    3    0    0 -0.13900268895E+02  0.19888009591E+02  0.24488072610E+03  0.24608803389E+03  0.20000019939E+01 0.  0.
        -13    1    3    3    0    0  0.13900268895E+02 -0.19888009591E+02  0.24228872629E+02  0.34289937792E+02  0.10566000000E+00 0.  1.
         13    1    4    4    0    0 -0.44904933131E+01  0.70251623704E+01  0.89792839483E+02  0.90179169563E+02  0.10566000000E+00 0. -1.
        -13    1    4    4    0    0 -0.49036093329E+01  0.71787289923E+01  0.79697079541E+02  0.80169914468E+02  0.10566000000E+00 0.  1.
        -14    1    4    4    0    0 -0.45061662488E+01  0.56841182281E+01  0.75390807075E+02  0.75738949859E+02  0.00000000000E+00 0.  1.
<mgrwt>
<rscale>  0 0.78688188E+02</rscale>
<asrwt>0</asrwt>
<pdfrwt beam="1">  1        2 0.42268275E-01 0.78688188E+02</pdfrwt>
<pdfrwt beam="2">  1       -1 0.86679792E-03 0.78688188E+02</pdfrwt>
<totfact> 0.25789562E+05</totfact>
</mgrwt>
</event>
<event>
 8    1  0.1290864E-016  0.7985346E+02  0.7818608E-02  0.1329468E+00
         -1   -1    0    0    0  501 -0.00000000000E+00  0.00000000000E+00  0.21686859135E+02  0.21686859720E+02  0.50400000000E-02 0.  1.
          2   -1    0    0  501    0  0.00000000000E+00 -0.00000000000E+00 -0.73507353072E+02  0.73507353116E+02  0.25500000000E-02 0. -1.
         24    2    1    2    0    0 -0.17763568394E-14  0.00000000000E+00 -0.51820493937E+02  0.95194212836E+02  0.79853456817E+02 0.  0.
         66    2    3    3    0    0 -0.94032406032E+01 -0.14712328966E+02 -0.68697595129E+02  0.70910035557E+02  0.20000021672E+01 0.  0.
        -13    1    3    3    0    0  0.94032406032E+01  0.14712328966E+02  0.16877101192E+02  0.24284177280E+02  0.10566000000E+00 0.  1.
         13    1    4    4    0    0 -0.50165826146E+01 -0.76784452481E+01 -0.37367837613E+02  0.38477150030E+02  0.10566000000E+00 0. -1.
        -13    1    4    4    0    0 -0.18034478330E+01 -0.40838626279E+01 -0.16725239885E+02  0.17311128539E+02  0.10566000000E+00 0.  1.
        -14    1    4    4    0    0 -0.25832101555E+01 -0.29500210903E+01 -0.14604517631E+02  0.15121756987E+02  0.00000000000E+00 0.  1.
<mgrwt>
<rscale>  0 0.79853457E+02</rscale>
<asrwt>0</asrwt>
<pdfrwt beam="1">  1        2 0.11308823E-01 0.79853457E+02</pdfrwt>
<pdfrwt beam="2">  1       -1 0.33364400E-02 0.79853457E+02</pdfrwt>
<totfact> 0.16423414E+05</totfact>
</mgrwt>
</event>
<event>
 8    1  0.1226832E-016  0.7172230E+02  0.7818608E-02  0.1354332E+00
          2   -1    0    0  501    0  0.00000000000E+00  0.00000000000E+00  0.32573933517E+01  0.32573943499E+01  0.25500000000E-02 0. -1.
         -1   -1    0    0    0  501 -0.00000000000E+00 -0.00000000000E+00 -0.39480093477E+03  0.39480093481E+03  0.50400000000E-02 0.  1.
         24    2    1    2    0    0  0.00000000000E+00  0.00000000000E+00 -0.39154354142E+03  0.39805832916E+03  0.71722301838E+02 0.  0.
         66    2    3    3    0    0 -0.13135332612E+02 -0.33322470339E+02 -0.20172680536E+03  0.20489174704E+03  0.20000032095E+01 0.  0.
        -13    1    3    3    0    0  0.13135332612E+02  0.33322470339E+02 -0.18981673606E+03  0.19316658212E+03  0.10566000000E+00 0.  1.
         13    1    4    4    0    0 -0.44688434432E+01 -0.11076803596E+02 -0.67607113690E+02  0.68654199618E+02  0.10566000000E+00 0. -1.
        -13    1    4    4    0    0 -0.16013386794E+01 -0.30743981701E+01 -0.17217920836E+02  0.17563717478E+02  0.10566000000E+00 0.  1.
        -14    1    4    4    0    0 -0.70651504890E+01 -0.19171268572E+02 -0.11690177083E+03  0.11867382994E+03  0.00000000000E+00 0.  1.
<mgrwt>
<rscale>  0 0.71722302E+02</rscale>
<asrwt>0</asrwt>
<pdfrwt beam="1">  1        2 0.50113783E-03 0.71722302E+02</pdfrwt>
<pdfrwt beam="2">  1       -1 0.60738568E-01 0.71722302E+02</pdfrwt>
<totfact> 0.10095146E+05</totfact>
</mgrwt>
</event>
<event>
 8    1  0.1226832E-016  0.8136039E+02  0.7818608E-02  0.1325235E+00
          2   -1    0    0  501    0  0.00000000000E+00  0.00000000000E+00  0.27176045535E+03  0.27176045536E+03  0.25500000000E-02 0. -1.
         -1   -1    0    0    0  501 -0.00000000000E+00 -0.00000000000E+00 -0.60894732356E+01  0.60894753213E+01  0.50400000000E-02 0.  1.
         24    2    1    2    0    0  0.71054273576E-14  0.44408920985E-15  0.26567098211E+03  0.27784993068E+03  0.81360391119E+02 0.  0.
         66    2    3    3    0    0 -0.22792655406E+02 -0.23555705274E+01  0.24760329340E+03  0.24866934823E+03  0.19999978729E+01 0.  0.
        -13    1    3    3    0    0  0.22792655406E+02  0.23555705274E+01  0.18067688710E+02  0.29180582453E+02  0.10566000000E+00 0.  1.
         13    1    4    4    0    0 -0.13927003629E+02 -0.70572781589E+00  0.15685466234E+03  0.15747334932E+03  0.10566000000E+00 0. -1.
        -13    1    4    4    0    0 -0.14920865075E+01 -0.30994361893E+00  0.15499887106E+02  0.15574981590E+02  0.10566000000E+00 0.  1.
         14    1    4    4    0    0 -0.73735652694E+01 -0.13398990926E+01  0.75248743953E+02  0.75621017322E+02  0.00000000000E+00 0. -1.
<mgrwt>
<rscale>  0 0.81360391E+02</rscale>
<asrwt>0</asrwt>
<pdfrwt beam="1">  1        2 0.41809297E-01 0.81360391E+02</pdfrwt>
<pdfrwt beam="2">  1       -1 0.93684228E-03 0.81360391E+02</pdfrwt>
<totfact> 0.23531577E+05</totfact>
</mgrwt>
</event>
<event>
 8    1  0.1226832E-016  0.8061092E+02  0.7818608E-02  0.1327327E+00
          2   -1    0    0  501    0  0.00000000000E+00  0.00000000000E+00  0.30379830754E+03  0.30379830756E+03  0.25500000000E-02 0. -1.
         -1   -1    0    0    0  501 -0.00000000000E+00 -0.00000000000E+00 -0.53473956865E+01  0.53473980617E+01  0.50400000000E-02 0.  1.
         24    2    1    2    0    0  0.22204460493E-15 -0.17763568394E-14  0.29845091186E+03  0.30914570562E+03  0.80610920554E+02 0.  0.
         66    2    3    3    0    0 -0.13281447574E+01  0.14588117861E+02  0.29321767084E+03  0.29359015591E+03  0.20000004896E+01 0.  0.
        -13    1    3    3    0    0  0.13281447574E+01 -0.14588117861E+02  0.52332410207E+01  0.15555549712E+02  0.10566000000E+00 0.  1.
         13    1    4    4    0    0 -0.13555797266E+01  0.13138810884E+02  0.26024262973E+03  0.26057763419E+03  0.10566000000E+00 0. -1.
        -13    1    4    4    0    0  0.29558402407E+00  0.69073723580E+00  0.14211141087E+02  0.14231380217E+02  0.10566000000E+00 0.  1.
         14    1    4    4    0    0 -0.26814905488E+00  0.75856974078E+00  0.18763900017E+02  0.18781141494E+02  0.00000000000E+00 0. -1.
<mgrwt>
<rscale>  0 0.80610921E+02</rscale>
<asrwt>0</asrwt>
<pdfrwt beam="1">  1        2 0.46738196E-01 0.80610921E+02</pdfrwt>
<pdfrwt beam="2">  1       -1 0.82267654E-03 0.80610921E+02</pdfrwt>
<totfact> 0.25104999E+05</totfact>
</mgrwt>
</event>
<event>
 8    1  0.1226832E-016  0.7973453E+02  0.7818608E-02  0.1329806E+00
          2   -1    0    0  501    0  0.00000000000E+00  0.00000000000E+00  0.12068239361E+03  0.12068239364E+03  0.25500000000E-02 0. -1.
         -1   -1    0    0    0  501 -0.00000000000E+00 -0.00000000000E+00 -0.13170096349E+02  0.13170097314E+02  0.50400000000E-02 0.  1.
         24    2    1    2    0    0  0.00000000000E+00  0.00000000000E+00  0.10751229726E+03  0.13385249095E+03  0.79734529981E+02 0.  0.
         66    2    3    3    0    0 -0.18560520436E+02 -0.65864072039E+01  0.11193105016E+03  0.11366808559E+03  0.20000032982E+01 0.  0.
        -13    1    3    3    0    0  0.18560520436E+02  0.65864072039E+01 -0.44187528951E+01  0.20184405364E+02  0.10566000000E+00 0.  1.
         13    1    4    4    0    0 -0.48861730962E+01 -0.11357032750E+01  0.31441983608E+02  0.31839817944E+02  0.10566000000E+00 0. -1.
        -13    1    4    4    0    0 -0.93275292463E+01 -0.37834349422E+01  0.57063391816E+02  0.57944447805E+02  0.10566000000E+00 0.  1.
         14    1    4    4    0    0 -0.43468180936E+01 -0.16672689866E+01  0.23425674731E+02  0.23883819837E+02  0.00000000000E+00 0. -1.
<mgrwt>
<rscale>  0 0.79734530E+02</rscale>
<asrwt>0</asrwt>
<pdfrwt beam="1">  1        2 0.18566522E-01 0.79734530E+02</pdfrwt>
<pdfrwt beam="2">  1       -1 0.20261688E-02 0.79734530E+02</pdfrwt>
<totfact> 0.18884912E+05</totfact>
</mgrwt>
</event>
<event>
 8    1  0.1226832E-016  0.7354646E+02  0.7818608E-02  0.1348432E+00
         -1   -1    0    0    0  501 -0.00000000000E+00  0.00000000000E+00  0.15870312437E+01  0.15870392465E+01  0.50400000000E-02 0.  1.
          2   -1    0    0  501    0  0.00000000000E+00 -0.00000000000E+00 -0.85207325968E+03  0.85207325968E+03  0.25500000000E-02 0. -1.
         24    2    1    2    0    0  0.00000000000E+00  0.00000000000E+00 -0.85048622844E+03  0.85366029893E+03  0.73546456135E+02 0.  0.
         66    2    3    3    0    0 -0.24491160788E+02  0.74423309474E+01 -0.73156594713E+03  0.73201635245E+03  0.19999997522E+01 0.  0.
        -13    1    3    3    0    0  0.24491160788E+02 -0.74423309474E+01 -0.11892028130E+03  0.12164394648E+03  0.10566000000E+00 0.  1.
         13    1    4    4    0    0 -0.12413948858E+02  0.31599633997E+01 -0.36589434337E+03  0.36611852339E+03  0.10566000000E+00 0. -1.
        -13    1    4    4    0    0 -0.76428953144E+00  0.18882105303E+00 -0.30613544223E+02  0.30623847665E+02  0.10566000000E+00 0.  1.
         14    1    4    4    0    0 -0.11312922398E+02  0.40935464947E+01 -0.33505805954E+03  0.33527398139E+03  0.00000000000E+00 0. -1.
<mgrwt>
<rscale>  0 0.73546456E+02</rscale>
<asrwt>0</asrwt>
<pdfrwt beam="1">  1        2 0.13108783E+00 0.73546456E+02</pdfrwt>
<pdfrwt beam="2">  1       -1 0.24415995E-03 0.73546456E+02</pdfrwt>
<totfact> 0.43139606E+05</totfact>
</mgrwt>
</event>
<event>
 8    1  0.1226832E-016  0.8103329E+02  0.7818608E-02  0.1326144E+00
          2   -1    0    0  501    0  0.00000000000E+00  0.00000000000E+00  0.10078137405E+03  0.10078137408E+03  0.25500000000E-02 0. -1.
         -1   -1    0    0    0  501 -0.00000000000E+00 -0.00000000000E+00 -0.16288710092E+02  0.16288710871E+02  0.50400000000E-02 0.  1.
         24    2    1    2    0    0  0.00000000000E+00  0.00000000000E+00  0.84492663955E+02  0.11707008495E+03  0.81033292714E+02 0.  0.
         66    2    3    3    0    0 -0.11453171672E+02  0.18903121555E+02  0.91287917899E+02  0.93946724769E+02  0.19999986696E+01 0.  0.
        -13    1    3    3    0    0  0.11453171672E+02 -0.18903121555E+02 -0.67952539435E+01  0.23123360181E+02  0.10566000000E+00 0.  1.
         13    1    4    4    0    0 -0.33723067625E+01  0.65283180292E+01  0.30102249401E+02  0.30986254569E+02  0.10566000000E+00 0. -1.
        -13    1    4    4    0    0 -0.59461977797E+01  0.98248299773E+01  0.49138008183E+02  0.50462258812E+02  0.10566000000E+00 0.  1.
        -14    1    4    4    0    0 -0.21346671294E+01  0.25499735491E+01  0.12047660315E+02  0.12498211389E+02  0.00000000000E+00 0.  1.
<mgrwt>
<rscale>  0 0.81033293E+02</rscale>
<asrwt>0</asrwt>
<pdfrwt beam="1">  1        2 0.15504827E-01 0.81033293E+02</pdfrwt>
<pdfrwt beam="2">  1       -1 0.25059555E-02 0.81033293E+02</pdfrwt>
<totfact> 0.17163886E+05</totfact>
</mgrwt>
</event>
<event>
 8    1  0.1226832E-016  0.8244959E+02  0.7818608E-02  0.1322240E+00
         -1   -1    0    0    0  501 -0.00000000000E+00  0.00000000000E+00  0.30302553126E+01  0.30302595039E+01  0.50400000000E-02 0.  1.
          2   -1    0    0  501    0  0.00000000000E+00 -0.00000000000E+00 -0.56083805698E+03  0.56083805698E+03  0.25500000000E-02 0. -1.
         24    2    1    2    0    0  0.00000000000E+00  0.00000000000E+00 -0.55780780166E+03  0.56386831648E+03  0.82449589082E+02 0.  0.
         66    2    3    3    0    0  0.47172869370E+01  0.38568584746E+02 -0.37276116037E+03  0.37478616729E+03  0.19999970968E+01 0.  0.
        -13    1    3    3    0    0 -0.47172869370E+01 -0.38568584746E+02 -0.18504664130E+03  0.18908214920E+03  0.10566000000E+00 0.  1.
         13    1    4    4    0    0  0.29490973022E+01  0.21258899180E+02 -0.20067751655E+03  0.20182198785E+03  0.10566000000E+00 0. -1.
        -13    1    4    4    0    0  0.31944289700E+00  0.98764261240E+00 -0.10758038484E+02  0.10808516909E+02  0.10566000000E+00 0. -1.
         14    1    4    4    0    0  0.14487467378E+01  0.16322042954E+02 -0.16132560533E+03  0.16215566253E+03  0.00000000000E+00 0. -1.
<mgrwt>
<rscale>  0 0.82449589E+02</rscale>
<asrwt>0</asrwt>
<pdfrwt beam="1">  1        2 0.86282696E-01 0.82449589E+02</pdfrwt>
<pdfrwt beam="2">  1       -1 0.46619389E-03 0.82449589E+02</pdfrwt>
<totfact> 0.29160221E+05</totfact>
</mgrwt>
</event>
<event>
 8    1  0.1226832E-016  0.8135020E+02  0.7818608E-02  0.1325263E+00
         -1   -1    0    0    0  501 -0.00000000000E+00  0.00000000000E+00  0.54140744600E+01  0.54140768059E+01  0.50400000000E-02 0.  1.
          2   -1    0    0  501    0  0.00000000000E+00 -0.00000000000E+00 -0.30558560755E+03  0.30558560756E+03  0.25500000000E-02 0. -1.
         24    2    1    2    0    0  0.00000000000E+00  0.00000000000E+00 -0.30017153309E+03  0.31099968437E+03  0.81350196057E+02 0.  0.
         66    2    3    3    0    0 -0.33001405375E+02 -0.19422943073E+02 -0.20233077828E+03  0.20593223964E+03  0.20000029670E+01 0.  0.
        -13    1    3    3    0    0  0.33001405375E+02  0.19422943073E+02 -0.97840754817E+02  0.10506744473E+03  0.10566000000E+00 0.  1.
         13    1    4    4    0    0 -0.21808394813E+02 -0.13592807042E+02 -0.13633783749E+03  0.13873855839E+03  0.10566000000E+00 0. -1.
        -13    1    4    4    0    0 -0.51276755647E+01 -0.30137388902E+01 -0.29734797234E+02  0.30324000550E+02  0.10566000000E+00 0.  1.
         14    1    4    4    0    0 -0.60653349972E+01 -0.28163971401E+01 -0.36258143550E+02  0.36869680703E+02  0.00000000000E+00 0. -1.
<mgrwt>
<rscale>  0 0.81350196E+02</rscale>
<asrwt>0</asrwt>
<pdfrwt beam="1">  1        2 0.47013157E-01 0.81350196E+02</pdfrwt>
<pdfrwt beam="2">  1       -1 0.83293495E-03 0.81350196E+02</pdfrwt>
<totfact> 0.24562809E+05</totfact>
</mgrwt>
</event>
<event>
 8    1  0.1226832E-016  0.8025987E+02  0.7818608E-02  0.1328316E+00
         -1   -1    0    0    0  501 -0.00000000000E+00  0.00000000000E+00  0.99758719358E+01  0.99758732090E+01  0.50400000000E-02 0.  1.
          2   -1    0    0  501    0  0.00000000000E+00 -0.00000000000E+00 -0.16143065375E+03  0.16143065377E+03  0.25500000000E-02 0. -1.
         24    2    1    2    0    0  0.00000000000E+00  0.00000000000E+00 -0.15145478181E+03  0.17140652697E+03  0.80259868904E+02 0.  0.
         66    2    3    3    0    0  0.17220524991E+02  0.24824812732E+02 -0.13209980478E+03  0.13552555558E+03  0.19999962882E+01 0.  0.
        -13    1    3    3    0    0 -0.17220524991E+02 -0.24824812732E+02 -0.19354977030E+02  0.35880971392E+02  0.10566000000E+00 0.  1.
         13    1    4    4    0    0  0.10112435579E+02  0.14944241315E+02 -0.81383265564E+02  0.83359695175E+02  0.10566000000E+00 0. -1.
        -13    1    4    4    0    0  0.98220492272E+00  0.15842134137E+01 -0.65188060404E+01  0.67808889445E+01  0.10566000000E+00 0.  1.
         14    1    4    4    0    0  0.61258844886E+01  0.82963580039E+01 -0.44197733175E+02  0.45384971464E+02  0.00000000000E+00 0. -1.
<mgrwt>
<rscale>  0 0.80259869E+02</rscale>
<asrwt>0</asrwt>
<pdfrwt beam="1">  1        2 0.24835483E-01 0.80259869E+02</pdfrwt>
<pdfrwt beam="2">  1       -1 0.15347498E-02 0.80259869E+02</pdfrwt>
<totfact> 0.20339235E+05</totfact>
</mgrwt>
</event>
<event>
 8    1  0.1226832E-016  0.8104140E+02  0.7818608E-02  0.1326122E+00
         -1   -1    0    0    0  501 -0.00000000000E+00  0.00000000000E+00  0.34412116057E+01  0.34412152965E+01  0.50400000000E-02 0.  1.
          2   -1    0    0  501    0  0.00000000000E+00 -0.00000000000E+00 -0.47713603456E+03  0.47713603456E+03  0.25500000000E-02 0. -1.
         24    2    1    2    0    0  0.88817841970E-15  0.71054273576E-14 -0.47369482295E+03  0.48057724986E+03  0.81041395549E+02 0.  0.
         66    2    3    3    0    0 -0.73297998061E+01 -0.38517549022E+02 -0.29705580520E+03  0.29963891422E+03  0.19999911490E+01 0.  0.
        -13    1    3    3    0    0  0.73297998061E+01  0.38517549022E+02 -0.17663901775E+03  0.18093833564E+03  0.10566000000E+00 0.  1.
         13    1    4    4    0    0 -0.50294651343E+01 -0.26206041920E+02 -0.20887312117E+03  0.21057075786E+03  0.10566000000E+00 0. -1.
        -13    1    4    4    0    0 -0.50551937886E+00 -0.24364695509E+01 -0.17875321814E+02  0.18047997886E+02  0.10566000000E+00 0.  1.
         14    1    4    4    0    0 -0.17948152930E+01 -0.98750375513E+01 -0.70307362212E+02  0.71020158475E+02  0.00000000000E+00 0. -1.
<mgrwt>
<rscale>  0 0.81041396E+02</rscale>
<asrwt>0</asrwt>
<pdfrwt beam="1">  1        2 0.73405492E-01 0.81041396E+02</pdfrwt>
<pdfrwt beam="2">  1       -1 0.52941783E-03 0.81041396E+02</pdfrwt>
<totfact> 0.28999495E+05</totfact>
</mgrwt>
</event>
<event>
 8    1  0.1226832E-016  0.8314031E+02  0.7818608E-02  0.1320369E+00
          2   -1    0    0  501    0  0.00000000000E+00  0.00000000000E+00  0.36694743352E+03  0.36694743353E+03  0.25500000000E-02 0. -1.
         -1   -1    0    0    0  501 -0.00000000000E+00 -0.00000000000E+00 -0.47093319936E+01  0.47093346906E+01  0.50400000000E-02 0.  1.
         24    2    1    2    0    0  0.35527136788E-14  0.00000000000E+00  0.36223810153E+03  0.37165676822E+03  0.83140310114E+02 0.  0.
         66    2    3    3    0    0  0.24803213077E+02 -0.15237646137E+02  0.31373325877E+03  0.31508719890E+03  0.20000025394E+01 0.  0.
        -13    1    3    3    0    0 -0.24803213077E+02  0.15237646137E+02  0.48504842756E+02  0.56569569324E+02  0.10566000000E+00 0.  1.
         13    1    4    4    0    0  0.12349194331E+01 -0.97199756305E+00  0.19533705098E+02  0.19597107035E+02  0.10566000000E+00 0. -1.
        -13    1    4    4    0    0  0.82920936251E+01 -0.42795890364E+01  0.10193933144E+03  0.10236558093E+03  0.10566000000E+00 0.  1.
         14    1    4    4    0    0  0.15276200018E+02 -0.99860595372E+01  0.19226022223E+03  0.19312451093E+03  0.00000000000E+00 0. -1.
<mgrwt>
<rscale>  0 0.83140310E+02</rscale>
<asrwt>0</asrwt>
<pdfrwt beam="1">  1        2 0.56453474E-01 0.83140310E+02</pdfrwt>
<pdfrwt beam="2">  1       -1 0.72451253E-03 0.83140310E+02</pdfrwt>
<totfact> 0.24776929E+05</totfact>
</mgrwt>
</event>
<event>
 8    1  0.1226832E-016  0.8005448E+02  0.7818608E-02  0.1328897E+00
          2   -1    0    0  501    0  0.00000000000E+00  0.00000000000E+00  0.61379829329E+03  0.61379829330E+03  0.25500000000E-02 0. -1.
         -1   -1    0    0    0  501 -0.00000000000E+00 -0.00000000000E+00 -0.26102688605E+01  0.26102737262E+01  0.50400000000E-02 0.  1.
         24    2    1    2    0    0  0.00000000000E+00  0.00000000000E+00  0.61118802443E+03  0.61640856702E+03  0.80054483269E+02 0.  0.
         66    2    3    3    0    0 -0.21993779476E+02  0.27106714438E+02  0.45621258813E+03  0.45755046265E+03  0.20000006438E+01 0.  0.
        -13    1    3    3    0    0  0.21993779476E+02 -0.27106714438E+02  0.15497543630E+03  0.15885810437E+03  0.10566000000E+00 0.  1.
         13    1    4    4    0    0 -0.91915958844E+01  0.10498197877E+02  0.19103932716E+03  0.19154825314E+03  0.10566000000E+00 0. -1.
        -13    1    4    4    0    0 -0.41997356361E+01  0.57677572695E+01  0.93931216845E+02  0.94201854893E+02  0.10566000000E+00 0.  1.
        -14    1    4    4    0    0 -0.86024479554E+01  0.10840759291E+02  0.17124204412E+03  0.17180035462E+03  0.00000000000E+00 0.  1.
<mgrwt>
<rscale>  0 0.80054483E+02</rscale>
<asrwt>0</asrwt>
<pdfrwt beam="1">  1        2 0.94430555E-01 0.80054483E+02</pdfrwt>
<pdfrwt beam="2">  1       -1 0.40158000E-03 0.80054483E+02</pdfrwt>
<totfact> 0.32308068E+05</totfact>
</mgrwt>
</event>
<event>
 8    1  0.1226832E-016  0.8062223E+02  0.7818608E-02  0.1327295E+00
         -1   -1    0    0    0  501 -0.00000000000E+00  0.00000000000E+00  0.72983748429E+01  0.72983765832E+01  0.50400000000E-02 0.  1.
          2   -1    0    0  501    0  0.00000000000E+00 -0.00000000000E+00 -0.22265037543E+03  0.22265037544E+03  0.25500000000E-02 0. -1.
         24    2    1    2    0    0  0.00000000000E+00 -0.35527136788E-14 -0.21535200059E+03  0.22994875203E+03  0.80622232680E+02 0.  0.
         66    2    3    3    0    0  0.10477931734E+02  0.21684225094E+02 -0.19985403042E+03  0.20130977658E+03  0.19999997509E+01 0.  0.
        -13    1    3    3    0    0 -0.10477931734E+02 -0.21684225094E+02 -0.15497970161E+02  0.28638975445E+02  0.10566000000E+00 0.  1.
         13    1    4    4    0    0  0.25359415569E+01  0.50734168590E+01 -0.47657133443E+02  0.47993583844E+02  0.10566000000E+00 0. -1.
        -13    1    4    4    0    0  0.22265857811E+00  0.15326462098E+01 -0.13104130795E+02  0.13195756484E+02  0.10566000000E+00 0.  1.
        -14    1    4    4    0    0  0.77193315995E+01  0.15078162026E+02 -0.13909276619E+03  0.14012043625E+03  0.00000000000E+00 0.  1.
<mgrwt>
<rscale>  0 0.80622233E+02</rscale>
<asrwt>0</asrwt>
<pdfrwt beam="1">  1        2 0.34253899E-01 0.80622233E+02</pdfrwt>
<pdfrwt beam="2">  1       -1 0.11228272E-02 0.80622233E+02</pdfrwt>
<totfact> 0.22441047E+05</totfact>
</mgrwt>
</event>
<event>
 8    1  0.1226832E-016  0.7808616E+02  0.7818608E-02  0.1334572E+00
          2   -1    0    0  501    0  0.00000000000E+00  0.00000000000E+00  0.39618126044E+03  0.39618126045E+03  0.25500000000E-02 0. -1.
         -1   -1    0    0    0  501 -0.00000000000E+00 -0.00000000000E+00 -0.38476363806E+01  0.38476396816E+01  0.50400000000E-02 0.  1.
         24    2    1    2    0    0  0.00000000000E+00  0.00000000000E+00  0.39233362406E+03  0.40002890013E+03  0.78086159923E+02 0.  0.
         66    2    3    3    0    0 -0.12733436294E+02 -0.16497545325E+01  0.38504491165E+03  0.38526412507E+03  0.19999977295E+01 0.  0.
        -13    1    3    3    0    0  0.12733436294E+02  0.16497545325E+01  0.72887124101E+01  0.14764775057E+02  0.10566000000E+00 0.  1.
         13    1    4    4    0    0 -0.79473523459E+01 -0.34827903177E+00  0.23760230869E+03  0.23773546216E+03  0.10566000000E+00 0. -1.
        -13    1    4    4    0    0 -0.41760315730E+01 -0.14289970663E+01  0.12952553359E+03  0.12960075728E+03  0.10566000000E+00 0.  1.
        -14    1    4    4    0    0 -0.61005237480E+00  0.12752156561E+00  0.17917069367E+02  0.17927905632E+02  0.00000000000E+00 0.  1.
<mgrwt>
<rscale>  0 0.78086160E+02</rscale>
<asrwt>0</asrwt>
<pdfrwt beam="1">  1        2 0.60950978E-01 0.78086160E+02</pdfrwt>
<pdfrwt beam="2">  1       -1 0.59194417E-03 0.78086160E+02</pdfrwt>
<totfact> 0.29995489E+05</totfact>
</mgrwt>
</event>
<event>
 8    1  0.1226832E-016  0.8248835E+02  0.7818608E-02  0.1322135E+00
         -1   -1    0    0    0  501 -0.00000000000E+00  0.00000000000E+00  0.16180421506E+01  0.16180500001E+01  0.50400000000E-02 0.  1.
          2   -1    0    0  501    0  0.00000000000E+00 -0.00000000000E+00 -0.10513185181E+04  0.10513185181E+04  0.25500000000E-02 0. -1.
         24    2    1    2    0    0  0.35527136788E-14  0.88817841970E-15 -0.10497004760E+04  0.10529365681E+04  0.82488346091E+02 0.  0.
         66    2    3    3    0    0 -0.29644393653E+02 -0.51365131266E+01 -0.88481889839E+03  0.88533251199E+03  0.20000005253E+01 0.  0.
        -13    1    3    3    0    0  0.29644393653E+02  0.51365131266E+01 -0.16488157759E+03  0.16760405614E+03  0.10566000000E+00 0.  1.
         13    1    4    4    0    0 -0.69807830014E+01 -0.36189599636E+00 -0.20486289230E+03  0.20498214094E+03  0.10566000000E+00 0. -1.
        -13    1    4    4    0    0 -0.12219566714E+02 -0.25680623366E+01 -0.36672296646E+03  0.36693549576E+03  0.10566000000E+00 0.  1.
         14    1    4    4    0    0 -0.10444043938E+02 -0.22065547937E+01 -0.31323303962E+03  0.31341487528E+03  0.00000000000E+00 0. -1.
<mgrwt>
<rscale>  0 0.82488346E+02</rscale>
<asrwt>0</asrwt>
<pdfrwt beam="1">  1        2 0.16174076E+00 0.82488346E+02</pdfrwt>
<pdfrwt beam="2">  1       -1 0.24893101E-03 0.82488346E+02</pdfrwt>
<totfact> 0.32572524E+05</totfact>
</mgrwt>
</event>
<event>
 8    1  0.1226832E-016  0.8089052E+02  0.7818608E-02  0.1326543E+00
         -1   -1    0    0    0  501 -0.00000000000E+00  0.00000000000E+00  0.52329463798E+01  0.52329488069E+01  0.50400000000E-02 0.  1.
          2   -1    0    0  501    0  0.00000000000E+00 -0.00000000000E+00 -0.31259994327E+03  0.31259994328E+03  0.25500000000E-02 0. -1.
         24    2    1    2    0    0  0.00000000000E+00  0.00000000000E+00 -0.30736699689E+03  0.31783289208E+03  0.80890521789E+02 0.  0.
         66    2    3    3    0    0  0.13261872737E+02 -0.18534105862E+02 -0.28494473117E+03  0.28586166264E+03  0.19999985290E+01 0.  0.
        -13    1    3    3    0    0 -0.13261872737E+02  0.18534105862E+02 -0.22422265715E+02  0.31971229448E+02  0.10566000000E+00 0.  1.
         13    1    4    4    0    0  0.37828477589E+01 -0.53262942125E+01 -0.88315126814E+02  0.88556491210E+02  0.10566000000E+00 0. -1.
        -13    1    4    4    0    0  0.48113009797E+00 -0.12862170570E+01 -0.16438417141E+02  0.16496016568E+02  0.10566000000E+00 0.  1.
        -14    1    4    4    0    0  0.89978948796E+01 -0.11921594592E+02 -0.18019118722E+03  0.18080915486E+03  0.00000000000E+00 0.  1.
<mgrwt>
<rscale>  0 0.80890522E+02</rscale>
<asrwt>0</asrwt>
<pdfrwt beam="1">  1        2 0.48092284E-01 0.80890522E+02</pdfrwt>
<pdfrwt beam="2">  1       -1 0.80506911E-03 0.80890522E+02</pdfrwt>
<totfact> 0.25136504E+05</totfact>
</mgrwt>
</event>
<event>
 8    1  0.1226832E-016  0.7983113E+02  0.7818608E-02  0.1329531E+00
          2   -1    0    0  501    0  0.00000000000E+00  0.00000000000E+00  0.54942472129E+02  0.54942472188E+02  0.25500000000E-02 0. -1.
         -1   -1    0    0    0  501 -0.00000000000E+00 -0.00000000000E+00 -0.28998557726E+02  0.28998558163E+02  0.50400000000E-02 0.  1.
         24    2    1    2    0    0  0.00000000000E+00  0.35527136788E-14  0.25943914404E+02  0.83941030352E+02  0.79831133538E+02 0.  0.
         66    2    3    3    0    0 -0.18903730339E+02 -0.19892872485E+02  0.43421719128E+02  0.51405477207E+02  0.19999996040E+01 0.  0.
        -13    1    3    3    0    0  0.18903730339E+02  0.19892872485E+02 -0.17477804724E+02  0.32535553145E+02  0.10566000000E+00 0.  1.
         13    1    4    4    0    0 -0.12608749739E+02 -0.13531178236E+02  0.30503258772E+02  0.35672584910E+02  0.10566000000E+00 0. -1.
        -13    1    4    4    0    0 -0.27716350895E+01 -0.23589582159E+01  0.49570800405E+01  0.61506464293E+01  0.10566000000E+00 0.  1.
         14    1    4    4    0    0 -0.35233455108E+01 -0.40027360334E+01  0.79613803154E+01  0.95822458677E+01  0.00000000000E+00 0. -1.
<mgrwt>
<rscale>  0 0.79831134E+02</rscale>
<asrwt>0</asrwt>
<pdfrwt beam="1">  1        2 0.84526879E-02 0.79831134E+02</pdfrwt>
<pdfrwt beam="2">  1       -1 0.44613167E-02 0.79831134E+02</pdfrwt>
<totfact> 0.15345636E+05</totfact>
</mgrwt>
</event>
<event>
 8    1  0.1226832E-016  0.7973703E+02  0.7818608E-02  0.1329799E+00
          2   -1    0    0  501    0  0.00000000000E+00  0.00000000000E+00  0.30211963543E+03  0.30211963544E+03  0.25500000000E-02 0. -1.
         -1   -1    0    0    0  501 -0.00000000000E+00 -0.00000000000E+00 -0.52611543348E+01  0.52611567489E+01  0.50400000000E-02 0.  1.
         24    2    1    2    0    0 -0.35527136788E-14  0.35527136788E-14  0.29685848109E+03  0.30738079219E+03  0.79737027841E+02 0.  0.
         66    2    3    3    0    0  0.18978537565E+02  0.24889486506E+02  0.24356202612E+03  0.24557306853E+03  0.19999985753E+01 0.  0.
        -13    1    3    3    0    0 -0.18978537565E+02 -0.24889486506E+02  0.53296454972E+02  0.61807723654E+02  0.10566000000E+00 0.  1.
         13    1    4    4    0    0  0.25423062848E+01  0.32345052820E+01  0.32932700106E+02  0.33188842191E+02  0.10566000000E+00 0. -1.
        -13    1    4    4    0    0  0.67771132205E+00  0.72399110469E+00  0.56593472751E+01  0.57465495187E+01  0.10566000000E+00 0.  1.
        -14    1    4    4    0    0  0.15758519958E+02  0.20930990119E+02  0.20496997874E+03  0.20663767682E+03  0.00000000000E+00 0.  1.
<mgrwt>
<rscale>  0 0.79737028E+02</rscale>
<asrwt>0</asrwt>
<pdfrwt beam="1">  1        2 0.46479922E-01 0.79737028E+02</pdfrwt>
<pdfrwt beam="2">  1       -1 0.80940893E-03 0.79737028E+02</pdfrwt>
<totfact> 0.25781084E+05</totfact>
</mgrwt>
</event>
<event>
 8    1  0.1226832E-016  0.8106636E+02  0.7818608E-02  0.1326052E+00
          2   -1    0    0  501    0  0.00000000000E+00  0.00000000000E+00  0.19692158461E+03  0.19692158462E+03  0.25500000000E-02 0. -1.
         -1   -1    0    0    0  501 -0.00000000000E+00 -0.00000000000E+00 -0.83431097965E+01  0.83431113188E+01  0.50400000000E-02 0.  1.
         24    2    1    2    0    0 -0.35527136788E-14  0.00000000000E+00  0.18857847481E+03  0.20526469594E+03  0.81066357007E+02 0.  0.
         66    2    3    3    0    0  0.30467486323E+02 -0.15644150757E+02  0.14911894458E+03  0.15301459675E+03  0.20000024323E+01 0.  0.
        -13    1    3    3    0    0 -0.30467486323E+02  0.15644150757E+02  0.39459530233E+02  0.52250099196E+02  0.10566000000E+00 0.  1.
         13    1    4    4    0    0  0.21463235997E+02 -0.10999365317E+02  0.10147066994E+03  0.10429748108E+03  0.10566000000E+00 0. -1.
        -13    1    4    4    0    0  0.66336197509E+01 -0.31318575538E+01  0.34366766348E+02  0.35141133106E+02  0.10566000000E+00 0.  1.
        -14    1    4    4    0    0  0.23706305753E+01 -0.15129278865E+01  0.13281508288E+02  0.13575982562E+02  0.00000000000E+00 0.  1.
<mgrwt>
<rscale>  0 0.81066357E+02</rscale>
<asrwt>0</asrwt>
<pdfrwt beam="1">  1        2 0.30295631E-01 0.81066357E+02</pdfrwt>
<pdfrwt beam="2">  1       -1 0.12835554E-02 0.81066357E+02</pdfrwt>
<totfact> 0.21186173E+05</totfact>
</mgrwt>
</event>
<event>
 8    1  0.1226832E-016  0.8034266E+02  0.7818608E-02  0.1328082E+00
          2   -1    0    0  501    0  0.00000000000E+00  0.00000000000E+00  0.25097496434E+03  0.25097496435E+03  0.25500000000E-02 0. -1.
         -1   -1    0    0    0  501 -0.00000000000E+00 -0.00000000000E+00 -0.64298667354E+01  0.64298687107E+01  0.50400000000E-02 0.  1.
         24    2    1    2    0    0  0.00000000000E+00  0.00000000000E+00  0.24454509760E+03  0.25740483306E+03  0.80342661905E+02 0.  0.
         66    2    3    3    0    0  0.14565135351E+02 -0.34912404474E+02  0.79279220422E+02  0.87864747895E+02  0.19999945134E+01 0.  0.
        -13    1    3    3    0    0 -0.14565135351E+02  0.34912404474E+02  0.16526587718E+03  0.16954008517E+03  0.10566000000E+00 0.  1.
         13    1    4    4    0    0  0.17484369645E+01 -0.52021115994E+01  0.10722915819E+02  0.12046206233E+02  0.10566000000E+00 0. -1.
        -13    1    4    4    0    0  0.13815538929E+01 -0.27637627921E+01  0.72819907518E+01  0.79111079676E+01  0.10566000000E+00 0.  1.
        -14    1    4    4    0    0  0.11435144494E+02 -0.26946530082E+02  0.61274313852E+02  0.67907433695E+02  0.00000000000E+00 0.  1.
<mgrwt>
<rscale>  0 0.80342662E+02</rscale>
<asrwt>0</asrwt>
<pdfrwt beam="1">  1        2 0.38611536E-01 0.80342662E+02</pdfrwt>
<pdfrwt beam="2">  1       -1 0.98921034E-03 0.80342662E+02</pdfrwt>
<totfact> 0.23634563E+05</totfact>
</mgrwt>
</event>
<event>
 8    1  0.1226832E-016  0.7866365E+02  0.7818608E-02  0.1332887E+00
         -1   -1    0    0    0  501 -0.00000000000E+00  0.00000000000E+00  0.25816816238E+01  0.25816865433E+01  0.50400000000E-02 0.  1.
          2   -1    0    0  501    0  0.00000000000E+00 -0.00000000000E+00 -0.59921838793E+03  0.59921838794E+03  0.25500000000E-02 0. -1.
         24    2    1    2    0    0  0.00000000000E+00  0.35527136788E-14 -0.59663670631E+03  0.60180007448E+03  0.78663653174E+02 0.  0.
         66    2    3    3    0    0 -0.71626693041E+01 -0.31027399727E+02 -0.47479711178E+03  0.47586794465E+03  0.20000058952E+01 0.  0.
        -13    1    3    3    0    0  0.71626693041E+01  0.31027399727E+02 -0.12183959453E+03  0.12593212984E+03  0.10566000000E+00 0.  1.
         13    1    4    4    0    0 -0.48538221502E+01 -0.17774525542E+02 -0.28398240454E+03  0.28457953300E+03  0.10566000000E+00 0. -1.
        -13    1    4    4    0    0 -0.17672743048E+01 -0.10415438795E+02 -0.15034464458E+03  0.15071538721E+03  0.10566000000E+00 0.  1.
         14    1    4    4    0    0 -0.54157284910E+00 -0.28374353900E+01 -0.40470062653E+02  0.40573024436E+02  0.00000000000E+00 0. -1.
<mgrwt>
<rscale>  0 0.78663653E+02</rscale>
<asrwt>0</asrwt>
<pdfrwt beam="1">  1        2 0.92187334E-01 0.78663653E+02</pdfrwt>
<pdfrwt beam="2">  1       -1 0.39718265E-03 0.78663653E+02</pdfrwt>
<totfact> 0.33591331E+05</totfact>
</mgrwt>
</event>
<event>
 8    1  0.1226832E-016  0.8730166E+02  0.7818608E-02  0.1309521E+00
         -1   -1    0    0    0  501 -0.00000000000E+00  0.00000000000E+00  0.48446252658E+01  0.48446278874E+01  0.50400000000E-02 0.  1.
          2   -1    0    0  501    0  0.00000000000E+00 -0.00000000000E+00 -0.39330066387E+03  0.39330066388E+03  0.25500000000E-02 0. -1.
         24    2    1    2    0    0  0.71054273576E-14  0.88817841970E-15 -0.38845603861E+03  0.39814529177E+03  0.87301657643E+02 0.  0.
         66    2    3    3    0    0 -0.35795848948E+02 -0.57124875819E+01 -0.30505054216E+03  0.30720320405E+03  0.19999981127E+01 0.  0.
        -13    1    3    3    0    0  0.35795848948E+02  0.57124875819E+01 -0.83405496448E+02  0.90942087715E+02  0.10566000000E+00 0.  1.
         13    1    4    4    0    0 -0.19040573431E+02 -0.23607260908E+01 -0.15987448421E+03  0.16102167037E+03  0.10566000000E+00 0. -1.
        -13    1    4    4    0    0 -0.37471695887E+01 -0.91947983056E+00 -0.29748777867E+02  0.29998127803E+02  0.10566000000E+00 0.  1.
         14    1    4    4    0    0 -0.13008105928E+02 -0.24322816605E+01 -0.11542728009E+03  0.11618340588E+03  0.00000000000E+00 0. -1.
<mgrwt>
<rscale>  0 0.87301658E+02</rscale>
<asrwt>0</asrwt>
<pdfrwt beam="1">  1        2 0.60507769E-01 0.87301658E+02</pdfrwt>
<pdfrwt beam="2">  1       -1 0.74532748E-03 0.87301658E+02</pdfrwt>
<totfact> 0.22334176E+05</totfact>
</mgrwt>
</event>
<event>
 8    1  0.1226832E-016  0.7723330E+02  0.7818608E-02  0.1337091E+00
         -1   -1    0    0    0  501 -0.00000000000E+00  0.00000000000E+00  0.53521320098E+02  0.53521320335E+02  0.50400000000E-02 0.  1.
          2   -1    0    0  501    0  0.00000000000E+00 -0.00000000000E+00 -0.27862645536E+02  0.27862645653E+02  0.25500000000E-02 0. -1.
         24    2    1    2    0    0  0.00000000000E+00 -0.71054273576E-14  0.25658674561E+02  0.81383965988E+02  0.77233298128E+02 0.  0.
         66    2    3    3    0    0  0.25860398211E+01 -0.38351938294E+02  0.16439478887E+02  0.41854691952E+02  0.19999998618E+01 0.  0.
        -13    1    3    3    0    0 -0.25860398211E+01  0.38351938294E+02  0.92191956740E+01  0.39529274036E+02  0.10566000000E+00 0.  1.
         13    1    4    4    0    0  0.12898355907E+01 -0.16217505800E+02  0.76747852653E+01  0.17988459165E+02  0.10566000000E+00 0.  1.
        -13    1    4    4    0    0  0.11136347490E+01 -0.14630594687E+02  0.53260434088E+01  0.15610009150E+02  0.10566000000E+00 0. -1.
        -14    1    4    4    0    0  0.18256948140E+00 -0.75038378077E+01  0.34386502131E+01  0.82562236372E+01  0.00000000000E+00 0.  1.
<mgrwt>
<rscale>  0 0.77233298E+02</rscale>
<asrwt>0</asrwt>
<pdfrwt beam="1">  1        2 0.42865609E-02 0.77233298E+02</pdfrwt>
<pdfrwt beam="2">  1       -1 0.82340492E-02 0.77233298E+02</pdfrwt>
<totfact> 0.14636815E+05</totfact>
</mgrwt>
</event>
<event>
 8    1  0.1226832E-016  0.7949598E+02  0.7818608E-02  0.1330488E+00
         -1   -1    0    0    0  501 -0.00000000000E+00  0.00000000000E+00  0.31677379211E+01  0.31677419306E+01  0.50400000000E-02 0.  1.
          2   -1    0    0  501    0  0.00000000000E+00 -0.00000000000E+00 -0.49874755437E+03  0.49874755438E+03  0.25500000000E-02 0. -1.
         24    2    1    2    0    0 -0.17763568394E-14 -0.35527136788E-14 -0.49557981645E+03  0.50191529631E+03  0.79495975971E+02 0.  0.
         66    2    3    3    0    0  0.81533295424E+01  0.24546725439E+02 -0.43828993616E+03  0.43905704259E+03  0.19999998623E+01 0.  0.
        -13    1    3    3    0    0 -0.81533295424E+01 -0.24546725439E+02 -0.57289880291E+02  0.62858253716E+02  0.10566000000E+00 0.  1.
         13    1    4    4    0    0  0.54618741850E+01  0.17456827140E+02 -0.31210094040E+03  0.31263649986E+03  0.10566000000E+00 0. -1.
        -13    1    4    4    0    0  0.25683324231E+01  0.66681855966E+01 -0.12184208180E+03  0.12205148541E+03  0.10566000000E+00 0.  1.
        -14    1    4    4    0    0  0.12312293424E+00  0.42171270186E+00 -0.43469139646E+01  0.43690573212E+01  0.00000000000E+00 0.  1.
<mgrwt>
<rscale>  0 0.79495976E+02</rscale>
<asrwt>0</asrwt>
<pdfrwt beam="1">  1        2 0.76730331E-01 0.79495976E+02</pdfrwt>
<pdfrwt beam="2">  1       -1 0.48734500E-03 0.79495976E+02</pdfrwt>
<totfact> 0.30932184E+05</totfact>
</mgrwt>
</event>
<event>
 8    1  0.1226832E-016  0.8027831E+02  0.7818608E-02  0.1328263E+00
         -1   -1    0    0    0  501 -0.00000000000E+00  0.00000000000E+00  0.26817384168E+01  0.26817431529E+01  0.50400000000E-02 0.  1.
          2   -1    0    0  501    0  0.00000000000E+00 -0.00000000000E+00 -0.60078585501E+03  0.60078585501E+03  0.25500000000E-02 0. -1.
         24    2    1    2    0    0  0.71054273576E-14  0.00000000000E+00 -0.59810411659E+03  0.60346759817E+03  0.80278314340E+02 0.  0.
         66    2    3    3    0    0 -0.27583429221E+02  0.14214137872E+02 -0.49033651991E+03  0.49132147322E+03  0.20000005194E+01 0.  0.
        -13    1    3    3    0    0  0.27583429221E+02 -0.14214137872E+02 -0.10776759668E+03  0.11214612495E+03  0.10566000000E+00 0.  1.
         13    1    4    4    0    0 -0.18521147395E+01  0.91412662688E+00 -0.26523993003E+02  0.26604498217E+02  0.10566000000E+00 0. -1.
        -13    1    4    4    0    0 -0.74021227024E+01  0.42391513092E+01 -0.13918754915E+03  0.13944872473E+03  0.10566000000E+00 0.  1.
         14    1    4    4    0    0 -0.18329191779E+02  0.90608599354E+01 -0.32462497776E+03  0.32526825028E+03  0.00000000000E+00 0. -1.
<mgrwt>
<rscale>  0 0.80278314E+02</rscale>
<asrwt>0</asrwt>
<pdfrwt beam="1">  1        2 0.92428486E-01 0.80278314E+02</pdfrwt>
<pdfrwt beam="2">  1       -1 0.41257599E-03 0.80278314E+02</pdfrwt>
<totfact> 0.31885722E+05</totfact>
</mgrwt>
</event>
<event>
 8    1  0.1226832E-016  0.8165662E+02  0.7818608E-02  0.1324415E+00
         -1   -1    0    0    0  501 -0.00000000000E+00  0.00000000000E+00  0.97929716761E+02  0.97929716890E+02  0.50400000000E-02 0.  1.
          2   -1    0    0  501    0  0.00000000000E+00 -0.00000000000E+00 -0.17021909686E+02  0.17021909877E+02  0.25500000000E-02 0. -1.
         24    2    1    2    0    0 -0.35527136788E-14 -0.17763568394E-14  0.80907807075E+02  0.11495162677E+03  0.81656617924E+02 0.  0.
         66    2    3    3    0    0 -0.11811992580E+02 -0.11070165054E+02 -0.12248898567E+02  0.20398706701E+02  0.19999989851E+01 0.  0.
        -13    1    3    3    0    0  0.11811992580E+02  0.11070165054E+02  0.93156705642E+02  0.94552920066E+02  0.10566000000E+00 0.  1.
         13    1    4    4    0    0 -0.46283589353E+01 -0.37418833380E+01 -0.36554943530E+01  0.69854992913E+01  0.10566000000E+00 0. -1.
        -13    1    4    4    0    0 -0.38953965142E+01 -0.39744882371E+01 -0.41004306424E+01  0.69134192871E+01  0.10566000000E+00 0.  1.
        -14    1    4    4    0    0 -0.32882371307E+01 -0.33537934788E+01 -0.44929735713E+01  0.64997881226E+01  0.00000000000E+00 0.  1.
<mgrwt>
<rscale>  0 0.81656618E+02</rscale>
<asrwt>0</asrwt>
<pdfrwt beam="1">  1        2 0.26187554E-02 0.81656618E+02</pdfrwt>
<pdfrwt beam="2">  1       -1 0.15066110E-01 0.81656618E+02</pdfrwt>
<totfact> 0.11313654E+05</totfact>
</mgrwt>
</event>
<event>
 8    1  0.1226832E-016  0.8020885E+02  0.7818608E-02  0.1328460E+00
          2   -1    0    0  501    0  0.00000000000E+00  0.00000000000E+00  0.90839314970E+03  0.90839314971E+03  0.25500000000E-02 0. -1.
         -1   -1    0    0    0  501 -0.00000000000E+00 -0.00000000000E+00 -0.17705568791E+01  0.17705640525E+01  0.50400000000E-02 0.  1.
         24    2    1    2    0    0  0.17763568394E-14  0.00000000000E+00  0.90662259283E+03  0.91016371376E+03  0.80208852535E+02 0.  0.
         66    2    3    3    0    0  0.13639034533E+02  0.11699739261E+02  0.86011728074E+03  0.86030729614E+03  0.20000005150E+01 0.  0.
        -13    1    3    3    0    0 -0.13639034533E+02 -0.11699739261E+02  0.46505312085E+02  0.49856417621E+02  0.10566000000E+00 0.  1.
         13    1    4    4    0    0  0.62338554377E+01  0.48405074450E+01  0.39074112165E+03  0.39082083719E+03  0.10566000000E+00 0. -1.
        -13    1    4    4    0    0  0.10993992364E+01  0.50036713228E+00  0.50076815469E+02  0.50091492866E+02  0.10566000000E+00 0.  1.
         14    1    4    4    0    0  0.63057798593E+01  0.63588646837E+01  0.41929934362E+03  0.41939496609E+03  0.00000000000E+00 0. -1.
<mgrwt>
<rscale>  0 0.80208853E+02</rscale>
<asrwt>0</asrwt>
<pdfrwt beam="1">  1        2 0.13975269E+00 0.80208853E+02</pdfrwt>
<pdfrwt beam="2">  1       -1 0.27239411E-03 0.80208853E+02</pdfrwt>
<totfact> 0.34745322E+05</totfact>
</mgrwt>
</event>
<event>
 8    1  0.1226832E-016  0.8319549E+02  0.7818608E-02  0.1320220E+00
          2   -1    0    0  501    0  0.00000000000E+00  0.00000000000E+00  0.11553035016E+03  0.11553035019E+03  0.25500000000E-02 0. -1.
         -1   -1    0    0    0  501 -0.00000000000E+00 -0.00000000000E+00 -0.14977642001E+02  0.14977642849E+02  0.50400000000E-02 0.  1.
         24    2    1    2    0    0  0.88817841970E-15  0.71054273576E-14  0.10055270816E+03  0.13050799304E+03  0.83195487428E+02 0.  0.
         66    2    3    3    0    0 -0.70192196148E+01  0.29863598162E+02  0.94319988425E+02  0.99203649912E+02  0.20000000634E+01 0.  0.
        -13    1    3    3    0    0  0.70192196148E+01 -0.29863598162E+02  0.62327197346E+01  0.31304343125E+02  0.10566000000E+00 0.  1.
         13    1    4    4    0    0 -0.43388069454E+01  0.16179427197E+02  0.49095853715E+02  0.51874975915E+02  0.10566000000E+00 0. -1.
        -13    1    4    4    0    0 -0.14908843973E+01  0.70014950788E+01  0.22344161460E+02  0.23463085581E+02  0.10566000000E+00 0.  1.
        -14    1    4    4    0    0 -0.11895282721E+01  0.66826758855E+01  0.22879973250E+02  0.23865588416E+02  0.00000000000E+00 0.  1.
<mgrwt>
<rscale>  0 0.83195487E+02</rscale>
<asrwt>0</asrwt>
<pdfrwt beam="1">  1        2 0.17773900E-01 0.83195487E+02</pdfrwt>
<pdfrwt beam="2">  1       -1 0.23042527E-02 0.83195487E+02</pdfrwt>
<totfact> 0.16638932E+05</totfact>
</mgrwt>
</event>
<event>
 8    1  0.1226832E-016  0.7859620E+02  0.7818608E-02  0.1333083E+00
         -1   -1    0    0    0  501 -0.00000000000E+00  0.00000000000E+00  0.74858384622E+01  0.74858401588E+01  0.50400000000E-02 0.  1.
          2   -1    0    0  501    0  0.00000000000E+00 -0.00000000000E+00 -0.20630159276E+03  0.20630159278E+03  0.25500000000E-02 0. -1.
         24    2    1    2    0    0  0.00000000000E+00  0.00000000000E+00 -0.19881575430E+03  0.21378743293E+03  0.78596197896E+02 0.  0.
         66    2    3    3    0    0  0.29016360450E+02  0.26463950506E+02 -0.10005414186E+03  0.10750405180E+03  0.19999999774E+01 0.  0.
        -13    1    3    3    0    0 -0.29016360450E+02 -0.26463950506E+02 -0.98761612434E+02  0.10628338113E+03  0.10566000000E+00 0.  1.
         13    1    4    4    0    0  0.17528137925E+02  0.16447409664E+02 -0.60497704103E+02  0.65097897582E+02  0.10566000000E+00 0. -1.
        -13    1    4    4    0    0  0.82315097231E+01  0.77691714476E+01 -0.28751053285E+02  0.30899061577E+02  0.10566000000E+00 0.  1.
        -14    1    4    4    0    0  0.32567128013E+01  0.22473693942E+01 -0.10805384475E+02  0.11507092644E+02  0.00000000000E+00 0.  1.
<mgrwt>
<rscale>  0 0.78596198E+02</rscale>
<asrwt>0</asrwt>
<pdfrwt beam="1">  1        2 0.31738702E-01 0.78596198E+02</pdfrwt>
<pdfrwt beam="2">  1       -1 0.11516677E-02 0.78596198E+02</pdfrwt>
<totfact> 0.23362918E+05</totfact>
</mgrwt>
</event>
<event>
 8    1  0.1226832E-016  0.7535595E+02  0.7818608E-02  0.1342772E+00
          2   -1    0    0  501    0  0.00000000000E+00  0.00000000000E+00  0.56774269583E+01  0.56774275310E+01  0.25500000000E-02 0. -1.
         -1   -1    0    0    0  501 -0.00000000000E+00 -0.00000000000E+00 -0.25004807281E+03  0.25004807287E+03  0.50400000000E-02 0.  1.
         24    2    1    2    0    0  0.00000000000E+00  0.71054273576E-14 -0.24437064586E+03  0.25572550040E+03  0.75355948649E+02 0.  0.
         66    2    3    3    0    0 -0.56505085711E+01 -0.37120609450E+02 -0.11281960648E+03  0.11892069413E+03  0.19999981373E+01 0.  0.
        -13    1    3    3    0    0  0.56505085711E+01  0.37120609450E+02 -0.13155103938E+03  0.13680480627E+03  0.10566000000E+00 0.  1.
         13    1    4    4    0    0 -0.16306530619E+01 -0.10239616007E+02 -0.30469522344E+02  0.32185582506E+02  0.10566000000E+00 0. -1.
        -13    1    4    4    0    0 -0.40685924543E+01 -0.25362473708E+02 -0.78513586673E+02  0.82608734244E+02  0.10566000000E+00 0.  1.
        -14    1    4    4    0    0  0.48736945169E-01 -0.15185197353E+01 -0.38364974620E+01  0.41263773764E+01  0.00000000000E+00 0.  1.
<mgrwt>
<rscale>  0 0.75355949E+02</rscale>
<asrwt>0</asrwt>
<pdfrwt beam="1">  1        2 0.87345054E-03 0.75355949E+02</pdfrwt>
<pdfrwt beam="2">  1       -1 0.38468926E-01 0.75355949E+02</pdfrwt>
<totfact> 0.10787322E+05</totfact>
</mgrwt>
</event>
<event>
 8    1  0.1226832E-016  0.7930163E+02  0.7818608E-02  0.1331045E+00
          2   -1    0    0  501    0  0.00000000000E+00  0.00000000000E+00  0.19604727673E+02  0.19604727839E+02  0.25500000000E-02 0. -1.
         -1   -1    0    0    0  501 -0.00000000000E+00 -0.00000000000E+00 -0.80194282464E+02  0.80194282622E+02  0.50400000000E-02 0.  1.
         24    2    1    2    0    0  0.00000000000E+00  0.00000000000E+00 -0.60589554791E+02  0.99799010461E+02  0.79301628856E+02 0.  0.
         66    2    3    3    0    0  0.71195618217E+01  0.29378697878E+02  0.19281435809E+01  0.30356445536E+02  0.19999995986E+01 0.  0.
        -13    1    3    3    0    0 -0.71195618217E+01 -0.29378697878E+02 -0.62517698372E+02  0.69442564924E+02  0.10566000000E+00 0.  1.
         13    1    4    4    0    0  0.21162271459E+01  0.80106281711E+01  0.40457451916E+00  0.82959885249E+01  0.10566000000E+00 0. -1.
        -13    1    4    4    0    0  0.34293159599E+01  0.15874161785E+02  0.17916650642E+01  0.16339230339E+02  0.10566000000E+00 0.  1.
        -14    1    4    4    0    0  0.15740187158E+01  0.54939079221E+01 -0.26809600244E+00  0.57212266728E+01  0.00000000000E+00 0.  1.
<mgrwt>
<rscale>  0 0.79301629E+02</rscale>
<asrwt>0</asrwt>
<pdfrwt beam="1">  1        2 0.30161120E-02 0.79301629E+02</pdfrwt>
<pdfrwt beam="2">  1       -1 0.12337582E-01 0.79301629E+02</pdfrwt>
<totfact> 0.12681110E+05</totfact>
</mgrwt>
</event>
<event>
 8    1  0.1226832E-016  0.8193189E+02  0.7818608E-02  0.1323657E+00
         -1   -1    0    0    0  501 -0.00000000000E+00  0.00000000000E+00  0.60826477021E+02  0.60826477230E+02  0.50400000000E-02 0.  1.
          2   -1    0    0  501    0  0.00000000000E+00 -0.00000000000E+00 -0.27590103482E+02  0.27590103600E+02  0.25500000000E-02 0. -1.
         24    2    1    2    0    0  0.00000000000E+00  0.00000000000E+00  0.33236373539E+02  0.88416580830E+02  0.81931893910E+02 0.  0.
         66    2    3    3    0    0  0.11684764571E+02  0.39207413026E+02  0.18316800915E+02  0.44869367709E+02  0.20000009043E+01 0.  0.
        -13    1    3    3    0    0 -0.11684764571E+02 -0.39207413026E+02  0.14919572624E+02  0.43547213121E+02  0.10566000000E+00 0.  1.
         13    1    4    4    0    0  0.85005550270E+01  0.29467988025E+02  0.14361418273E+02  0.33865664808E+02  0.10566000000E+00 0. -1.
        -13    1    4    4    0    0  0.13522226078E+01  0.50964594150E+01  0.18981863878E+01  0.56050584429E+01  0.10566000000E+00 0.  1.
        -14    1    4    4    0    0  0.18319869357E+01  0.46429655856E+01  0.20571962541E+01  0.53986444585E+01  0.00000000000E+00 0.  1.
<mgrwt>
<rscale>  0 0.81931894E+02</rscale>
<asrwt>0</asrwt>
<pdfrwt beam="1">  1        2 0.42446314E-02 0.81931894E+02</pdfrwt>
<pdfrwt beam="2">  1       -1 0.93579194E-02 0.81931894E+02</pdfrwt>
<totfact> 0.12373255E+05</totfact>
</mgrwt>
</event>
<event>
 8    1  0.1226832E-016  0.8209515E+02  0.7818608E-02  0.1323209E+00
         -1   -1    0    0    0  501 -0.00000000000E+00  0.00000000000E+00  0.29128068215E+02  0.29128068651E+02  0.50400000000E-02 0.  1.
          2   -1    0    0  501    0  0.00000000000E+00 -0.00000000000E+00 -0.57844670836E+02  0.57844670893E+02  0.25500000000E-02 0. -1.
         24    2    1    2    0    0  0.00000000000E+00 -0.88817841970E-15 -0.28716602621E+02  0.86972739544E+02  0.82095153070E+02 0.  0.
         66    2    3    3    0    0  0.39967132333E+02  0.73926128873E+01 -0.20253572027E+02  0.45455797904E+02  0.19999977562E+01 0.  0.
        -13    1    3    3    0    0 -0.39967132333E+02 -0.73926128873E+01 -0.84630305942E+01  0.41516941639E+02  0.10566000000E+00 0.  1.
         13    1    4    4    0    0  0.30893598141E+02  0.58931063722E+01 -0.16476029884E+02  0.35505124047E+02  0.10566000000E+00 0. -1.
        -13    1    4    4    0    0  0.18261981177E+01  0.43947563279E+00 -0.76555241302E+00  0.20311014080E+01  0.10566000000E+00 0.  1.
        -14    1    4    4    0    0  0.72473360743E+01  0.10600308823E+01 -0.30119897300E+01  0.79195724493E+01  0.00000000000E+00 0.  1.
<mgrwt>
<rscale>  0 0.82095153E+02</rscale>
<asrwt>0</asrwt>
<pdfrwt beam="1">  1        2 0.88991801E-02 0.82095153E+02</pdfrwt>
<pdfrwt beam="2">  1       -1 0.44812413E-02 0.82095153E+02</pdfrwt>
<totfact> 0.14384359E+05</totfact>
</mgrwt>
</event>
<event>
 8    1  0.1226832E-016  0.8936649E+02  0.7818608E-02  0.1304393E+00
          2   -1    0    0  501    0  0.00000000000E+00  0.00000000000E+00  0.23515585287E+02  0.23515585425E+02  0.25500000000E-02 0. -1.
         -1   -1    0    0    0  501 -0.00000000000E+00 -0.00000000000E+00 -0.84905076075E+02  0.84905076225E+02  0.50400000000E-02 0.  1.
         24    2    1    2    0    0  0.00000000000E+00  0.00000000000E+00 -0.61389490788E+02  0.10842066165E+03  0.89366494243E+02 0.  0.
         66    2    3    3    0    0  0.10049224430E+02 -0.37092972261E+02 -0.31054770623E+01  0.38607246586E+02  0.19999995846E+01 0.  0.
        -13    1    3    3    0    0 -0.10049224430E+02  0.37092972261E+02 -0.58284013726E+02  0.69813415064E+02  0.10566000000E+00 0.  1.
         13    1    4    4    0    0  0.28107599785E+01 -0.10949732390E+02 -0.13289579113E+01  0.11383070949E+02  0.10566000000E+00 0. -1.
        -13    1    4    4    0    0  0.14216035096E+01 -0.75221688198E+01 -0.36641768992E+00  0.76648161264E+01  0.10566000000E+00 0.  1.
         14    1    4    4    0    0  0.58168609424E+01 -0.18621071052E+02 -0.14101014610E+01  0.19559359511E+02  0.00000000000E+00 0. -1.
<mgrwt>
<rscale>  0 0.89366494E+02</rscale>
<asrwt>0</asrwt>
<pdfrwt beam="1">  1        2 0.36177824E-02 0.89366494E+02</pdfrwt>
<pdfrwt beam="2">  1       -1 0.13062319E-01 0.89366494E+02</pdfrwt>
<totfact> 0.93300214E+04</totfact>
</mgrwt>
</event>
<event>
 8    1  0.1226832E-016  0.7914402E+02  0.7818608E-02  0.1331498E+00
          2   -1    0    0  501    0  0.00000000000E+00  0.00000000000E+00  0.65962195664E+03  0.65962195664E+03  0.25500000000E-02 0. -1.
         -1   -1    0    0    0  501 -0.00000000000E+00 -0.00000000000E+00 -0.23739994064E+01  0.23740047563E+01  0.50400000000E-02 0.  1.
         24    2    1    2    0    0 -0.35527136788E-14 -0.17763568394E-14  0.65724795723E+03  0.66199596140E+03  0.79144018243E+02 0.  0.
         66    2    3    3    0    0  0.18038221491E+02  0.78831509844E+01  0.61572494291E+03  0.61604279626E+03  0.19999993268E+01 0.  0.
        -13    1    3    3    0    0 -0.18038221491E+02 -0.78831509844E+01  0.41523014323E+02  0.45953165141E+02  0.10566000000E+00 0.  1.
         13    1    4    4    0    0  0.20252360409E+01  0.46284961116E+00  0.75194626231E+02  0.75223392564E+02  0.10566000000E+00 0. -1.
        -13    1    4    4    0    0  0.76186381932E+01  0.30751075507E+01  0.24152905407E+03  0.24166877137E+03  0.10566000000E+00 0.  1.
         14    1    4    4    0    0  0.83943472572E+01  0.43451938225E+01  0.29900126261E+03  0.29915063232E+03  0.00000000000E+00 0. -1.
<mgrwt>
<rscale>  0 0.79144018E+02</rscale>
<asrwt>0</asrwt>
<pdfrwt beam="1">  1        2 0.10148039E+00 0.79144018E+02</pdfrwt>
<pdfrwt beam="2">  1       -1 0.36523075E-03 0.79144018E+02</pdfrwt>
<totfact> 0.33914328E+05</totfact>
</mgrwt>
</event>
<event>
 8    1  0.1226832E-016  0.8111840E+02  0.7818608E-02  0.1325907E+00
          2   -1    0    0  501    0  0.00000000000E+00  0.00000000000E+00  0.29929345667E+03  0.29929345668E+03  0.25500000000E-02 0. -1.
         -1   -1    0    0    0  501 -0.00000000000E+00 -0.00000000000E+00 -0.54964400637E+01  0.54964423744E+01  0.50400000000E-02 0.  1.
         24    2    1    2    0    0  0.00000000000E+00  0.00000000000E+00  0.29379701660E+03  0.30478989905E+03  0.81118404812E+02 0.  0.
         66    2    3    3    0    0  0.15604911732E+02 -0.43208592026E+01  0.28661028575E+03  0.28707427435E+03  0.19999992777E+01 0.  0.
        -13    1    3    3    0    0 -0.15604911732E+02  0.43208592026E+01  0.71867308510E+01  0.17715624708E+02  0.10566000000E+00 0.  1.
         13    1    4    4    0    0  0.20552013743E+01 -0.93843595626E+00  0.38089880867E+02  0.38156974503E+02  0.10566000000E+00 0.  1.
        -13    1    4    4    0    0  0.99155640616E+00  0.10280751359E+00  0.21030940944E+02  0.21054818796E+02  0.10566000000E+00 0. -1.
         14    1    4    4    0    0  0.12558153952E+02 -0.34852307599E+01  0.22748946394E+03  0.22786248105E+03  0.00000000000E+00 0. -1.
<mgrwt>
<rscale>  0 0.81118405E+02</rscale>
<asrwt>0</asrwt>
<pdfrwt beam="1">  1        2 0.46045143E-01 0.81118405E+02</pdfrwt>
<pdfrwt beam="2">  1       -1 0.84560643E-03 0.81118405E+02</pdfrwt>
<totfact> 0.24561577E+05</totfact>
</mgrwt>
</event>
<event>
 8    1  0.1226832E-016  0.8115260E+02  0.7818608E-02  0.1325812E+00
         -1   -1    0    0    0  501 -0.00000000000E+00  0.00000000000E+00  0.96042616920E+01  0.96042630144E+01  0.50400000000E-02 0.  1.
          2   -1    0    0  501    0  0.00000000000E+00 -0.00000000000E+00 -0.17142765225E+03  0.17142765227E+03  0.25500000000E-02 0. -1.
         24    2    1    2    0    0 -0.35527136788E-14 -0.17763568394E-14 -0.16182339056E+03  0.18103191528E+03  0.81152600818E+02 0.  0.
         66    2    3    3    0    0  0.24862944084E+02  0.10508621844E+02 -0.14846961196E+03  0.15091660873E+03  0.19999990253E+01 0.  0.
        -13    1    3    3    0    0 -0.24862944084E+02 -0.10508621844E+02 -0.13353778604E+02  0.30115306550E+02  0.10566000000E+00 0.  1.
         13    1    4    4    0    0  0.10477105356E+02  0.37774020264E+01 -0.64578979144E+02  0.65532390571E+02  0.10566000000E+00 0. -1.
        -13    1    4    4    0    0  0.45281028772E+01  0.23658217675E+01 -0.28368752855E+02  0.28825303656E+02  0.10566000000E+00 0.  1.
        -14    1    4    4    0    0  0.98577358508E+01  0.43653980502E+01 -0.55521879957E+02  0.56558914507E+02  0.00000000000E+00 0.  1.
<mgrwt>
<rscale>  0 0.81152601E+02</rscale>
<asrwt>0</asrwt>
<pdfrwt beam="1">  1        2 0.26373483E-01 0.81152601E+02</pdfrwt>
<pdfrwt beam="2">  1       -1 0.14775790E-02 0.81152601E+02</pdfrwt>
<totfact> 0.20149664E+05</totfact>
</mgrwt>
</event>
<event>
 8    1  0.1226832E-016  0.8006623E+02  0.7818608E-02  0.1328864E+00
          2   -1    0    0  501    0  0.00000000000E+00  0.00000000000E+00  0.28763683707E+03  0.28763683708E+03  0.25500000000E-02 0. -1.
         -1   -1    0    0    0  501 -0.00000000000E+00 -0.00000000000E+00 -0.55717825152E+01  0.55717847947E+01  0.50400000000E-02 0.  1.
         24    2    1    2    0    0  0.17763568394E-14  0.00000000000E+00  0.28206505455E+03  0.29320862187E+03  0.80066228470E+02 0.  0.
         66    2    3    3    0    0 -0.13856464010E+02 -0.43500154756E+01  0.27763867890E+03  0.27802546690E+03  0.19999989799E+01 0.  0.
        -13    1    3    3    0    0  0.13856464010E+02  0.43500154756E+01  0.44263756566E+01  0.15183154975E+02  0.10566000000E+00 0.  1.
         13    1    4    4    0    0 -0.67488566930E+01 -0.15842344893E+01  0.14179427029E+03  0.14196366830E+03  0.10566000000E+00 0. -1.
        -13    1    4    4    0    0 -0.23235102206E+01 -0.54878794450E+00  0.37386208092E+02  0.37462509093E+02  0.10566000000E+00 0.  1.
         14    1    4    4    0    0 -0.47840970962E+01 -0.22169930417E+01  0.98458200516E+02  0.98599289511E+02  0.00000000000E+00 0. -1.
<mgrwt>
<rscale>  0 0.80066228E+02</rscale>
<asrwt>0</asrwt>
<pdfrwt beam="1">  1        2 0.44251842E-01 0.80066228E+02</pdfrwt>
<pdfrwt beam="2">  1       -1 0.85719709E-03 0.80066228E+02</pdfrwt>
<totfact> 0.25054352E+05</totfact>
</mgrwt>
</event>
<event>
 8    1  0.1226832E-016  0.8048191E+02  0.7818608E-02  0.1327689E+00
         -1   -1    0    0    0  501 -0.00000000000E+00  0.00000000000E+00  0.13673391333E+02  0.13673392262E+02  0.50400000000E-02 0.  1.
          2   -1    0    0  501    0  0.00000000000E+00 -0.00000000000E+00 -0.11842962087E+03  0.11842962090E+03  0.25500000000E-02 0. -1.
         24    2    1    2    0    0 -0.35527136788E-14 -0.35527136788E-14 -0.10475622954E+03  0.13210301316E+03  0.80481913863E+02 0.  0.
         66    2    3    3    0    0 -0.28841024030E+02 -0.26476987545E+02 -0.67498229983E+02  0.78056688295E+02  0.20000000650E+01 0.  0.
        -13    1    3    3    0    0  0.28841024030E+02  0.26476987545E+02 -0.37257999553E+02  0.54046324863E+02  0.10566000000E+00 0.  1.
         13    1    4    4    0    0 -0.12118423375E+02 -0.11822895331E+02 -0.29230124226E+02  0.33779407417E+02  0.10566000000E+00 0. -1.
        -13    1    4    4    0    0 -0.66332210502E+01 -0.50119002763E+01 -0.14525378086E+02  0.16736682421E+02  0.10566000000E+00 0.  1.
        -14    1    4    4    0    0 -0.10089379604E+02 -0.96421919372E+01 -0.23742727671E+02  0.27540598457E+02  0.00000000000E+00 0.  1.
<mgrwt>
<rscale>  0 0.80481914E+02</rscale>
<asrwt>0</asrwt>
<pdfrwt beam="1">  1        2 0.18219941E-01 0.80481914E+02</pdfrwt>
<pdfrwt beam="2">  1       -1 0.21035988E-02 0.80481914E+02</pdfrwt>
<totfact> 0.18317301E+05</totfact>
</mgrwt>
</event>
<event>
 8    1  0.1226832E-016  0.7913667E+02  0.7818608E-02  0.1331519E+00
          2   -1    0    0  501    0  0.00000000000E+00  0.00000000000E+00  0.31863494901E+02  0.31863495003E+02  0.25500000000E-02 0. -1.
         -1   -1    0    0    0  501 -0.00000000000E+00 -0.00000000000E+00 -0.49136260303E+02  0.49136260562E+02  0.50400000000E-02 0.  1.
         24    2    1    2    0    0  0.00000000000E+00 -0.35527136788E-14 -0.17272765402E+02  0.80999755565E+02  0.79136666451E+02 0.  0.
         66    2    3    3    0    0  0.47591195092E+01  0.21386551386E+02  0.25051398049E+02  0.33340760878E+02  0.19999982654E+01 0.  0.
        -13    1    3    3    0    0 -0.47591195092E+01 -0.21386551386E+02 -0.42324163451E+02  0.47658994687E+02  0.10566000000E+00 0.  1.
         13    1    4    4    0    0  0.35011024298E+01  0.14137232705E+02  0.16490906141E+02  0.22001823019E+02  0.10566000000E+00 0. -1.
        -13    1    4    4    0    0  0.61299451575E+00  0.56662028382E+01  0.61699866194E+01  0.84000902256E+01  0.10566000000E+00 0.  1.
         14    1    4    4    0    0  0.64502256360E+00  0.15831158426E+01  0.23905052886E+01  0.29388476336E+01  0.00000000000E+00 0. -1.
<mgrwt>
<rscale>  0 0.79136666E+02</rscale>
<asrwt>0</asrwt>
<pdfrwt beam="1">  1        2 0.49020761E-02 0.79136666E+02</pdfrwt>
<pdfrwt beam="2">  1       -1 0.75594248E-02 0.79136666E+02</pdfrwt>
<totfact> 0.14035383E+05</totfact>
</mgrwt>
</event>
<event>
 8    1  0.1226832E-016  0.7901028E+02  0.7818608E-02  0.1331884E+00
         -1   -1    0    0    0  501 -0.00000000000E+00  0.00000000000E+00  0.86586790241E+01  0.86586804909E+01  0.50400000000E-02 0.  1.
          2   -1    0    0  501    0  0.00000000000E+00 -0.00000000000E+00 -0.18024178883E+03  0.18024178885E+03  0.25500000000E-02 0. -1.
         24    2    1    2    0    0  0.88817841970E-15  0.00000000000E+00 -0.17158310981E+03  0.18890046934E+03  0.79010276205E+02 0.  0.
         66    2    3    3    0    0 -0.70740669901E+01 -0.27207045019E+02 -0.15211973033E+03  0.15470836459E+03  0.19999992800E+01 0.  0.
        -13    1    3    3    0    0  0.70740669901E+01  0.27207045019E+02 -0.19463379481E+02  0.34192104751E+02  0.10566000000E+00 0.  1.
         13    1    4    4    0    0 -0.53775196214E+01 -0.21911362383E+02 -0.12484285265E+03  0.12686518254E+03  0.10566000000E+00 0. -1.
        -13    1    4    4    0    0 -0.15482324880E+01 -0.43443407219E+01 -0.21870891820E+02  0.22352122789E+02  0.10566000000E+00 0.  1.
         14    1    4    4    0    0 -0.14831488071E+00 -0.95134191347E+00 -0.54059858530E+01  0.54910592588E+01  0.00000000000E+00 0. -1.
<mgrwt>
<rscale>  0 0.79010276E+02</rscale>
<asrwt>0</asrwt>
<pdfrwt beam="1">  1        2 0.27729503E-01 0.79010276E+02</pdfrwt>
<pdfrwt beam="2">  1       -1 0.13321047E-02 0.79010276E+02</pdfrwt>
<totfact> 0.21995769E+05</totfact>
</mgrwt>
</event>
<event>
 8    1  0.1226832E-016  0.8030021E+02  0.7818608E-02  0.1328202E+00
         -1   -1    0    0    0  501 -0.00000000000E+00  0.00000000000E+00  0.28166807186E+02  0.28166807637E+02  0.50400000000E-02 0.  1.
          2   -1    0    0  501    0  0.00000000000E+00 -0.00000000000E+00 -0.57231579639E+02  0.57231579696E+02  0.25500000000E-02 0. -1.
         24    2    1    2    0    0  0.00000000000E+00  0.00000000000E+00 -0.29064772454E+02  0.85398387333E+02  0.80300208974E+02 0.  0.
         66    2    3    3    0    0  0.25104155022E+02  0.39811106778E+01 -0.47560235576E+02  0.53963356527E+02  0.19999995146E+01 0.  0.
        -13    1    3    3    0    0 -0.25104155022E+02 -0.39811106778E+01  0.18495463122E+02  0.31435030805E+02  0.10566000000E+00 0.  1.
         13    1    4    4    0    0  0.53034476544E+01  0.28891024997E+00 -0.10920073279E+02  0.12143689333E+02  0.10566000000E+00 0. -1.
        -13    1    4    4    0    0  0.51315551362E+01  0.89917733774E+00 -0.10208873152E+02  0.11461833757E+02  0.10566000000E+00 0.  1.
         14    1    4    4    0    0  0.14669152231E+02  0.27930230901E+01 -0.26431289145E+02  0.30357833438E+02  0.00000000000E+00 0. -1.
<mgrwt>
<rscale>  0 0.80300209E+02</rscale>
<asrwt>0</asrwt>
<pdfrwt beam="1">  1        2 0.88048584E-02 0.80300209E+02</pdfrwt>
<pdfrwt beam="2">  1       -1 0.43333550E-02 0.80300209E+02</pdfrwt>
<totfact> 0.15242183E+05</totfact>
</mgrwt>
</event>
<event>
 8    1  0.1226832E-016  0.7942645E+02  0.7818608E-02  0.1330687E+00
         -1   -1    0    0    0  501 -0.00000000000E+00  0.00000000000E+00  0.78599487551E+01  0.78599503710E+01  0.50400000000E-02 0.  1.
          2   -1    0    0  501    0  0.00000000000E+00 -0.00000000000E+00 -0.20065527887E+03  0.20065527889E+03  0.25500000000E-02 0. -1.
         24    2    1    2    0    0  0.71054273576E-14  0.35527136788E-14 -0.19279533012E+03  0.20851522926E+03  0.79426453516E+02 0.  0.
         66    2    3    3    0    0 -0.20379486118E+02 -0.23324637490E+02 -0.16160390622E+03  0.16455754214E+03  0.19999999541E+01 0.  0.
        -13    1    3    3    0    0  0.20379486118E+02  0.23324637490E+02 -0.31191423898E+02  0.43957687124E+02  0.10566000000E+00 0.  1.
         13    1    4    4    0    0 -0.13332527005E+02 -0.15334618434E+02 -0.10544911489E+03  0.10738916982E+03  0.10566000000E+00 0. -1.
        -13    1    4    4    0    0 -0.11502716299E+01 -0.15652549066E+01 -0.82448964883E+01  0.84712826587E+01  0.10566000000E+00 0.  1.
        -14    1    4    4    0    0 -0.58966874828E+01 -0.64247641500E+01 -0.47909894842E+02  0.48697089660E+02  0.00000000000E+00 0.  1.
<mgrwt>
<rscale>  0 0.79426454E+02</rscale>
<asrwt>0</asrwt>
<pdfrwt beam="1">  1        2 0.30870039E-01 0.79426454E+02</pdfrwt>
<pdfrwt beam="2">  1       -1 0.12092232E-02 0.79426454E+02</pdfrwt>
<totfact> 0.22506732E+05</totfact>
</mgrwt>
</event>
<event>
 8    1  0.1226832E-016  0.7812539E+02  0.7818608E-02  0.1334457E+00
          2   -1    0    0  501    0  0.00000000000E+00  0.00000000000E+00  0.10346840917E+04  0.10346840917E+04  0.25500000000E-02 0. -1.
         -1   -1    0    0    0  501 -0.00000000000E+00 -0.00000000000E+00 -0.14747397115E+01  0.14747483237E+01  0.50400000000E-02 0.  1.
         24    2    1    2    0    0  0.00000000000E+00  0.00000000000E+00  0.10332093520E+04  0.10361588400E+04  0.78125391067E+02 0.  0.
         66    2    3    3    0    0 -0.84226541747E+01 -0.17926126805E+02  0.96309240439E+03  0.96329811926E+03  0.20000139777E+01 0.  0.
        -13    1    3    3    0    0  0.84226541747E+01  0.17926126805E+02  0.70116947573E+02  0.72860720738E+02  0.10566000000E+00 0.  1.
         13    1    4    4    0    0 -0.91383572869E+00 -0.11515246765E+01  0.59730438671E+02  0.59748619839E+02  0.10566000000E+00 0. -1.
        -13    1    4    4    0    0 -0.37537159559E+01 -0.91838745923E+01  0.46775522367E+03  0.46786044327E+03  0.10566000000E+00 0.  1.
         14    1    4    4    0    0 -0.37551024901E+01 -0.75907275359E+01  0.43560674205E+03  0.43568905616E+03  0.00000000000E+00 0. -1.
<mgrwt>
<rscale>  0 0.78125391E+02</rscale>
<asrwt>0</asrwt>
<pdfrwt beam="1">  1        2 0.15918205E+00 0.78125391E+02</pdfrwt>
<pdfrwt beam="2">  1       -1 0.22688386E-03 0.78125391E+02</pdfrwt>
<totfact> 0.37503067E+05</totfact>
</mgrwt>
</event>
<event>
 8    1  0.1226832E-016  0.7973557E+02  0.7818608E-02  0.1329804E+00
          2   -1    0    0  501    0  0.00000000000E+00  0.00000000000E+00  0.42180165185E+02  0.42180165263E+02  0.25500000000E-02 0. -1.
         -1   -1    0    0    0  501 -0.00000000000E+00 -0.00000000000E+00 -0.37682176968E+02  0.37682177306E+02  0.50400000000E-02 0.  1.
         24    2    1    2    0    0  0.00000000000E+00  0.00000000000E+00  0.44979882170E+01  0.79862342568E+02  0.79735574636E+02 0.  0.
         66    2    3    3    0    0 -0.17044484472E+02 -0.13906145499E+02  0.35522794662E+02  0.41830183642E+02  0.19999973492E+01 0.  0.
        -13    1    3    3    0    0  0.17044484472E+02  0.13906145499E+02 -0.31024806445E+02  0.38032158926E+02  0.10566000000E+00 0.  1.
         13    1    4    4    0    0 -0.24735570165E+01 -0.22084119569E+01  0.62710440223E+01  0.70945560010E+01  0.10566000000E+00 0. -1.
        -13    1    4    4    0    0 -0.58476117454E+01 -0.40983378760E+01  0.11980953219E+02  0.13947951123E+02  0.10566000000E+00 0.  1.
         14    1    4    4    0    0 -0.87233157099E+01 -0.75993956659E+01  0.17270797421E+02  0.20787676518E+02  0.00000000000E+00 0. -1.
<mgrwt>
<rscale>  0 0.79735575E+02</rscale>
<asrwt>0</asrwt>
<pdfrwt beam="1">  1        2 0.64892562E-02 0.79735575E+02</pdfrwt>
<pdfrwt beam="2">  1       -1 0.57972581E-02 0.79735575E+02</pdfrwt>
<totfact> 0.14544625E+05</totfact>
</mgrwt>
</event>
<event>
 8    1  0.1226832E-016  0.8090213E+02  0.7818608E-02  0.1326511E+00
         -1   -1    0    0    0  501 -0.00000000000E+00  0.00000000000E+00  0.74893218268E+01  0.74893235226E+01  0.50400000000E-02 0.  1.
          2   -1    0    0  501    0  0.00000000000E+00 -0.00000000000E+00 -0.21848284756E+03  0.21848284757E+03  0.25500000000E-02 0. -1.
         24    2    1    2    0    0  0.00000000000E+00  0.00000000000E+00 -0.21099352573E+03  0.22597217110E+03  0.80902127346E+02 0.  0.
         66    2    3    3    0    0  0.39604896243E+01 -0.13726651295E+02 -0.21119170154E+03  0.21168382369E+03  0.19999951780E+01 0.  0.
        -13    1    3    3    0    0 -0.39604896243E+01  0.13726651295E+02  0.19817580577E+00  0.14288347404E+02  0.10566000000E+00 0.  1.
         13    1    4    4    0    0  0.17109330408E+01 -0.44265519952E+01 -0.60845974674E+02  0.61030856561E+02  0.10566000000E+00 0. -1.
        -13    1    4    4    0    0  0.21446913792E+01 -0.71883099701E+01 -0.11714038029E+03  0.11738037042E+03  0.10566000000E+00 0.  1.
        -14    1    4    4    0    0  0.10486520438E+00 -0.21117893302E+01 -0.33205346578E+02  0.33272596716E+02  0.00000000000E+00 0.  1.
<mgrwt>
<rscale>  0 0.80902127E+02</rscale>
<asrwt>0</asrwt>
<pdfrwt beam="1">  1        2 0.33612741E-01 0.80902127E+02</pdfrwt>
<pdfrwt beam="2">  1       -1 0.11522037E-02 0.80902127E+02</pdfrwt>
<totfact> 0.22088904E+05</totfact>
</mgrwt>
</event>
<event>
 8    1  0.1226832E-016  0.7518524E+02  0.7818608E-02  0.1343298E+00
         -1   -1    0    0    0  501 -0.00000000000E+00  0.00000000000E+00  0.76395949347E+01  0.76395965972E+01  0.50400000000E-02 0.  1.
          2   -1    0    0  501    0  0.00000000000E+00 -0.00000000000E+00 -0.18498429764E+03  0.18498429766E+03  0.25500000000E-02 0. -1.
         24    2    1    2    0    0 -0.17763568394E-14 -0.44408920985E-15 -0.17734470270E+03  0.19262389425E+03  0.75185244963E+02 0.  0.
         66    2    3    3    0    0  0.11214444517E+02  0.31332653215E+01 -0.18023849954E+03  0.18062529677E+03  0.19999992057E+01 0.  0.
        -13    1    3    3    0    0 -0.11214444517E+02 -0.31332653215E+01  0.28937968417E+01  0.11998597485E+02  0.10566000000E+00 0.  1.
         13    1    4    4    0    0  0.37933262819E+01  0.92027119814E+00 -0.57471957537E+02  0.57604455475E+02  0.10566000000E+00 0. -1.
        -13    1    4    4    0    0  0.54498921965E+00  0.64813077472E+00 -0.13728882550E+02  0.13755379561E+02  0.10566000000E+00 0.  1.
        -14    1    4    4    0    0  0.68761290158E+01  0.15648633486E+01 -0.10903765946E+03  0.10926546173E+03  0.00000000000E+00 0.  1.
<mgrwt>
<rscale>  0 0.75185245E+02</rscale>
<asrwt>0</asrwt>
<pdfrwt beam="1">  1        2 0.28459120E-01 0.75185245E+02</pdfrwt>
<pdfrwt beam="2">  1       -1 0.11753226E-02 0.75185245E+02</pdfrwt>
<totfact> 0.25286701E+05</totfact>
</mgrwt>
</event>
<event>
 8    1  0.1226832E-016  0.7945705E+02  0.7818608E-02  0.1330599E+00
         -1   -1    0    0    0  501 -0.00000000000E+00  0.00000000000E+00  0.14552967063E+01  0.14553054336E+01  0.50400000000E-02 0.  1.
          2   -1    0    0  501    0  0.00000000000E+00 -0.00000000000E+00 -0.10845562486E+04  0.10845562486E+04  0.25500000000E-02 0. -1.
         24    2    1    2    0    0  0.00000000000E+00  0.00000000000E+00 -0.10831009519E+04  0.10860115541E+04  0.79457054490E+02 0.  0.
         66    2    3    3    0    0 -0.18761723220E+02  0.22382005233E+01 -0.10191627411E+04  0.10193398377E+04  0.20000043042E+01 0.  0.
        -13    1    3    3    0    0  0.18761723220E+02 -0.22382005233E+01 -0.63938210829E+02  0.66671716401E+02  0.10566000000E+00 0.  1.
         13    1    4    4    0    0 -0.67738269544E+01  0.73986980171E+00 -0.34413002560E+03  0.34419749828E+03  0.10566000000E+00 0. -1.
        -13    1    4    4    0    0 -0.60459566782E+01  0.79868354902E+00 -0.38022992779E+03  0.38027884590E+03  0.10566000000E+00 0.  1.
        -14    1    4    4    0    0 -0.59419395876E+01  0.69964717262E+00 -0.29480278772E+03  0.29486349350E+03  0.00000000000E+00 0.  1.
<mgrwt>
<rscale>  0 0.79457054E+02</rscale>
<asrwt>0</asrwt>
<pdfrwt beam="1">  1        2 0.16685416E+00 0.79457054E+02</pdfrwt>
<pdfrwt beam="2">  1       -1 0.22389334E-03 0.79457054E+02</pdfrwt>
<totfact> 0.35893525E+05</totfact>
</mgrwt>
</event>
<event>
 8    1  0.1226832E-016  0.7999401E+02  0.7818608E-02  0.1329068E+00
         -1   -1    0    0    0  501 -0.00000000000E+00  0.00000000000E+00  0.78074346194E+01  0.78074362462E+01  0.50400000000E-02 0.  1.
          2   -1    0    0  501    0  0.00000000000E+00 -0.00000000000E+00 -0.20490213732E+03  0.20490213734E+03  0.25500000000E-02 0. -1.
         24    2    1    2    0    0  0.35527136788E-14  0.00000000000E+00 -0.19709470270E+03  0.21270957358E+03  0.79994005156E+02 0.  0.
         66    2    3    3    0    0  0.20652180951E+02 -0.34188053256E+02 -0.10274505987E+03  0.11025372050E+03  0.19999985133E+01 0.  0.
        -13    1    3    3    0    0 -0.20652180951E+02  0.34188053256E+02 -0.94349642835E+02  0.10245585308E+03  0.10566000000E+00 0.  1.
         13    1    4    4    0    0  0.12155400266E+02 -0.20575649604E+02 -0.61630259019E+02  0.66101521186E+02  0.10566000000E+00 0. -1.
        -13    1    4    4    0    0  0.14835218606E+01 -0.33044665856E+01 -0.95441848650E+01  0.10208964948E+02  0.10566000000E+00 0.  1.
        -14    1    4    4    0    0  0.70132588239E+01 -0.10307937067E+02 -0.31570615984E+02  0.33943234370E+02  0.00000000000E+00 0.  1.
<mgrwt>
<rscale>  0 0.79994005E+02</rscale>
<asrwt>0</asrwt>
<pdfrwt beam="1">  1        2 0.31523402E-01 0.79994005E+02</pdfrwt>
<pdfrwt beam="2">  1       -1 0.12011441E-02 0.79994005E+02</pdfrwt>
<totfact> 0.22249655E+05</totfact>
</mgrwt>
</event>
<event>
 8    1  0.1226832E-016  0.8112467E+02  0.7818608E-02  0.1325890E+00
          2   -1    0    0  501    0  0.00000000000E+00  0.00000000000E+00  0.58250195129E+01  0.58250200711E+01  0.25500000000E-02 0. -1.
         -1   -1    0    0    0  501 -0.00000000000E+00 -0.00000000000E+00 -0.28245449954E+03  0.28245449958E+03  0.50400000000E-02 0.  1.
         24    2    1    2    0    0  0.00000000000E+00  0.00000000000E+00 -0.27662948002E+03  0.28827951965E+03  0.81124670927E+02 0.  0.
         66    2    3    3    0    0 -0.14403211270E+02  0.34442013647E+02 -0.82257940864E+02  0.90355263437E+02  0.19999991717E+01 0.  0.
        -13    1    3    3    0    0  0.14403211270E+02 -0.34442013647E+02 -0.19437153916E+03  0.19792425622E+03  0.10566000000E+00 0.  1.
         13    1    4    4    0    0 -0.45574385768E+01  0.93488506959E+01 -0.23855959248E+02  0.26024780717E+02  0.10566000000E+00 0. -1.
        -13    1    4    4    0    0 -0.77300737278E+01  0.20570101037E+02 -0.48113403839E+02  0.52894176329E+02  0.10566000000E+00 0.  1.
        -14    1    4    4    0    0 -0.21156989656E+01  0.45230619150E+01 -0.10288577776E+02  0.11436306391E+02  0.00000000000E+00 0.  1.
<mgrwt>
<rscale>  0 0.81124671E+02</rscale>
<asrwt>0</asrwt>
<pdfrwt beam="1">  1        2 0.89615711E-03 0.81124671E+02</pdfrwt>
<pdfrwt beam="2">  1       -1 0.43454528E-01 0.81124671E+02</pdfrwt>
<totfact> 0.85410427E+04</totfact>
</mgrwt>
</event>
<event>
 8    1  0.1226832E-016  0.7147929E+02  0.7818608E-02  0.1355134E+00
          2   -1    0    0  501    0  0.00000000000E+00  0.00000000000E+00  0.21817985648E+03  0.21817985650E+03  0.25500000000E-02 0. -1.
         -1   -1    0    0    0  501 -0.00000000000E+00 -0.00000000000E+00 -0.58544446155E+01  0.58544467849E+01  0.50400000000E-02 0.  1.
         24    2    1    2    0    0  0.00000000000E+00 -0.17763568394E-14  0.21232541187E+03  0.22403430328E+03  0.71479287368E+02 0.  0.
         66    2    3    3    0    0  0.29480743994E+01 -0.15253519316E+02  0.20702815207E+03  0.20761988524E+03  0.20000010814E+01 0.  0.
        -13    1    3    3    0    0 -0.29480743994E+01  0.15253519316E+02  0.52972597963E+01  0.16414418039E+02  0.10566000000E+00 0.  1.
         13    1    4    4    0    0  0.10539886162E+01 -0.97127672412E+01  0.13171583337E+03  0.13207770691E+03  0.10566000000E+00 0. -1.
        -13    1    4    4    0    0  0.32039413753E+00 -0.72686372694E+00  0.82153511547E+01  0.82543407920E+01  0.10566000000E+00 0.  1.
         14    1    4    4    0    0  0.15736916457E+01 -0.48138883476E+01  0.67096967550E+02  0.67287837541E+02  0.00000000000E+00 0. -1.
<mgrwt>
<rscale>  0 0.71479287E+02</rscale>
<asrwt>0</asrwt>
<pdfrwt beam="1">  1        2 0.33566132E-01 0.71479287E+02</pdfrwt>
<pdfrwt beam="2">  1       -1 0.90068395E-03 0.71479287E+02</pdfrwt>
<totfact> 0.30536806E+05</totfact>
</mgrwt>
</event>
<event>
 8    1  0.1226832E-016  0.7960794E+02  0.7818608E-02  0.1330168E+00
          2   -1    0    0  501    0  0.00000000000E+00  0.00000000000E+00  0.40924107592E+03  0.40924107593E+03  0.25500000000E-02 0. -1.
         -1   -1    0    0    0  501 -0.00000000000E+00 -0.00000000000E+00 -0.38714477295E+01  0.38714510101E+01  0.50400000000E-02 0.  1.
         24    2    1    2    0    0  0.00000000000E+00  0.00000000000E+00  0.40536962819E+03  0.41311252694E+03  0.79607942153E+02 0.  0.
         66    2    3    3    0    0 -0.27246335973E+02 -0.21282249100E+02  0.30490583206E+03  0.30686619783E+03  0.19999998093E+01 0.  0.
        -13    1    3    3    0    0  0.27246335973E+02  0.21282249100E+02  0.10046379613E+03  0.10624632910E+03  0.10566000000E+00 0.  1.
         13    1    4    4    0    0 -0.75317718000E+01 -0.63119384344E+01  0.87258078602E+02  0.87809746604E+02  0.10566000000E+00 0. -1.
        -13    1    4    4    0    0 -0.18376232968E+02 -0.14398465821E+02  0.20551629951E+03  0.20683800977E+03  0.10566000000E+00 0.  1.
        -14    1    4    4    0    0 -0.13383312051E+01 -0.57184484473E+00  0.12131453942E+02  0.12218441460E+02  0.00000000000E+00 0.  1.
<mgrwt>
<rscale>  0 0.79607942E+02</rscale>
<asrwt>0</asrwt>
<pdfrwt beam="1">  1        2 0.62960124E-01 0.79607942E+02</pdfrwt>
<pdfrwt beam="2">  1       -1 0.59560799E-03 0.79607942E+02</pdfrwt>
<totfact> 0.28846986E+05</totfact>
</mgrwt>
</event>
<event>
 8    1  0.1226832E-016  0.7817929E+02  0.7818608E-02  0.1334299E+00
         -1   -1    0    0    0  501 -0.00000000000E+00  0.00000000000E+00  0.99260069535E+01  0.99260082331E+01  0.50400000000E-02 0.  1.
          2   -1    0    0  501    0  0.00000000000E+00 -0.00000000000E+00 -0.15393904699E+03  0.15393904701E+03  0.25500000000E-02 0. -1.
         24    2    1    2    0    0 -0.44408920985E-15  0.00000000000E+00 -0.14401304004E+03  0.16386505525E+03  0.78179285170E+02 0.  0.
         66    2    3    3    0    0  0.30955377114E+01  0.38777306321E+02 -0.79532911350E+02  0.88559278582E+02  0.19999989998E+01 0.  0.
        -13    1    3    3    0    0 -0.30955377114E+01 -0.38777306321E+02 -0.64480128689E+02  0.75305776665E+02  0.10566000000E+00 0.  1.
         13    1    4    4    0    0  0.17985534260E+01  0.29015155536E+02 -0.59101791075E+02  0.65864610509E+02  0.10566000000E+00 0. -1.
        -13    1    4    4    0    0  0.44445284949E+00  0.44393915095E+01 -0.10089021550E+02  0.11032010477E+02  0.10566000000E+00 0.  1.
         14    1    4    4    0    0  0.85253143589E+00  0.53227592754E+01 -0.10342098726E+02  0.11662657596E+02  0.00000000000E+00 0. -1.
<mgrwt>
<rscale>  0 0.78179285E+02</rscale>
<asrwt>0</asrwt>
<pdfrwt beam="1">  1        2 0.23682929E-01 0.78179285E+02</pdfrwt>
<pdfrwt beam="2">  1       -1 0.15270782E-02 0.78179285E+02</pdfrwt>
<totfact> 0.21468686E+05</totfact>
</mgrwt>
</event>
<event>
 8    1  0.1226832E-016  0.7565107E+02  0.7818608E-02  0.1341867E+00
          2   -1    0    0  501    0  0.00000000000E+00  0.00000000000E+00  0.24337281890E+04  0.24337281890E+04  0.25500000000E-02 0. -1.
         -1   -1    0    0    0  501 -0.00000000000E+00 -0.00000000000E+00 -0.58788184283E+00  0.58790344677E+00  0.50400000000E-02 0.  1.
         24    2    1    2    0    0  0.88817841970E-15  0.00000000000E+00  0.24331403072E+04  0.24343160925E+04  0.75651065022E+02 0.  0.
         66    2    3    3    0    0  0.67796120841E+01  0.89206005558E+01  0.23790585915E+04  0.23790858165E+04  0.19999984507E+01 0.  0.
        -13    1    3    3    0    0 -0.67796120841E+01 -0.89206005558E+01  0.54081715666E+02  0.55230276006E+02  0.10566000000E+00 0.  1.
         13    1    4    4    0    0  0.40327499450E+01  0.61881207228E+01  0.16111119316E+04  0.16111288661E+04  0.10566000000E+00 0. -1.
        -13    1    4    4    0    0  0.17436828907E+01  0.11937108367E+01  0.36971180930E+03  0.36971786334E+03  0.10566000000E+00 0.  1.
        -14    1    4    4    0    0  0.10031792483E+01  0.15387689963E+01  0.39823485062E+03  0.39823908701E+03  0.00000000000E+00 0.  1.
<mgrwt>
<rscale>  0 0.75651065E+02</rscale>
<asrwt>0</asrwt>
<pdfrwt beam="1">  1        2 0.37441997E+00 0.75651065E+02</pdfrwt>
<pdfrwt beam="2">  1       -1 0.90444962E-04 0.75651065E+02</pdfrwt>
<totfact> 0.25340053E+05</totfact>
</mgrwt>
</event>
<event>
 8    1  0.1226832E-016  0.8031908E+02  0.7818608E-02  0.1328148E+00
          2   -1    0    0  501    0  0.00000000000E+00  0.00000000000E+00  0.63950084945E+03  0.63950084945E+03  0.25500000000E-02 0. -1.
         -1   -1    0    0    0  501 -0.00000000000E+00 -0.00000000000E+00 -0.25219469450E+01  0.25219519811E+01  0.50400000000E-02 0.  1.
         24    2    1    2    0    0  0.00000000000E+00  0.00000000000E+00  0.63697890250E+03  0.64202280143E+03  0.80319084453E+02 0.  0.
         66    2    3    3    0    0  0.92259273763E+01  0.22349884022E+02  0.57474350954E+03  0.57525536661E+03  0.20000006102E+01 0.  0.
        -13    1    3    3    0    0 -0.92259273763E+01 -0.22349884022E+02  0.62235392957E+02  0.66767434819E+02  0.10566000000E+00 0.  1.
         13    1    4    4    0    0  0.73246001728E+01  0.16894902629E+02  0.44668386847E+03  0.44706328077E+03  0.10566000000E+00 0. -1.
        -13    1    4    4    0    0  0.79018721236E+00  0.30524987601E+01  0.75362177179E+02  0.75428184770E+02  0.10566000000E+00 0.  1.
         14    1    4    4    0    0  0.11111399912E+01  0.24024826336E+01  0.52697463899E+02  0.52763901072E+02  0.00000000000E+00 0. -1.
<mgrwt>
<rscale>  0 0.80319084E+02</rscale>
<asrwt>0</asrwt>
<pdfrwt beam="1">  1        2 0.98384740E-01 0.80319084E+02</pdfrwt>
<pdfrwt beam="2">  1       -1 0.38799225E-03 0.80319084E+02</pdfrwt>
<totfact> 0.32383049E+05</totfact>
</mgrwt>
</event>
<event>
 8    1  0.1226832E-016  0.7728147E+02  0.7818608E-02  0.1336948E+00
         -1   -1    0    0    0  501 -0.00000000000E+00  0.00000000000E+00  0.22173490367E+01  0.22173547646E+01  0.50400000000E-02 0.  1.
          2   -1    0    0  501    0  0.00000000000E+00 -0.00000000000E+00 -0.67337370296E+03  0.67337370297E+03  0.25500000000E-02 0. -1.
         24    2    1    2    0    0  0.00000000000E+00 -0.17763568394E-14 -0.67115635393E+03  0.67559105773E+03  0.77281471727E+02 0.  0.
         66    2    3    3    0    0  0.11617947428E+02 -0.14750273046E+02 -0.63077741778E+03  0.63105997976E+03  0.20000027677E+01 0.  0.
        -13    1    3    3    0    0 -0.11617947428E+02  0.14750273046E+02 -0.40378936144E+02  0.44531077974E+02  0.10566000000E+00 0.  1.
         13    1    4    4    0    0  0.62241220352E+01 -0.85498428344E+01 -0.37125595754E+03  0.37140656521E+03  0.10566000000E+00 0. -1.
        -13    1    4    4    0    0  0.45294071120E+01 -0.46741083439E+01 -0.19817601388E+03  0.19828289502E+03  0.10566000000E+00 0.  1.
        -14    1    4    4    0    0  0.86441828054E+00 -0.15263218681E+01 -0.61345446363E+02  0.61370519526E+02  0.00000000000E+00 0.  1.
<mgrwt>
<rscale>  0 0.77281472E+02</rscale>
<asrwt>0</asrwt>
<pdfrwt beam="1">  1        2 0.10359579E+00 0.77281472E+02</pdfrwt>
<pdfrwt beam="2">  1       -1 0.34113160E-03 0.77281472E+02</pdfrwt>
<totfact> 0.36259218E+05</totfact>
</mgrwt>
</event>
<event>
 8    1  0.1226832E-016  0.8091625E+02  0.7818608E-02  0.1326471E+00
          2   -1    0    0  501    0  0.00000000000E+00  0.00000000000E+00  0.27929878939E+03  0.27929878941E+03  0.25500000000E-02 0. -1.
         -1   -1    0    0    0  501 -0.00000000000E+00 -0.00000000000E+00 -0.58606035342E+01  0.58606057013E+01  0.50400000000E-02 0.  1.
         24    2    1    2    0    0  0.00000000000E+00  0.00000000000E+00  0.27343818586E+03  0.28515939511E+03  0.80916247636E+02 0.  0.
         66    2    3    3    0    0 -0.32669473205E+02  0.12960994841E+02  0.20724735443E+03  0.21021595513E+03  0.20000011104E+01 0.  0.
        -13    1    3    3    0    0  0.32669473205E+02 -0.12960994841E+02  0.66190831428E+02  0.74943439980E+02  0.10566000000E+00 0.  1.
         13    1    4    4    0    0 -0.18923616342E+02  0.76132133398E+01  0.11717547399E+03  0.11893766073E+03  0.10566000000E+00 0. -1.
        -13    1    4    4    0    0 -0.11982432545E+02  0.43927855432E+01  0.75983353136E+02  0.77047753844E+02  0.10566000000E+00 0. -1.
         14    1    4    4    0    0 -0.17634243182E+01  0.95499595758E+00  0.14088527310E+02  0.14230540551E+02  0.00000000000E+00 0. -1.
<mgrwt>
<rscale>  0 0.80916248E+02</rscale>
<asrwt>0</asrwt>
<pdfrwt beam="1">  1        2 0.42969033E-01 0.80916248E+02</pdfrwt>
<pdfrwt beam="2">  1       -1 0.90163173E-03 0.80916248E+02</pdfrwt>
<totfact> 0.24110706E+05</totfact>
</mgrwt>
</event>
<event>
 8    1  0.1226832E-016  0.8152385E+02  0.7818608E-02  0.1324782E+00
          2   -1    0    0  501    0  0.00000000000E+00  0.00000000000E+00  0.60034779582E+02  0.60034779636E+02  0.25500000000E-02 0. -1.
         -1   -1    0    0    0  501 -0.00000000000E+00 -0.00000000000E+00 -0.27676201720E+02  0.27676202178E+02  0.50400000000E-02 0.  1.
         24    2    1    2    0    0  0.00000000000E+00 -0.17763568394E-14  0.32358577862E+02  0.87710981814E+02  0.81523853991E+02 0.  0.
         66    2    3    3    0    0 -0.36939661157E+02 -0.13978430975E+02  0.26926104537E+02  0.47842974222E+02  0.19999944929E+01 0.  0.
        -13    1    3    3    0    0  0.36939661157E+02  0.13978430975E+02  0.54324733250E+01  0.39868007592E+02  0.10566000000E+00 0.  1.
         13    1    4    4    0    0 -0.67181829473E+01 -0.24509933061E+01  0.43769732065E+01  0.83851302188E+01  0.10566000000E+00 0. -1.
        -13    1    4    4    0    0 -0.14020333587E+01 -0.83888411939E+00  0.99197731157E+00  0.19143163602E+01  0.10566000000E+00 0. -1.
         14    1    4    4    0    0 -0.28819444851E+02 -0.10688553550E+02  0.21557154019E+02  0.37543527643E+02  0.00000000000E+00 0. -1.
<mgrwt>
<rscale>  0 0.81523854E+02</rscale>
<asrwt>0</asrwt>
<pdfrwt beam="1">  1        2 0.92361200E-02 0.81523854E+02</pdfrwt>
<pdfrwt beam="2">  1       -1 0.42578772E-02 0.81523854E+02</pdfrwt>
<totfact> 0.14788243E+05</totfact>
</mgrwt>
</event>
<event>
 8    1  0.1226832E-016  0.7955332E+02  0.7818608E-02  0.1330324E+00
          2   -1    0    0  501    0  0.00000000000E+00  0.00000000000E+00  0.72170806349E+01  0.72170810854E+01  0.25500000000E-02 0. -1.
         -1   -1    0    0    0  501 -0.00000000000E+00 -0.00000000000E+00 -0.21922750790E+03  0.21922750796E+03  0.50400000000E-02 0.  1.
         24    2    1    2    0    0  0.00000000000E+00  0.71054273576E-14 -0.21201042727E+03  0.22644458905E+03  0.79553319465E+02 0.  0.
         66    2    3    3    0    0 -0.15160098656E+01  0.36673002951E+02 -0.62625616058E+02  0.72616631849E+02  0.20000007544E+01 0.  0.
        -13    1    3    3    0    0  0.15160098656E+01 -0.36673002951E+02 -0.14938481121E+03  0.15382795720E+03  0.10566000000E+00 0.  1.
         13    1    4    4    0    0 -0.15773711475E+01  0.17651538671E+02 -0.29954877163E+02  0.34804751788E+02  0.10566000000E+00 0. -1.
        -13    1    4    4    0    0 -0.32232226704E+00  0.10552835038E+02 -0.18038698750E+02  0.20901484053E+02  0.10566000000E+00 0.  1.
        -14    1    4    4    0    0  0.38368354903E+00  0.84686292427E+01 -0.14632040145E+02  0.16910396007E+02  0.00000000000E+00 0.  1.
<mgrwt>
<rscale>  0 0.79553319E+02</rscale>
<asrwt>0</asrwt>
<pdfrwt beam="1">  1        2 0.11103203E-02 0.79553319E+02</pdfrwt>
<pdfrwt beam="2">  1       -1 0.33727304E-01 0.79553319E+02</pdfrwt>
<totfact> 0.98184889E+04</totfact>
</mgrwt>
</event>
<event>
 8    1  0.1226832E-016  0.7977275E+02  0.7818608E-02  0.1329698E+00
         -1   -1    0    0    0  501 -0.00000000000E+00  0.00000000000E+00  0.26244535828E+01  0.26244584222E+01  0.50400000000E-02 0.  1.
          2   -1    0    0  501    0  0.00000000000E+00 -0.00000000000E+00 -0.60619153020E+03  0.60619153021E+03  0.25500000000E-02 0. -1.
         24    2    1    2    0    0  0.00000000000E+00  0.00000000000E+00 -0.60356707662E+03  0.60881598863E+03  0.79772752442E+02 0.  0.
         66    2    3    3    0    0  0.10773486593E+02 -0.36989038454E+02 -0.38004987170E+03  0.38200282976E+03  0.19999958571E+01 0.  0.
        -13    1    3    3    0    0 -0.10773486593E+02  0.36989038454E+02 -0.22351720492E+03  0.22681315887E+03  0.10566000000E+00 0.  1.
         13    1    4    4    0    0  0.50159277929E+01 -0.19681142181E+02 -0.19743098319E+03  0.19847294822E+03  0.10566000000E+00 0. -1.
        -13    1    4    4    0    0  0.21893949009E+01 -0.56750461839E+01 -0.64069286266E+02  0.64357472029E+02  0.10566000000E+00 0.  1.
         14    1    4    4    0    0  0.35681638995E+01 -0.11632850089E+02 -0.11854960224E+03  0.11917240950E+03  0.00000000000E+00 0. -1.
<mgrwt>
<rscale>  0 0.79772752E+02</rscale>
<asrwt>0</asrwt>
<pdfrwt beam="1">  1        2 0.93260124E-01 0.79772752E+02</pdfrwt>
<pdfrwt beam="2">  1       -1 0.40376295E-03 0.79772752E+02</pdfrwt>
<totfact> 0.32494662E+05</totfact>
</mgrwt>
</event>
<event>
 8    1  0.1226832E-016  0.8026151E+02  0.7818608E-02  0.1328311E+00
         -1   -1    0    0    0  501 -0.00000000000E+00  0.00000000000E+00  0.10412048208E+02  0.10412049428E+02  0.50400000000E-02 0.  1.
          2   -1    0    0  501    0  0.00000000000E+00 -0.00000000000E+00 -0.15467441389E+03  0.15467441391E+03  0.25500000000E-02 0. -1.
         24    2    1    2    0    0  0.00000000000E+00  0.00000000000E+00 -0.14426236568E+03  0.16508646333E+03  0.80261511483E+02 0.  0.
         66    2    3    3    0    0  0.33585095015E+02  0.50969718711E+01 -0.11602767719E+03  0.12091467904E+03  0.20000012403E+01 0.  0.
        -13    1    3    3    0    0 -0.33585095015E+02 -0.50969718711E+01 -0.28234688489E+02  0.44171784291E+02  0.10566000000E+00 0.  1.
         13    1    4    4    0    0  0.18872331837E+02  0.33134757551E+01 -0.62990886495E+02  0.65840769861E+02  0.10566000000E+00 0. -1.
        -13    1    4    4    0    0  0.15829935845E+01  0.22223453831E+00 -0.49807310157E+01  0.52320266021E+01  0.10566000000E+00 0. -1.
         14    1    4    4    0    0  0.13129769593E+02  0.15612615776E+01 -0.48056059678E+02  0.49841882580E+02  0.00000000000E+00 0. -1.
<mgrwt>
<rscale>  0 0.80261511E+02</rscale>
<asrwt>0</asrwt>
<pdfrwt beam="1">  1        2 0.23796062E-01 0.80261511E+02</pdfrwt>
<pdfrwt beam="2">  1       -1 0.16018538E-02 0.80261511E+02</pdfrwt>
<totfact> 0.20055588E+05</totfact>
</mgrwt>
</event>
<event>
 8    1  0.1226832E-016  0.8042704E+02  0.7818608E-02  0.1327844E+00
          2   -1    0    0  501    0  0.00000000000E+00  0.00000000000E+00  0.97120013622E+03  0.97120013623E+03  0.25500000000E-02 0. -1.
         -1   -1    0    0    0  501 -0.00000000000E+00 -0.00000000000E+00 -0.16650773059E+01  0.16650849337E+01  0.50400000000E-02 0.  1.
         24    2    1    2    0    0  0.88817841970E-15  0.00000000000E+00  0.96953505892E+03  0.97286522116E+03  0.80427035712E+02 0.  0.
         66    2    3    3    0    0 -0.62160802966E+01  0.21769304408E+02  0.88672373005E+03  0.88701494672E+03  0.20000005628E+01 0.  0.
        -13    1    3    3    0    0  0.62160802966E+01 -0.21769304408E+02  0.82811328865E+02  0.85850274438E+02  0.10566000000E+00 0.  1.
         13    1    4    4    0    0 -0.21345534673E+01  0.83769682690E+01  0.30948344029E+03  0.30960416808E+03  0.10566000000E+00 0. -1.
        -13    1    4    4    0    0 -0.12652229119E+01  0.56071307087E+01  0.24193125539E+03  0.24199955413E+03  0.10566000000E+00 0.  1.
        -14    1    4    4    0    0 -0.28163039174E+01  0.77852054299E+01  0.33530903438E+03  0.33541122451E+03  0.00000000000E+00 0.  1.
<mgrwt>
<rscale>  0 0.80427036E+02</rscale>
<asrwt>0</asrwt>
<pdfrwt beam="1">  1        2 0.14941594E+00 0.80427036E+02</pdfrwt>
<pdfrwt beam="2">  1       -1 0.25616542E-03 0.80427036E+02</pdfrwt>
<totfact> 0.34694652E+05</totfact>
</mgrwt>
</event>
<event>
 8    1  0.1226832E-016  0.8077163E+02  0.7818608E-02  0.1326876E+00
          2   -1    0    0  501    0  0.00000000000E+00  0.00000000000E+00  0.11545857535E+04  0.11545857535E+04  0.25500000000E-02 0. -1.
         -1   -1    0    0    0  501 -0.00000000000E+00 -0.00000000000E+00 -0.14126355696E+01  0.14126445604E+01  0.50400000000E-02 0.  1.
         24    2    1    2    0    0  0.00000000000E+00  0.00000000000E+00  0.11531731180E+04  0.11559983981E+04  0.80771631206E+02 0.  0.
         66    2    3    3    0    0 -0.95881629554E+00 -0.16292892414E+02  0.11052475693E+04  0.11053698780E+04  0.19999994464E+01 0.  0.
        -13    1    3    3    0    0  0.95881629554E+00  0.16292892414E+02  0.47925548658E+02  0.50628520126E+02  0.10566000000E+00 0.  1.
         13    1    4    4    0    0 -0.72281397844E+00 -0.64368140604E+01  0.44400799831E+03  0.44405525417E+03  0.10566000000E+00 0. -1.
        -13    1    4    4    0    0 -0.32709498791E+00 -0.68610915085E+01  0.50029733644E+03  0.50034449890E+03  0.10566000000E+00 0.  1.
         14    1    4    4    0    0  0.91092670804E-01 -0.29949868446E+01  0.16094223456E+03  0.16097012490E+03  0.00000000000E+00 0. -1.
<mgrwt>
<rscale>  0 0.80771631E+02</rscale>
<asrwt>0</asrwt>
<pdfrwt beam="1">  1        2 0.17762890E+00 0.80771631E+02</pdfrwt>
<pdfrwt beam="2">  1       -1 0.21732884E-03 0.80771631E+02</pdfrwt>
<totfact> 0.34296612E+05</totfact>
</mgrwt>
</event>
<event>
 8    1  0.1226832E-016  0.8031719E+02  0.7818608E-02  0.1328154E+00
          2   -1    0    0  501    0  0.00000000000E+00  0.00000000000E+00  0.70117504215E+02  0.70117504261E+02  0.25500000000E-02 0. -1.
         -1   -1    0    0    0  501 -0.00000000000E+00 -0.00000000000E+00 -0.23000142777E+02  0.23000143329E+02  0.50400000000E-02 0.  1.
         24    2    1    2    0    0  0.00000000000E+00  0.71054273576E-14  0.47117361438E+02  0.93117647591E+02  0.80317187102E+02 0.  0.
         66    2    3    3    0    0 -0.89480610992E+01  0.32408654047E+02  0.48982296159E+02  0.59444545564E+02  0.20000014340E+01 0.  0.
        -13    1    3    3    0    0  0.89480610992E+01 -0.32408654047E+02 -0.18649347204E+01  0.33673102027E+02  0.10566000000E+00 0.  1.
         13    1    4    4    0    0 -0.37145761323E+01  0.12106013362E+02  0.18821074682E+02  0.22684744909E+02  0.10566000000E+00 0.  1.
        -13    1    4    4    0    0 -0.73448924185E+00  0.43000335570E+01  0.55334902562E+01  0.70470164956E+01  0.10566000000E+00 0. -1.
         14    1    4    4    0    0 -0.44989957250E+01  0.16002607128E+02  0.24627731221E+02  0.29712784160E+02  0.00000000000E+00 0. -1.
<mgrwt>
<rscale>  0 0.80317187E+02</rscale>
<asrwt>0</asrwt>
<pdfrwt beam="1">  1        2 0.10787308E-01 0.80317187E+02</pdfrwt>
<pdfrwt beam="2">  1       -1 0.35384836E-02 0.80317187E+02</pdfrwt>
<totfact> 0.15980993E+05</totfact>
</mgrwt>
</event>
<event>
 8    1  0.1226832E-016  0.7974974E+02  0.7818608E-02  0.1329763E+00
          2   -1    0    0  501    0  0.00000000000E+00  0.00000000000E+00  0.47788896653E+03  0.47788896654E+03  0.25500000000E-02 0. -1.
         -1   -1    0    0    0  501 -0.00000000000E+00 -0.00000000000E+00 -0.33271420611E+01  0.33271458785E+01  0.50400000000E-02 0.  1.
         24    2    1    2    0    0  0.00000000000E+00  0.00000000000E+00  0.47456182447E+03  0.48121611241E+03  0.79749743604E+02 0.  0.
         66    2    3    3    0    0 -0.25800261996E+02 -0.13852853672E+02  0.40051124226E+03  0.40158537109E+03  0.20000064145E+01 0.  0.
        -13    1    3    3    0    0  0.25800261996E+02  0.13852853672E+02  0.74050582207E+02  0.79630741320E+02  0.10566000000E+00 0.  1.
         13    1    4    4    0    0 -0.31587767972E+01 -0.18784467882E+01  0.47204103365E+02  0.47347069304E+02  0.10566000000E+00 0. -1.
        -13    1    4    4    0    0 -0.22231588893E+02 -0.11901555293E+02  0.34474539580E+03  0.34566644276E+03  0.10566000000E+00 0.  1.
        -14    1    4    4    0    0 -0.40989630613E+00 -0.72851590499E-01  0.85617430998E+01  0.85718590307E+01  0.00000000000E+00 0.  1.
<mgrwt>
<rscale>  0 0.79749744E+02</rscale>
<asrwt>0</asrwt>
<pdfrwt beam="1">  1        2 0.73521383E-01 0.79749744E+02</pdfrwt>
<pdfrwt beam="2">  1       -1 0.51186828E-03 0.79749744E+02</pdfrwt>
<totfact> 0.30256328E+05</totfact>
</mgrwt>
</event>
<event>
 8    1  0.1226832E-016  0.7922715E+02  0.7818608E-02  0.1331259E+00
          2   -1    0    0  501    0  0.00000000000E+00  0.00000000000E+00  0.54701534461E+03  0.54701534461E+03  0.25500000000E-02 0. -1.
         -1   -1    0    0    0  501 -0.00000000000E+00 -0.00000000000E+00 -0.28687207490E+01  0.28687251763E+01  0.50400000000E-02 0.  1.
         24    2    1    2    0    0  0.00000000000E+00  0.00000000000E+00  0.54414662386E+03  0.54988406979E+03  0.79227154132E+02 0.  0.
         66    2    3    3    0    0  0.23004935375E+02 -0.28308469090E+01  0.49499406863E+03  0.49554048143E+03  0.20000037835E+01 0.  0.
        -13    1    3    3    0    0 -0.23004935375E+02  0.28308469090E+01  0.49152555227E+02  0.54343588354E+02  0.10566000000E+00 0.  1.
         13    1    4    4    0    0  0.72932443228E+01 -0.48220566590E+00  0.15090930306E+03  0.15108624308E+03  0.10566000000E+00 0.  1.
        -13    1    4    4    0    0  0.94259556426E+01 -0.18174707997E+01  0.21960998516E+03  0.21981971838E+03  0.10566000000E+00 0. -1.
         14    1    4    4    0    0  0.62857354097E+01 -0.53117044335E+00  0.12447478041E+03  0.12463451997E+03  0.00000000000E+00 0. -1.
<mgrwt>
<rscale>  0 0.79227154E+02</rscale>
<asrwt>0</asrwt>
<pdfrwt beam="1">  1        2 0.84156259E-01 0.79227154E+02</pdfrwt>
<pdfrwt beam="2">  1       -1 0.44134172E-03 0.79227154E+02</pdfrwt>
<totfact> 0.32112998E+05</totfact>
</mgrwt>
</event>
<event>
 8    1  0.1226832E-016  0.7908957E+02  0.7818608E-02  0.1331655E+00
         -1   -1    0    0    0  501 -0.00000000000E+00  0.00000000000E+00  0.33482601433E+01  0.33482639366E+01  0.50400000000E-02 0.  1.
          2   -1    0    0  501    0  0.00000000000E+00 -0.00000000000E+00 -0.46704524277E+03  0.46704524278E+03  0.25500000000E-02 0. -1.
         24    2    1    2    0    0  0.00000000000E+00 -0.88817841970E-15 -0.46369698263E+03  0.47039350672E+03  0.79089566070E+02 0.  0.
         66    2    3    3    0    0 -0.26860266424E+02  0.79243134163E+01 -0.39783923170E+03  0.39882868871E+03  0.19999996190E+01 0.  0.
        -13    1    3    3    0    0  0.26860266424E+02 -0.79243134163E+01 -0.65857750924E+02  0.71564818007E+02  0.10566000000E+00 0.  1.
         13    1    4    4    0    0 -0.81962672476E+01  0.18507386082E+01 -0.11580797155E+03  0.11611245183E+03  0.10566000000E+00 0. -1.
        -13    1    4    4    0    0 -0.57653329352E+01  0.24130085141E+01 -0.85663132993E+02  0.85890891206E+02  0.10566000000E+00 0.  1.
         14    1    4    4    0    0 -0.12898666242E+02  0.36605662941E+01 -0.19636812716E+03  0.19682534568E+03  0.00000000000E+00 0. -1.
<mgrwt>
<rscale>  0 0.79089566E+02</rscale>
<asrwt>0</asrwt>
<pdfrwt beam="1">  1        2 0.71853063E-01 0.79089566E+02</pdfrwt>
<pdfrwt beam="2">  1       -1 0.51511761E-03 0.79089566E+02</pdfrwt>
<totfact> 0.30686847E+05</totfact>
</mgrwt>
</event>
<event>
 8    1  0.1226832E-016  0.7504429E+02  0.7818608E-02  0.1343734E+00
          2   -1    0    0  501    0  0.00000000000E+00  0.00000000000E+00  0.17888894110E+02  0.17888894292E+02  0.25500000000E-02 0. -1.
         -1   -1    0    0    0  501 -0.00000000000E+00 -0.00000000000E+00 -0.78703102039E+02  0.78703102201E+02  0.50400000000E-02 0.  1.
         24    2    1    2    0    0  0.00000000000E+00  0.00000000000E+00 -0.60814207929E+02  0.96591996493E+02  0.75044292924E+02 0.  0.
         66    2    3    3    0    0 -0.10150247891E+02  0.19473941929E+02  0.86892950030E+01  0.23701599112E+02  0.20000015772E+01 0.  0.
        -13    1    3    3    0    0  0.10150247891E+02 -0.19473941929E+02 -0.69503502932E+02  0.72890397381E+02  0.10566000000E+00 0.  1.
         13    1    4    4    0    0 -0.81456838334E+00  0.11141032076E+01  0.27337983310E+00  0.14109033195E+01  0.10566000000E+00 0.  1.
        -13    1    4    4    0    0 -0.68456369003E+01  0.13337838453E+02  0.67587519754E+01  0.16445442270E+02  0.10566000000E+00 0. -1.
         14    1    4    4    0    0 -0.24900426075E+01  0.50220002688E+01  0.16571631944E+01  0.58452535223E+01  0.00000000000E+00 0. -1.
<mgrwt>
<rscale>  0 0.75044293E+02</rscale>
<asrwt>0</asrwt>
<pdfrwt beam="1">  1        2 0.27521376E-02 0.75044293E+02</pdfrwt>
<pdfrwt beam="2">  1       -1 0.12108169E-01 0.75044293E+02</pdfrwt>
<totfact> 0.14585015E+05</totfact>
</mgrwt>
</event>
<event>
 8    1  0.1226832E-016  0.7885672E+02  0.7818608E-02  0.1332328E+00
         -1   -1    0    0    0  501 -0.00000000000E+00  0.00000000000E+00  0.10697101381E+02  0.10697102568E+02  0.50400000000E-02 0.  1.
          2   -1    0    0  501    0  0.00000000000E+00 -0.00000000000E+00 -0.14532866508E+03  0.14532866511E+03  0.25500000000E-02 0. -1.
         24    2    1    2    0    0 -0.35527136788E-14 -0.17763568394E-14 -0.13463156370E+03  0.15602576768E+03  0.78856719647E+02 0.  0.
         66    2    3    3    0    0  0.22368671434E+02  0.14508724580E+02 -0.99547126274E+01  0.28529928885E+02  0.19999970074E+01 0.  0.
        -13    1    3    3    0    0 -0.22368671434E+02 -0.14508724580E+02 -0.12467685108E+03  0.12749583879E+03  0.10566000000E+00 0.  1.
         13    1    4    4    0    0  0.66163029289E+01  0.38370571281E+01 -0.30710975738E+01  0.82426498284E+01  0.10566000000E+00 0. -1.
        -13    1    4    4    0    0  0.10389562441E+01  0.32079738966E+00 -0.45744416298E+00  0.11843817966E+01  0.10566000000E+00 0.  1.
        -14    1    4    4    0    0  0.14713412261E+02  0.10350870062E+02 -0.64261708906E+01  0.19102897260E+02  0.00000000000E+00 0.  1.
<mgrwt>
<rscale>  0 0.78856720E+02</rscale>
<asrwt>0</asrwt>
<pdfrwt beam="1">  1        2 0.22358255E-01 0.78856720E+02</pdfrwt>
<pdfrwt beam="2">  1       -1 0.16457081E-02 0.78856720E+02</pdfrwt>
<totfact> 0.20599669E+05</totfact>
</mgrwt>
</event>
<event>
 8    1  0.1226832E-016  0.8135071E+02  0.7818608E-02  0.1325261E+00
          2   -1    0    0  501    0  0.00000000000E+00  0.00000000000E+00  0.26057470908E+03  0.26057470910E+03  0.25500000000E-02 0. -1.
         -1   -1    0    0    0  501 -0.00000000000E+00 -0.00000000000E+00 -0.63493667432E+01  0.63493687435E+01  0.50400000000E-02 0.  1.
         24    2    1    2    0    0  0.00000000000E+00  0.00000000000E+00  0.25422534234E+03  0.26692407784E+03  0.81350713841E+02 0.  0.
         66    2    3    3    0    0  0.11650438432E+02 -0.16984813004E+02  0.24218246583E+03  0.24306493647E+03  0.19999990080E+01 0.  0.
        -13    1    3    3    0    0 -0.11650438432E+02  0.16984813004E+02  0.12042876514E+02  0.23859141376E+02  0.10566000000E+00 0.  1.
         13    1    4    4    0    0  0.48044892844E+00 -0.47536795522E+00  0.69577612508E+01  0.69913097146E+01  0.10566000000E+00 0. -1.
        -13    1    4    4    0    0  0.42888687253E+01 -0.50436099687E+01  0.81224599221E+02  0.81494043213E+02  0.10566000000E+00 0. -1.
         14    1    4    4    0    0  0.68811207779E+01 -0.11465835080E+02  0.15400010536E+03  0.15457958354E+03  0.00000000000E+00 0. -1.
<mgrwt>
<rscale>  0 0.81350714E+02</rscale>
<asrwt>0</asrwt>
<pdfrwt beam="1">  1        2 0.40088418E-01 0.81350714E+02</pdfrwt>
<pdfrwt beam="2">  1       -1 0.97682579E-03 0.81350714E+02</pdfrwt>
<totfact> 0.23183130E+05</totfact>
</mgrwt>
</event>
<event>
 8    1  0.1226832E-016  0.7846318E+02  0.7818608E-02  0.1333470E+00
          2   -1    0    0  501    0  0.00000000000E+00  0.00000000000E+00  0.11159935711E+04  0.11159935711E+04  0.25500000000E-02 0. -1.
         -1   -1    0    0    0  501 -0.00000000000E+00 -0.00000000000E+00 -0.13791410880E+01  0.13791502972E+01  0.50400000000E-02 0.  1.
         24    2    1    2    0    0  0.00000000000E+00 -0.35527136788E-14  0.11146144300E+04  0.11173727214E+04  0.78463182053E+02 0.  0.
         66    2    3    3    0    0 -0.18742135348E+02 -0.17974189154E+02  0.97596129611E+03  0.97630875783E+03  0.19999994522E+01 0.  0.
        -13    1    3    3    0    0  0.18742135348E+02  0.17974189154E+02  0.13865313390E+03  0.14106396356E+03  0.10566000000E+00 0.  1.
         13    1    4    4    0    0 -0.10293398238E+02 -0.10131607747E+02  0.56901177927E+03  0.56919506290E+03  0.10566000000E+00 0. -1.
        -13    1    4    4    0    0 -0.17643189345E+01 -0.21003884170E+01  0.92463230052E+02  0.92503970340E+02  0.10566000000E+00 0.  1.
        -14    1    4    4    0    0 -0.66844181755E+01 -0.57421929903E+01  0.31448628679E+03  0.31460972458E+03  0.00000000000E+00 0.  1.
<mgrwt>
<rscale>  0 0.78463182E+02</rscale>
<asrwt>0</asrwt>
<pdfrwt beam="1">  1        2 0.17169156E+00 0.78463182E+02</pdfrwt>
<pdfrwt beam="2">  1       -1 0.21217597E-03 0.78463182E+02</pdfrwt>
<totfact> 0.37050478E+05</totfact>
</mgrwt>
</event>
<event>
 8    1  0.1226832E-016  0.8762817E+02  0.7818608E-02  0.1308699E+00
         -1   -1    0    0    0  501 -0.00000000000E+00  0.00000000000E+00  0.17839219247E+02  0.17839219959E+02  0.50400000000E-02 0.  1.
          2   -1    0    0  501    0  0.00000000000E+00 -0.00000000000E+00 -0.10760975632E+03  0.10760975635E+03  0.25500000000E-02 0. -1.
         24    2    1    2    0    0  0.00000000000E+00  0.17763568394E-14 -0.89770537078E+02  0.12544897631E+03  0.87628170875E+02 0.  0.
         66    2    3    3    0    0 -0.38864624084E+02  0.82890589150E+01 -0.18569318002E+02  0.43908849598E+02  0.19999997626E+01 0.  0.
        -13    1    3    3    0    0  0.38864624084E+02 -0.82890589150E+01 -0.71201219076E+02  0.81540126716E+02  0.10566000000E+00 0.  1.
         13    1    4    4    0    0 -0.16692056969E+01  0.58081363478E+00 -0.11930121818E+01  0.21349553247E+01  0.10566000000E+00 0.  1.
        -13    1    4    4    0    0 -0.28212082284E+02  0.56664246743E+01 -0.13092567857E+02  0.31614181194E+02  0.10566000000E+00 0. -1.
         14    1    4    4    0    0 -0.89833361026E+01  0.20418206059E+01 -0.42837379631E+01  0.10159713079E+02  0.00000000000E+00 0. -1.
<mgrwt>
<rscale>  0 0.87628171E+02</rscale>
<asrwt>0</asrwt>
<pdfrwt beam="1">  1        2 0.16555347E-01 0.87628171E+02</pdfrwt>
<pdfrwt beam="2">  1       -1 0.27444954E-02 0.87628171E+02</pdfrwt>
<totfact> 0.14168251E+05</totfact>
</mgrwt>
</event>
<event>
 8    1  0.1226832E-016  0.7985919E+02  0.7818608E-02  0.1329452E+00
          2   -1    0    0  501    0  0.00000000000E+00  0.00000000000E+00  0.16268947106E+03  0.16268947108E+03  0.25500000000E-02 0. -1.
         -1   -1    0    0    0  501 -0.00000000000E+00 -0.00000000000E+00 -0.98000958007E+01  0.98000970967E+01  0.50400000000E-02 0.  1.
         24    2    1    2    0    0 -0.88817841970E-15 -0.35527136788E-14  0.15288937526E+03  0.17248956818E+03  0.79859188968E+02 0.  0.
         66    2    3    3    0    0  0.50098675397E+01  0.29385914876E+02  0.13379097600E+03  0.13708630866E+03  0.19999996964E+01 0.  0.
        -13    1    3    3    0    0 -0.50098675397E+01 -0.29385914876E+02  0.19098399266E+02  0.35403259517E+02  0.10566000000E+00 0.  1.
         13    1    4    4    0    0  0.11257815163E+01  0.49869301587E+01  0.23719462770E+02  0.24264396439E+02  0.10566000000E+00 0. -1.
        -13    1    4    4    0    0  0.19915899405E+01  0.11300719333E+02  0.47555288634E+02  0.48920234351E+02  0.10566000000E+00 0.  1.
        -14    1    4    4    0    0  0.18924960829E+01  0.13098265385E+02  0.62516224592E+02  0.63901677871E+02  0.00000000000E+00 0.  1.
<mgrwt>
<rscale>  0 0.79859189E+02</rscale>
<asrwt>0</asrwt>
<pdfrwt beam="1">  1        2 0.25029149E-01 0.79859189E+02</pdfrwt>
<pdfrwt beam="2">  1       -1 0.15077072E-02 0.79859189E+02</pdfrwt>
<totfact> 0.20663538E+05</totfact>
</mgrwt>
</event>
<event>
 8    1  0.1226832E-016  0.8456104E+02  0.7818608E-02  0.1316584E+00
         -1   -1    0    0    0  501 -0.00000000000E+00  0.00000000000E+00  0.68096515498E+01  0.68096534149E+01  0.50400000000E-02 0.  1.
          2   -1    0    0  501    0  0.00000000000E+00 -0.00000000000E+00 -0.26251595322E+03  0.26251595323E+03  0.25500000000E-02 0. -1.
         24    2    1    2    0    0  0.00000000000E+00  0.00000000000E+00 -0.25570630167E+03  0.26932560665E+03  0.84561041160E+02 0.  0.
         66    2    3    3    0    0 -0.21003912881E+01 -0.16063423526E+02 -0.25222834893E+03  0.25275597967E+03  0.20000092529E+01 0.  0.
        -13    1    3    3    0    0  0.21003912881E+01  0.16063423526E+02 -0.34779527450E+01  0.16569626980E+02  0.10566000000E+00 0.  1.
         13    1    4    4    0    0 -0.12791212589E+00 -0.58968034486E+01 -0.84809862136E+02  0.85014778315E+02  0.10566000000E+00 0.  1.
        -13    1    4    4    0    0 -0.81208759782E+00 -0.46744792452E+01 -0.69340016531E+02  0.69502225137E+02  0.10566000000E+00 0. -1.
        -14    1    4    4    0    0 -0.11603915644E+01 -0.54921408320E+01 -0.98078470259E+02  0.98238976215E+02  0.00000000000E+00 0.  1.
<mgrwt>
<rscale>  0 0.84561041E+02</rscale>
<asrwt>0</asrwt>
<pdfrwt beam="1">  1        2 0.40387062E-01 0.84561041E+02</pdfrwt>
<pdfrwt beam="2">  1       -1 0.10476391E-02 0.84561041E+02</pdfrwt>
<totfact> 0.20990423E+05</totfact>
</mgrwt>
</event>
<event>
 8    1  0.1226832E-016  0.8031033E+02  0.7818608E-02  0.1328173E+00
          2   -1    0    0  501    0  0.00000000000E+00  0.00000000000E+00  0.29720577498E+02  0.29720577608E+02  0.25500000000E-02 0. -1.
         -1   -1    0    0    0  501 -0.00000000000E+00 -0.00000000000E+00 -0.54253221607E+02  0.54253221841E+02  0.50400000000E-02 0.  1.
         24    2    1    2    0    0  0.00000000000E+00 -0.35527136788E-14 -0.24532644109E+02  0.83973799449E+02  0.80310325407E+02 0.  0.
         66    2    3    3    0    0 -0.10305622002E+02  0.31950480575E+02  0.10715226742E+02  0.35296673225E+02  0.20000007082E+01 0.  0.
        -13    1    3    3    0    0  0.10305622002E+02 -0.31950480575E+02 -0.35247870851E+02  0.48677126224E+02  0.10566000000E+00 0.  1.
         13    1    4    4    0    0 -0.38809032740E+01  0.13722177590E+02  0.48031327213E+01  0.15047950559E+02  0.10566000000E+00 0. -1.
        -13    1    4    4    0    0 -0.34346062863E+01  0.96214537424E+01  0.24890243897E+01  0.10515479015E+02  0.10566000000E+00 0.  1.
        -14    1    4    4    0    0 -0.29901124422E+01  0.86068492419E+01  0.34230696313E+01  0.97332436521E+01  0.00000000000E+00 0.  1.
<mgrwt>
<rscale>  0 0.80310325E+02</rscale>
<asrwt>0</asrwt>
<pdfrwt beam="1">  1        2 0.45723966E-02 0.80310325E+02</pdfrwt>
<pdfrwt beam="2">  1       -1 0.83466495E-02 0.80310325E+02</pdfrwt>
<totfact> 0.13285330E+05</totfact>
</mgrwt>
</event>
<event>
 8    1  0.1226832E-016  0.7847857E+02  0.7818608E-02  0.1333425E+00
         -1   -1    0    0    0  501 -0.00000000000E+00  0.00000000000E+00  0.22194347968E+03  0.22194347973E+03  0.50400000000E-02 0.  1.
          2   -1    0    0  501    0  0.00000000000E+00 -0.00000000000E+00 -0.69374490524E+01  0.69374495210E+01  0.25500000000E-02 0. -1.
         24    2    1    2    0    0  0.44408920985E-15  0.00000000000E+00  0.21500603062E+03  0.22888092926E+03  0.78478573966E+02 0.  0.
         66    2    3    3    0    0  0.20637990605E+01 -0.35867048423E+02  0.61735472434E+02  0.71456091313E+02  0.19999999827E+01 0.  0.
        -13    1    3    3    0    0 -0.20637990605E+01  0.35867048423E+02  0.15327055819E+03  0.15742483794E+03  0.10566000000E+00 0.  1.
         13    1    4    4    0    0  0.59190172723E-02 -0.67936333046E+01  0.11919066786E+02  0.13719650345E+02  0.10566000000E+00 0. -1.
        -13    1    4    4    0    0  0.79834792505E+00 -0.13319859079E+02  0.24278965437E+02  0.27704428022E+02  0.10566000000E+00 0.  1.
        -14    1    4    4    0    0  0.12595321182E+01 -0.15753556039E+02  0.25537440211E+02  0.30032012946E+02  0.00000000000E+00 0.  1.
<mgrwt>
<rscale>  0 0.78478574E+02</rscale>
<asrwt>0</asrwt>
<pdfrwt beam="1">  1        2 0.10673000E-02 0.78478574E+02</pdfrwt>
<pdfrwt beam="2">  1       -1 0.34145146E-01 0.78478574E+02</pdfrwt>
<totfact> 0.10124665E+05</totfact>
</mgrwt>
</event>
<event>
 8    1  0.1226832E-016  0.7995226E+02  0.7818608E-02  0.1329187E+00
         -1   -1    0    0    0  501 -0.00000000000E+00  0.00000000000E+00  0.32849753600E+01  0.32849792264E+01  0.50400000000E-02 0.  1.
          2   -1    0    0  501    0  0.00000000000E+00 -0.00000000000E+00 -0.48648468240E+03  0.48648468241E+03  0.25500000000E-02 0. -1.
         24    2    1    2    0    0  0.17763568394E-14  0.00000000000E+00 -0.48319970704E+03  0.48976966164E+03  0.79952264338E+02 0.  0.
         66    2    3    3    0    0  0.11295941257E+02  0.38264947156E+02 -0.25442625422E+03  0.25754324550E+03  0.19999994428E+01 0.  0.
        -13    1    3    3    0    0 -0.11295941257E+02 -0.38264947156E+02 -0.22877345283E+03  0.23222641614E+03  0.10566000000E+00 0.  1.
         13    1    4    4    0    0  0.28270770368E+01  0.11199002651E+02 -0.77725865234E+02  0.78579458609E+02  0.10566000000E+00 0. -1.
        -13    1    4    4    0    0  0.43368390702E+01  0.12713617170E+02 -0.85179987259E+02  0.86232741045E+02  0.10566000000E+00 0.  1.
         14    1    4    4    0    0  0.41320251502E+01  0.14352327335E+02 -0.91520401724E+02  0.92731045844E+02  0.00000000000E+00 0. -1.
<mgrwt>
<rscale>  0 0.79952264E+02</rscale>
<asrwt>0</asrwt>
<pdfrwt beam="1">  1        2 0.74843740E-01 0.79952264E+02</pdfrwt>
<pdfrwt beam="2">  1       -1 0.50538151E-03 0.79952264E+02</pdfrwt>
<totfact> 0.30231575E+05</totfact>
</mgrwt>
</event>
<event>
 8    1  0.1226832E-016  0.8077919E+02  0.7818608E-02  0.1326855E+00
         -1   -1    0    0    0  501 -0.00000000000E+00  0.00000000000E+00  0.35483713197E+01  0.35483748990E+01  0.50400000000E-02 0.  1.
          2   -1    0    0  501    0  0.00000000000E+00 -0.00000000000E+00 -0.45973722754E+03  0.45973722755E+03  0.25500000000E-02 0. -1.
         24    2    1    2    0    0  0.00000000000E+00  0.35527136788E-14 -0.45618885622E+03  0.46328560245E+03  0.80779186022E+02 0.  0.
         66    2    3    3    0    0  0.59201162295E+01 -0.17406455101E+02 -0.43432524852E+03  0.43471882172E+03  0.20000000884E+01 0.  0.
        -13    1    3    3    0    0 -0.59201162295E+01  0.17406455101E+02 -0.21863607700E+02  0.28566780726E+02  0.10566000000E+00 0.  1.
         13    1    4    4    0    0  0.16001753520E+01 -0.56091622679E+01 -0.12593805784E+03  0.12607310910E+03  0.10566000000E+00 0. -1.
        -13    1    4    4    0    0  0.43035221195E+01 -0.11372290768E+02 -0.29213807617E+03  0.29239103271E+03  0.10566000000E+00 0.  1.
        -14    1    4    4    0    0  0.16418757976E-01 -0.42500206533E+00 -0.16249114516E+02  0.16254679907E+02  0.00000000000E+00 0.  1.
<mgrwt>
<rscale>  0 0.80779186E+02</rscale>
<asrwt>0</asrwt>
<pdfrwt beam="1">  1        2 0.70728757E-01 0.80779186E+02</pdfrwt>
<pdfrwt beam="2">  1       -1 0.54590392E-03 0.80779186E+02</pdfrwt>
<totfact> 0.28889604E+05</totfact>
</mgrwt>
</event>
<event>
 8    1  0.1226832E-016  0.8022316E+02  0.7818608E-02  0.1328419E+00
         -1   -1    0    0    0  501 -0.00000000000E+00  0.00000000000E+00  0.50256810324E+01  0.50256835596E+01  0.50400000000E-02 0.  1.
          2   -1    0    0  501    0  0.00000000000E+00 -0.00000000000E+00 -0.32014335711E+03  0.32014335712E+03  0.25500000000E-02 0. -1.
         24    2    1    2    0    0  0.17763568394E-14  0.71054273576E-14 -0.31511767608E+03  0.32516904068E+03  0.80223159001E+02 0.  0.
         66    2    3    3    0    0 -0.13767147215E+02 -0.35734078878E+02 -0.20569716848E+03  0.20924097082E+03  0.20000027167E+01 0.  0.
        -13    1    3    3    0    0  0.13767147215E+02  0.35734078878E+02 -0.10942050759E+03  0.11592806986E+03  0.10566000000E+00 0.  1.
         13    1    4    4    0    0 -0.38691672857E+01 -0.11051814552E+02 -0.63198091922E+02  0.64273813074E+02  0.10566000000E+00 0. -1.
        -13    1    4    4    0    0 -0.12348371479E+01 -0.46204644541E+01 -0.25741619772E+02  0.26182354116E+02  0.10566000000E+00 0.  1.
         14    1    4    4    0    0 -0.86631427818E+01 -0.20061799872E+02 -0.11675745679E+03  0.11878480363E+03  0.00000000000E+00 0. -1.
<mgrwt>
<rscale>  0 0.80223159E+02</rscale>
<asrwt>0</asrwt>
<pdfrwt beam="1">  1        2 0.49252808E-01 0.80223159E+02</pdfrwt>
<pdfrwt beam="2">  1       -1 0.77318215E-03 0.80223159E+02</pdfrwt>
<totfact> 0.25910670E+05</totfact>
</mgrwt>
</event>
<event>
 8    1  0.1226832E-016  0.7701048E+02  0.7818608E-02  0.1337756E+00
         -1   -1    0    0    0  501 -0.00000000000E+00  0.00000000000E+00  0.24011159438E+01  0.24011212334E+01  0.50400000000E-02 0.  1.
          2   -1    0    0  501    0  0.00000000000E+00 -0.00000000000E+00 -0.61748455422E+03  0.61748455423E+03  0.25500000000E-02 0. -1.
         24    2    1    2    0    0  0.35527136788E-14  0.00000000000E+00 -0.61508343828E+03  0.61988567546E+03  0.77010483684E+02 0.  0.
         66    2    3    3    0    0 -0.24840449994E+02 -0.35831696080E+01 -0.54253105939E+03  0.54311493946E+03  0.19999992978E+01 0.  0.
        -13    1    3    3    0    0  0.24840449994E+02  0.35831696080E+01 -0.72552378889E+02  0.76770736005E+02  0.10566000000E+00 0.  1.
         13    1    4    4    0    0 -0.16130446913E+02 -0.31417152889E+01 -0.35703180835E+03  0.35740982783E+03  0.10566000000E+00 0. -1.
        -13    1    4    4    0    0 -0.36785675305E+01 -0.18908664587E+00 -0.72391100028E+02  0.72484826965E+02  0.10566000000E+00 0.  1.
         14    1    4    4    0    0 -0.50314355503E+01 -0.25236767325E+00 -0.11310815101E+03  0.11322028466E+03  0.00000000000E+00 0. -1.
<mgrwt>
<rscale>  0 0.77010484E+02</rscale>
<asrwt>0</asrwt>
<pdfrwt beam="1">  1        2 0.94997497E-01 0.77010484E+02</pdfrwt>
<pdfrwt beam="2">  1       -1 0.36940335E-03 0.77010484E+02</pdfrwt>
<totfact> 0.35787739E+05</totfact>
</mgrwt>
</event>
<event>
 8    1  0.1226832E-016  0.8328483E+02  0.7818608E-02  0.1319980E+00
         -1   -1    0    0    0  501 -0.00000000000E+00  0.00000000000E+00  0.14556586520E+02  0.14556587393E+02  0.50400000000E-02 0.  1.
          2   -1    0    0  501    0  0.00000000000E+00 -0.00000000000E+00 -0.11912757643E+03  0.11912757646E+03  0.25500000000E-02 0. -1.
         24    2    1    2    0    0  0.00000000000E+00  0.00000000000E+00 -0.10457098991E+03  0.13368416385E+03  0.83284834957E+02 0.  0.
         66    2    3    3    0    0 -0.39436980003E+02 -0.61985030179E+01 -0.71198300473E+02  0.81651055202E+02  0.19999984759E+01 0.  0.
        -13    1    3    3    0    0  0.39436980003E+02  0.61985030179E+01 -0.33372689440E+02  0.52033108652E+02  0.10566000000E+00 0.  1.
         13    1    4    4    0    0 -0.26361221560E+02 -0.49958327779E+01 -0.48589998069E+02  0.55505598129E+02  0.10566000000E+00 0. -1.
        -13    1    4    4    0    0 -0.77186917023E+01 -0.68990209643E+00 -0.13260250996E+02  0.15359022983E+02  0.10566000000E+00 0.  1.
         14    1    4    4    0    0 -0.53570667416E+01 -0.51276814363E+00 -0.93480514087E+01  0.10786434090E+02  0.00000000000E+00 0. -1.
<mgrwt>
<rscale>  0 0.83284835E+02</rscale>
<asrwt>0</asrwt>
<pdfrwt beam="1">  1        2 0.18327319E-01 0.83284835E+02</pdfrwt>
<pdfrwt beam="2">  1       -1 0.22394750E-02 0.83284835E+02</pdfrwt>
<totfact> 0.16744079E+05</totfact>
</mgrwt>
</event>
<event>
 8    1  0.1226832E-016  0.7980616E+02  0.7818608E-02  0.1329602E+00
          2   -1    0    0  501    0  0.00000000000E+00  0.00000000000E+00  0.26876450558E+03  0.26876450559E+03  0.25500000000E-02 0. -1.
         -1   -1    0    0    0  501 -0.00000000000E+00 -0.00000000000E+00 -0.59243514163E+01  0.59243535601E+01  0.50400000000E-02 0.  1.
         24    2    1    2    0    0  0.00000000000E+00  0.00000000000E+00  0.26284015416E+03  0.27468885915E+03  0.79806157040E+02 0.  0.
         66    2    3    3    0    0  0.35958514849E+02 -0.11199457130E+02  0.86386813728E+02  0.94260936854E+02  0.20000000746E+01 0.  0.
        -13    1    3    3    0    0 -0.35958514849E+02  0.11199457130E+02  0.17645334044E+03  0.18042792230E+03  0.10566000000E+00 0.  1.
         13    1    4    4    0    0  0.14201217494E+02 -0.45910097529E+01  0.34373172522E+02  0.37473698805E+02  0.10566000000E+00 0. -1.
        -13    1    4    4    0    0  0.10418974822E+02 -0.31997045917E+01  0.26821273673E+02  0.28951425376E+02  0.10566000000E+00 0.  1.
         14    1    4    4    0    0  0.11338322533E+02 -0.34087427850E+01  0.25192367533E+02  0.27835812672E+02  0.00000000000E+00 0. -1.
<mgrwt>
<rscale>  0 0.79806157E+02</rscale>
<asrwt>0</asrwt>
<pdfrwt beam="1">  1        2 0.41348389E-01 0.79806157E+02</pdfrwt>
<pdfrwt beam="2">  1       -1 0.91143877E-03 0.79806157E+02</pdfrwt>
<totfact> 0.24655712E+05</totfact>
</mgrwt>
</event>
<event>
 8    1  0.1226832E-016  0.7914399E+02  0.7818608E-02  0.1331498E+00
          2   -1    0    0  501    0  0.00000000000E+00  0.00000000000E+00  0.45672640191E+03  0.45672640192E+03  0.25500000000E-02 0. -1.
         -1   -1    0    0    0  501 -0.00000000000E+00 -0.00000000000E+00 -0.34286215819E+01  0.34286252863E+01  0.50400000000E-02 0.  1.
         24    2    1    2    0    0  0.00000000000E+00  0.00000000000E+00  0.45329778033E+03  0.46015502720E+03  0.79143991624E+02 0.  0.
         66    2    3    3    0    0  0.24038172851E+02 -0.14656619558E+02  0.38826417650E+03  0.38928873732E+03  0.20000000809E+01 0.  0.
        -13    1    3    3    0    0 -0.24038172851E+02  0.14656619558E+02  0.65033603826E+02  0.70866289881E+02  0.10566000000E+00 0.  1.
         13    1    4    4    0    0  0.57412929288E+01 -0.33652319747E+01  0.92601243408E+02  0.92840124276E+02  0.10566000000E+00 0. -1.
        -13    1    4    4    0    0  0.37923829129E+01 -0.27950951753E+01  0.73164398858E+02  0.73315995182E+02  0.10566000000E+00 0.  1.
        -14    1    4    4    0    0  0.14504497009E+02 -0.84962924078E+01  0.22249853424E+03  0.22313261786E+03  0.00000000000E+00 0.  1.
<mgrwt>
<rscale>  0 0.79143992E+02</rscale>
<asrwt>0</asrwt>
<pdfrwt beam="1">  1        2 0.70265527E-01 0.79143992E+02</pdfrwt>
<pdfrwt beam="2">  1       -1 0.52748108E-03 0.79143992E+02</pdfrwt>
<totfact> 0.30405830E+05</totfact>
</mgrwt>
</event>
<event>
 8    1  0.1226832E-016  0.7960890E+02  0.7818608E-02  0.1330165E+00
         -1   -1    0    0    0  501 -0.00000000000E+00  0.00000000000E+00  0.34525776926E+02  0.34525777294E+02  0.50400000000E-02 0.  1.
          2   -1    0    0  501    0  0.00000000000E+00 -0.00000000000E+00 -0.45890177840E+02  0.45890177911E+02  0.25500000000E-02 0. -1.
         24    2    1    2    0    0  0.00000000000E+00  0.35527136788E-14 -0.11364400914E+02  0.80415955204E+02  0.79608895504E+02 0.  0.
         66    2    3    3    0    0 -0.12166288396E+02 -0.29334468190E+02 -0.29883996662E+02  0.43652982147E+02  0.19999991252E+01 0.  0.
        -13    1    3    3    0    0  0.12166288396E+02  0.29334468190E+02  0.18519595748E+02  0.36762973057E+02  0.10566000000E+00 0.  1.
         13    1    4    4    0    0 -0.21202940897E+01 -0.50166494849E+01 -0.46807466698E+01  0.71821286889E+01  0.10566000000E+00 0.  1.
        -13    1    4    4    0    0 -0.69509618265E+01 -0.18482829090E+02 -0.19302691299E+02  0.27614052526E+02  0.10566000000E+00 0. -1.
         14    1    4    4    0    0 -0.30950324799E+01 -0.58349896158E+01 -0.59005586925E+01  0.88568009321E+01  0.00000000000E+00 0. -1.
<mgrwt>
<rscale>  0 0.79608896E+02</rscale>
<asrwt>0</asrwt>
<pdfrwt beam="1">  1        2 0.70600274E-02 0.79608896E+02</pdfrwt>
<pdfrwt beam="2">  1       -1 0.53116580E-02 0.79608896E+02</pdfrwt>
<totfact> 0.14868850E+05</totfact>
</mgrwt>
</event>
<event>
 8    1  0.1226832E-016  0.7979345E+02  0.7818608E-02  0.1329639E+00
          2   -1    0    0  501    0  0.00000000000E+00  0.00000000000E+00  0.66073271752E+03  0.66073271752E+03  0.25500000000E-02 0. -1.
         -1   -1    0    0    0  501 -0.00000000000E+00 -0.00000000000E+00 -0.24090630093E+01  0.24090682814E+01  0.50400000000E-02 0.  1.
         24    2    1    2    0    0  0.00000000000E+00  0.00000000000E+00  0.65832365451E+03  0.66314178580E+03  0.79793445809E+02 0.  0.
         66    2    3    3    0    0 -0.32333523551E+02 -0.44893756609E+01  0.51963336336E+03  0.52066154415E+03  0.20000000885E+01 0.  0.
        -13    1    3    3    0    0  0.32333523551E+02  0.44893756609E+01  0.13869029115E+03  0.14248024166E+03  0.10566000000E+00 0.  1.
         13    1    4    4    0    0 -0.22272989929E+02 -0.27086575053E+01  0.35472484048E+03  0.35543374421E+03  0.10566000000E+00 0. -1.
        -13    1    4    4    0    0 -0.31470312283E+01 -0.62883391507E+00  0.44763952943E+02  0.44878969293E+02  0.10566000000E+00 0.  1.
         14    1    4    4    0    0 -0.69135023943E+01 -0.11518842406E+01  0.12014456993E+03  0.12034883064E+03  0.00000000000E+00 0. -1.
<mgrwt>
<rscale>  0 0.79793446E+02</rscale>
<asrwt>0</asrwt>
<pdfrwt beam="1">  1        2 0.10165132E+00 0.79793446E+02</pdfrwt>
<pdfrwt beam="2">  1       -1 0.37062501E-03 0.79793446E+02</pdfrwt>
<totfact> 0.33215609E+05</totfact>
</mgrwt>
</event>
<event>
 8    1  0.1226832E-016  0.6960219E+02  0.7818608E-02  0.1361451E+00
          2   -1    0    0  501    0  0.00000000000E+00  0.00000000000E+00  0.44862686929E+03  0.44862686930E+03  0.25500000000E-02 0. -1.
         -1   -1    0    0    0  501 -0.00000000000E+00 -0.00000000000E+00 -0.26996043950E+01  0.26996090997E+01  0.50400000000E-02 0.  1.
         24    2    1    2    0    0  0.00000000000E+00  0.35527136788E-14  0.44592726489E+03  0.45132647839E+03  0.69602187648E+02 0.  0.
         66    2    3    3    0    0  0.27902731062E+02 -0.20332462839E+02  0.24999278039E+03  0.25237345674E+03  0.19999929436E+01 0.  0.
        -13    1    3    3    0    0 -0.27902731062E+02  0.20332462839E+02  0.19593448450E+03  0.19895302166E+03  0.10566000000E+00 0.  1.
         13    1    4    4    0    0  0.23132785107E+00 -0.20126386043E+00  0.28328833124E+01  0.28513876646E+01  0.10566000000E+00 0. -1.
        -13    1    4    4    0    0  0.10594115060E+02 -0.69031782059E+01  0.93580062521E+02  0.94430548070E+02  0.10566000000E+00 0. -1.
         14    1    4    4    0    0  0.17077288152E+02 -0.13228020773E+02  0.15357983456E+03  0.15509152100E+03  0.00000000000E+00 0. -1.
<mgrwt>
<rscale>  0 0.69602188E+02</rscale>
<asrwt>0</asrwt>
<pdfrwt beam="1">  1        2 0.69019456E-01 0.69602188E+02</pdfrwt>
<pdfrwt beam="2">  1       -1 0.41532449E-03 0.69602188E+02</pdfrwt>
<totfact> 0.42146328E+05</totfact>
</mgrwt>
</event>
<event>
 8    1  0.1226832E-016  0.7598312E+02  0.7818608E-02  0.1340853E+00
         -1   -1    0    0    0  501 -0.00000000000E+00  0.00000000000E+00  0.16650430091E+01  0.16650506370E+01  0.50400000000E-02 0.  1.
          2   -1    0    0  501    0  0.00000000000E+00 -0.00000000000E+00 -0.86685768018E+03  0.86685768018E+03  0.25500000000E-02 0. -1.
         24    2    1    2    0    0  0.35527136788E-14  0.00000000000E+00 -0.86519263717E+03  0.86852273082E+03  0.75983120084E+02 0.  0.
         66    2    3    3    0    0  0.12046567551E+02  0.11944356462E+01 -0.84420269993E+03  0.84429186011E+03  0.20000002988E+01 0.  0.
        -13    1    3    3    0    0 -0.12046567551E+02 -0.11944356462E+01 -0.20989937233E+02  0.24230870709E+02  0.10566000000E+00 0.  1.
         13    1    4    4    0    0  0.50844113229E+01  0.65540024239E-01 -0.33060817531E+03  0.33064729287E+03  0.10566000000E+00 0. -1.
        -13    1    4    4    0    0  0.19158812178E+01 -0.25600828687E+00 -0.13469358604E+03  0.13470749580E+03  0.10566000000E+00 0.  1.
         14    1    4    4    0    0  0.50462750100E+01  0.13849039088E+01 -0.37890093858E+03  0.37893707143E+03  0.00000000000E+00 0. -1.
<mgrwt>
<rscale>  0 0.75983120E+02</rscale>
<asrwt>0</asrwt>
<pdfrwt beam="1">  1        2 0.13336236E+00 0.75983120E+02</pdfrwt>
<pdfrwt beam="2">  1       -1 0.25616174E-03 0.75983120E+02</pdfrwt>
<totfact> 0.39754236E+05</totfact>
</mgrwt>
</event>
<event>
 8    1  0.1226832E-016  0.8016249E+02  0.7818608E-02  0.1328591E+00
          2   -1    0    0  501    0  0.00000000000E+00  0.00000000000E+00  0.25734370331E+03  0.25734370333E+03  0.25500000000E-02 0. -1.
         -1   -1    0    0    0  501 -0.00000000000E+00 -0.00000000000E+00 -0.62426467192E+01  0.62426487537E+01  0.50400000000E-02 0.  1.
         24    2    1    2    0    0  0.35527136788E-14  0.88817841970E-15  0.25110105659E+03  0.26358635208E+03  0.80162487362E+02 0.  0.
         66    2    3    3    0    0  0.26598237595E+02  0.34260640630E+01  0.22346390657E+03  0.22507625751E+03  0.19999995672E+01 0.  0.
        -13    1    3    3    0    0 -0.26598237595E+02 -0.34260640630E+01  0.27637150028E+02  0.38510094571E+02  0.10566000000E+00 0.  1.
         13    1    4    4    0    0  0.10106543888E+02  0.10482899525E+01  0.85511179475E+02  0.86112798819E+02  0.10566000000E+00 0. -1.
        -13    1    4    4    0    0  0.13032915711E+02  0.12778593055E+01  0.10665818241E+03  0.10745914971E+03  0.10566000000E+00 0.  1.
         14    1    4    4    0    0  0.34587779967E+01  0.10999148050E+01  0.31294544682E+02  0.31504308985E+02  0.00000000000E+00 0. -1.
<mgrwt>
<rscale>  0 0.80162487E+02</rscale>
<asrwt>0</asrwt>
<pdfrwt beam="1">  1        2 0.39591332E-01 0.80162487E+02</pdfrwt>
<pdfrwt beam="2">  1       -1 0.96040752E-03 0.80162487E+02</pdfrwt>
<totfact> 0.23989395E+05</totfact>
</mgrwt>
</event>
<event>
 8    1  0.1226832E-016  0.8020837E+02  0.7818608E-02  0.1328461E+00
         -1   -1    0    0    0  501 -0.00000000000E+00  0.00000000000E+00  0.34810713339E+01  0.34810749825E+01  0.50400000000E-02 0.  1.
          2   -1    0    0  501    0  0.00000000000E+00 -0.00000000000E+00 -0.46202581912E+03  0.46202581912E+03  0.25500000000E-02 0. -1.
         24    2    1    2    0    0  0.00000000000E+00  0.00000000000E+00 -0.45854474778E+03  0.46550689411E+03  0.80208370768E+02 0.  0.
         66    2    3    3    0    0  0.96715513179E+01  0.11234744142E+02 -0.44552671294E+03  0.44577775890E+03  0.20000010328E+01 0.  0.
        -13    1    3    3    0    0 -0.96715513179E+01 -0.11234744142E+02 -0.13018034840E+02  0.19729135205E+02  0.10566000000E+00 0.  1.
         13    1    4    4    0    0  0.53415080221E+00  0.83060698644E+00 -0.31547900480E+02  0.31563529806E+02  0.10566000000E+00 0. -1.
        -13    1    4    4    0    0  0.74565631576E+01  0.90626650789E+01 -0.33259876137E+03  0.33280576837E+03  0.10566000000E+00 0.  1.
        -14    1    4    4    0    0  0.16808373581E+01  0.13414720762E+01 -0.81380051098E+02  0.81408460729E+02  0.00000000000E+00 0.  1.
<mgrwt>
<rscale>  0 0.80208371E+02</rscale>
<asrwt>0</asrwt>
<pdfrwt beam="1">  1        2 0.71080847E-01 0.80208371E+02</pdfrwt>
<pdfrwt beam="2">  1       -1 0.53555008E-03 0.80208371E+02</pdfrwt>
<totfact> 0.29477866E+05</totfact>
</mgrwt>
</event>
<event>
 8    1  0.1226832E-016  0.8140247E+02  0.7818608E-02  0.1325118E+00
         -1   -1    0    0    0  501 -0.00000000000E+00  0.00000000000E+00  0.89089243903E+01  0.89089258159E+01  0.50400000000E-02 0.  1.
          2   -1    0    0  501    0  0.00000000000E+00 -0.00000000000E+00 -0.18594728734E+03  0.18594728736E+03  0.25500000000E-02 0. -1.
         24    2    1    2    0    0 -0.35527136788E-14  0.00000000000E+00 -0.17703836295E+03  0.19485621317E+03  0.81402468367E+02 0.  0.
         66    2    3    3    0    0  0.22025640146E+02  0.14934571513E+02 -0.16221310544E+03  0.16439361850E+03  0.19999939491E+01 0.  0.
        -13    1    3    3    0    0 -0.22025640146E+02 -0.14934571513E+02 -0.14825257508E+02  0.30462594675E+02  0.10566000000E+00 0.  1.
         13    1    4    4    0    0  0.66262360234E+01  0.37146590631E+01 -0.43707957634E+02  0.44363300377E+02  0.10566000000E+00 0. -1.
        -13    1    4    4    0    0  0.48630961702E+01  0.39688212966E+01 -0.37674676921E+02  0.38194157826E+02  0.10566000000E+00 0.  1.
         14    1    4    4    0    0  0.10536307953E+02  0.72510911528E+01 -0.80830470885E+02  0.81836160294E+02  0.00000000000E+00 0. -1.
<mgrwt>
<rscale>  0 0.81402468E+02</rscale>
<asrwt>0</asrwt>
<pdfrwt beam="1">  1        2 0.28607272E-01 0.81402468E+02</pdfrwt>
<pdfrwt beam="2">  1       -1 0.13706040E-02 0.81402468E+02</pdfrwt>
<totfact> 0.20545170E+05</totfact>
</mgrwt>
</event>
<event>
 8    1  0.1226832E-016  0.7986155E+02  0.7818608E-02  0.1329445E+00
         -1   -1    0    0    0  501 -0.00000000000E+00  0.00000000000E+00  0.22849793968E+01  0.22849849552E+01  0.50400000000E-02 0.  1.
          2   -1    0    0  501    0  0.00000000000E+00 -0.00000000000E+00 -0.69780280023E+03  0.69780280024E+03  0.25500000000E-02 0. -1.
         24    2    1    2    0    0  0.00000000000E+00  0.00000000000E+00 -0.69551782084E+03  0.70008778519E+03  0.79861554427E+02 0.  0.
         66    2    3    3    0    0 -0.11983227695E+02  0.19069568451E+02 -0.63676018745E+03  0.63716150426E+03  0.20000004446E+01 0.  0.
        -13    1    3    3    0    0  0.11983227695E+02 -0.19069568451E+02 -0.58757633383E+02  0.62926280930E+02  0.10566000000E+00 0.  1.
         13    1    4    4    0    0 -0.28653988517E+01  0.34333915433E+01 -0.11955378293E+03  0.11963743923E+03  0.10566000000E+00 0. -1.
        -13    1    4    4    0    0 -0.19679498967E+01  0.39073621737E+01 -0.11552540443E+03  0.11560826328E+03  0.10566000000E+00 0.  1.
         14    1    4    4    0    0 -0.71498789465E+01  0.11728814734E+02 -0.40168100009E+03  0.40191580176E+03  0.00000000000E+00 0. -1.
<mgrwt>
<rscale>  0 0.79861554E+02</rscale>
<asrwt>0</asrwt>
<pdfrwt beam="1">  1        2 0.10735411E+00 0.79861554E+02</pdfrwt>
<pdfrwt beam="2">  1       -1 0.35153628E-03 0.79861554E+02</pdfrwt>
<totfact> 0.33578413E+05</totfact>
</mgrwt>
</event>
<event>
 8    1  0.1226832E-016  0.7958181E+02  0.7818608E-02  0.1330242E+00
          2   -1    0    0  501    0  0.00000000000E+00  0.00000000000E+00  0.61811742266E+03  0.61811742266E+03  0.25500000000E-02 0. -1.
         -1   -1    0    0    0  501 -0.00000000000E+00 -0.00000000000E+00 -0.25615111486E+01  0.25615161069E+01  0.50400000000E-02 0.  1.
         24    2    1    2    0    0 -0.22204460493E-15  0.00000000000E+00  0.61555591151E+03  0.62067893877E+03  0.79581812235E+02 0.  0.
         66    2    3    3    0    0  0.15575821360E+01 -0.23972976783E+02  0.55512105826E+03  0.55564423781E+03  0.20000018991E+01 0.  0.
        -13    1    3    3    0    0 -0.15575821360E+01  0.23972976783E+02  0.60434853251E+02  0.65034700964E+02  0.10566000000E+00 0.  1.
         13    1    4    4    0    0  0.16482572820E+00 -0.11427181328E+02  0.26540608116E+03  0.26565204069E+03  0.10566000000E+00 0.  1.
        -13    1    4    4    0    0  0.53576999547E+00 -0.93799831977E+01  0.21661345538E+03  0.21681713805E+03  0.10566000000E+00 0. -1.
        -14    1    4    4    0    0  0.85698641237E+00 -0.31658122573E+01  0.73101521713E+02  0.73175059069E+02  0.00000000000E+00 0.  1.
<mgrwt>
<rscale>  0 0.79581812E+02</rscale>
<asrwt>0</asrwt>
<pdfrwt beam="1">  1        2 0.95095069E-01 0.79581812E+02</pdfrwt>
<pdfrwt beam="2">  1       -1 0.39407869E-03 0.79581812E+02</pdfrwt>
<totfact> 0.32871934E+05</totfact>
</mgrwt>
</event>
<event>
 8    1  0.1226832E-016  0.8052635E+02  0.7818608E-02  0.1327564E+00
          2   -1    0    0  501    0  0.00000000000E+00  0.00000000000E+00  0.53111640207E+02  0.53111640268E+02  0.25500000000E-02 0. -1.
         -1   -1    0    0    0  501 -0.00000000000E+00 -0.00000000000E+00 -0.30522935552E+02  0.30522935968E+02  0.50400000000E-02 0.  1.
         24    2    1    2    0    0  0.00000000000E+00  0.35527136788E-14  0.22588704655E+02  0.83634576236E+02  0.80526348261E+02 0.  0.
         66    2    3    3    0    0  0.23963712140E+01 -0.31503952879E+02 -0.14577878993E+02  0.34853352942E+02  0.20000033451E+01 0.  0.
        -13    1    3    3    0    0 -0.23963712140E+01  0.31503952879E+02  0.37166583648E+02  0.48781223294E+02  0.10566000000E+00 0.  1.
         13    1    4    4    0    0  0.10398495171E+01 -0.16931807108E+02 -0.70545599870E+01  0.18372407562E+02  0.10566000000E+00 0. -1.
        -13    1    4    4    0    0  0.63302786575E-01 -0.35112256293E+01 -0.21150420954E+01  0.41008876799E+01  0.10566000000E+00 0.  1.
         14    1    4    4    0    0  0.12932189103E+01 -0.11060920141E+02 -0.54082769110E+01  0.12380057700E+02  0.00000000000E+00 0. -1.
<mgrwt>
<rscale>  0 0.80526348E+02</rscale>
<asrwt>0</asrwt>
<pdfrwt beam="1">  1        2 0.81710214E-02 0.80526348E+02</pdfrwt>
<pdfrwt beam="2">  1       -1 0.46958364E-02 0.80526348E+02</pdfrwt>
<totfact> 0.14873418E+05</totfact>
</mgrwt>
</event>
<event>
 8    1  0.1226832E-016  0.7097768E+02  0.7818608E-02  0.1356800E+00
          2   -1    0    0  501    0  0.00000000000E+00  0.00000000000E+00  0.78824648861E+02  0.78824648902E+02  0.25500000000E-02 0. -1.
         -1   -1    0    0    0  501 -0.00000000000E+00 -0.00000000000E+00 -0.15977968267E+02  0.15977969062E+02  0.50400000000E-02 0.  1.
         24    2    1    2    0    0 -0.35527136788E-14 -0.35527136788E-14  0.62846680594E+02  0.94802617964E+02  0.70977680373E+02 0.  0.
         66    2    3    3    0    0 -0.20211285412E+02 -0.25949123024E+02  0.49147708877E+02  0.59172209128E+02  0.20000003731E+01 0.  0.
        -13    1    3    3    0    0  0.20211285412E+02  0.25949123024E+02  0.13698971717E+02  0.35630408836E+02  0.10566000000E+00 0.  1.
         13    1    4    4    0    0 -0.10044215544E+02 -0.13398718820E+02  0.25292455656E+02  0.30333667913E+02  0.10566000000E+00 0. -1.
        -13    1    4    4    0    0 -0.80332373879E+01 -0.90273504961E+01  0.17938064714E+02  0.21628945643E+02  0.10566000000E+00 0.  1.
        -14    1    4    4    0    0 -0.21338324799E+01 -0.35230537072E+01  0.59171885072E+01  0.72095955716E+01  0.00000000000E+00 0.  1.
<mgrwt>
<rscale>  0 0.70977680E+02</rscale>
<asrwt>0</asrwt>
<pdfrwt beam="1">  1        2 0.12126869E-01 0.70977680E+02</pdfrwt>
<pdfrwt beam="2">  1       -1 0.24581490E-02 0.70977680E+02</pdfrwt>
<totfact> 0.22904010E+05</totfact>
</mgrwt>
</event>
<event>
 8    1  0.1226832E-016  0.7910068E+02  0.7818608E-02  0.1331623E+00
         -1   -1    0    0    0  501 -0.00000000000E+00  0.00000000000E+00  0.95946190093E+01  0.95946203330E+01  0.50400000000E-02 0.  1.
          2   -1    0    0  501    0  0.00000000000E+00 -0.00000000000E+00 -0.16303195240E+03  0.16303195242E+03  0.25500000000E-02 0. -1.
         24    2    1    2    0    0  0.00000000000E+00  0.00000000000E+00 -0.15343733339E+03  0.17262657275E+03  0.79100684840E+02 0.  0.
         66    2    3    3    0    0 -0.82822962115E+01 -0.37051758375E+02 -0.10075328774E+03  0.10768776263E+03  0.20000004946E+01 0.  0.
        -13    1    3    3    0    0  0.82822962115E+01  0.37051758375E+02 -0.52684045651E+02  0.64938810117E+02  0.10566000000E+00 0.  1.
         13    1    4    4    0    0 -0.74502776437E+01 -0.34041659151E+02 -0.92773752717E+02  0.99102580955E+02  0.10566000000E+00 0. -1.
        -13    1    4    4    0    0 -0.33697387319E+00 -0.86933036910E+00 -0.29766884048E+01  0.31210774705E+01  0.10566000000E+00 0.  1.
         14    1    4    4    0    0 -0.49504469462E+00 -0.21407688551E+01 -0.50028466131E+01  0.54641042060E+01  0.00000000000E+00 0. -1.
<mgrwt>
<rscale>  0 0.79100685E+02</rscale>
<asrwt>0</asrwt>
<pdfrwt beam="1">  1        2 0.25081837E-01 0.79100685E+02</pdfrwt>
<pdfrwt beam="2">  1       -1 0.14760955E-02 0.79100685E+02</pdfrwt>
<totfact> 0.21206909E+05</totfact>
</mgrwt>
</event>
<event>
 8    1  0.1226832E-016  0.7985726E+02  0.7818608E-02  0.1329457E+00
          2   -1    0    0  501    0  0.00000000000E+00  0.00000000000E+00  0.10624940921E+02  0.10624941227E+02  0.25500000000E-02 0. -1.
         -1   -1    0    0    0  501 -0.00000000000E+00 -0.00000000000E+00 -0.15005217892E+03  0.15005217901E+03  0.50400000000E-02 0.  1.
         24    2    1    2    0    0  0.00000000000E+00  0.00000000000E+00 -0.13942723800E+03  0.16067712024E+03  0.79857261849E+02 0.  0.
         66    2    3    3    0    0  0.27632989902E+02  0.70005919312E+01 -0.13574415003E+02  0.31636294761E+02  0.19999962981E+01 0.  0.
        -13    1    3    3    0    0 -0.27632989902E+02 -0.70005919312E+01 -0.12585282300E+03  0.12904082547E+03  0.10566000000E+00 0.  1.
         13    1    4    4    0    0  0.24088305218E+02  0.61611021643E+01 -0.12123299059E+02  0.27662089080E+02  0.10566000000E+00 0. -1.
        -13    1    4    4    0    0  0.17546796889E+01  0.15886190505E+00 -0.90115632349E+00  0.19817630207E+01  0.10566000000E+00 0.  1.
         14    1    4    4    0    0  0.17900049948E+01  0.68062786182E+00 -0.54995962045E+00  0.19924426596E+01  0.00000000000E+00 0. -1.
<mgrwt>
<rscale>  0 0.79857262E+02</rscale>
<asrwt>0</asrwt>
<pdfrwt beam="1">  1        2 0.16346064E-02 0.79857262E+02</pdfrwt>
<pdfrwt beam="2">  1       -1 0.23084949E-01 0.79857262E+02</pdfrwt>
<totfact> 0.10835098E+05</totfact>
</mgrwt>
</event>
<event>
 8    1  0.1226832E-016  0.8118826E+02  0.7818608E-02  0.1325713E+00
          2   -1    0    0  501    0  0.00000000000E+00  0.00000000000E+00  0.21751259791E+02  0.21751259941E+02  0.25500000000E-02 0. -1.
         -1   -1    0    0    0  501 -0.00000000000E+00 -0.00000000000E+00 -0.75760366867E+02  0.75760367035E+02  0.50400000000E-02 0.  1.
         24    2    1    2    0    0  0.00000000000E+00  0.71054273576E-14 -0.54009107076E+02  0.97511626975E+02  0.81188261148E+02 0.  0.
         66    2    3    3    0    0  0.18424558304E+02 -0.36141636688E+02 -0.27552896921E+02  0.49079979564E+02  0.20000035113E+01 0.  0.
        -13    1    3    3    0    0 -0.18424558304E+02  0.36141636688E+02 -0.26456210155E+02  0.48431647412E+02  0.10566000000E+00 0.  1.
         13    1    4    4    0    0  0.89985669367E+01 -0.16402247563E+02 -0.13490656195E+02  0.23065491554E+02  0.10566000000E+00 0. -1.
        -13    1    4    4    0    0  0.35178146780E+01 -0.78003556651E+01 -0.51636186446E+01  0.99947331207E+01  0.10566000000E+00 0.  1.
        -14    1    4    4    0    0  0.59081766892E+01 -0.11939033460E+02 -0.88986220816E+01  0.16019754889E+02  0.00000000000E+00 0.  1.
<mgrwt>
<rscale>  0 0.81188261E+02</rscale>
<asrwt>0</asrwt>
<pdfrwt beam="1">  1        2 0.33463477E-02 0.81188261E+02</pdfrwt>
<pdfrwt beam="2">  1       -1 0.11655441E-01 0.81188261E+02</pdfrwt>
<totfact> 0.12105481E+05</totfact>
</mgrwt>
</event>
<event>
 8    1  0.1226832E-016  0.7982735E+02  0.7818608E-02  0.1329542E+00
         -1   -1    0    0    0  501 -0.00000000000E+00  0.00000000000E+00  0.10523527809E+03  0.10523527821E+03  0.50400000000E-02 0.  1.
          2   -1    0    0  501    0  0.00000000000E+00 -0.00000000000E+00 -0.15138471900E+02  0.15138472115E+02  0.25500000000E-02 0. -1.
         24    2    1    2    0    0  0.17763568394E-14  0.00000000000E+00  0.90096806191E+02  0.12037375033E+03  0.79827346704E+02 0.  0.
         66    2    3    3    0    0  0.12067911407E+02  0.33842640769E+02  0.18952566209E+02  0.40671348440E+02  0.19999995185E+01 0.  0.
        -13    1    3    3    0    0 -0.12067911407E+02 -0.33842640769E+02  0.71144239982E+02  0.79702401887E+02  0.10566000000E+00 0.  1.
         13    1    4    4    0    0  0.21261550531E+01  0.79327051908E+01  0.47391280040E+01  0.94825547838E+01  0.10566000000E+00 0.  1.
        -13    1    4    4    0    0  0.75622476642E+01  0.19166735298E+02  0.10262006226E+02  0.23018932806E+02  0.10566000000E+00 0. -1.
         14    1    4    4    0    0  0.23795086894E+01  0.67432002795E+01  0.39514319796E+01  0.81698608495E+01  0.00000000000E+00 0. -1.
<mgrwt>
<rscale>  0 0.79827347E+02</rscale>
<asrwt>0</asrwt>
<pdfrwt beam="1">  1        2 0.23289957E-02 0.79827347E+02</pdfrwt>
<pdfrwt beam="2">  1       -1 0.16190043E-01 0.79827347E+02</pdfrwt>
<totfact> 0.11786472E+05</totfact>
</mgrwt>
</event>
<event>
 8    1  0.1226832E-016  0.8011125E+02  0.7818608E-02  0.1328736E+00
          2   -1    0    0  501    0  0.00000000000E+00  0.00000000000E+00  0.35786937144E+03  0.35786937145E+03  0.25500000000E-02 0. -1.
         -1   -1    0    0    0  501 -0.00000000000E+00 -0.00000000000E+00 -0.44833475333E+01  0.44833503662E+01  0.50400000000E-02 0.  1.
         24    2    1    2    0    0  0.00000000000E+00  0.00000000000E+00  0.35338602391E+03  0.36235272181E+03  0.80111254605E+02 0.  0.
         66    2    3    3    0    0  0.19629526046E+02  0.32044301314E+02  0.23919773907E+03  0.24213986436E+03  0.19999992053E+01 0.  0.
        -13    1    3    3    0    0 -0.19629526046E+02 -0.32044301314E+02  0.11418828484E+03  0.12021285746E+03  0.10566000000E+00 0.  1.
         13    1    4    4    0    0  0.98885002496E+01  0.15815563080E+02  0.12076873144E+03  0.12220070430E+03  0.10566000000E+00 0. -1.
        -13    1    4    4    0    0  0.77758614851E+01  0.12412365371E+02  0.88509573295E+02  0.89713357783E+02  0.10566000000E+00 0.  1.
         14    1    4    4    0    0  0.19651643112E+01  0.38163728624E+01  0.29919434333E+02  0.30225802278E+02  0.00000000000E+00 0. -1.
<mgrwt>
<rscale>  0 0.80111255E+02</rscale>
<asrwt>0</asrwt>
<pdfrwt beam="1">  1        2 0.55056844E-01 0.80111255E+02</pdfrwt>
<pdfrwt beam="2">  1       -1 0.68974577E-03 0.80111255E+02</pdfrwt>
<totfact> 0.27065458E+05</totfact>
</mgrwt>
</event>
<event>
 8    1  0.1226832E-016  0.7991349E+02  0.7818608E-02  0.1329297E+00
         -1   -1    0    0    0  501 -0.00000000000E+00  0.00000000000E+00  0.23564763348E+01  0.23564817245E+01  0.50400000000E-02 0.  1.
          2   -1    0    0  501    0  0.00000000000E+00 -0.00000000000E+00 -0.67751148071E+03  0.67751148071E+03  0.25500000000E-02 0. -1.
         24    2    1    2    0    0  0.00000000000E+00  0.00000000000E+00 -0.67515500438E+03  0.67986796244E+03  0.79913493344E+02 0.  0.
         66    2    3    3    0    0  0.77464169944E+01  0.28850750129E+02 -0.56322458078E+03  0.56401977018E+03  0.20000002451E+01 0.  0.
        -13    1    3    3    0    0 -0.77464169944E+01 -0.28850750129E+02 -0.11193042360E+03  0.11584819226E+03  0.10566000000E+00 0.  1.
         13    1    4    4    0    0  0.15582065661E+01  0.41754731893E+01 -0.89622565824E+02  0.89733372014E+02  0.10566000000E+00 0. -1.
        -13    1    4    4    0    0  0.13357269499E+01  0.40245424342E+01 -0.85182116181E+02  0.85287661414E+02  0.10566000000E+00 0.  1.
        -14    1    4    4    0    0  0.48524834784E+01  0.20650734506E+02 -0.38841989877E+03  0.38899873675E+03  0.00000000000E+00 0.  1.
<mgrwt>
<rscale>  0 0.79913493E+02</rscale>
<asrwt>0</asrwt>
<pdfrwt beam="1">  1        2 0.10423238E+00 0.79913493E+02</pdfrwt>
<pdfrwt beam="2">  1       -1 0.36253578E-03 0.79913493E+02</pdfrwt>
<totfact> 0.33289760E+05</totfact>
</mgrwt>
</event>
<event>
 8    1  0.1226832E-016  0.7803361E+02  0.7818608E-02  0.1334726E+00
         -1   -1    0    0    0  501 -0.00000000000E+00  0.00000000000E+00  0.13140666829E+03  0.13140666839E+03  0.50400000000E-02 0.  1.
          2   -1    0    0  501    0  0.00000000000E+00 -0.00000000000E+00 -0.11584732372E+02  0.11584732653E+02  0.25500000000E-02 0. -1.
         24    2    1    2    0    0  0.35527136788E-14  0.00000000000E+00  0.11982193592E+03  0.14299140104E+03  0.78033610989E+02 0.  0.
         66    2    3    3    0    0 -0.28081454147E+02 -0.40188616918E+01  0.10931783319E+02  0.30466755679E+02  0.19999996914E+01 0.  0.
        -13    1    3    3    0    0  0.28081454147E+02  0.40188616918E+01  0.10889015260E+03  0.11252464536E+03  0.10566000000E+00 0.  1.
         13    1    4    4    0    0 -0.50802906471E+01 -0.82909660699E+00  0.26996254829E+01  0.58134237783E+01  0.10566000000E+00 0. -1.
        -13    1    4    4    0    0 -0.60734545401E+01 -0.72151096969E+00  0.25544949248E+01  0.66290298299E+01  0.10566000000E+00 0.  1.
        -14    1    4    4    0    0 -0.16927708960E+02 -0.24682541152E+01  0.56776629114E+01  0.18024302071E+02  0.00000000000E+00 0.  1.
<mgrwt>
<rscale>  0 0.78033611E+02</rscale>
<asrwt>0</asrwt>
<pdfrwt beam="1">  1        2 0.17822665E-02 0.78033611E+02</pdfrwt>
<pdfrwt beam="2">  1       -1 0.20216411E-01 0.78033611E+02</pdfrwt>
<totfact> 0.11865560E+05</totfact>
</mgrwt>
</event>
<event>
 8    1  0.1226832E-016  0.7779501E+02  0.7818608E-02  0.1335428E+00
          2   -1    0    0  501    0  0.00000000000E+00  0.00000000000E+00  0.17450809111E+04  0.17450809111E+04  0.25500000000E-02 0. -1.
         -1   -1    0    0    0  501 -0.00000000000E+00 -0.00000000000E+00 -0.86701026050E+00  0.86702490934E+00  0.50400000000E-02 0.  1.
         24    2    1    2    0    0  0.00000000000E+00  0.44408920985E-15  0.17442139008E+04  0.17459479360E+04  0.77795008708E+02 0.  0.
         66    2    3    3    0    0 -0.19300782860E+02 -0.35647508607E+01  0.16257025005E+04  0.16258222067E+04  0.20000005914E+01 0.  0.
        -13    1    3    3    0    0  0.19300782860E+02  0.35647508607E+01  0.11851140030E+03  0.12012572927E+03  0.10566000000E+00 0.  1.
         13    1    4    4    0    0 -0.38837274751E+01 -0.57217491726E+00  0.31201327378E+03  0.31203798631E+03  0.10566000000E+00 0. -1.
        -13    1    4    4    0    0 -0.13385249740E+02 -0.19899271366E+01  0.11245318772E+04  0.11246133018E+04  0.10566000000E+00 0.  1.
         14    1    4    4    0    0 -0.20318056454E+01 -0.10026488068E+01  0.18915734958E+03  0.18917091859E+03  0.00000000000E+00 0. -1.
<mgrwt>
<rscale>  0 0.77795009E+02</rscale>
<asrwt>0</asrwt>
<pdfrwt beam="1">  1        2 0.26847141E+00 0.77795009E+02</pdfrwt>
<pdfrwt beam="2">  1       -1 0.13338860E-03 0.77795009E+02</pdfrwt>
<totfact> 0.33166672E+05</totfact>
</mgrwt>
</event>
<event>
 8    1  0.1226832E-016  0.7845851E+02  0.7818608E-02  0.1333484E+00
          2   -1    0    0  501    0  0.00000000000E+00  0.00000000000E+00  0.28763133318E+02  0.28763133431E+02  0.25500000000E-02 0. -1.
         -1   -1    0    0    0  501 -0.00000000000E+00 -0.00000000000E+00 -0.53503710737E+02  0.53503710974E+02  0.50400000000E-02 0.  1.
         24    2    1    2    0    0  0.00000000000E+00  0.00000000000E+00 -0.24740577419E+02  0.82266844405E+02  0.78458508254E+02 0.  0.
         66    2    3    3    0    0  0.21388692966E+02 -0.20300382231E+02  0.14708694355E+02  0.33014048413E+02  0.19999993793E+01 0.  0.
        -13    1    3    3    0    0 -0.21388692966E+02  0.20300382231E+02 -0.39449271774E+02  0.49252795992E+02  0.10566000000E+00 0.  1.
         13    1    4    4    0    0  0.47339941812E+01 -0.41676708671E+01  0.31700743641E+01  0.70597958096E+01  0.10566000000E+00 0. -1.
        -13    1    4    4    0    0  0.51060581879E+01 -0.46094983428E+01  0.42437407983E+01  0.80833041010E+01  0.10566000000E+00 0.  1.
        -14    1    4    4    0    0  0.11548640597E+02 -0.11523213021E+02  0.72948791925E+01  0.17870948503E+02  0.00000000000E+00 0.  1.
<mgrwt>
<rscale>  0 0.78458508E+02</rscale>
<asrwt>0</asrwt>
<pdfrwt beam="1">  1        2 0.44250974E-02 0.78458508E+02</pdfrwt>
<pdfrwt beam="2">  1       -1 0.82313402E-02 0.78458508E+02</pdfrwt>
<totfact> 0.14092321E+05</totfact>
</mgrwt>
</event>
<event>
 8    1  0.1226832E-016  0.7360546E+02  0.7818608E-02  0.1348245E+00
          2   -1    0    0  501    0  0.00000000000E+00  0.00000000000E+00  0.50084634303E+03  0.50084634304E+03  0.25500000000E-02 0. -1.
         -1   -1    0    0    0  501 -0.00000000000E+00 -0.00000000000E+00 -0.27043019654E+01  0.27043066619E+01  0.50400000000E-02 0.  1.
         24    2    1    2    0    0  0.00000000000E+00  0.00000000000E+00  0.49814204106E+03  0.50355064970E+03  0.73605459958E+02 0.  0.
         66    2    3    3    0    0  0.66961335119E+01  0.31909189702E+02  0.36563578264E+03  0.36709203225E+03  0.19999999375E+01 0.  0.
        -13    1    3    3    0    0 -0.66961335119E+01 -0.31909189702E+02  0.13250625842E+03  0.13645861745E+03  0.10566000000E+00 0.  1.
         13    1    4    4    0    0  0.27716213246E+01  0.16113138717E+02  0.17604457175E+03  0.17680219888E+03  0.10566000000E+00 0. -1.
        -13    1    4    4    0    0  0.29439486619E+01  0.10564671899E+02  0.12680198711E+03  0.12727542664E+03  0.10566000000E+00 0.  1.
         14    1    4    4    0    0  0.98056352544E+00  0.52313790866E+01  0.62789223785E+02  0.63014406729E+02  0.00000000000E+00 0. -1.
<mgrwt>
<rscale>  0 0.73605460E+02</rscale>
<asrwt>0</asrwt>
<pdfrwt beam="1">  1        2 0.77053235E-01 0.73605460E+02</pdfrwt>
<pdfrwt beam="2">  1       -1 0.41604708E-03 0.73605460E+02</pdfrwt>
<totfact> 0.37819744E+05</totfact>
</mgrwt>
</event>
<event>
 8    1  0.1226832E-016  0.8150228E+02  0.7818608E-02  0.1324841E+00
          2   -1    0    0  501    0  0.00000000000E+00  0.00000000000E+00  0.18246724854E+03  0.18246724856E+03  0.25500000000E-02 0. -1.
         -1   -1    0    0    0  501 -0.00000000000E+00 -0.00000000000E+00 -0.91011145666E+01  0.91011159621E+01  0.50400000000E-02 0.  1.
         24    2    1    2    0    0  0.00000000000E+00  0.35527136788E-14  0.17336613397E+03  0.19156836452E+03  0.81502281416E+02 0.  0.
         66    2    3    3    0    0  0.92434041069E+01 -0.21767918533E+02  0.16466885794E+03  0.16637041676E+03  0.20000002241E+01 0.  0.
        -13    1    3    3    0    0 -0.92434041069E+01  0.21767918533E+02  0.86972760289E+01  0.25197947756E+02  0.10566000000E+00 0.  1.
         13    1    4    4    0    0  0.70083911667E+01 -0.15149287638E+02  0.11474190645E+03  0.11594970773E+03  0.10566000000E+00 0. -1.
        -13    1    4    4    0    0  0.37431116136E+00 -0.10466586252E+01  0.10370094349E+02  0.10430034706E+02  0.10566000000E+00 0.  1.
        -14    1    4    4    0    0  0.18607017788E+01 -0.55719722691E+01  0.39556857141E+02  0.39990674325E+02  0.00000000000E+00 0.  1.
<mgrwt>
<rscale>  0 0.81502281E+02</rscale>
<asrwt>0</asrwt>
<pdfrwt beam="1">  1        2 0.28071884E-01 0.81502281E+02</pdfrwt>
<pdfrwt beam="2">  1       -1 0.14001716E-02 0.81502281E+02</pdfrwt>
<totfact> 0.20346608E+05</totfact>
</mgrwt>
</event>
<event>
 8    1  0.1226832E-016  0.8972563E+02  0.7818608E-02  0.1303517E+00
          2   -1    0    0  501    0  0.00000000000E+00  0.00000000000E+00  0.46847976745E+03  0.46847976746E+03  0.25500000000E-02 0. -1.
         -1   -1    0    0    0  501 -0.00000000000E+00 -0.00000000000E+00 -0.42961756013E+01  0.42961785576E+01  0.50400000000E-02 0.  1.
         24    2    1    2    0    0 -0.17763568394E-14  0.00000000000E+00  0.46418359185E+03  0.47277594602E+03  0.89725627267E+02 0.  0.
         66    2    3    3    0    0 -0.92444630287E+01 -0.41116529204E+02  0.31291875784E+03  0.31575018303E+03  0.20000005542E+01 0.  0.
        -13    1    3    3    0    0  0.92444630287E+01  0.41116529204E+02  0.15126483401E+03  0.15702576299E+03  0.10566000000E+00 0.  1.
         13    1    4    4    0    0 -0.29646230105E+01 -0.17547715407E+02  0.13283807529E+03  0.13402491080E+03  0.10566000000E+00 0. -1.
        -13    1    4    4    0    0 -0.52362977550E+01 -0.19697570665E+02  0.15126448465E+03  0.15263147967E+03  0.10566000000E+00 0.  1.
         14    1    4    4    0    0 -0.10435422631E+01 -0.38712431316E+01  0.28816197901E+02  0.29093792556E+02  0.00000000000E+00 0. -1.
<mgrwt>
<rscale>  0 0.89725627E+02</rscale>
<asrwt>0</asrwt>
<pdfrwt beam="1">  1        2 0.72073771E-01 0.89725627E+02</pdfrwt>
<pdfrwt beam="2">  1       -1 0.66095068E-03 0.89725627E+02</pdfrwt>
<totfact> 0.22068315E+05</totfact>
</mgrwt>
</event>
<event>
 8    1  0.1226832E-016  0.7880359E+02  0.7818608E-02  0.1332481E+00
         -1   -1    0    0    0  501 -0.00000000000E+00  0.00000000000E+00  0.35696680541E+01  0.35696716121E+01  0.50400000000E-02 0.  1.
          2   -1    0    0  501    0  0.00000000000E+00 -0.00000000000E+00 -0.43491462021E+03  0.43491462022E+03  0.25500000000E-02 0. -1.
         24    2    1    2    0    0  0.00000000000E+00  0.35527136788E-14 -0.43134495216E+03  0.43848429183E+03  0.78803594023E+02 0.  0.
         66    2    3    3    0    0 -0.11905879470E+02  0.17973365775E+02 -0.39915382398E+03  0.39974062472E+03  0.20000043209E+01 0.  0.
        -13    1    3    3    0    0  0.11905879470E+02 -0.17973365775E+02 -0.32191128182E+02  0.38743667108E+02  0.10566000000E+00 0.  1.
         13    1    4    4    0    0 -0.48952498109E+01  0.72350094318E+01 -0.17135144063E+03  0.17157399629E+03  0.10566000000E+00 0. -1.
        -13    1    4    4    0    0 -0.16770731545E+01  0.33770978851E+01 -0.73448056931E+02  0.73544854309E+02  0.10566000000E+00 0.  1.
        -14    1    4    4    0    0 -0.53335565044E+01  0.73612584584E+01 -0.15435432641E+03  0.15462177413E+03  0.00000000000E+00 0.  1.
<mgrwt>
<rscale>  0 0.78803594E+02</rscale>
<asrwt>0</asrwt>
<pdfrwt beam="1">  1        2 0.66909899E-01 0.78803594E+02</pdfrwt>
<pdfrwt beam="2">  1       -1 0.54918032E-03 0.78803594E+02</pdfrwt>
<totfact> 0.30246961E+05</totfact>
</mgrwt>
</event>
<event>
 8    1  0.1226832E-016  0.7937175E+02  0.7818608E-02  0.1330844E+00
          2   -1    0    0  501    0  0.00000000000E+00  0.00000000000E+00  0.68622018063E+01  0.68622022801E+01  0.25500000000E-02 0. -1.
         -1   -1    0    0    0  501 -0.00000000000E+00 -0.00000000000E+00 -0.22951361763E+03  0.22951361769E+03  0.50400000000E-02 0.  1.
         24    2    1    2    0    0  0.00000000000E+00  0.00000000000E+00 -0.22265141582E+03  0.23637581997E+03  0.79371753767E+02 0.  0.
         66    2    3    3    0    0 -0.34002686654E+02 -0.17987600071E+02 -0.14015089848E+03  0.14534789578E+03  0.20000015297E+01 0.  0.
        -13    1    3    3    0    0  0.34002686654E+02  0.17987600071E+02 -0.82500517345E+02  0.91027924189E+02  0.10566000000E+00 0.  1.
         13    1    4    4    0    0 -0.16026085744E+02 -0.83525897244E+01 -0.64658181172E+02  0.67136374164E+02  0.10566000000E+00 0. -1.
        -13    1    4    4    0    0 -0.15384348372E+02 -0.84223988728E+01 -0.66521942305E+02  0.68795311974E+02  0.10566000000E+00 0.  1.
         14    1    4    4    0    0 -0.25922525376E+01 -0.12126114743E+01 -0.89707750031E+01  0.94162096388E+01  0.00000000000E+00 0. -1.
<mgrwt>
<rscale>  0 0.79371754E+02</rscale>
<asrwt>0</asrwt>
<pdfrwt beam="1">  1        2 0.10557236E-02 0.79371754E+02</pdfrwt>
<pdfrwt beam="2">  1       -1 0.35309782E-01 0.79371754E+02</pdfrwt>
<totfact> 0.97292562E+04</totfact>
</mgrwt>
</event>
<event>
 8    1  0.1226832E-016  0.7941373E+02  0.7818608E-02  0.1330723E+00
          2   -1    0    0  501    0  0.00000000000E+00  0.00000000000E+00  0.64695315378E+03  0.64695315379E+03  0.25500000000E-02 0. -1.
         -1   -1    0    0    0  501 -0.00000000000E+00 -0.00000000000E+00 -0.24370130672E+01  0.24370182788E+01  0.50400000000E-02 0.  1.
         24    2    1    2    0    0  0.35527136788E-14 -0.17763568394E-14  0.64451614072E+03  0.64939017207E+03  0.79413726357E+02 0.  0.
         66    2    3    3    0    0 -0.22726353216E+02  0.15890344626E+02  0.55456481691E+03  0.55526131357E+03  0.20000035726E+01 0.  0.
        -13    1    3    3    0    0  0.22726353216E+02 -0.15890344626E+02  0.89951323809E+02  0.94128858497E+02  0.10566000000E+00 0.  1.
         13    1    4    4    0    0 -0.12283764867E+02  0.80630720307E+01  0.29122054398E+03  0.29159101566E+03  0.10566000000E+00 0. -1.
        -13    1    4    4    0    0 -0.99937029657E+01  0.72885198634E+01  0.24403318650E+03  0.24434648329E+03  0.10566000000E+00 0.  1.
         14    1    4    4    0    0 -0.44888538301E+00  0.53875273150E+00  0.19311086428E+02  0.19323814624E+02  0.00000000000E+00 0. -1.
<mgrwt>
<rscale>  0 0.79413726E+02</rscale>
<asrwt>0</asrwt>
<pdfrwt beam="1">  1        2 0.99531320E-01 0.79413726E+02</pdfrwt>
<pdfrwt beam="2">  1       -1 0.37492524E-03 0.79413726E+02</pdfrwt>
<totfact> 0.33451590E+05</totfact>
</mgrwt>
</event>
<event>
 8    1  0.1226832E-016  0.7889025E+02  0.7818608E-02  0.1332231E+00
          2   -1    0    0  501    0  0.00000000000E+00  0.00000000000E+00  0.23354032671E+02  0.23354032810E+02  0.25500000000E-02 0. -1.
         -1   -1    0    0    0  501 -0.00000000000E+00 -0.00000000000E+00 -0.66623086446E+02  0.66623086637E+02  0.50400000000E-02 0.  1.
         24    2    1    2    0    0  0.17763568394E-14  0.00000000000E+00 -0.43269053776E+02  0.89977119447E+02  0.78890246604E+02 0.  0.
         66    2    3    3    0    0  0.13863939382E+02  0.36721344912E+02 -0.25799507779E+02  0.47013621117E+02  0.19999953943E+01 0.  0.
        -13    1    3    3    0    0 -0.13863939382E+02 -0.36721344912E+02 -0.17469545997E+02  0.42963498329E+02  0.10566000000E+00 0.  1.
         13    1    4    4    0    0  0.11401798547E+02  0.30235053805E+02 -0.21967271312E+02  0.39073413744E+02  0.10566000000E+00 0.  1.
        -13    1    4    4    0    0  0.22946368219E+01  0.56902784334E+01 -0.32918331587E+01  0.69636166160E+01  0.10566000000E+00 0. -1.
        -14    1    4    4    0    0  0.16750401295E+00  0.79601267367E+00 -0.54040330862E+00  0.97659075715E+00  0.00000000000E+00 0.  1.
<mgrwt>
<rscale>  0 0.78890247E+02</rscale>
<asrwt>0</asrwt>
<pdfrwt beam="1">  1        2 0.35929281E-02 0.78890247E+02</pdfrwt>
<pdfrwt beam="2">  1       -1 0.10249706E-01 0.78890247E+02</pdfrwt>
<totfact> 0.13324956E+05</totfact>
</mgrwt>
</event>
<event>
 8    1  0.1226832E-016  0.7902020E+02  0.7818608E-02  0.1331855E+00
          2   -1    0    0  501    0  0.00000000000E+00  0.00000000000E+00  0.60375260349E+03  0.60375260349E+03  0.25500000000E-02 0. -1.
         -1   -1    0    0    0  501 -0.00000000000E+00 -0.00000000000E+00 -0.25855731982E+01  0.25855781104E+01  0.50400000000E-02 0.  1.
         24    2    1    2    0    0  0.00000000000E+00  0.00000000000E+00  0.60116703029E+03  0.60633818160E+03  0.79020200981E+02 0.  0.
         66    2    3    3    0    0  0.16828106014E+02  0.32540913374E+02  0.41379506385E+03  0.41541840482E+03  0.20000005043E+01 0.  0.
        -13    1    3    3    0    0 -0.16828106014E+02 -0.32540913374E+02  0.18737196644E+03  0.19091977678E+03  0.10566000000E+00 0.  1.
         13    1    4    4    0    0  0.24843953619E+01  0.52516775222E+01  0.64736099687E+02  0.64996354542E+02  0.10566000000E+00 0. -1.
        -13    1    4    4    0    0  0.36091336470E+01  0.84400722178E+01  0.10712340154E+03  0.10751602200E+03  0.10566000000E+00 0.  1.
        -14    1    4    4    0    0  0.10734577005E+02  0.18849163634E+02  0.24193556263E+03  0.24290602828E+03  0.00000000000E+00 0.  1.
<mgrwt>
<rscale>  0 0.79020201E+02</rscale>
<asrwt>0</asrwt>
<pdfrwt beam="1">  1        2 0.92885153E-01 0.79020201E+02</pdfrwt>
<pdfrwt beam="2">  1       -1 0.39778029E-03 0.79020201E+02</pdfrwt>
<totfact> 0.33268429E+05</totfact>
</mgrwt>
</event>
<event>
 8    1  0.1226832E-016  0.7801992E+02  0.7818608E-02  0.1334766E+00
         -1   -1    0    0    0  501 -0.00000000000E+00  0.00000000000E+00  0.16528770222E+02  0.16528770990E+02  0.50400000000E-02 0.  1.
          2   -1    0    0  501    0  0.00000000000E+00 -0.00000000000E+00 -0.92068367434E+02  0.92068367470E+02  0.25500000000E-02 0. -1.
         24    2    1    2    0    0 -0.35527136788E-14  0.00000000000E+00 -0.75539597213E+02  0.10859713846E+03  0.78019918833E+02 0.  0.
         66    2    3    3    0    0  0.26762884328E+02 -0.19512266795E+02 -0.66414968481E+02  0.74242363733E+02  0.20000003128E+01 0.  0.
        -13    1    3    3    0    0 -0.26762884328E+02  0.19512266795E+02 -0.91246287315E+01  0.34354774727E+02  0.10566000000E+00 0.  1.
         13    1    4    4    0    0  0.15698812043E+02 -0.11362649451E+02 -0.39468221980E+02  0.43969469095E+02  0.10566000000E+00 0. -1.
        -13    1    4    4    0    0  0.47773338529E+01 -0.38745875065E+01 -0.13222962977E+02  0.14584007029E+02  0.10566000000E+00 0.  1.
        -14    1    4    4    0    0  0.62867384317E+01 -0.42750298369E+01 -0.13723783524E+02  0.15688887609E+02  0.00000000000E+00 0.  1.
<mgrwt>
<rscale>  0 0.78019919E+02</rscale>
<asrwt>0</asrwt>
<pdfrwt beam="1">  1        2 0.14164364E-01 0.78019919E+02</pdfrwt>
<pdfrwt beam="2">  1       -1 0.25428878E-02 0.78019919E+02</pdfrwt>
<totfact> 0.18530808E+05</totfact>
</mgrwt>
</event>
<event>
 8    1  0.1226832E-016  0.7963936E+02  0.7818608E-02  0.1330078E+00
         -1   -1    0    0    0  501 -0.00000000000E+00  0.00000000000E+00  0.41111477233E+02  0.41111477542E+02  0.50400000000E-02 0.  1.
          2   -1    0    0  501    0  0.00000000000E+00 -0.00000000000E+00 -0.38568470409E+02  0.38568470493E+02  0.25500000000E-02 0. -1.
         24    2    1    2    0    0  0.00000000000E+00  0.00000000000E+00  0.25430068243E+01  0.79679948035E+02  0.79639357325E+02 0.  0.
         66    2    3    3    0    0  0.13718441745E+02  0.33601753891E+02 -0.15055582941E+02  0.39343921529E+02  0.20000187862E+01 0.  0.
        -13    1    3    3    0    0 -0.13718441745E+02 -0.33601753891E+02  0.17598589765E+02  0.40336026505E+02  0.10566000000E+00 0.  1.
         13    1    4    4    0    0  0.70524025192E+01  0.18901695712E+02 -0.78757834200E+01  0.21657553199E+02  0.10566000000E+00 0. -1.
        -13    1    4    4    0    0  0.50478916642E+01  0.10323056806E+02 -0.53105686326E+01  0.12659384476E+02  0.10566000000E+00 0.  1.
        -14    1    4    4    0    0  0.16181475617E+01  0.43770013738E+01 -0.18692308880E+01  0.50269838542E+01  0.00000000000E+00 0.  1.
<mgrwt>
<rscale>  0 0.79639357E+02</rscale>
<asrwt>0</asrwt>
<pdfrwt beam="1">  1        2 0.59336108E-02 0.79639357E+02</pdfrwt>
<pdfrwt beam="2">  1       -1 0.63248427E-02 0.79639357E+02</pdfrwt>
<totfact> 0.14327302E+05</totfact>
</mgrwt>
</event>
<event>
 8    1  0.1226832E-016  0.8024078E+02  0.7818608E-02  0.1328370E+00
         -1   -1    0    0    0  501 -0.00000000000E+00  0.00000000000E+00  0.68782544891E+01  0.68782563356E+01  0.50400000000E-02 0.  1.
          2   -1    0    0  501    0  0.00000000000E+00 -0.00000000000E+00 -0.23401944238E+03  0.23401944239E+03  0.25500000000E-02 0. -1.
         24    2    1    2    0    0  0.00000000000E+00  0.00000000000E+00 -0.22714118789E+03  0.24089769872E+03  0.80240775274E+02 0.  0.
         66    2    3    3    0    0  0.67744519140E+01 -0.98289688924E+01 -0.22855600242E+03  0.22887627234E+03  0.19999921042E+01 0.  0.
        -13    1    3    3    0    0 -0.67744519140E+01  0.98289688924E+01  0.14148145329E+01  0.12021426389E+02  0.10566000000E+00 0.  1.
         13    1    4    4    0    0  0.32458955816E+01 -0.33896332182E+01 -0.94072276888E+02  0.94189330046E+02  0.10566000000E+00 0. -1.
        -13    1    4    4    0    0  0.27581432942E+01 -0.51385475584E+01 -0.11267550808E+03  0.11282638570E+03  0.10566000000E+00 0.  1.
        -14    1    4    4    0    0  0.77041303827E+00 -0.13007881157E+01 -0.21808217456E+02  0.21860556593E+02  0.00000000000E+00 0.  1.
<mgrwt>
<rscale>  0 0.80240775E+02</rscale>
<asrwt>0</asrwt>
<pdfrwt beam="1">  1        2 0.36002985E-01 0.80240775E+02</pdfrwt>
<pdfrwt beam="2">  1       -1 0.10581933E-02 0.80240775E+02</pdfrwt>
<totfact> 0.23128349E+05</totfact>
</mgrwt>
</event>
<event>
 8    1  0.1226832E-016  0.7931518E+02  0.7818608E-02  0.1331006E+00
         -1   -1    0    0    0  501 -0.00000000000E+00  0.00000000000E+00  0.16574811336E+02  0.16574812102E+02  0.50400000000E-02 0.  1.
          2   -1    0    0  501    0  0.00000000000E+00 -0.00000000000E+00 -0.94886405291E+02  0.94886405325E+02  0.25500000000E-02 0. -1.
         24    2    1    2    0    0  0.00000000000E+00 -0.35527136788E-14 -0.78311593955E+02  0.11146121743E+03  0.79315176622E+02 0.  0.
         66    2    3    3    0    0 -0.32247607022E+02 -0.19756435307E+02 -0.55837636075E+02  0.67469004008E+02  0.20000011509E+01 0.  0.
        -13    1    3    3    0    0  0.32247607022E+02  0.19756435307E+02 -0.22473957879E+02  0.43992213419E+02  0.10566000000E+00 0.  1.
         13    1    4    4    0    0 -0.11944880851E+02 -0.81204638658E+01 -0.22188586706E+02  0.26475774889E+02  0.10566000000E+00 0. -1.
        -13    1    4    4    0    0 -0.16274382476E+02 -0.92884792459E+01 -0.26406785404E+02  0.32379945199E+02  0.10566000000E+00 0.  1.
         14    1    4    4    0    0 -0.40283436948E+01 -0.23474921956E+01 -0.72422639659E+01  0.86132839199E+01  0.00000000000E+00 0. -1.
<mgrwt>
<rscale>  0 0.79315177E+02</rscale>
<asrwt>0</asrwt>
<pdfrwt beam="1">  1        2 0.14597908E-01 0.79315177E+02</pdfrwt>
<pdfrwt beam="2">  1       -1 0.25499711E-02 0.79315177E+02</pdfrwt>
<totfact> 0.17877213E+05</totfact>
</mgrwt>
</event>
<event>
 8    1  0.1514079E-016  0.7989260E+02  0.7818608E-02  0.1329356E+00
          2   -1    0    0  501    0  0.00000000000E+00  0.00000000000E+00  0.12124114130E+03  0.12124114133E+03  0.25500000000E-02 0. -1.
         -1   -1    0    0    0  501 -0.00000000000E+00 -0.00000000000E+00 -0.13161431280E+02  0.13161432245E+02  0.50400000000E-02 0.  1.
         24    2    1    2    0    0  0.35527136788E-14 -0.35527136788E-14  0.10807971002E+03  0.13440257357E+03  0.79892603318E+02 0.  0.
         66    2    3    3    0    0 -0.24162176915E+02 -0.27420389793E+02  0.81095920360E+02  0.88973236817E+02  0.20000002341E+01 0.  0.
        -13    1    3    3    0    0  0.24162176915E+02  0.27420389793E+02  0.26983789661E+02  0.45429336757E+02  0.10566000000E+00 0.  1.
         13    1    4    4    0    0 -0.13676277379E+02 -0.15364301222E+02  0.45697964856E+02  0.50114044648E+02  0.10566000000E+00 0. -1.
        -13    1    4    4    0    0 -0.76965862897E+01 -0.96115997978E+01  0.27746814043E+02  0.30356500865E+02  0.10566000000E+00 0.  1.
        -14    1    4    4    0    0 -0.27893132462E+01 -0.24444887728E+01  0.76511414617E+01  0.85026913041E+01  0.00000000000E+00 0.  1.
<mgrwt>
<rscale>  0 0.79892603E+02</rscale>
<asrwt>0</asrwt>
<pdfrwt beam="1">  1        2 0.18652483E-01 0.79892603E+02</pdfrwt>
<pdfrwt beam="2">  1       -1 0.20248357E-02 0.79892603E+02</pdfrwt>
<totfact> 0.18811505E+05</totfact>
</mgrwt>
</event>
<event>
 8    1  0.1226832E-016  0.8038259E+02  0.7818608E-02  0.1327969E+00
         -1   -1    0    0    0  501 -0.00000000000E+00  0.00000000000E+00  0.34606470416E+01  0.34606507116E+01  0.50400000000E-02 0.  1.
          2   -1    0    0  501    0  0.00000000000E+00 -0.00000000000E+00 -0.46677378195E+03  0.46677378195E+03  0.25500000000E-02 0. -1.
         24    2    1    2    0    0  0.00000000000E+00  0.35527136788E-14 -0.46331313490E+03  0.47023443266E+03  0.80382589461E+02 0.  0.
         66    2    3    3    0    0  0.10382077229E+02 -0.19649980614E+02 -0.42752629726E+03  0.42810821543E+03  0.20000014569E+01 0.  0.
        -13    1    3    3    0    0 -0.10382077229E+02  0.19649980614E+02 -0.35786837645E+02  0.42126217233E+02  0.10566000000E+00 0.  1.
         13    1    4    4    0    0  0.21475855189E+01 -0.33928344251E+01 -0.69652677210E+02  0.69768402989E+02  0.10566000000E+00 0. -1.
        -13    1    4    4    0    0  0.42580964402E+01 -0.73882683916E+01 -0.17665625606E+03  0.17686198535E+03  0.10566000000E+00 0.  1.
        -14    1    4    4    0    0  0.39763952697E+01 -0.88688777972E+01 -0.18121736399E+03  0.18147782709E+03  0.00000000000E+00 0.  1.
<mgrwt>
<rscale>  0 0.80382589E+02</rscale>
<asrwt>0</asrwt>
<pdfrwt beam="1">  1        2 0.71811301E-01 0.80382589E+02</pdfrwt>
<pdfrwt beam="2">  1       -1 0.53240789E-03 0.80382589E+02</pdfrwt>
<totfact> 0.29410863E+05</totfact>
</mgrwt>
</event>
<event>
 8    1  0.1226832E-016  0.8056614E+02  0.7818608E-02  0.1327452E+00
         -1   -1    0    0    0  501 -0.00000000000E+00  0.00000000000E+00  0.56542524500E+02  0.56542524725E+02  0.50400000000E-02 0.  1.
          2   -1    0    0  501    0  0.00000000000E+00 -0.00000000000E+00 -0.28699210688E+02  0.28699210801E+02  0.25500000000E-02 0. -1.
         24    2    1    2    0    0  0.00000000000E+00  0.00000000000E+00  0.27843313813E+02  0.85241735526E+02  0.80566142712E+02 0.  0.
         66    2    3    3    0    0 -0.13903338703E+02 -0.37778501526E+02  0.14406760165E+02  0.42802718777E+02  0.19999978990E+01 0.  0.
        -13    1    3    3    0    0  0.13903338703E+02  0.37778501526E+02  0.13436553648E+02  0.42439016749E+02  0.10566000000E+00 0.  1.
         13    1    4    4    0    0 -0.42101489548E+01 -0.12637930707E+02  0.53476440747E+01  0.14354480414E+02  0.10566000000E+00 0.  1.
        -13    1    4    4    0    0 -0.41732730211E+01 -0.11284286718E+02  0.45937294688E+01  0.12878852779E+02  0.10566000000E+00 0. -1.
        -14    1    4    4    0    0 -0.55199167270E+01 -0.13856284102E+02  0.44653866210E+01  0.15569385584E+02  0.00000000000E+00 0.  1.
<mgrwt>
<rscale>  0 0.80566143E+02</rscale>
<asrwt>0</asrwt>
<pdfrwt beam="1">  1        2 0.44152633E-02 0.80566143E+02</pdfrwt>
<pdfrwt beam="2">  1       -1 0.86988499E-02 0.80566143E+02</pdfrwt>
<totfact> 0.13076337E+05</totfact>
</mgrwt>
</event>
<event>
 8    1  0.1226832E-016  0.7680204E+02  0.7818608E-02  0.1338380E+00
         -1   -1    0    0    0  501 -0.00000000000E+00  0.00000000000E+00  0.23106726432E+02  0.23106726982E+02  0.50400000000E-02 0.  1.
          2   -1    0    0  501    0  0.00000000000E+00 -0.00000000000E+00 -0.63818565055E+02  0.63818565106E+02  0.25500000000E-02 0. -1.
         24    2    1    2    0    0  0.00000000000E+00 -0.17763568394E-14 -0.40711838623E+02  0.86925292088E+02  0.76802035133E+02 0.  0.
         66    2    3    3    0    0  0.21752094888E+01  0.15245107420E+02 -0.60152248542E+02  0.62124373991E+02  0.20000006239E+01 0.  0.
        -13    1    3    3    0    0 -0.21752094888E+01 -0.15245107420E+02  0.19440409920E+02  0.24800918097E+02  0.10566000000E+00 0.  1.
         13    1    4    4    0    0  0.32700978192E-01  0.29511153051E+01 -0.12636222418E+02  0.12976726549E+02  0.10566000000E+00 0. -1.
        -13    1    4    4    0    0  0.44239679526E+00  0.52379854949E+01 -0.17981753023E+02  0.18734642051E+02  0.10566000000E+00 0.  1.
         14    1    4    4    0    0  0.17001117153E+01  0.70560066201E+01 -0.29534273102E+02  0.30413005391E+02  0.00000000000E+00 0. -1.
<mgrwt>
<rscale>  0 0.76802035E+02</rscale>
<asrwt>0</asrwt>
<pdfrwt beam="1">  1        2 0.98182407E-02 0.76802035E+02</pdfrwt>
<pdfrwt beam="2">  1       -1 0.35548811E-02 0.76802035E+02</pdfrwt>
<totfact> 0.17636458E+05</totfact>
</mgrwt>
</event>
<event>
 8    1  0.1226832E-016  0.7985762E+02  0.7818608E-02  0.1329456E+00
          2   -1    0    0  501    0  0.00000000000E+00  0.00000000000E+00  0.63484083392E+02  0.63484083444E+02  0.25500000000E-02 0. -1.
         -1   -1    0    0    0  501 -0.00000000000E+00 -0.00000000000E+00 -0.25113539466E+02  0.25113539972E+02  0.50400000000E-02 0.  1.
         24    2    1    2    0    0  0.00000000000E+00  0.00000000000E+00  0.38370543926E+02  0.88597623415E+02  0.79857624768E+02 0.  0.
         66    2    3    3    0    0 -0.17309725623E+02  0.33470698800E+01  0.58912847261E+02  0.61526848246E+02  0.20000011766E+01 0.  0.
        -13    1    3    3    0    0  0.17309725623E+02 -0.33470698800E+01 -0.20542303335E+02  0.27070775169E+02  0.10566000000E+00 0.  1.
         13    1    4    4    0    0 -0.43316668851E+01  0.13750027448E+01  0.13349010915E+02  0.14101816443E+02  0.10566000000E+00 0. -1.
        -13    1    4    4    0    0 -0.61461082720E+01  0.51068947512E+00  0.21083299369E+02  0.21967069148E+02  0.10566000000E+00 0.  1.
         14    1    4    4    0    0 -0.68319504660E+01  0.14613776601E+01  0.24480536978E+02  0.25457962655E+02  0.00000000000E+00 0. -1.
<mgrwt>
<rscale>  0 0.79857625E+02</rscale>
<asrwt>0</asrwt>
<pdfrwt beam="1">  1        2 0.97667818E-02 0.79857625E+02</pdfrwt>
<pdfrwt beam="2">  1       -1 0.38636216E-02 0.79857625E+02</pdfrwt>
<totfact> 0.15848967E+05</totfact>
</mgrwt>
</event>
<event>
 8    1  0.1226832E-016  0.7430819E+02  0.7818608E-02  0.1346027E+00
         -1   -1    0    0    0  501 -0.00000000000E+00  0.00000000000E+00  0.74153530537E+02  0.74153530708E+02  0.50400000000E-02 0.  1.
          2   -1    0    0  501    0  0.00000000000E+00 -0.00000000000E+00 -0.18615791676E+02  0.18615791851E+02  0.25500000000E-02 0. -1.
         24    2    1    2    0    0 -0.17763568394E-14  0.00000000000E+00  0.55537738860E+02  0.92769322559E+02  0.74308187775E+02 0.  0.
         66    2    3    3    0    0  0.78597451609E+01 -0.29561872210E+02  0.15199590779E+01  0.30691858216E+02  0.20000006597E+01 0.  0.
        -13    1    3    3    0    0 -0.78597451609E+01  0.29561872210E+02  0.54017779783E+02  0.62077464343E+02  0.10566000000E+00 0.  1.
         13    1    4    4    0    0  0.26741735827E+01 -0.87268543930E+01  0.73240470874E+00  0.91573343632E+01  0.10566000000E+00 0. -1.
        -13    1    4    4    0    0  0.46604973756E+01 -0.16785913983E+02  0.96249724629E+00  0.17447770889E+02  0.10566000000E+00 0.  1.
        -14    1    4    4    0    0  0.52507420255E+00 -0.40491038340E+01 -0.17494287717E+00  0.40867529638E+01  0.00000000000E+00 0.  1.
<mgrwt>
<rscale>  0 0.74308188E+02</rscale>
<asrwt>0</asrwt>
<pdfrwt beam="1">  1        2 0.28639680E-02 0.74308188E+02</pdfrwt>
<pdfrwt beam="2">  1       -1 0.11408235E-01 0.74308188E+02</pdfrwt>
<totfact> 0.15115179E+05</totfact>
</mgrwt>
</event>
<event>
 8    1  0.1226832E-016  0.8072539E+02  0.7818608E-02  0.1327005E+00
         -1   -1    0    0    0  501 -0.00000000000E+00  0.00000000000E+00  0.60781999117E+01  0.60782020013E+01  0.50400000000E-02 0.  1.
          2   -1    0    0  501    0  0.00000000000E+00 -0.00000000000E+00 -0.26803112367E+03  0.26803112368E+03  0.25500000000E-02 0. -1.
         24    2    1    2    0    0  0.00000000000E+00  0.00000000000E+00 -0.26195292376E+03  0.27410932568E+03  0.80725387340E+02 0.  0.
         66    2    3    3    0    0 -0.98248820059E+01  0.20788296897E+02 -0.24359636895E+03  0.24468729545E+03  0.19999994855E+01 0.  0.
        -13    1    3    3    0    0  0.98248820059E+01 -0.20788296897E+02 -0.18356554812E+02  0.29422030231E+02  0.10566000000E+00 0.  1.
         13    1    4    4    0    0 -0.48217248878E+01  0.11625481226E+02 -0.13884231150E+03  0.13941161886E+03  0.10566000000E+00 0. -1.
        -13    1    4    4    0    0 -0.28415677595E+01  0.51531851706E+01 -0.55337384367E+02  0.55649502220E+02  0.10566000000E+00 0.  1.
         14    1    4    4    0    0 -0.21615893586E+01  0.40096304999E+01 -0.49416673074E+02  0.49626174374E+02  0.00000000000E+00 0. -1.
<mgrwt>
<rscale>  0 0.80725387E+02</rscale>
<asrwt>0</asrwt>
<pdfrwt beam="1">  1        2 0.41235548E-01 0.80725387E+02</pdfrwt>
<pdfrwt beam="2">  1       -1 0.93510805E-03 0.80725387E+02</pdfrwt>
<totfact> 0.23901373E+05</totfact>
</mgrwt>
</event>
<event>
 8    1  0.1251077E-016  0.8037495E+02  0.7818608E-02  0.1327991E+00
         -1   -1    0    0    0  501 -0.00000000000E+00  0.00000000000E+00  0.20915923329E+01  0.20915984052E+01  0.50400000000E-02 0.  1.
          2   -1    0    0  501    0  0.00000000000E+00 -0.00000000000E+00 -0.77215371614E+03  0.77215371615E+03  0.25500000000E-02 0. -1.
         24    2    1    2    0    0  0.00000000000E+00  0.00000000000E+00 -0.77006212381E+03  0.77424531455E+03  0.80374949949E+02 0.  0.
         66    2    3    3    0    0 -0.34082042345E+02  0.11829158164E+02 -0.55528737417E+03  0.55646166310E+03  0.19999983253E+01 0.  0.
        -13    1    3    3    0    0  0.34082042345E+02 -0.11829158164E+02 -0.21477474964E+03  0.21778365146E+03  0.10566000000E+00 0.  1.
         13    1    4    4    0    0 -0.15078996018E+02  0.50333219226E+01 -0.24053854802E+03  0.24106330019E+03  0.10566000000E+00 0. -1.
        -13    1    4    4    0    0 -0.16825338962E+02  0.64693009053E+01 -0.27884919369E+03  0.27943125786E+03  0.10566000000E+00 0.  1.
        -14    1    4    4    0    0 -0.21777073645E+01  0.32653533588E+00 -0.35899632464E+02  0.35967105051E+02  0.00000000000E+00 0.  1.
<mgrwt>
<rscale>  0 0.80374950E+02</rscale>
<asrwt>0</asrwt>
<pdfrwt beam="1">  1        2 0.11879265E+00 0.80374950E+02</pdfrwt>
<pdfrwt beam="2">  1       -1 0.32178452E-03 0.80374950E+02</pdfrwt>
<totfact> 0.33733897E+05</totfact>
</mgrwt>
</event>
<event>
 8    1  0.1226832E-016  0.8026164E+02  0.7818608E-02  0.1328311E+00
          2   -1    0    0  501    0  0.00000000000E+00  0.00000000000E+00  0.98916999653E+03  0.98916999653E+03  0.25500000000E-02 0. -1.
         -1   -1    0    0    0  501 -0.00000000000E+00 -0.00000000000E+00 -0.16281112113E+01  0.16281190123E+01  0.50400000000E-02 0.  1.
         24    2    1    2    0    0 -0.35527136788E-14 -0.88817841970E-15  0.98754188532E+03  0.99079811554E+03  0.80261637847E+02 0.  0.
         66    2    3    3    0    0  0.17818451803E+02  0.52285012395E+01  0.93289969158E+03  0.93308663531E+03  0.20000006117E+01 0.  0.
        -13    1    3    3    0    0 -0.17818451803E+02 -0.52285012395E+01  0.54642193739E+02  0.57711480232E+02  0.10566000000E+00 0.  1.
         13    1    4    4    0    0  0.55121329052E+01  0.16928918799E+01  0.28147900156E+03  0.28153807731E+03  0.10566000000E+00 0. -1.
        -13    1    4    4    0    0  0.64165100083E+01  0.13895002169E+01  0.29859299845E+03  0.29866518410E+03  0.10566000000E+00 0.  1.
        -14    1    4    4    0    0  0.58898088893E+01  0.21461091428E+01  0.35282769158E+03  0.35288337390E+03  0.00000000000E+00 0.  1.
<mgrwt>
<rscale>  0 0.80261638E+02</rscale>
<asrwt>0</asrwt>
<pdfrwt beam="1">  1        2 0.15217945E+00 0.80261638E+02</pdfrwt>
<pdfrwt beam="2">  1       -1 0.25048015E-03 0.80261638E+02</pdfrwt>
<totfact> 0.34916358E+05</totfact>
</mgrwt>
</event>
<event>
 8    1  0.1226832E-016  0.7770231E+02  0.7818608E-02  0.1335701E+00
          2   -1    0    0  501    0  0.00000000000E+00  0.00000000000E+00  0.19881835758E+03  0.19881835759E+03  0.25500000000E-02 0. -1.
         -1   -1    0    0    0  501 -0.00000000000E+00 -0.00000000000E+00 -0.75919157162E+01  0.75919173892E+01  0.50400000000E-02 0.  1.
         24    2    1    2    0    0 -0.17763568394E-14  0.00000000000E+00  0.19122644186E+03  0.20641027498E+03  0.77702313683E+02 0.  0.
         66    2    3    3    0    0  0.10517674195E+02 -0.34767638882E+02  0.13209917337E+03  0.13701679382E+03  0.20000003339E+01 0.  0.
        -13    1    3    3    0    0 -0.10517674195E+02  0.34767638882E+02  0.59127268495E+02  0.69393481161E+02  0.10566000000E+00 0.  1.
         13    1    4    4    0    0  0.30791606112E+01 -0.10579978261E+02  0.38208783511E+02  0.39766059290E+02  0.10566000000E+00 0. -1.
        -13    1    4    4    0    0  0.16699100545E+00 -0.29293090608E+00  0.17363767549E+01  0.17719657960E+01  0.10566000000E+00 0.  1.
         14    1    4    4    0    0  0.72715225784E+01 -0.23894729715E+02  0.92154013101E+02  0.95478768736E+02  0.00000000000E+00 0. -1.
<mgrwt>
<rscale>  0 0.77702314E+02</rscale>
<asrwt>0</asrwt>
<pdfrwt beam="1">  1        2 0.30587433E-01 0.77702314E+02</pdfrwt>
<pdfrwt beam="2">  1       -1 0.11679874E-02 0.77702314E+02</pdfrwt>
<totfact> 0.23770159E+05</totfact>
</mgrwt>
</event>
<event>
 8    1  0.1226832E-016  0.7929608E+02  0.7818608E-02  0.1331061E+00
          2   -1    0    0  501    0  0.00000000000E+00  0.00000000000E+00  0.12523360067E+03  0.12523360070E+03  0.25500000000E-02 0. -1.
         -1   -1    0    0    0  501 -0.00000000000E+00 -0.00000000000E+00 -0.12552279241E+02  0.12552280252E+02  0.50400000000E-02 0.  1.
         24    2    1    2    0    0  0.00000000000E+00  0.00000000000E+00  0.11268132143E+03  0.13778588095E+03  0.79296083066E+02 0.  0.
         66    2    3    3    0    0 -0.29347955458E+01  0.13737350618E+02  0.12075335563E+03  0.12158413021E+03  0.19999993455E+01 0.  0.
        -13    1    3    3    0    0  0.29347955458E+01 -0.13737350618E+02 -0.80720341956E+01  0.16201750738E+02  0.10566000000E+00 0.  1.
         13    1    4    4    0    0  0.18277374845E+00  0.52101349847E+00  0.40220091053E+01  0.40611060793E+01  0.10566000000E+00 0. -1.
        -13    1    4    4    0    0 -0.31305904598E+00  0.27761428503E+01  0.26048557956E+02  0.26198158537E+02  0.10566000000E+00 0. -1.
         14    1    4    4    0    0 -0.28045102483E+01  0.10440194269E+02  0.90682788564E+02  0.91324865594E+02  0.00000000000E+00 0. -1.
<mgrwt>
<rscale>  0 0.79296083E+02</rscale>
<asrwt>0</asrwt>
<pdfrwt beam="1">  1        2 0.19266708E-01 0.79296083E+02</pdfrwt>
<pdfrwt beam="2">  1       -1 0.19311200E-02 0.79296083E+02</pdfrwt>
<totfact> 0.19379536E+05</totfact>
</mgrwt>
</event>
<event>
 8    1  0.1226832E-016  0.7168401E+02  0.7818608E-02  0.1354458E+00
         -1   -1    0    0    0  501 -0.00000000000E+00  0.00000000000E+00  0.26857446746E+02  0.26857447219E+02  0.50400000000E-02 0.  1.
          2   -1    0    0  501    0  0.00000000000E+00 -0.00000000000E+00 -0.47832141644E+02  0.47832141712E+02  0.25500000000E-02 0. -1.
         24    2    1    2    0    0  0.00000000000E+00  0.00000000000E+00 -0.20974694898E+02  0.74689588932E+02  0.71684007064E+02 0.  0.
         66    2    3    3    0    0 -0.22259616237E+02  0.85430122061E+01 -0.38339951612E+02  0.45193201401E+02  0.19999976915E+01 0.  0.
        -13    1    3    3    0    0  0.22259616237E+02 -0.85430122061E+01  0.17365256714E+02  0.29496387530E+02  0.10566000000E+00 0.  1.
         13    1    4    4    0    0 -0.46257142728E+01  0.21942069024E+01 -0.77390024316E+01  0.92798221500E+01  0.10566000000E+00 0. -1.
        -13    1    4    4    0    0 -0.15658211562E+02  0.61042426563E+01 -0.27272124616E+02  0.32034689211E+02  0.10566000000E+00 0.  1.
        -14    1    4    4    0    0 -0.19756904018E+01  0.24456264741E+00 -0.33288245638E+01  0.38786900404E+01  0.00000000000E+00 0.  1.
<mgrwt>
<rscale>  0 0.71684007E+02</rscale>
<asrwt>0</asrwt>
<pdfrwt beam="1">  1        2 0.73587911E-02 0.71684007E+02</pdfrwt>
<pdfrwt beam="2">  1       -1 0.41319149E-02 0.71684007E+02</pdfrwt>
<totfact> 0.19948723E+05</totfact>
</mgrwt>
</event>
<event>
 8    1  0.1226832E-016  0.8018800E+02  0.7818608E-02  0.1328519E+00
          2   -1    0    0  501    0  0.00000000000E+00  0.00000000000E+00  0.19798881386E+03  0.19798881388E+03  0.25500000000E-02 0. -1.
         -1   -1    0    0    0  501 -0.00000000000E+00 -0.00000000000E+00 -0.81192894471E+01  0.81192910114E+01  0.50400000000E-02 0.  1.
         24    2    1    2    0    0  0.00000000000E+00  0.00000000000E+00  0.18986952441E+03  0.20610810489E+03  0.80187995359E+02 0.  0.
         66    2    3    3    0    0  0.37009028584E+02  0.52300898591E+01  0.13210788387E+03  0.13730810257E+03  0.20000035341E+01 0.  0.
        -13    1    3    3    0    0 -0.37009028584E+02 -0.52300898591E+01  0.57761640544E+02  0.68800002318E+02  0.10566000000E+00 0.  1.
         13    1    4    4    0    0  0.18137853746E+02  0.25649290132E+01  0.68240836608E+02  0.70656801119E+02  0.10566000000E+00 0. -1.
        -13    1    4    4    0    0  0.39220744882E+01  0.41896469463E+00  0.13084613636E+02  0.13666619104E+02  0.10566000000E+00 0. -1.
         14    1    4    4    0    0  0.14949100350E+02  0.22461961513E+01  0.50782433624E+02  0.52984682345E+02  0.00000000000E+00 0. -1.
<mgrwt>
<rscale>  0 0.80187995E+02</rscale>
<asrwt>0</asrwt>
<pdfrwt beam="1">  1        2 0.30459817E-01 0.80187995E+02</pdfrwt>
<pdfrwt beam="2">  1       -1 0.12491216E-02 0.80187995E+02</pdfrwt>
<totfact> 0.21845589E+05</totfact>
</mgrwt>
</event>
<event>
 8    1  0.1226832E-016  0.7994773E+02  0.7818608E-02  0.1329200E+00
          2   -1    0    0  501    0  0.00000000000E+00  0.00000000000E+00  0.58061365460E+03  0.58061365461E+03  0.25500000000E-02 0. -1.
         -1   -1    0    0    0  501 -0.00000000000E+00 -0.00000000000E+00 -0.27521031782E+01  0.27521077931E+01  0.50400000000E-02 0.  1.
         24    2    1    2    0    0  0.00000000000E+00  0.00000000000E+00  0.57786155142E+03  0.58336576240E+03  0.79947733723E+02 0.  0.
         66    2    3    3    0    0  0.25528618890E+02  0.25521789856E+02  0.41397724387E+03  0.41555292151E+03  0.19999992837E+01 0.  0.
        -13    1    3    3    0    0 -0.25528618890E+02 -0.25521789856E+02  0.16388430755E+03  0.16781284089E+03  0.10566000000E+00 0.  1.
         13    1    4    4    0    0  0.10116282923E+02  0.10134857384E+02  0.17384944686E+03  0.17443822933E+03  0.10566000000E+00 0. -1.
        -13    1    4    4    0    0  0.62803658521E+01  0.60314898039E+01  0.92227218773E+02  0.92637427162E+02  0.10566000000E+00 0.  1.
         14    1    4    4    0    0  0.91319701152E+01  0.93554426679E+01  0.14790057824E+03  0.14847726503E+03  0.00000000000E+00 0. -1.
<mgrwt>
<rscale>  0 0.79947734E+02</rscale>
<asrwt>0</asrwt>
<pdfrwt beam="1">  1        2 0.89325300E-01 0.79947734E+02</pdfrwt>
<pdfrwt beam="2">  1       -1 0.42340027E-03 0.79947734E+02</pdfrwt>
<totfact> 0.31920488E+05</totfact>
</mgrwt>
</event>
<event>
 8    1  0.1226832E-016  0.7712120E+02  0.7818608E-02  0.1337425E+00
         -1   -1    0    0    0  501 -0.00000000000E+00  0.00000000000E+00  0.31152300381E+02  0.31152300789E+02  0.50400000000E-02 0.  1.
          2   -1    0    0  501    0  0.00000000000E+00 -0.00000000000E+00 -0.47730660341E+02  0.47730660409E+02  0.25500000000E-02 0. -1.
         24    2    1    2    0    0  0.00000000000E+00  0.00000000000E+00 -0.16578359959E+02  0.78882961198E+02  0.77121200382E+02 0.  0.
         66    2    3    3    0    0 -0.12855416476E+02  0.15046565109E+02 -0.42114457541E+02  0.46575619956E+02  0.19999964949E+01 0.  0.
        -13    1    3    3    0    0  0.12855416476E+02 -0.15046565109E+02  0.25536097582E+02  0.32307341242E+02  0.10566000000E+00 0.  1.
         13    1    4    4    0    0 -0.21798751331E+01  0.27045441597E+01 -0.63084016642E+01  0.72023267282E+01  0.10566000000E+00 0.  1.
        -13    1    4    4    0    0 -0.66837829948E+01  0.67175460859E+01 -0.20384992753E+02  0.22480157342E+02  0.10566000000E+00 0. -1.
         14    1    4    4    0    0 -0.39917583479E+01  0.56244748632E+01 -0.15421063124E+02  0.16893135886E+02  0.00000000000E+00 0. -1.
<mgrwt>
<rscale>  0 0.77121200E+02</rscale>
<asrwt>0</asrwt>
<pdfrwt beam="1">  1        2 0.73431785E-02 0.77121200E+02</pdfrwt>
<pdfrwt beam="2">  1       -1 0.47926616E-02 0.77121200E+02</pdfrwt>
<totfact> 0.16354552E+05</totfact>
</mgrwt>
</event>
<event>
 8    1  0.1226832E-016  0.8128559E+02  0.7818608E-02  0.1325442E+00
          2   -1    0    0  501    0  0.00000000000E+00  0.00000000000E+00  0.10547050061E+02  0.10547050369E+02  0.25500000000E-02 0. -1.
         -1   -1    0    0    0  501 -0.00000000000E+00 -0.00000000000E+00 -0.15661598660E+03  0.15661598668E+03  0.50400000000E-02 0.  1.
         24    2    1    2    0    0  0.00000000000E+00 -0.35527136788E-14 -0.14606893653E+03  0.16716303705E+03  0.81285587492E+02 0.  0.
         66    2    3    3    0    0 -0.11650668018E+02 -0.25908883802E+02 -0.13375719233E+02  0.31462965538E+02  0.20000025827E+01 0.  0.
        -13    1    3    3    0    0  0.11650668018E+02  0.25908883802E+02 -0.13269321730E+03  0.13570007151E+03  0.10566000000E+00 0.  1.
         13    1    4    4    0    0 -0.18461097972E+01 -0.46714439262E+01 -0.17965085020E+01  0.53356458440E+01  0.10566000000E+00 0. -1.
        -13    1    4    4    0    0 -0.24916522187E+01 -0.64920690926E+01 -0.37440735686E+01  0.78983886208E+01  0.10566000000E+00 0.  1.
         14    1    4    4    0    0 -0.73129060021E+01 -0.14745370783E+02 -0.78351371623E+01  0.18228931074E+02  0.00000000000E+00 0. -1.
<mgrwt>
<rscale>  0 0.81285587E+02</rscale>
<asrwt>0</asrwt>
<pdfrwt beam="1">  1        2 0.16226232E-02 0.81285587E+02</pdfrwt>
<pdfrwt beam="2">  1       -1 0.24094766E-01 0.81285587E+02</pdfrwt>
<totfact> 0.10246000E+05</totfact>
</mgrwt>
</event>
<event>
 8    1  0.1226832E-016  0.8086040E+02  0.7818608E-02  0.1326627E+00
          2   -1    0    0  501    0  0.00000000000E+00  0.00000000000E+00  0.11160264100E+04  0.11160264100E+04  0.25500000000E-02 0. -1.
         -1   -1    0    0    0  501 -0.00000000000E+00 -0.00000000000E+00 -0.14646571531E+01  0.14646658246E+01  0.50400000000E-02 0.  1.
         24    2    1    2    0    0  0.00000000000E+00  0.00000000000E+00  0.11145617529E+04  0.11174910758E+04  0.80860396024E+02 0.  0.
         66    2    3    3    0    0  0.28614736926E+02  0.38530352268E+00  0.95182890752E+03  0.95226110959E+03  0.20000084467E+01 0.  0.
        -13    1    3    3    0    0 -0.28614736926E+02 -0.38530352268E+00  0.16273284535E+03  0.16522996625E+03  0.10566000000E+00 0.  1.
         13    1    4    4    0    0  0.83446517471E+01 -0.93379221250E-01  0.25529728570E+03  0.25543366494E+03  0.10566000000E+00 0. -1.
        -13    1    4    4    0    0  0.19812356955E+02  0.60637594529E+00  0.68246018219E+03  0.68274798324E+03  0.10566000000E+00 0.  1.
        -14    1    4    4    0    0  0.45772822324E+00 -0.12769320136E+00  0.14071439621E+02  0.14079461413E+02  0.00000000000E+00 0.  1.
<mgrwt>
<rscale>  0 0.80860396E+02</rscale>
<asrwt>0</asrwt>
<pdfrwt beam="1">  1        2 0.17169714E+00 0.80860396E+02</pdfrwt>
<pdfrwt beam="2">  1       -1 0.22533153E-03 0.80860396E+02</pdfrwt>
<totfact> 0.34267088E+05</totfact>
</mgrwt>
</event>
<event>
 8    1  0.1226832E-016  0.8087779E+02  0.7818608E-02  0.1326579E+00
          2   -1    0    0  501    0  0.00000000000E+00  0.00000000000E+00  0.31390204889E+02  0.31390204993E+02  0.25500000000E-02 0. -1.
         -1   -1    0    0    0  501 -0.00000000000E+00 -0.00000000000E+00 -0.52095999258E+02  0.52095999502E+02  0.50400000000E-02 0.  1.
         24    2    1    2    0    0  0.00000000000E+00  0.00000000000E+00 -0.20705794369E+02  0.83486204495E+02  0.80877786941E+02 0.  0.
         66    2    3    3    0    0  0.30878762757E+02  0.19981689782E+02  0.69300964458E+01  0.37480557656E+02  0.20000123794E+01 0.  0.
        -13    1    3    3    0    0 -0.30878762757E+02 -0.19981689782E+02 -0.27635890815E+02  0.46005646839E+02  0.10566000000E+00 0.  1.
         13    1    4    4    0    0  0.10595891363E+02  0.63344585880E+01  0.27941821473E+01  0.12657681355E+02  0.10566000000E+00 0. -1.
        -13    1    4    4    0    0  0.14228854336E+02  0.94189084651E+01  0.34226700712E+01  0.17404079028E+02  0.10566000000E+00 0.  1.
        -14    1    4    4    0    0  0.60540170582E+01  0.42283227289E+01  0.71324422734E+00  0.74187972724E+01  0.00000000000E+00 0.  1.
<mgrwt>
<rscale>  0 0.80877787E+02</rscale>
<asrwt>0</asrwt>
<pdfrwt beam="1">  1        2 0.48292623E-02 0.80877787E+02</pdfrwt>
<pdfrwt beam="2">  1       -1 0.80147692E-02 0.80877787E+02</pdfrwt>
<totfact> 0.13167882E+05</totfact>
</mgrwt>
</event>
<event>
 8    1  0.1226832E-016  0.7989295E+02  0.7818608E-02  0.1329355E+00
          2   -1    0    0  501    0  0.00000000000E+00  0.00000000000E+00  0.88736627105E+03  0.88736627105E+03  0.25500000000E-02 0. -1.
         -1   -1    0    0    0  501 -0.00000000000E+00 -0.00000000000E+00 -0.17982629117E+01  0.17982699745E+01  0.50400000000E-02 0.  1.
         24    2    1    2    0    0 -0.35527136788E-14  0.00000000000E+00  0.88556800814E+03  0.88916454103E+03  0.79892953279E+02 0.  0.
         66    2    3    3    0    0  0.28024117070E+02  0.89974772096E+01  0.74322801728E+03  0.74381327720E+03  0.19999853452E+01 0.  0.
        -13    1    3    3    0    0 -0.28024117070E+02 -0.89974772096E+01  0.14233999086E+03  0.14535126382E+03  0.10566000000E+00 0.  1.
         13    1    4    4    0    0  0.21878395701E+01  0.59184850880E+00  0.54335924512E+02  0.54383276687E+02  0.10566000000E+00 0.  1.
        -13    1    4    4    0    0  0.19676618353E+02  0.68972966652E+01  0.51264914960E+03  0.51307300042E+03  0.10566000000E+00 0.  1.
         14    1    4    4    0    0  0.61596591472E+01  0.15083320356E+01  0.17624294316E+03  0.17635700009E+03  0.00000000000E+00 0. -1.
<mgrwt>
<rscale>  0 0.79892953E+02</rscale>
<asrwt>0</asrwt>
<pdfrwt beam="1">  1        2 0.13651801E+00 0.79892953E+02</pdfrwt>
<pdfrwt beam="2">  1       -1 0.27665613E-03 0.79892953E+02</pdfrwt>
<totfact> 0.35011747E+05</totfact>
</mgrwt>
</event>
<event>
 8    1  0.1226832E-016  0.7967769E+02  0.7818608E-02  0.1329969E+00
         -1   -1    0    0    0  501 -0.00000000000E+00  0.00000000000E+00  0.31834608512E+01  0.31834648408E+01  0.50400000000E-02 0.  1.
          2   -1    0    0  501    0  0.00000000000E+00 -0.00000000000E+00 -0.49855564949E+03  0.49855564950E+03  0.25500000000E-02 0. -1.
         24    2    1    2    0    0  0.00000000000E+00  0.00000000000E+00 -0.49537218864E+03  0.50173911434E+03  0.79677685579E+02 0.  0.
         66    2    3    3    0    0  0.17703489740E+02  0.35559161419E+02 -0.26480998249E+03  0.26778012310E+03  0.19999986041E+01 0.  0.
        -13    1    3    3    0    0 -0.17703489740E+02 -0.35559161419E+02 -0.23056220615E+03  0.23395899123E+03  0.10566000000E+00 0.  1.
         13    1    4    4    0    0  0.74154919302E+01  0.16310673231E+02 -0.11458397770E+03  0.11597640576E+03  0.10566000000E+00 0. -1.
        -13    1    4    4    0    0  0.34981845848E+01  0.67576384918E+01 -0.53390011348E+02  0.53929652782E+02  0.10566000000E+00 0.  1.
         14    1    4    4    0    0  0.67898132250E+01  0.12490849696E+02 -0.96835993437E+02  0.97874064566E+02  0.00000000000E+00 0. -1.
<mgrwt>
<rscale>  0 0.79677686E+02</rscale>
<asrwt>0</asrwt>
<pdfrwt beam="1">  1        2 0.76700807E-01 0.79677686E+02</pdfrwt>
<pdfrwt beam="2">  1       -1 0.48976391E-03 0.79677686E+02</pdfrwt>
<totfact> 0.30744985E+05</totfact>
</mgrwt>
</event>
<event>
 8    1  0.1226832E-016  0.8401015E+02  0.7818608E-02  0.1318042E+00
          2   -1    0    0  501    0  0.00000000000E+00  0.00000000000E+00  0.16720707928E+04  0.16720707928E+04  0.25500000000E-02 0. -1.
         -1   -1    0    0    0  501 -0.00000000000E+00 -0.00000000000E+00 -0.10552282621E+01  0.10552402981E+01  0.50400000000E-02 0.  1.
         24    2    1    2    0    0 -0.17763568394E-14  0.17763568394E-14  0.16710155645E+04  0.16731260331E+04  0.84010152416E+02 0.  0.
         66    2    3    3    0    0  0.11705304588E+02 -0.96680952828E+01  0.16154817137E+04  0.16155542868E+04  0.19999993119E+01 0.  0.
        -13    1    3    3    0    0 -0.11705304588E+02  0.96680952828E+01  0.55533850823E+02  0.57571746310E+02  0.10566000000E+00 0.  1.
         13    1    4    4    0    0  0.47589936975E+01 -0.43030094233E+01  0.67686574217E+03  0.67689615747E+03  0.10566000000E+00 0. -1.
        -13    1    4    4    0    0  0.53511313953E+01 -0.47172461622E+01  0.71820597471E+03  0.71824140809E+03  0.10566000000E+00 0.  1.
         14    1    4    4    0    0  0.15951794950E+01 -0.64783969732E+00  0.22040999682E+03  0.22041672122E+03  0.00000000000E+00 0. -1.
<mgrwt>
<rscale>  0 0.84010152E+02</rscale>
<asrwt>0</asrwt>
<pdfrwt beam="1">  1        2 0.25724156E+00 0.84010152E+02</pdfrwt>
<pdfrwt beam="2">  1       -1 0.16234380E-03 0.84010152E+02</pdfrwt>
<totfact> 0.27840683E+05</totfact>
</mgrwt>
</event>
<event>
 8    1  0.1226832E-016  0.8095450E+02  0.7818608E-02  0.1326364E+00
          2   -1    0    0  501    0  0.00000000000E+00  0.00000000000E+00  0.15970836622E+03  0.15970836624E+03  0.25500000000E-02 0. -1.
         -1   -1    0    0    0  501 -0.00000000000E+00 -0.00000000000E+00 -0.10258747345E+02  0.10258748583E+02  0.50400000000E-02 0.  1.
         24    2    1    2    0    0  0.71054273576E-14  0.00000000000E+00  0.14944961888E+03  0.16996711482E+03  0.80954502898E+02 0.  0.
         66    2    3    3    0    0 -0.20208871265E+02  0.15325506433E+02  0.14093519035E+03  0.14321311919E+03  0.20000008928E+01 0.  0.
        -13    1    3    3    0    0  0.20208871265E+02 -0.15325506433E+02  0.85144285249E+01  0.26753995634E+02  0.10566000000E+00 0.  1.
         13    1    4    4    0    0 -0.23635348170E+00  0.17001309047E+00  0.22360316374E+01  0.22573809909E+01  0.10566000000E+00 0.  1.
        -13    1    4    4    0    0 -0.31228156422E+01  0.20186062869E+01  0.18042601984E+02  0.18422089981E+02  0.10566000000E+00 0. -1.
         14    1    4    4    0    0 -0.16849702142E+02  0.13136887055E+02  0.12065655673E+03  0.12253364822E+03  0.00000000000E+00 0. -1.
<mgrwt>
<rscale>  0 0.80954503E+02</rscale>
<asrwt>0</asrwt>
<pdfrwt beam="1">  1        2 0.24570519E-01 0.80954503E+02</pdfrwt>
<pdfrwt beam="2">  1       -1 0.15782688E-02 0.80954503E+02</pdfrwt>
<totfact> 0.19809674E+05</totfact>
</mgrwt>
</event>
<event>
 8    1  0.1226832E-016  0.7903374E+02  0.7818608E-02  0.1331816E+00
          2   -1    0    0  501    0  0.00000000000E+00  0.00000000000E+00  0.21016670950E+03  0.21016670951E+03  0.25500000000E-02 0. -1.
         -1   -1    0    0    0  501 -0.00000000000E+00 -0.00000000000E+00 -0.74302099818E+01  0.74302116912E+01  0.50400000000E-02 0.  1.
         24    2    1    2    0    0  0.71054273576E-14  0.00000000000E+00  0.20273649951E+03  0.21759692120E+03  0.79033738881E+02 0.  0.
         66    2    3    3    0    0  0.38491714554E+02  0.22925109131E+01  0.77956216547E+02  0.86994479124E+02  0.20000010338E+01 0.  0.
        -13    1    3    3    0    0 -0.38491714554E+02 -0.22925109131E+01  0.12478028297E+03  0.13060244208E+03  0.10566000000E+00 0.  1.
         13    1    4    4    0    0  0.16949896155E+02  0.13272360711E+01  0.35556227851E+02  0.39412143285E+02  0.10566000000E+00 0. -1.
        -13    1    4    4    0    0  0.58105048329E+01  0.62148513804E+00  0.10714910927E+02  0.12205273057E+02  0.10566000000E+00 0.  1.
         14    1    4    4    0    0  0.15731313565E+02  0.34378970401E+00  0.31685077769E+02  0.35377062782E+02  0.00000000000E+00 0. -1.
<mgrwt>
<rscale>  0 0.79033739E+02</rscale>
<asrwt>0</asrwt>
<pdfrwt beam="1">  1        2 0.32333342E-01 0.79033739E+02</pdfrwt>
<pdfrwt beam="2">  1       -1 0.11431093E-02 0.79033739E+02</pdfrwt>
<totfact> 0.23173627E+05</totfact>
</mgrwt>
</event>
<event>
 8    1  0.1226832E-016  0.8003369E+02  0.7818608E-02  0.1328956E+00
          2   -1    0    0  501    0  0.00000000000E+00  0.00000000000E+00  0.12567328109E+02  0.12567328368E+02  0.25500000000E-02 0. -1.
         -1   -1    0    0    0  501 -0.00000000000E+00 -0.00000000000E+00 -0.12742151784E+03  0.12742151794E+03  0.50400000000E-02 0.  1.
         24    2    1    2    0    0  0.00000000000E+00  0.00000000000E+00 -0.11485418973E+03  0.13998884630E+03  0.80033694102E+02 0.  0.
         66    2    3    3    0    0 -0.21611640145E+01  0.35652970691E+02 -0.26001074535E+02  0.44225115213E+02  0.19999974252E+01 0.  0.
        -13    1    3    3    0    0  0.21611640145E+01 -0.35652970691E+02 -0.88853115192E+02  0.95763731090E+02  0.10566000000E+00 0.  1.
         13    1    4    4    0    0 -0.48056703938E+00  0.21775266450E+02 -0.15641015033E+02  0.26815027297E+02  0.10566000000E+00 0. -1.
        -13    1    4    4    0    0 -0.12070961208E+01  0.10613134430E+02 -0.82088575249E+01  0.13471904445E+02  0.10566000000E+00 0.  1.
         14    1    4    4    0    0 -0.47350085429E+00  0.32645698109E+01 -0.21512019769E+01  0.39381834714E+01  0.00000000000E+00 0. -1.
<mgrwt>
<rscale>  0 0.80033694E+02</rscale>
<asrwt>0</asrwt>
<pdfrwt beam="1">  1        2 0.19334352E-02 0.80033694E+02</pdfrwt>
<pdfrwt beam="2">  1       -1 0.19603310E-01 0.80033694E+02</pdfrwt>
<totfact> 0.11214963E+05</totfact>
</mgrwt>
</event>
<event>
 8    1  0.1226832E-016  0.8037258E+02  0.7818608E-02  0.1327997E+00
          2   -1    0    0  501    0  0.00000000000E+00  0.00000000000E+00  0.49274137568E+03  0.49274137569E+03  0.25500000000E-02 0. -1.
         -1   -1    0    0    0  501 -0.00000000000E+00 -0.00000000000E+00 -0.32774537783E+01  0.32774576535E+01  0.50400000000E-02 0.  1.
         24    2    1    2    0    0  0.17763568394E-14 -0.35527136788E-14  0.48946392191E+03  0.49601883334E+03  0.80372583539E+02 0.  0.
         66    2    3    3    0    0  0.74101962370E+01 -0.25046620849E+02  0.43315801053E+03  0.43394942829E+03  0.19999999773E+01 0.  0.
        -13    1    3    3    0    0 -0.74101962370E+01  0.25046620849E+02  0.56305911371E+02  0.62069405053E+02  0.10566000000E+00 0.  1.
         13    1    4    4    0    0  0.10659930823E+01 -0.32303197129E+01  0.49488774532E+02  0.49605657695E+02  0.10566000000E+00 0. -1.
        -13    1    4    4    0    0  0.11886801986E+01 -0.28495312524E+01  0.47306503867E+02  0.47407270129E+02  0.10566000000E+00 0.  1.
         14    1    4    4    0    0  0.51555229561E+01 -0.18966769884E+02  0.33636273214E+03  0.33693650047E+03  0.00000000000E+00 0. -1.
<mgrwt>
<rscale>  0 0.80372584E+02</rscale>
<asrwt>0</asrwt>
<pdfrwt beam="1">  1        2 0.75806269E-01 0.80372584E+02</pdfrwt>
<pdfrwt beam="2">  1       -1 0.50422460E-03 0.80372584E+02</pdfrwt>
<totfact> 0.29944221E+05</totfact>
</mgrwt>
</event>
<event>
 8    1  0.1226832E-016  0.7952554E+02  0.7818608E-02  0.1330403E+00
         -1   -1    0    0    0  501 -0.00000000000E+00  0.00000000000E+00  0.23606118189E+01  0.23606171992E+01  0.50400000000E-02 0.  1.
          2   -1    0    0  501    0  0.00000000000E+00 -0.00000000000E+00 -0.66977379019E+03  0.66977379019E+03  0.25500000000E-02 0. -1.
         24    2    1    2    0    0  0.00000000000E+00  0.35527136788E-14 -0.66741317837E+03  0.67213440739E+03  0.79525536399E+02 0.  0.
         66    2    3    3    0    0  0.46295782516E+01  0.25625834550E+02 -0.58760592768E+03  0.58818606126E+03  0.20000071490E+01 0.  0.
        -13    1    3    3    0    0 -0.46295782516E+01 -0.25625834550E+02 -0.79807250688E+02  0.83948346127E+02  0.10566000000E+00 0.  1.
         13    1    4    4    0    0  0.44567048605E+01  0.22073391600E+02 -0.51377708961E+03  0.51427036256E+03  0.10566000000E+00 0. -1.
        -13    1    4    4    0    0  0.28727857429E+00  0.26862264343E+01 -0.54066887706E+02  0.54134442379E+02  0.10566000000E+00 0.  1.
        -14    1    4    4    0    0 -0.11440518323E+00  0.86621651579E+00 -0.19761950361E+02  0.19781256322E+02  0.00000000000E+00 0.  1.
<mgrwt>
<rscale>  0 0.79525536E+02</rscale>
<asrwt>0</asrwt>
<pdfrwt beam="1">  1        2 0.10304197E+00 0.79525536E+02</pdfrwt>
<pdfrwt beam="2">  1       -1 0.36317200E-03 0.79525536E+02</pdfrwt>
<totfact> 0.33619755E+05</totfact>
</mgrwt>
</event>
<event>
 8    1  0.1226832E-016  0.7996622E+02  0.7818608E-02  0.1329147E+00
          2   -1    0    0  501    0  0.00000000000E+00  0.00000000000E+00  0.45308176104E+03  0.45308176105E+03  0.25500000000E-02 0. -1.
         -1   -1    0    0    0  501 -0.00000000000E+00 -0.00000000000E+00 -0.35283881155E+01  0.35283917151E+01  0.50400000000E-02 0.  1.
         24    2    1    2    0    0  0.00000000000E+00  0.00000000000E+00  0.44955337293E+03  0.45661015276E+03  0.79966220980E+02 0.  0.
         66    2    3    3    0    0  0.74889768241E+01 -0.16290747020E+02  0.42881970152E+03  0.42919903264E+03  0.19999990846E+01 0.  0.
        -13    1    3    3    0    0 -0.74889768241E+01  0.16290747020E+02  0.20733671405E+02  0.27411120122E+02  0.10566000000E+00 0.  1.
         13    1    4    4    0    0  0.26343689009E+01 -0.69373022857E+01  0.19660262105E+03  0.19674264365E+03  0.10566000000E+00 0. -1.
        -13    1    4    4    0    0  0.33512267618E+01 -0.67274677072E+01  0.16787260493E+03  0.16804080514E+03  0.10566000000E+00 0.  1.
        -14    1    4    4    0    0  0.15033811614E+01 -0.26259770271E+01  0.64344475538E+02  0.64415583848E+02  0.00000000000E+00 0.  1.
<mgrwt>
<rscale>  0 0.79966221E+02</rscale>
<asrwt>0</asrwt>
<pdfrwt beam="1">  1        2 0.69704914E-01 0.79966221E+02</pdfrwt>
<pdfrwt beam="2">  1       -1 0.54282901E-03 0.79966221E+02</pdfrwt>
<totfact> 0.29518374E+05</totfact>
</mgrwt>
</event>
<event>
 8    1  0.1226832E-016  0.7967813E+02  0.7818608E-02  0.1329967E+00
         -1   -1    0    0    0  501 -0.00000000000E+00  0.00000000000E+00  0.22705814427E+01  0.22705870363E+01  0.50400000000E-02 0.  1.
          2   -1    0    0  501    0  0.00000000000E+00 -0.00000000000E+00 -0.69900557505E+03  0.69900557506E+03  0.25500000000E-02 0. -1.
         24    2    1    2    0    0  0.00000000000E+00  0.00000000000E+00 -0.69673499361E+03  0.70127616209E+03  0.79678128744E+02 0.  0.
         66    2    3    3    0    0 -0.19810970075E+02 -0.27183659425E+02 -0.53606165945E+03  0.53711965948E+03  0.19999991206E+01 0.  0.
        -13    1    3    3    0    0  0.19810970075E+02  0.27183659425E+02 -0.16067333416E+03  0.16415650261E+03  0.10566000000E+00 0.  1.
         13    1    4    4    0    0 -0.13962272399E+02 -0.18104291610E+02 -0.35845351352E+03  0.35918190788E+03  0.10566000000E+00 0. -1.
        -13    1    4    4    0    0 -0.31970464526E+01 -0.50629086557E+01 -0.92562045569E+02  0.92755579854E+02  0.10566000000E+00 0.  1.
         14    1    4    4    0    0 -0.26516512231E+01 -0.40164591595E+01 -0.85046100358E+02  0.85182171753E+02  0.00000000000E+00 0. -1.
<mgrwt>
<rscale>  0 0.79678129E+02</rscale>
<asrwt>0</asrwt>
<pdfrwt beam="1">  1        2 0.10753915E+00 0.79678129E+02</pdfrwt>
<pdfrwt beam="2">  1       -1 0.34932121E-03 0.79678129E+02</pdfrwt>
<totfact> 0.33793032E+05</totfact>
</mgrwt>
</event>
<event>
 8    1  0.1226832E-016  0.7899665E+02  0.7818608E-02  0.1331923E+00
         -1   -1    0    0    0  501 -0.00000000000E+00  0.00000000000E+00  0.65381985145E+01  0.65382004570E+01  0.50400000000E-02 0.  1.
          2   -1    0    0  501    0  0.00000000000E+00 -0.00000000000E+00 -0.23861582035E+03  0.23861582036E+03  0.25500000000E-02 0. -1.
         24    2    1    2    0    0  0.71054273576E-14  0.00000000000E+00 -0.23207762183E+03  0.24515402082E+03  0.78996654155E+02 0.  0.
         66    2    3    3    0    0 -0.38683930855E+02  0.42382066096E+01 -0.95597065836E+02  0.10323375366E+03  0.19999990165E+01 0.  0.
        -13    1    3    3    0    0  0.38683930855E+02 -0.42382066096E+01 -0.13648055600E+03  0.14192026716E+03  0.10566000000E+00 0.  1.
         13    1    4    4    0    0 -0.33137523254E+01  0.36793658756E+00 -0.78003047389E+01  0.84836460241E+01  0.10566000000E+00 0. -1.
        -13    1    4    4    0    0 -0.10371596263E+02  0.13570668763E+01 -0.27954019309E+02  0.29847110398E+02  0.10566000000E+00 0.  1.
        -14    1    4    4    0    0 -0.24998582267E+02  0.25132031457E+01 -0.59842741788E+02  0.64902997236E+02  0.00000000000E+00 0.  1.
<mgrwt>
<rscale>  0 0.78996654E+02</rscale>
<asrwt>0</asrwt>
<pdfrwt beam="1">  1        2 0.36710120E-01 0.78996654E+02</pdfrwt>
<pdfrwt beam="2">  1       -1 0.10058770E-02 0.78996654E+02</pdfrwt>
<totfact> 0.24266108E+05</totfact>
</mgrwt>
</event>
<event>
 8    1  0.1226832E-016  0.7886247E+02  0.7818608E-02  0.1332311E+00
         -1   -1    0    0    0  501 -0.00000000000E+00  0.00000000000E+00  0.30782183482E+01  0.30782224742E+01  0.50400000000E-02 0.  1.
          2   -1    0    0  501    0  0.00000000000E+00 -0.00000000000E+00 -0.50510422271E+03  0.50510422272E+03  0.25500000000E-02 0. -1.
         24    2    1    2    0    0  0.35527136788E-14 -0.17763568394E-14 -0.50202600436E+03  0.50818244519E+03  0.78862466006E+02 0.  0.
         66    2    3    3    0    0  0.16147300356E+02 -0.15347995336E+02 -0.46062784756E+03  0.46117058689E+03  0.20000004355E+01 0.  0.
        -13    1    3    3    0    0 -0.16147300356E+02  0.15347995336E+02 -0.41398156805E+02  0.47011858297E+02  0.10566000000E+00 0.  1.
         13    1    4    4    0    0  0.84070831991E+01 -0.78644638522E+01 -0.22763076476E+03  0.22792170820E+03  0.10566000000E+00 0. -1.
        -13    1    4    4    0    0  0.81211483951E+00 -0.12061331028E+01 -0.26116298138E+02  0.26156958540E+02  0.10566000000E+00 0.  1.
         14    1    4    4    0    0  0.69281023174E+01 -0.62773983808E+01 -0.20688078466E+03  0.20709192015E+03  0.00000000000E+00 0. -1.
<mgrwt>
<rscale>  0 0.78862466E+02</rscale>
<asrwt>0</asrwt>
<pdfrwt beam="1">  1        2 0.77708276E-01 0.78862466E+02</pdfrwt>
<pdfrwt beam="2">  1       -1 0.47357277E-03 0.78862466E+02</pdfrwt>
<totfact> 0.31710603E+05</totfact>
</mgrwt>
</event>
<event>
 8    1  0.1226832E-016  0.8182482E+02  0.7818608E-02  0.1323951E+00
         -1   -1    0    0    0  501 -0.00000000000E+00  0.00000000000E+00  0.42703463706E+02  0.42703464003E+02  0.50400000000E-02 0.  1.
          2   -1    0    0  501    0  0.00000000000E+00 -0.00000000000E+00 -0.39196478028E+02  0.39196478111E+02  0.25500000000E-02 0. -1.
         24    2    1    2    0    0  0.00000000000E+00  0.00000000000E+00  0.35069856782E+01  0.81899942114E+02  0.81824822455E+02 0.  0.
         66    2    3    3    0    0 -0.11345942649E+02 -0.59329191533E+01 -0.37112677275E+02  0.39310059199E+02  0.19999988462E+01 0.  0.
        -13    1    3    3    0    0  0.11345942649E+02  0.59329191533E+01  0.40619662953E+02  0.42589882916E+02  0.10566000000E+00 0.  1.
         13    1    4    4    0    0 -0.39930091630E+01 -0.14256688280E+01 -0.12254270243E+02  0.12967457615E+02  0.10566000000E+00 0. -1.
        -13    1    4    4    0    0 -0.43236094593E+01 -0.24487734570E+01 -0.16087143499E+02  0.16837382225E+02  0.10566000000E+00 0.  1.
        -14    1    4    4    0    0 -0.30293240265E+01 -0.20584768684E+01 -0.87712635333E+01  0.95052193581E+01  0.00000000000E+00 0.  1.
<mgrwt>
<rscale>  0 0.81824822E+02</rscale>
<asrwt>0</asrwt>
<pdfrwt beam="1">  1        2 0.60302274E-02 0.81824822E+02</pdfrwt>
<pdfrwt beam="2">  1       -1 0.65697637E-02 0.81824822E+02</pdfrwt>
<totfact> 0.13335661E+05</totfact>
</mgrwt>
</event>
<event>
 8    1  0.1226832E-016  0.8011294E+02  0.7818608E-02  0.1328731E+00
          2   -1    0    0  501    0  0.00000000000E+00  0.00000000000E+00  0.90539375408E+02  0.90539375444E+02  0.25500000000E-02 0. -1.
         -1   -1    0    0    0  501 -0.00000000000E+00 -0.00000000000E+00 -0.17721801891E+02  0.17721802608E+02  0.50400000000E-02 0.  1.
         24    2    1    2    0    0 -0.71054273576E-14  0.00000000000E+00  0.72817573517E+02  0.10826117805E+03  0.80112943151E+02 0.  0.
         66    2    3    3    0    0 -0.25086091196E+02 -0.54634659377E+01  0.77937094400E+02  0.82081374965E+02  0.20000002559E+01 0.  0.
        -13    1    3    3    0    0  0.25086091196E+02  0.54634659377E+01 -0.51195208834E+01  0.26179803087E+02  0.10566000000E+00 0.  1.
         13    1    4    4    0    0 -0.12843359806E+01 -0.22968342955E+00  0.32770561263E+01  0.35288148548E+01  0.10566000000E+00 0.  1.
        -13    1    4    4    0    0 -0.18888124890E+02 -0.36519378805E+01  0.57505413667E+02  0.60638120660E+02  0.10566000000E+00 0. -1.
         14    1    4    4    0    0 -0.49136303255E+01 -0.15818446277E+01  0.17154624607E+02  0.17914439450E+02  0.00000000000E+00 0. -1.
<mgrwt>
<rscale>  0 0.80112943E+02</rscale>
<asrwt>0</asrwt>
<pdfrwt beam="1">  1        2 0.13929134E-01 0.80112943E+02</pdfrwt>
<pdfrwt beam="2">  1       -1 0.27264312E-02 0.80112943E+02</pdfrwt>
<totfact> 0.17183197E+05</totfact>
</mgrwt>
</event>
<event>
 8    1  0.1226832E-016  0.7908052E+02  0.7818608E-02  0.1331681E+00
          2   -1    0    0  501    0  0.00000000000E+00  0.00000000000E+00  0.52074206015E+03  0.52074206016E+03  0.25500000000E-02 0. -1.
         -1   -1    0    0    0  501 -0.00000000000E+00 -0.00000000000E+00 -0.30023139325E+01  0.30023181629E+01  0.50400000000E-02 0.  1.
         24    2    1    2    0    0  0.00000000000E+00  0.00000000000E+00  0.51773974622E+03  0.52374437832E+03  0.79080522302E+02 0.  0.
         66    2    3    3    0    0  0.45290408143E+01 -0.16881087678E+02  0.49374681844E+03  0.49406012190E+03  0.19999997207E+01 0.  0.
        -13    1    3    3    0    0 -0.45290408143E+01  0.16881087678E+02  0.23992927780E+02  0.29684256423E+02  0.10566000000E+00 0.  1.
         13    1    4    4    0    0  0.11836442159E+01 -0.65991110085E+01  0.19304667377E+03  0.19316308834E+03  0.10566000000E+00 0. -1.
        -13    1    4    4    0    0  0.38417482793E+00 -0.76992079907E+00  0.33555005572E+02  0.33566202217E+02  0.10566000000E+00 0.  1.
        -14    1    4    4    0    0  0.29612217705E+01 -0.95120558707E+01  0.26714513909E+03  0.26733083133E+03  0.00000000000E+00 0.  1.
<mgrwt>
<rscale>  0 0.79080522E+02</rscale>
<asrwt>0</asrwt>
<pdfrwt beam="1">  1        2 0.80114236E-01 0.79080522E+02</pdfrwt>
<pdfrwt beam="2">  1       -1 0.46189436E-03 0.79080522E+02</pdfrwt>
<totfact> 0.31786022E+05</totfact>
</mgrwt>
</event>
<event>
 8    1  0.1226832E-016  0.7900349E+02  0.7818608E-02  0.1331903E+00
         -1   -1    0    0    0  501 -0.00000000000E+00  0.00000000000E+00  0.54769578374E+02  0.54769578606E+02  0.50400000000E-02 0.  1.
          2   -1    0    0  501    0  0.00000000000E+00 -0.00000000000E+00 -0.28490046680E+02  0.28490046794E+02  0.25500000000E-02 0. -1.
         24    2    1    2    0    0 -0.88817841970E-15  0.00000000000E+00  0.26279531694E+02  0.83259625400E+02  0.79003490022E+02 0.  0.
         66    2    3    3    0    0 -0.78858881707E+01 -0.16539142067E+02 -0.23702023186E+02  0.30025262015E+02  0.20000008515E+01 0.  0.
        -13    1    3    3    0    0  0.78858881707E+01  0.16539142067E+02  0.49981554881E+02  0.53234363384E+02  0.10566000000E+00 0.  1.
         13    1    4    4    0    0 -0.53800819854E+00 -0.18300482258E+01 -0.17955795299E+01  0.26217931295E+01  0.10566000000E+00 0. -1.
        -13    1    4    4    0    0 -0.99414339942E+00 -0.26532571531E+01 -0.36706975868E+01  0.46382409843E+01  0.10566000000E+00 0.  1.
         14    1    4    4    0    0 -0.63537365727E+01 -0.12055836688E+02 -0.18235746070E+02  0.22765227902E+02  0.00000000000E+00 0. -1.
<mgrwt>
<rscale>  0 0.79003490E+02</rscale>
<asrwt>0</asrwt>
<pdfrwt beam="1">  1        2 0.43830842E-02 0.79003490E+02</pdfrwt>
<pdfrwt beam="2">  1       -1 0.84260889E-02 0.79003490E+02</pdfrwt>
<totfact> 0.13795992E+05</totfact>
</mgrwt>
</event>
<event>
 8    1  0.1226832E-016  0.8276762E+02  0.7818608E-02  0.1321376E+00
          2   -1    0    0  501    0  0.00000000000E+00  0.00000000000E+00  0.15031785316E+02  0.15031785532E+02  0.25500000000E-02 0. -1.
         -1   -1    0    0    0  501 -0.00000000000E+00 -0.00000000000E+00 -0.11393321838E+03  0.11393321849E+03  0.50400000000E-02 0.  1.
         24    2    1    2    0    0 -0.17763568394E-14  0.00000000000E+00 -0.98901433061E+02  0.12896500402E+03  0.82767619276E+02 0.  0.
         66    2    3    3    0    0 -0.11699391277E+02  0.39187529580E+02 -0.39864722605E+02  0.57146604036E+02  0.20000034254E+01 0.  0.
        -13    1    3    3    0    0  0.11699391277E+02 -0.39187529580E+02 -0.59036710457E+02  0.71818399985E+02  0.10566000000E+00 0.  1.
         13    1    4    4    0    0 -0.59840171963E+01  0.17276427694E+02 -0.17635588591E+02  0.25402924333E+02  0.10566000000E+00 0. -1.
        -13    1    4    4    0    0 -0.18776504703E+01  0.62430055041E+01 -0.68245338164E+01  0.94385441070E+01  0.10566000000E+00 0.  1.
         14    1    4    4    0    0 -0.38377236105E+01  0.15668096381E+02 -0.15404600197E+02  0.22305135596E+02  0.00000000000E+00 0. -1.
<mgrwt>
<rscale>  0 0.82767619E+02</rscale>
<asrwt>0</asrwt>
<pdfrwt beam="1">  1        2 0.23125825E-02 0.82767619E+02</pdfrwt>
<pdfrwt beam="2">  1       -1 0.17528187E-01 0.82767619E+02</pdfrwt>
<totfact> 0.10578202E+05</totfact>
</mgrwt>
</event>
<event>
 8    1  0.1226832E-016  0.7947607E+02  0.7818608E-02  0.1330545E+00
          2   -1    0    0  501    0  0.00000000000E+00  0.00000000000E+00  0.67473376107E+02  0.67473376155E+02  0.25500000000E-02 0. -1.
         -1   -1    0    0    0  501 -0.00000000000E+00 -0.00000000000E+00 -0.23403476304E+02  0.23403476846E+02  0.50400000000E-02 0.  1.
         24    2    1    2    0    0  0.00000000000E+00  0.00000000000E+00  0.44069899803E+02  0.90876853002E+02  0.79476074027E+02 0.  0.
         66    2    3    3    0    0 -0.16190475954E+02 -0.35515840038E+02  0.13677424366E+02  0.41407467191E+02  0.19999991671E+01 0.  0.
        -13    1    3    3    0    0  0.16190475954E+02  0.35515840038E+02  0.30392475437E+02  0.49469385810E+02  0.10566000000E+00 0.  1.
         13    1    4    4    0    0 -0.13971155484E+01 -0.32874825263E+01  0.14336295800E+01  0.38504455618E+01  0.10566000000E+00 0. -1.
        -13    1    4    4    0    0 -0.37216527805E+01 -0.65069653937E+01  0.28512414456E+01  0.80207256449E+01  0.10566000000E+00 0.  1.
         14    1    4    4    0    0 -0.11071707625E+02 -0.25721392118E+02  0.93925533407E+01  0.29536295985E+02  0.00000000000E+00 0. -1.
<mgrwt>
<rscale>  0 0.79476074E+02</rscale>
<asrwt>0</asrwt>
<pdfrwt beam="1">  1        2 0.10380519E-01 0.79476074E+02</pdfrwt>
<pdfrwt beam="2">  1       -1 0.36005349E-02 0.79476074E+02</pdfrwt>
<totfact> 0.16290564E+05</totfact>
</mgrwt>
</event>
<event>
 8    1  0.1226832E-016  0.7991506E+02  0.7818608E-02  0.1329293E+00
          2   -1    0    0  501    0  0.00000000000E+00  0.00000000000E+00  0.34934070257E+03  0.34934070258E+03  0.25500000000E-02 0. -1.
         -1   -1    0    0    0  501 -0.00000000000E+00 -0.00000000000E+00 -0.45703345021E+01  0.45703372811E+01  0.50400000000E-02 0.  1.
         24    2    1    2    0    0  0.00000000000E+00  0.00000000000E+00  0.34477036807E+03  0.35391103986E+03  0.79915063895E+02 0.  0.
         66    2    3    3    0    0 -0.35221991915E+02 -0.21203072082E+01  0.25528675590E+03  0.25772157875E+03  0.20000002202E+01 0.  0.
        -13    1    3    3    0    0  0.35221991915E+02  0.21203072082E+01  0.89483612172E+02  0.96189461109E+02  0.10566000000E+00 0.  1.
         13    1    4    4    0    0 -0.40498901031E+01 -0.26986690932E+00  0.26945759494E+02  0.27249945996E+02  0.10566000000E+00 0. -1.
        -13    1    4    4    0    0 -0.26836692897E+02 -0.11842806397E+01  0.19358515373E+03  0.19544010211E+03  0.10566000000E+00 0.  1.
        -14    1    4    4    0    0 -0.43354089157E+01 -0.66615965915E+00  0.34755842673E+02  0.35031530641E+02  0.00000000000E+00 0.  1.
<mgrwt>
<rscale>  0 0.79915064E+02</rscale>
<asrwt>0</asrwt>
<pdfrwt beam="1">  1        2 0.53744729E-01 0.79915064E+02</pdfrwt>
<pdfrwt beam="2">  1       -1 0.70312853E-03 0.79915064E+02</pdfrwt>
<totfact> 0.27006405E+05</totfact>
</mgrwt>
</event>
<event>
 8    1  0.1226832E-016  0.7488884E+02  0.7818608E-02  0.1344216E+00
         -1   -1    0    0    0  501 -0.00000000000E+00  0.00000000000E+00  0.44224583555E+01  0.44224612274E+01  0.50400000000E-02 0.  1.
          2   -1    0    0  501    0  0.00000000000E+00 -0.00000000000E+00 -0.31703725481E+03  0.31703725482E+03  0.25500000000E-02 0. -1.
         24    2    1    2    0    0 -0.17763568394E-14  0.00000000000E+00 -0.31261479646E+03  0.32145971605E+03  0.74888838148E+02 0.  0.
         66    2    3    3    0    0  0.14431615177E+02 -0.20602716309E+02 -0.27532416974E+03  0.27647810380E+03  0.19999999998E+01 0.  0.
        -13    1    3    3    0    0 -0.14431615177E+02  0.20602716309E+02 -0.37290626715E+02  0.44981612251E+02  0.10566000000E+00 0.  1.
         13    1    4    4    0    0  0.74913771717E+01 -0.11105955275E+02 -0.14082609919E+03  0.14146188303E+03  0.10566000000E+00 0. -1.
        -13    1    4    4    0    0  0.31295804997E+01 -0.34931854365E+01 -0.56851092073E+02  0.57044320073E+02  0.10566000000E+00 0.  1.
        -14    1    4    4    0    0  0.38106575055E+01 -0.60035755977E+01 -0.77646978481E+02  0.77971900694E+02  0.00000000000E+00 0.  1.
<mgrwt>
<rscale>  0 0.74888838E+02</rscale>
<asrwt>0</asrwt>
<pdfrwt beam="1">  1        2 0.48774945E-01 0.74888838E+02</pdfrwt>
<pdfrwt beam="2">  1       -1 0.68037868E-03 0.74888838E+02</pdfrwt>
<totfact> 0.30901639E+05</totfact>
</mgrwt>
</event>
<event>
 8    1  0.1226832E-016  0.7971821E+02  0.7818608E-02  0.1329853E+00
         -1   -1    0    0    0  501 -0.00000000000E+00  0.00000000000E+00  0.44805012376E+01  0.44805040723E+01  0.50400000000E-02 0.  1.
          2   -1    0    0  501    0  0.00000000000E+00 -0.00000000000E+00 -0.35459152866E+03  0.35459152867E+03  0.25500000000E-02 0. -1.
         24    2    1    2    0    0  0.00000000000E+00  0.00000000000E+00 -0.35011102742E+03  0.35907203274E+03  0.79718211058E+02 0.  0.
         66    2    3    3    0    0 -0.12118086321E+02  0.36557197336E+02 -0.22098213441E+03  0.22432204622E+03  0.19999995466E+01 0.  0.
        -13    1    3    3    0    0  0.12118086321E+02 -0.36557197336E+02 -0.12912889301E+03  0.13474998652E+03  0.10566000000E+00 0.  1.
         13    1    4    4    0    0 -0.86848332007E+01  0.25374226345E+02 -0.15272205437E+03  0.15505906856E+03  0.10566000000E+00 0. -1.
        -13    1    4    4    0    0 -0.71633889052E+00  0.35014461913E+01 -0.22754860197E+02  0.23034063763E+02  0.10566000000E+00 0.  1.
        -14    1    4    4    0    0 -0.27169142301E+01  0.76815248004E+01 -0.45505219850E+02  0.46228913893E+02  0.00000000000E+00 0.  1.
<mgrwt>
<rscale>  0 0.79718211E+02</rscale>
<asrwt>0</asrwt>
<pdfrwt beam="1">  1        2 0.54552521E-01 0.79718211E+02</pdfrwt>
<pdfrwt beam="2">  1       -1 0.68930838E-03 0.79718211E+02</pdfrwt>
<totfact> 0.27326211E+05</totfact>
</mgrwt>
</event>
<event>
 8    1  0.1226832E-016  0.8658521E+02  0.7818608E-02  0.1311338E+00
         -1   -1    0    0    0  501 -0.00000000000E+00  0.00000000000E+00  0.37792755698E+01  0.37792789305E+01  0.50400000000E-02 0.  1.
          2   -1    0    0  501    0  0.00000000000E+00 -0.00000000000E+00 -0.49592810525E+03  0.49592810526E+03  0.25500000000E-02 0. -1.
         24    2    1    2    0    0 -0.35527136788E-14  0.00000000000E+00 -0.49214882968E+03  0.49970738419E+03  0.86585213839E+02 0.  0.
         66    2    3    3    0    0  0.26443452144E+02 -0.16719507473E+02 -0.41871219279E+03  0.41988414889E+03  0.20000018159E+01 0.  0.
        -13    1    3    3    0    0 -0.26443452144E+02  0.16719507473E+02 -0.73436636892E+02  0.79823235298E+02  0.10566000000E+00 0.  1.
         13    1    4    4    0    0  0.18625512740E+02 -0.11779414656E+02 -0.29529346402E+03  0.29611468283E+03  0.10566000000E+00 0. -1.
        -13    1    4    4    0    0  0.42638587490E+01 -0.30853171234E+01 -0.64450526066E+02  0.64665146311E+02  0.10566000000E+00 0.  1.
        -14    1    4    4    0    0  0.35540806546E+01 -0.18547756939E+01 -0.58968202706E+02  0.59104319745E+02  0.00000000000E+00 0.  1.
<mgrwt>
<rscale>  0 0.86585214E+02</rscale>
<asrwt>0</asrwt>
<pdfrwt beam="1">  1        2 0.76296580E-01 0.86585214E+02</pdfrwt>
<pdfrwt beam="2">  1       -1 0.58142766E-03 0.86585214E+02</pdfrwt>
<totfact> 0.24693675E+05</totfact>
</mgrwt>
</event>
<event>
 8    1  0.1226832E-016  0.7924411E+02  0.7818608E-02  0.1331210E+00
          2   -1    0    0  501    0  0.00000000000E+00  0.00000000000E+00  0.60676915876E+03  0.60676915877E+03  0.25500000000E-02 0. -1.
         -1   -1    0    0    0  501 -0.00000000000E+00 -0.00000000000E+00 -0.25873194280E+01  0.25873243368E+01  0.50400000000E-02 0.  1.
         24    2    1    2    0    0  0.00000000000E+00  0.44408920985E-15  0.60418183933E+03  0.60935648310E+03  0.79244107163E+02 0.  0.
         66    2    3    3    0    0  0.16764978032E+02 -0.28453076650E+01  0.57725951778E+03  0.57751338611E+03  0.20000019312E+01 0.  0.
        -13    1    3    3    0    0 -0.16764978032E+02  0.28453076650E+01  0.26922321557E+02  0.31843096994E+02  0.10566000000E+00 0.  1.
         13    1    4    4    0    0  0.82902018660E+00 -0.31127797815E+00  0.40283083730E+02  0.40292954313E+02  0.10566000000E+00 0. -1.
        -13    1    4    4    0    0  0.11294272908E+01 -0.33221256841E-01  0.29302202193E+02  0.29324169673E+02  0.10566000000E+00 0.  1.
         14    1    4    4    0    0  0.14806530555E+02 -0.25008084300E+01  0.50767423185E+03  0.50789626212E+03  0.00000000000E+00 0. -1.
<mgrwt>
<rscale>  0 0.79244107E+02</rscale>
<asrwt>0</asrwt>
<pdfrwt beam="1">  1        2 0.93349130E-01 0.79244107E+02</pdfrwt>
<pdfrwt beam="2">  1       -1 0.39804940E-03 0.79244107E+02</pdfrwt>
<totfact> 0.33070048E+05</totfact>
</mgrwt>
</event>
<event>
 8    1  0.1226832E-016  0.7234710E+02  0.7818608E-02  0.1352289E+00
          2   -1    0    0  501    0  0.00000000000E+00  0.00000000000E+00  0.12223995821E+04  0.12223995821E+04  0.25500000000E-02 0. -1.
         -1   -1    0    0    0  501 -0.00000000000E+00 -0.00000000000E+00 -0.10704506261E+01  0.10704624909E+01  0.50400000000E-02 0.  1.
         24    2    1    2    0    0  0.00000000000E+00  0.00000000000E+00  0.12213291315E+04  0.12234700446E+04  0.72347098289E+02 0.  0.
         66    2    3    3    0    0 -0.73984256729E+01 -0.10065431536E+02  0.11847312132E+04  0.11847987581E+04  0.20000003121E+01 0.  0.
        -13    1    3    3    0    0  0.73984256729E+01  0.10065431536E+02  0.36597918222E+02  0.38671286462E+02  0.10566000000E+00 0.  1.
         13    1    4    4    0    0 -0.42703576430E+01 -0.45632149221E+01  0.56887710465E+03  0.56891144323E+03  0.10566000000E+00 0. -1.
        -13    1    4    4    0    0 -0.56080991725E+00 -0.97521335884E+00  0.80865446972E+02  0.80873340644E+02  0.10566000000E+00 0.  1.
         14    1    4    4    0    0 -0.25672581127E+01 -0.45270032548E+01  0.53498866162E+03  0.53501397424E+03  0.00000000000E+00 0. -1.
<mgrwt>
<rscale>  0 0.72347098E+02</rscale>
<asrwt>0</asrwt>
<pdfrwt beam="1">  1        2 0.18806105E+00 0.72347098E+02</pdfrwt>
<pdfrwt beam="2">  1       -1 0.16468600E-03 0.72347098E+02</pdfrwt>
<totfact> 0.45331214E+05</totfact>
</mgrwt>
</event>
<event>
 8    1  0.1226832E-016  0.7431900E+02  0.7818608E-02  0.1345993E+00
          2   -1    0    0  501    0  0.00000000000E+00  0.00000000000E+00  0.12501914226E+03  0.12501914229E+03  0.25500000000E-02 0. -1.
         -1   -1    0    0    0  501 -0.00000000000E+00 -0.00000000000E+00 -0.11044934073E+02  0.11044935223E+02  0.50400000000E-02 0.  1.
         24    2    1    2    0    0 -0.35527136788E-14  0.00000000000E+00  0.11397420819E+03  0.13606407751E+03  0.74318995261E+02 0.  0.
         66    2    3    3    0    0  0.23353211577E+02 -0.26939175349E+02  0.76030967062E+02  0.83998807218E+02  0.20000005151E+01 0.  0.
        -13    1    3    3    0    0 -0.23353211577E+02  0.26939175349E+02  0.37943241127E+02  0.52065270294E+02  0.10566000000E+00 0.  1.
         13    1    4    4    0    0  0.17989728652E+02 -0.21406539914E+02  0.59663857638E+02  0.65891254051E+02  0.10566000000E+00 0. -1.
        -13    1    4    4    0    0  0.81213234677E+00 -0.12615798334E+01  0.31044579703E+01  0.34496327268E+01  0.10566000000E+00 0.  1.
        -14    1    4    4    0    0  0.45513505781E+01 -0.42710556026E+01  0.13262651454E+02  0.14657920440E+02  0.00000000000E+00 0.  1.
<mgrwt>
<rscale>  0 0.74318995E+02</rscale>
<asrwt>0</asrwt>
<pdfrwt beam="1">  1        2 0.19233715E-01 0.74318995E+02</pdfrwt>
<pdfrwt beam="2">  1       -1 0.16992207E-02 0.74318995E+02</pdfrwt>
<totfact> 0.23000344E+05</totfact>
</mgrwt>
</event>
<event>
 8    1  0.1226832E-016  0.7918962E+02  0.7818608E-02  0.1331367E+00
         -1   -1    0    0    0  501 -0.00000000000E+00  0.00000000000E+00  0.62046751290E+01  0.62046771759E+01  0.50400000000E-02 0.  1.
          2   -1    0    0  501    0  0.00000000000E+00 -0.00000000000E+00 -0.25267217644E+03  0.25267217645E+03  0.25500000000E-02 0. -1.
         24    2    1    2    0    0  0.00000000000E+00  0.00000000000E+00 -0.24646750131E+03  0.25887685363E+03  0.79189621430E+02 0.  0.
         66    2    3    3    0    0 -0.37073934148E+02  0.73181863944E+01 -0.16167493546E+03  0.16604462414E+03  0.20000006002E+01 0.  0.
        -13    1    3    3    0    0  0.37073934148E+02 -0.73181863944E+01 -0.84792565848E+02  0.92832229492E+02  0.10566000000E+00 0.  1.
         13    1    4    4    0    0 -0.91638438517E+01  0.21830545836E+01 -0.42142299178E+02  0.43182476834E+02  0.10566000000E+00 0. -1.
        -13    1    4    4    0    0 -0.23787292224E+02  0.43114355856E+01 -0.10372358327E+03  0.10650359918E+03  0.10566000000E+00 0.  1.
        -14    1    4    4    0    0 -0.41227980728E+01  0.82369622521E+00 -0.15809053015E+02  0.16358548122E+02  0.00000000000E+00 0.  1.
<mgrwt>
<rscale>  0 0.79189621E+02</rscale>
<asrwt>0</asrwt>
<pdfrwt beam="1">  1        2 0.38872635E-01 0.79189621E+02</pdfrwt>
<pdfrwt beam="2">  1       -1 0.95456576E-03 0.79189621E+02</pdfrwt>
<totfact> 0.24609008E+05</totfact>
</mgrwt>
</event>
<event>
 8    1  0.1226832E-016  0.7870244E+02  0.7818608E-02  0.1332775E+00
          2   -1    0    0  501    0  0.00000000000E+00  0.00000000000E+00  0.13077263745E+04  0.13077263745E+04  0.25500000000E-02 0. -1.
         -1   -1    0    0    0  501 -0.00000000000E+00 -0.00000000000E+00 -0.11841248796E+01  0.11841356055E+01  0.50400000000E-02 0.  1.
         24    2    1    2    0    0  0.00000000000E+00  0.35527136788E-14  0.13065422496E+04  0.13089105101E+04  0.78702435973E+02 0.  0.
         66    2    3    3    0    0 -0.35563048221E+01  0.23004409538E+02  0.11808391822E+04  0.11810702876E+04  0.19999811692E+01 0.  0.
        -13    1    3    3    0    0  0.35563048221E+01 -0.23004409538E+02  0.12570306743E+03  0.12784022250E+03  0.10566000000E+00 0.  1.
         13    1    4    4    0    0 -0.11848527549E+01  0.91527361068E+01  0.50805749570E+03  0.50814132537E+03  0.10566000000E+00 0. -1.
        -13    1    4    4    0    0 -0.23112314814E+00  0.21773549727E+01  0.11744620714E+03  0.11746666348E+03  0.10566000000E+00 0.  1.
        -14    1    4    4    0    0 -0.21403289190E+01  0.11674318458E+02  0.55533547935E+03  0.55546229876E+03  0.00000000000E+00 0.  1.
<mgrwt>
<rscale>  0 0.78702436E+02</rscale>
<asrwt>0</asrwt>
<pdfrwt beam="1">  1        2 0.20118865E+00 0.78702436E+02</pdfrwt>
<pdfrwt beam="2">  1       -1 0.18217391E-03 0.78702436E+02</pdfrwt>
<totfact> 0.36075295E+05</totfact>
</mgrwt>
</event>
<event>
 8    1  0.1226832E-016  0.7925549E+02  0.7818608E-02  0.1331178E+00
         -1   -1    0    0    0  501 -0.00000000000E+00  0.00000000000E+00  0.77978875983E+01  0.77978892270E+01  0.50400000000E-02 0.  1.
          2   -1    0    0  501    0  0.00000000000E+00 -0.00000000000E+00 -0.20138248585E+03  0.20138248586E+03  0.25500000000E-02 0. -1.
         24    2    1    2    0    0  0.35527136788E-14  0.00000000000E+00 -0.19358459825E+03  0.20918037509E+03  0.79255489675E+02 0.  0.
         66    2    3    3    0    0  0.24366946680E+02 -0.28430806193E+02 -0.13088912539E+03  0.13615440497E+03  0.20000038630E+01 0.  0.
        -13    1    3    3    0    0 -0.24366946680E+02  0.28430806193E+02 -0.62695472859E+02  0.73025970123E+02  0.10566000000E+00 0.  1.
         13    1    4    4    0    0  0.17821343488E+02 -0.19846630745E+02 -0.95090745109E+02  0.98761075354E+02  0.10566000000E+00 0. -1.
        -13    1    4    4    0    0  0.90521793892E+00 -0.14031600304E+01 -0.55151919418E+01  0.57634003660E+01  0.10566000000E+00 0. -1.
         14    1    4    4    0    0  0.56403852532E+01 -0.71810154179E+01 -0.30283188337E+02  0.31629929246E+02  0.00000000000E+00 0. -1.
<mgrwt>
<rscale>  0 0.79255490E+02</rscale>
<asrwt>0</asrwt>
<pdfrwt beam="1">  1        2 0.30981917E-01 0.79255490E+02</pdfrwt>
<pdfrwt beam="2">  1       -1 0.11996753E-02 0.79255490E+02</pdfrwt>
<totfact> 0.22663393E+05</totfact>
</mgrwt>
</event>
<event>
 8    1  0.1226832E-016  0.7778308E+02  0.7818608E-02  0.1335463E+00
          2   -1    0    0  501    0  0.00000000000E+00  0.00000000000E+00  0.10960540302E+03  0.10960540305E+03  0.25500000000E-02 0. -1.
         -1   -1    0    0    0  501 -0.00000000000E+00 -0.00000000000E+00 -0.13799975122E+02  0.13799976042E+02  0.50400000000E-02 0.  1.
         24    2    1    2    0    0  0.00000000000E+00  0.88817841970E-15  0.95805427897E+02  0.12340537909E+03  0.77783080255E+02 0.  0.
         66    2    3    3    0    0  0.32705663747E+02 -0.45966373108E+01  0.80439145191E+02  0.86978420338E+02  0.20000024480E+01 0.  0.
        -13    1    3    3    0    0 -0.32705663747E+02  0.45966373108E+01  0.15366282706E+02  0.36426958752E+02  0.10566000000E+00 0.  1.
         13    1    4    4    0    0  0.14207464944E+02 -0.21294558677E+01  0.32553967889E+02  0.35583122850E+02  0.10566000000E+00 0. -1.
        -13    1    4    4    0    0  0.33992270955E+01 -0.54193879682E+00  0.91844698484E+01  0.98088782711E+01  0.10566000000E+00 0.  1.
         14    1    4    4    0    0  0.15098971708E+02 -0.19252426462E+01  0.38700707454E+02  0.41586419217E+02  0.00000000000E+00 0. -1.
<mgrwt>
<rscale>  0 0.77783080E+02</rscale>
<asrwt>0</asrwt>
<pdfrwt beam="1">  1        2 0.16862369E-01 0.77783080E+02</pdfrwt>
<pdfrwt beam="2">  1       -1 0.21230732E-02 0.77783080E+02</pdfrwt>
<totfact> 0.19611671E+05</totfact>
</mgrwt>
</event>
<event>
 8    1  0.1226832E-016  0.7973633E+02  0.7818608E-02  0.1329801E+00
          2   -1    0    0  501    0  0.00000000000E+00  0.00000000000E+00  0.56738540982E+03  0.56738540983E+03  0.25500000000E-02 0. -1.
         -1   -1    0    0    0  501 -0.00000000000E+00 -0.00000000000E+00 -0.28013923993E+01  0.28013969330E+01  0.50400000000E-02 0.  1.
         24    2    1    2    0    0  0.00000000000E+00  0.17763568394E-14  0.56458401743E+03  0.57018680676E+03  0.79736327197E+02 0.  0.
         66    2    3    3    0    0 -0.65518769456E+01 -0.10470938377E+02  0.55334567858E+03  0.55348713413E+03  0.20000011219E+01 0.  0.
        -13    1    3    3    0    0  0.65518769456E+01  0.10470938377E+02  0.11238338850E+02  0.16699672636E+02  0.10566000000E+00 0.  1.
         13    1    4    4    0    0 -0.24795161158E+01 -0.29659533827E+01  0.15263378683E+03  0.15268277220E+03  0.10566000000E+00 0. -1.
        -13    1    4    4    0    0 -0.28964143290E+01 -0.53132490028E+01  0.30577880471E+03  0.30583869671E+03  0.10566000000E+00 0.  1.
        -14    1    4    4    0    0 -0.11759465009E+01 -0.21917359918E+01  0.94933087034E+02  0.94965665220E+02  0.00000000000E+00 0.  1.
<mgrwt>
<rscale>  0 0.79736327E+02</rscale>
<asrwt>0</asrwt>
<pdfrwt beam="1">  1        2 0.87290013E-01 0.79736327E+02</pdfrwt>
<pdfrwt beam="2">  1       -1 0.43098404E-03 0.79736327E+02</pdfrwt>
<totfact> 0.31927113E+05</totfact>
</mgrwt>
</event>
<event>
 8    1  0.1226832E-016  0.7785106E+02  0.7818608E-02  0.1335263E+00
          2   -1    0    0  501    0  0.00000000000E+00  0.00000000000E+00  0.24985217252E+02  0.24985217383E+02  0.25500000000E-02 0. -1.
         -1   -1    0    0    0  501 -0.00000000000E+00 -0.00000000000E+00 -0.60643726956E+02  0.60643727165E+02  0.50400000000E-02 0.  1.
         24    2    1    2    0    0  0.00000000000E+00  0.00000000000E+00 -0.35658509703E+02  0.85628944548E+02  0.77851055420E+02 0.  0.
         66    2    3    3    0    0  0.36902139153E+02  0.12050108043E+02 -0.15098092608E+02  0.41700424278E+02  0.20000016650E+01 0.  0.
        -13    1    3    3    0    0 -0.36902139153E+02 -0.12050108043E+02 -0.20560417095E+02  0.43928520269E+02  0.10566000000E+00 0.  1.
         13    1    4    4    0    0  0.46469892756E+01  0.18098766710E+01 -0.21521370935E+01  0.54325887933E+01  0.10566000000E+00 0. -1.
        -13    1    4    4    0    0  0.19984617370E+02  0.67175973037E+01 -0.73371251111E+01  0.22323879902E+02  0.10566000000E+00 0.  1.
        -14    1    4    4    0    0  0.12270532507E+02  0.35226340680E+01 -0.56088304037E+01  0.13943955583E+02  0.00000000000E+00 0.  1.
<mgrwt>
<rscale>  0 0.77851055E+02</rscale>
<asrwt>0</asrwt>
<pdfrwt beam="1">  1        2 0.38438796E-02 0.77851055E+02</pdfrwt>
<pdfrwt beam="2">  1       -1 0.93298041E-02 0.77851055E+02</pdfrwt>
<totfact> 0.14016534E+05</totfact>
</mgrwt>
</event>
<event>
 8    1  0.1226832E-016  0.7429853E+02  0.7818608E-02  0.1346057E+00
          2   -1    0    0  501    0  0.00000000000E+00  0.00000000000E+00  0.66472236903E+02  0.66472236952E+02  0.25500000000E-02 0. -1.
         -1   -1    0    0    0  501 -0.00000000000E+00 -0.00000000000E+00 -0.20761568527E+02  0.20761569139E+02  0.50400000000E-02 0.  1.
         24    2    1    2    0    0 -0.88817841970E-15 -0.17763568394E-14  0.45710668376E+02  0.87233806090E+02  0.74298531087E+02 0.  0.
         66    2    3    3    0    0 -0.68815829565E+01 -0.10074905297E+02  0.64035740910E+02  0.65218371773E+02  0.20000005140E+01 0.  0.
        -13    1    3    3    0    0  0.68815829565E+01  0.10074905297E+02 -0.18325072535E+02  0.22015434317E+02  0.10566000000E+00 0.  1.
         13    1    4    4    0    0 -0.38215364224E+01 -0.46453505129E+01  0.32280934581E+02  0.32836767859E+02  0.10566000000E+00 0. -1.
        -13    1    4    4    0    0 -0.40322266286E+00 -0.12796375041E+01  0.89407784144E+01  0.90415011668E+01  0.10566000000E+00 0.  1.
        -14    1    4    4    0    0 -0.26568238713E+01 -0.41499172804E+01  0.22814027915E+02  0.23340102747E+02  0.00000000000E+00 0.  1.
<mgrwt>
<rscale>  0 0.74298531E+02</rscale>
<asrwt>0</asrwt>
<pdfrwt beam="1">  1        2 0.10226498E-01 0.74298531E+02</pdfrwt>
<pdfrwt beam="2">  1       -1 0.31940874E-02 0.74298531E+02</pdfrwt>
<totfact> 0.19464820E+05</totfact>
</mgrwt>
</event>
<event>
 8    1  0.1226832E-016  0.8005766E+02  0.7818608E-02  0.1328888E+00
          2   -1    0    0  501    0  0.00000000000E+00  0.00000000000E+00  0.17428338726E+03  0.17428338727E+03  0.25500000000E-02 0. -1.
         -1   -1    0    0    0  501 -0.00000000000E+00 -0.00000000000E+00 -0.91936891293E+01  0.91936905107E+01  0.50400000000E-02 0.  1.
         24    2    1    2    0    0  0.35527136788E-14 -0.17763568394E-14  0.16508969813E+03  0.18347707778E+03  0.80057664499E+02 0.  0.
         66    2    3    3    0    0 -0.23591399656E+02 -0.14271153279E+02  0.14902249148E+03  0.15156491322E+03  0.19999998175E+01 0.  0.
        -13    1    3    3    0    0  0.23591399656E+02  0.14271153279E+02  0.16067206646E+02  0.31912164563E+02  0.10566000000E+00 0.  1.
         13    1    4    4    0    0 -0.29715095179E+01 -0.16918079631E+01  0.20266312599E+02  0.20553021028E+02  0.10566000000E+00 0. -1.
        -13    1    4    4    0    0 -0.22166108177E+01 -0.19146181479E+01  0.16538939318E+02  0.16796630733E+02  0.10566000000E+00 0.  1.
         14    1    4    4    0    0 -0.18403279321E+02 -0.10664727168E+02  0.11221723956E+03  0.11421526146E+03  0.00000000000E+00 0. -1.
<mgrwt>
<rscale>  0 0.80057664E+02</rscale>
<asrwt>0</asrwt>
<pdfrwt beam="1">  1        2 0.26812827E-01 0.80057664E+02</pdfrwt>
<pdfrwt beam="2">  1       -1 0.14144139E-02 0.80057664E+02</pdfrwt>
<totfact> 0.21003735E+05</totfact>
</mgrwt>
</event>
<event>
 8    1  0.1226832E-016  0.8215487E+02  0.7818608E-02  0.1323045E+00
         -1   -1    0    0    0  501 -0.00000000000E+00  0.00000000000E+00  0.13378739668E+01  0.13378834600E+01  0.50400000000E-02 0.  1.
          2   -1    0    0  501    0  0.00000000000E+00 -0.00000000000E+00 -0.12612173361E+04  0.12612173361E+04  0.25500000000E-02 0. -1.
         24    2    1    2    0    0  0.00000000000E+00  0.00000000000E+00 -0.12598794621E+04  0.12625552195E+04  0.82154874107E+02 0.  0.
         66    2    3    3    0    0  0.26638926508E+02 -0.54716109889E+01 -0.11029320116E+04  0.11032690484E+04  0.20000004986E+01 0.  0.
        -13    1    3    3    0    0 -0.26638926508E+02  0.54716109889E+01 -0.15694745053E+03  0.15928617116E+03  0.10566000000E+00 0.  1.
         13    1    4    4    0    0  0.67534974541E+01 -0.15837107801E+01 -0.28448551440E+03  0.28457009143E+03  0.10566000000E+00 0.  1.
        -13    1    4    4    0    0  0.72644309605E+01 -0.10482627201E+01 -0.32531861636E+03  0.32540141998E+03  0.10566000000E+00 0. -1.
        -14    1    4    4    0    0  0.12620998094E+02 -0.28396374887E+01 -0.49312788082E+03  0.49329753696E+03  0.00000000000E+00 0.  1.
<mgrwt>
<rscale>  0 0.82154874E+02</rscale>
<asrwt>0</asrwt>
<pdfrwt beam="1">  1        2 0.19403249E+00 0.82154874E+02</pdfrwt>
<pdfrwt beam="2">  1       -1 0.20582850E-03 0.82154874E+02</pdfrwt>
<totfact> 0.32479065E+05</totfact>
</mgrwt>
</event>
<event>
 8    1  0.1226832E-016  0.8055937E+02  0.7818608E-02  0.1327471E+00
         -1   -1    0    0    0  501 -0.00000000000E+00  0.00000000000E+00  0.42269895692E+01  0.42269925739E+01  0.50400000000E-02 0.  1.
          2   -1    0    0  501    0  0.00000000000E+00 -0.00000000000E+00 -0.38383170013E+03  0.38383170014E+03  0.25500000000E-02 0. -1.
         24    2    1    2    0    0 -0.17763568394E-14  0.00000000000E+00 -0.37960471056E+03  0.38805869271E+03  0.80559373816E+02 0.  0.
         66    2    3    3    0    0 -0.87007114539E+01 -0.20746057206E+02 -0.35072105078E+03  0.35144751633E+03  0.20000018357E+01 0.  0.
        -13    1    3    3    0    0  0.87007114539E+01  0.20746057206E+02 -0.28883659777E+02  0.36611176375E+02  0.10566000000E+00 0.  1.
         13    1    4    4    0    0 -0.73901828444E+01 -0.18125255586E+02 -0.30711426748E+03  0.30773742728E+03  0.10566000000E+00 0. -1.
        -13    1    4    4    0    0 -0.13211800252E+01 -0.25234614322E+01 -0.43085995497E+02  0.43180175385E+02  0.10566000000E+00 0.  1.
         14    1    4    4    0    0  0.10651415673E-01 -0.97340188642E-01 -0.52078780331E+00  0.52991367321E+00  0.00000000000E+00 0. -1.
<mgrwt>
<rscale>  0 0.80559374E+02</rscale>
<asrwt>0</asrwt>
<pdfrwt beam="1">  1        2 0.59051004E-01 0.80559374E+02</pdfrwt>
<pdfrwt beam="2">  1       -1 0.65030662E-03 0.80559374E+02</pdfrwt>
<totfact> 0.27344242E+05</totfact>
</mgrwt>
</event>
<event>
 8    1  0.1226832E-016  0.8281313E+02  0.7818608E-02  0.1321253E+00
         -1   -1    0    0    0  501 -0.00000000000E+00  0.00000000000E+00  0.12759647598E+01  0.12759747136E+01  0.50400000000E-02 0.  1.
          2   -1    0    0  501    0  0.00000000000E+00 -0.00000000000E+00 -0.13436868227E+04  0.13436868227E+04  0.25500000000E-02 0. -1.
         24    2    1    2    0    0  0.00000000000E+00  0.00000000000E+00 -0.13424108580E+04  0.13449627974E+04  0.82813132518E+02 0.  0.
         66    2    3    3    0    0  0.15546416774E+02  0.12614354336E+02 -0.12597970878E+04  0.12599577435E+04  0.19999947447E+01 0.  0.
        -13    1    3    3    0    0 -0.15546416774E+02 -0.12614354336E+02 -0.82613770187E+02  0.85005053958E+02  0.10566000000E+00 0.  1.
         13    1    4    4    0    0  0.13006808630E+02  0.10728367707E+02 -0.10564445318E+04  0.10565790717E+04  0.10566000000E+00 0. -1.
        -13    1    4    4    0    0  0.87336005645E+00  0.76012182115E+00 -0.98256165192E+02  0.98263043436E+02  0.10566000000E+00 0.  1.
         14    1    4    4    0    0  0.16662480876E+01  0.11258648082E+01 -0.10509639080E+03  0.10511562830E+03  0.00000000000E+00 0. -1.
<mgrwt>
<rscale>  0 0.82813133E+02</rscale>
<asrwt>0</asrwt>
<pdfrwt beam="1">  1        2 0.20671992E+00 0.82813133E+02</pdfrwt>
<pdfrwt beam="2">  1       -1 0.19630411E-03 0.82813133E+02</pdfrwt>
<totfact> 0.31418157E+05</totfact>
</mgrwt>
</event>
<event>
 8    1  0.1226832E-016  0.7885313E+02  0.7818608E-02  0.1332338E+00
         -1   -1    0    0    0  501 -0.00000000000E+00  0.00000000000E+00  0.20253771728E+03  0.20253771734E+03  0.50400000000E-02 0.  1.
          2   -1    0    0  501    0  0.00000000000E+00 -0.00000000000E+00 -0.76748868379E+01  0.76748872615E+01  0.25500000000E-02 0. -1.
         24    2    1    2    0    0  0.00000000000E+00  0.00000000000E+00  0.19486283044E+03  0.21021260460E+03  0.78853132129E+02 0.  0.
         66    2    3    3    0    0  0.16486553792E+02  0.31526369384E+02  0.52352320968E+02  0.63328381840E+02  0.20000033079E+01 0.  0.
        -13    1    3    3    0    0 -0.16486553792E+02 -0.31526369384E+02  0.14251050947E+03  0.14688422276E+03  0.10566000000E+00 0.  1.
         13    1    4    4    0    0  0.10048584733E+02  0.19397360458E+02  0.32646838946E+02  0.39281788466E+02  0.10566000000E+00 0. -1.
        -13    1    4    4    0    0  0.11280698260E+01  0.19890877581E+01  0.25918021745E+01  0.34579783384E+01  0.10566000000E+00 0. -1.
        -14    1    4    4    0    0  0.53098992324E+01  0.10139921168E+02  0.17113679848E+02  0.20588615036E+02  0.00000000000E+00 0.  1.
<mgrwt>
<rscale>  0 0.78853132E+02</rscale>
<asrwt>0</asrwt>
<pdfrwt beam="1">  1        2 0.11807520E-02 0.78853132E+02</pdfrwt>
<pdfrwt beam="2">  1       -1 0.31159644E-01 0.78853132E+02</pdfrwt>
<totfact> 0.10293774E+05</totfact>
</mgrwt>
</event>
<event>
 8    1  0.1226832E-016  0.7833998E+02  0.7818608E-02  0.1333829E+00
         -1   -1    0    0    0  501 -0.00000000000E+00  0.00000000000E+00  0.56371679028E+02  0.56371679253E+02  0.50400000000E-02 0.  1.
          2   -1    0    0  501    0  0.00000000000E+00 -0.00000000000E+00 -0.27217353410E+02  0.27217353530E+02  0.25500000000E-02 0. -1.
         24    2    1    2    0    0  0.00000000000E+00  0.17763568394E-14  0.29154325618E+02  0.83589032783E+02  0.78339975104E+02 0.  0.
         66    2    3    3    0    0 -0.27637247783E+02 -0.12461743326E+02 -0.11834803129E+02  0.32606365618E+02  0.20000004896E+01 0.  0.
        -13    1    3    3    0    0  0.27637247783E+02  0.12461743326E+02  0.40989128747E+02  0.50982667165E+02  0.10566000000E+00 0.  1.
         13    1    4    4    0    0 -0.62087037211E+00 -0.16471112685E+00 -0.43326263164E+00  0.78197846380E+00  0.10566000000E+00 0.  1.
        -13    1    4    4    0    0 -0.50020830888E+01 -0.18037858390E+01 -0.17929847076E+01  0.56125249912E+01  0.10566000000E+00 0.  1.
         14    1    4    4    0    0 -0.22014294322E+02 -0.10493246360E+02 -0.96085557901E+01  0.26211862163E+02  0.00000000000E+00 0. -1.
<mgrwt>
<rscale>  0 0.78339975E+02</rscale>
<asrwt>0</asrwt>
<pdfrwt beam="1">  1        2 0.41872851E-02 0.78339975E+02</pdfrwt>
<pdfrwt beam="2">  1       -1 0.86725661E-02 0.78339975E+02</pdfrwt>
<totfact> 0.14001498E+05</totfact>
</mgrwt>
</event>
<event>
 8    1  0.1226832E-016  0.8224089E+02  0.7818608E-02  0.1322810E+00
          2   -1    0    0  501    0  0.00000000000E+00  0.00000000000E+00  0.90445156718E+03  0.90445156719E+03  0.25500000000E-02 0. -1.
         -1   -1    0    0    0  501 -0.00000000000E+00 -0.00000000000E+00 -0.18695174255E+01  0.18695242191E+01  0.50400000000E-02 0.  1.
         24    2    1    2    0    0  0.00000000000E+00  0.00000000000E+00  0.90258204976E+03  0.90632109141E+03  0.82240891182E+02 0.  0.
         66    2    3    3    0    0 -0.19205249253E+02 -0.63830735393E+01  0.84572449925E+03  0.84596897926E+03  0.20000029411E+01 0.  0.
        -13    1    3    3    0    0  0.19205249253E+02  0.63830735393E+01  0.56857550504E+02  0.60352112143E+02  0.10566000000E+00 0.  1.
         13    1    4    4    0    0 -0.11638033458E+02 -0.43224391957E+01  0.52780253911E+03  0.52794853798E+03  0.10566000000E+00 0. -1.
        -13    1    4    4    0    0 -0.12565007307E+01 -0.70109438537E+00  0.66184439534E+02  0.66200162597E+02  0.10566000000E+00 0.  1.
         14    1    4    4    0    0 -0.63107150646E+01 -0.13595399582E+01  0.25173752061E+03  0.25182027868E+03  0.00000000000E+00 0. -1.
<mgrwt>
<rscale>  0 0.82240891E+02</rscale>
<asrwt>0</asrwt>
<pdfrwt beam="1">  1        2 0.13914666E+00 0.82240891E+02</pdfrwt>
<pdfrwt beam="2">  1       -1 0.28761805E-03 0.82240891E+02</pdfrwt>
<totfact> 0.32541687E+05</totfact>
</mgrwt>
</event>
<event>
 8    1  0.1226832E-016  0.7827920E+02  0.7818608E-02  0.1334007E+00
          2   -1    0    0  501    0  0.00000000000E+00  0.00000000000E+00  0.74788221422E+03  0.74788221423E+03  0.25500000000E-02 0. -1.
         -1   -1    0    0    0  501 -0.00000000000E+00 -0.00000000000E+00 -0.20483249615E+01  0.20483311621E+01  0.50400000000E-02 0.  1.
         24    2    1    2    0    0 -0.88817841970E-15  0.00000000000E+00  0.74583388926E+03  0.74993054539E+03  0.78279196069E+02 0.  0.
         66    2    3    3    0    0 -0.61409616011E+01  0.23669115512E+02  0.66562505647E+03  0.66607706329E+03  0.20000002264E+01 0.  0.
        -13    1    3    3    0    0  0.61409616011E+01 -0.23669115512E+02  0.80208832790E+02  0.83853482099E+02  0.10566000000E+00 0.  1.
         13    1    4    4    0    0 -0.15628733600E+01  0.73859589441E+01  0.18983864614E+03  0.18998873044E+03  0.10566000000E+00 0. -1.
        -13    1    4    4    0    0 -0.25432448015E+01  0.73135184254E+01  0.20885865247E+03  0.20900216153E+03  0.10566000000E+00 0.  1.
        -14    1    4    4    0    0 -0.20348434396E+01  0.89696381425E+01  0.26692775785E+03  0.26708617132E+03  0.00000000000E+00 0.  1.
<mgrwt>
<rscale>  0 0.78279196E+02</rscale>
<asrwt>0</asrwt>
<pdfrwt beam="1">  1        2 0.11505877E+00 0.78279196E+02</pdfrwt>
<pdfrwt beam="2">  1       -1 0.31512749E-03 0.78279196E+02</pdfrwt>
<totfact> 0.35903765E+05</totfact>
</mgrwt>
</event>
<event>
 8    1  0.1226832E-016  0.7708426E+02  0.7818608E-02  0.1337536E+00
          2   -1    0    0  501    0  0.00000000000E+00  0.00000000000E+00  0.15677337309E+03  0.15677337311E+03  0.25500000000E-02 0. -1.
         -1   -1    0    0    0  501 -0.00000000000E+00 -0.00000000000E+00 -0.94754328670E+01  0.94754342074E+01  0.50400000000E-02 0.  1.
         24    2    1    2    0    0  0.35527136788E-14 -0.17763568394E-14  0.14729794022E+03  0.16624880732E+03  0.77084257412E+02 0.  0.
         66    2    3    3    0    0  0.28237321187E+02 -0.11416075933E+02  0.12454467140E+03  0.12823044986E+03  0.19999999135E+01 0.  0.
        -13    1    3    3    0    0 -0.28237321187E+02  0.11416075933E+02  0.22753268819E+02  0.38018357454E+02  0.10566000000E+00 0.  1.
         13    1    4    4    0    0  0.74700698659E+01 -0.24237696259E+01  0.31551700520E+02  0.32514574774E+02  0.10566000000E+00 0. -1.
        -13    1    4    4    0    0  0.12176577595E+02 -0.56631784065E+01  0.57354520000E+02  0.58905795640E+02  0.10566000000E+00 0.  1.
        -14    1    4    4    0    0  0.85906737258E+01 -0.33291279003E+01  0.35638450885E+02  0.36810079450E+02  0.00000000000E+00 0.  1.
<mgrwt>
<rscale>  0 0.77084257E+02</rscale>
<asrwt>0</asrwt>
<pdfrwt beam="1">  1        2 0.24118982E-01 0.77084257E+02</pdfrwt>
<pdfrwt beam="2">  1       -1 0.14577589E-02 0.77084257E+02</pdfrwt>
<totfact> 0.22416247E+05</totfact>
</mgrwt>
</event>
<event>
 8    1  0.1226832E-016  0.7962293E+02  0.7818608E-02  0.1330125E+00
         -1   -1    0    0    0  501 -0.00000000000E+00  0.00000000000E+00  0.52411623855E+01  0.52411648088E+01  0.50400000000E-02 0.  1.
          2   -1    0    0  501    0  0.00000000000E+00 -0.00000000000E+00 -0.30240477352E+03  0.30240477353E+03  0.25500000000E-02 0. -1.
         24    2    1    2    0    0  0.17763568394E-14  0.00000000000E+00 -0.29716361114E+03  0.30764593834E+03  0.79622933847E+02 0.  0.
         66    2    3    3    0    0  0.13015889310E+02 -0.36979460967E+02 -0.17489614583E+03  0.17924719168E+03  0.19999977190E+01 0.  0.
        -13    1    3    3    0    0 -0.13015889310E+02  0.36979460967E+02 -0.12226746531E+03  0.12839874667E+03  0.10566000000E+00 0.  1.
         13    1    4    4    0    0  0.12206991947E+01 -0.31238529597E+01 -0.15823115549E+02  0.16175002737E+02  0.10566000000E+00 0. -1.
        -13    1    4    4    0    0  0.17694430452E+01 -0.71709325299E+01 -0.32450105332E+02  0.33280229899E+02  0.10566000000E+00 0. -1.
        -14    1    4    4    0    0  0.10025747070E+02 -0.26684675477E+02 -0.12662292495E+03  0.12979195904E+03  0.00000000000E+00 0.  1.
<mgrwt>
<rscale>  0 0.79622934E+02</rscale>
<asrwt>0</asrwt>
<pdfrwt beam="1">  1        2 0.46523798E-01 0.79622934E+02</pdfrwt>
<pdfrwt beam="2">  1       -1 0.80633310E-03 0.79622934E+02</pdfrwt>
<totfact> 0.25886839E+05</totfact>
</mgrwt>
</event>
<event>
 8    1  0.1226832E-016  0.8163979E+02  0.7818608E-02  0.1324461E+00
          2   -1    0    0  501    0  0.00000000000E+00  0.00000000000E+00  0.13938012879E+02  0.13938013112E+02  0.25500000000E-02 0. -1.
         -1   -1    0    0    0  501 -0.00000000000E+00 -0.00000000000E+00 -0.11954816952E+03  0.11954816963E+03  0.50400000000E-02 0.  1.
         24    2    1    2    0    0 -0.17763568394E-14 -0.35527136788E-14 -0.10561015665E+03  0.13348618274E+03  0.81639792973E+02 0.  0.
         66    2    3    3    0    0 -0.13497899926E+02 -0.15056413521E+02  0.50955574245E+01  0.20948832578E+02  0.19999975975E+01 0.  0.
        -13    1    3    3    0    0  0.13497899926E+02  0.15056413521E+02 -0.11070571407E+03  0.11253735017E+03  0.10566000000E+00 0.  1.
         13    1    4    4    0    0 -0.70879961159E+01 -0.71923203156E+01  0.26972237485E+01  0.10452527945E+02  0.10566000000E+00 0. -1.
        -13    1    4    4    0    0 -0.17837266658E+01 -0.18167380078E+01  0.10865485352E+01  0.27701930551E+01  0.10566000000E+00 0.  1.
        -14    1    4    4    0    0 -0.46261771440E+01 -0.60473551975E+01  0.13117851408E+01  0.77261115776E+01  0.00000000000E+00 0.  1.
<mgrwt>
<rscale>  0 0.81639793E+02</rscale>
<asrwt>0</asrwt>
<pdfrwt beam="1">  1        2 0.21443098E-02 0.81639793E+02</pdfrwt>
<pdfrwt beam="2">  1       -1 0.18392026E-01 0.81639793E+02</pdfrwt>
<totfact> 0.10828571E+05</totfact>
</mgrwt>
</event>
<event>
 8    1  0.1226832E-016  0.7930076E+02  0.7818608E-02  0.1331048E+00
          2   -1    0    0  501    0  0.00000000000E+00  0.00000000000E+00  0.86358759099E+03  0.86358759100E+03  0.25500000000E-02 0. -1.
         -1   -1    0    0    0  501 -0.00000000000E+00 -0.00000000000E+00 -0.18204866724E+01  0.18204936490E+01  0.50400000000E-02 0.  1.
         24    2    1    2    0    0 -0.22204460493E-15 -0.71054273576E-14  0.86176710432E+03  0.86540808465E+03  0.79300762172E+02 0.  0.
         66    2    3    3    0    0  0.18838185175E+01  0.21827498250E+02  0.79147702848E+03  0.79178271960E+03  0.19999993797E+01 0.  0.
        -13    1    3    3    0    0 -0.18838185175E+01 -0.21827498250E+02  0.70290075843E+02  0.73625365045E+02  0.10566000000E+00 0.  1.
         13    1    4    4    0    0  0.42082295570E+00  0.37688426634E+01  0.11246685881E+03  0.11253082583E+03  0.10566000000E+00 0. -1.
        -13    1    4    4    0    0  0.35847280001E+00  0.51467060481E+01  0.19534113698E+03  0.19540928342E+03  0.10566000000E+00 0. -1.
         14    1    4    4    0    0  0.11045227618E+01  0.12911949538E+02  0.48366903268E+03  0.48384261035E+03  0.00000000000E+00 0. -1.
<mgrwt>
<rscale>  0 0.79300762E+02</rscale>
<asrwt>0</asrwt>
<pdfrwt beam="1">  1        2 0.13285976E+00 0.79300762E+02</pdfrwt>
<pdfrwt beam="2">  1       -1 0.28007514E-03 0.79300762E+02</pdfrwt>
<totfact> 0.35572612E+05</totfact>
</mgrwt>
</event>
<event>
 8    1  0.1226832E-016  0.7938484E+02  0.7818608E-02  0.1330806E+00
          2   -1    0    0  501    0  0.00000000000E+00  0.00000000000E+00  0.96667228730E+02  0.96667228764E+02  0.25500000000E-02 0. -1.
         -1   -1    0    0    0  501 -0.00000000000E+00 -0.00000000000E+00 -0.16298060066E+02  0.16298060845E+02  0.50400000000E-02 0.  1.
         24    2    1    2    0    0  0.00000000000E+00 -0.35527136788E-14  0.80369168664E+02  0.11296528961E+03  0.79384843545E+02 0.  0.
         66    2    3    3    0    0  0.19923584104E+02 -0.24479960097E+02  0.74399721568E+02  0.80842663432E+02  0.20000028450E+01 0.  0.
        -13    1    3    3    0    0 -0.19923584104E+02  0.24479960097E+02  0.59694470961E+01  0.32122626178E+02  0.10566000000E+00 0.  1.
         13    1    4    4    0    0  0.45865440673E+01 -0.55207008212E+01  0.18104459781E+02  0.19475552676E+02  0.10566000000E+00 0. -1.
        -13    1    4    4    0    0  0.55648540657E+01 -0.65239339837E+01  0.18192485799E+02  0.20112359856E+02  0.10566000000E+00 0.  1.
        -14    1    4    4    0    0  0.97721859709E+01 -0.12435325292E+02  0.38102775989E+02  0.41254750900E+02  0.00000000000E+00 0.  1.
<mgrwt>
<rscale>  0 0.79384844E+02</rscale>
<asrwt>0</asrwt>
<pdfrwt beam="1">  1        2 0.14871881E-01 0.79384844E+02</pdfrwt>
<pdfrwt beam="2">  1       -1 0.25073939E-02 0.79384844E+02</pdfrwt>
<totfact> 0.17926576E+05</totfact>
</mgrwt>
</event>
<event>
 8    1  0.1226832E-016  0.7466112E+02  0.7818608E-02  0.1344924E+00
         -1   -1    0    0    0  501 -0.00000000000E+00  0.00000000000E+00  0.15394190787E+01  0.15394273290E+01  0.50400000000E-02 0.  1.
          2   -1    0    0  501    0  0.00000000000E+00 -0.00000000000E+00 -0.90525509307E+03  0.90525509308E+03  0.25500000000E-02 0. -1.
         24    2    1    2    0    0  0.00000000000E+00 -0.17763568394E-14 -0.90371567400E+03  0.90679452041E+03  0.74661119833E+02 0.  0.
         66    2    3    3    0    0 -0.13170620333E+02  0.14812627155E+02 -0.83600242585E+03  0.83623975939E+03  0.20000001578E+01 0.  0.
        -13    1    3    3    0    0  0.13170620333E+02 -0.14812627155E+02 -0.67713248146E+02  0.70554761014E+02  0.10566000000E+00 0.  1.
         13    1    4    4    0    0 -0.24597793664E+01  0.24005738328E+01 -0.15884909477E+03  0.15888630948E+03  0.10566000000E+00 0. -1.
        -13    1    4    4    0    0 -0.12662084552E+01  0.82935586122E+00 -0.65025512049E+02  0.65043212531E+02  0.10566000000E+00 0.  1.
         14    1    4    4    0    0 -0.94446325110E+01  0.11582697461E+02 -0.61212781903E+03  0.61231023738E+03  0.00000000000E+00 0. -1.
<mgrwt>
<rscale>  0 0.74661120E+02</rscale>
<asrwt>0</asrwt>
<pdfrwt beam="1">  1        2 0.13926959E+00 0.74661120E+02</pdfrwt>
<pdfrwt beam="2">  1       -1 0.23683506E-03 0.74661120E+02</pdfrwt>
<totfact> 0.41810847E+05</totfact>
</mgrwt>
</event>
<event>
 8    1  0.1226832E-016  0.8005260E+02  0.7818608E-02  0.1328902E+00
         -1   -1    0    0    0  501 -0.00000000000E+00  0.00000000000E+00  0.85384153026E+02  0.85384153175E+02  0.50400000000E-02 0.  1.
          2   -1    0    0  501    0  0.00000000000E+00 -0.00000000000E+00 -0.18763489767E+02  0.18763489940E+02  0.25500000000E-02 0. -1.
         24    2    1    2    0    0  0.17763568394E-14  0.00000000000E+00  0.66620663259E+02  0.10414764312E+03  0.80052600166E+02 0.  0.
         66    2    3    3    0    0 -0.14378317769E+02 -0.74971805396E+01 -0.14242428060E+02  0.21674650932E+02  0.19999995183E+01 0.  0.
        -13    1    3    3    0    0  0.14378317769E+02  0.74971805396E+01  0.80863091319E+02  0.82472992183E+02  0.10566000000E+00 0.  1.
         13    1    4    4    0    0 -0.95193392471E+00 -0.50919887700E+00 -0.13886075362E+01  0.17620603334E+01  0.10566000000E+00 0.  1.
        -13    1    4    4    0    0 -0.59682782409E+01 -0.39079243434E+01 -0.62737890248E+01  0.95007268458E+01  0.10566000000E+00 0.  1.
         14    1    4    4    0    0 -0.74581056039E+01 -0.30800573192E+01 -0.65800314988E+01  0.10411863753E+02  0.00000000000E+00 0. -1.
<mgrwt>
<rscale>  0 0.80052600E+02</rscale>
<asrwt>0</asrwt>
<pdfrwt beam="1">  1        2 0.28866908E-02 0.80052600E+02</pdfrwt>
<pdfrwt beam="2">  1       -1 0.13136023E-01 0.80052600E+02</pdfrwt>
<totfact> 0.12232164E+05</totfact>
</mgrwt>
</event>
<event>
 8    1  0.1226832E-016  0.8215867E+02  0.7818608E-02  0.1323035E+00
         -1   -1    0    0    0  501 -0.00000000000E+00  0.00000000000E+00  0.42581218530E+03  0.42581218533E+03  0.50400000000E-02 0.  1.
          2   -1    0    0  501    0  0.00000000000E+00 -0.00000000000E+00 -0.39630424522E+01  0.39630432726E+01  0.25500000000E-02 0. -1.
         24    2    1    2    0    0  0.71054273576E-14  0.35527136788E-14  0.42184914285E+03  0.42977522861E+03  0.82158674520E+02 0.  0.
         66    2    3    3    0    0 -0.36166292273E+02 -0.15250914396E+02  0.27402098796E+03  0.27682502224E+03  0.20000013647E+01 0.  0.
        -13    1    3    3    0    0  0.36166292273E+02  0.15250914396E+02  0.14782815489E+03  0.15295020637E+03  0.10566000000E+00 0.  1.
         13    1    4    4    0    0 -0.13178799599E+02 -0.55829714742E+01  0.96145136506E+02  0.97204674615E+02  0.10566000000E+00 0. -1.
        -13    1    4    4    0    0 -0.20889910170E+02 -0.89257358242E+01  0.16437796910E+03  0.16594030552E+03  0.10566000000E+00 0.  1.
         14    1    4    4    0    0 -0.20975825032E+01 -0.74220709721E+00  0.13497882359E+02  0.13680042102E+02  0.00000000000E+00 0. -1.
<mgrwt>
<rscale>  0 0.82158675E+02</rscale>
<asrwt>0</asrwt>
<pdfrwt beam="1">  1        2 0.60969917E-03 0.82158675E+02</pdfrwt>
<pdfrwt beam="2">  1       -1 0.65509538E-01 0.82158675E+02</pdfrwt>
<totfact> 0.68472433E+04</totfact>
</mgrwt>
</event>
<event>
 8    1  0.1226832E-016  0.8131782E+02  0.7818608E-02  0.1325353E+00
         -1   -1    0    0    0  501 -0.00000000000E+00  0.00000000000E+00  0.97424852110E+01  0.97424865147E+01  0.50400000000E-02 0.  1.
          2   -1    0    0  501    0  0.00000000000E+00 -0.00000000000E+00 -0.16968428589E+03  0.16968428591E+03  0.25500000000E-02 0. -1.
         24    2    1    2    0    0  0.00000000000E+00  0.35527136788E-14 -0.15994180068E+03  0.17942677242E+03  0.81317815133E+02 0.  0.
         66    2    3    3    0    0 -0.23548185205E+02 -0.28659351236E+02 -0.11662731653E+03  0.12240018966E+03  0.20000075315E+01 0.  0.
        -13    1    3    3    0    0  0.23548185205E+02  0.28659351236E+02 -0.43314484152E+02  0.57026582759E+02  0.10566000000E+00 0.  1.
         13    1    4    4    0    0 -0.32529088047E+01 -0.45413535925E+01 -0.17859400242E+02  0.18712954047E+02  0.10566000000E+00 0. -1.
        -13    1    4    4    0    0 -0.69679911998E+01 -0.91524904537E+01 -0.37593988140E+02  0.39314629480E+02  0.10566000000E+00 0.  1.
        -14    1    4    4    0    0 -0.13327285201E+02 -0.14965507190E+02 -0.61173928144E+02  0.64372606137E+02  0.00000000000E+00 0.  1.
<mgrwt>
<rscale>  0 0.81317815E+02</rscale>
<asrwt>0</asrwt>
<pdfrwt beam="1">  1        2 0.26105273E-01 0.81317815E+02</pdfrwt>
<pdfrwt beam="2">  1       -1 0.14988441E-02 0.81317815E+02</pdfrwt>
<totfact> 0.19972890E+05</totfact>
</mgrwt>
</event>
<event>
 8    1  0.1226832E-016  0.7642564E+02  0.7818608E-02  0.1339512E+00
         -1   -1    0    0    0  501 -0.00000000000E+00  0.00000000000E+00  0.18760627162E+02  0.18760627839E+02  0.50400000000E-02 0.  1.
          2   -1    0    0  501    0  0.00000000000E+00 -0.00000000000E+00 -0.77834254295E+02  0.77834254337E+02  0.25500000000E-02 0. -1.
         24    2    1    2    0    0  0.00000000000E+00 -0.35527136788E-14 -0.59073627133E+02  0.96594882176E+02  0.76425636012E+02 0.  0.
         66    2    3    3    0    0  0.21359083635E+02  0.29903395166E+02 -0.42679178368E+02  0.56355441194E+02  0.19999974614E+01 0.  0.
        -13    1    3    3    0    0 -0.21359083635E+02 -0.29903395166E+02 -0.16394448765E+02  0.40239440982E+02  0.10566000000E+00 0.  1.
         13    1    4    4    0    0  0.63485460426E+01  0.98869651599E+01 -0.13829724952E+02  0.18147412300E+02  0.10566000000E+00 0. -1.
        -13    1    4    4    0    0  0.17603927210E+01  0.19388227773E+01 -0.26072942929E+01  0.36969127470E+01  0.10566000000E+00 0.  1.
        -14    1    4    4    0    0  0.13250144871E+02  0.18077607229E+02 -0.26242159124E+02  0.34511116147E+02  0.00000000000E+00 0.  1.
<mgrwt>
<rscale>  0 0.76425636E+02</rscale>
<asrwt>0</asrwt>
<pdfrwt beam="1">  1        2 0.11974501E-01 0.76425636E+02</pdfrwt>
<pdfrwt beam="2">  1       -1 0.28862504E-02 0.76425636E+02</pdfrwt>
<totfact> 0.18748314E+05</totfact>
</mgrwt>
</event>
<event>
 8    1  0.1226832E-016  0.7756776E+02  0.7818608E-02  0.1336099E+00
         -1   -1    0    0    0  501 -0.00000000000E+00  0.00000000000E+00  0.75577199576E+02  0.75577199744E+02  0.50400000000E-02 0.  1.
          2   -1    0    0  501    0  0.00000000000E+00 -0.00000000000E+00 -0.19902685804E+02  0.19902685967E+02  0.25500000000E-02 0. -1.
         24    2    1    2    0    0 -0.55511151231E-16  0.71054273576E-14  0.55674513772E+02  0.95479885711E+02  0.77567758068E+02 0.  0.
         66    2    3    3    0    0 -0.79446276778E-01  0.38300744324E+02  0.35161940928E+02  0.52031869229E+02  0.19999995270E+01 0.  0.
        -13    1    3    3    0    0  0.79446276778E-01 -0.38300744324E+02  0.20512572844E+02  0.43448016482E+02  0.10566000000E+00 0.  1.
         13    1    4    4    0    0  0.13819471183E+00  0.24955923304E+02  0.22005191248E+02  0.33272463263E+02  0.10566000000E+00 0. -1.
        -13    1    4    4    0    0 -0.30091843504E+00  0.53791999028E+01  0.57825273397E+01  0.79041210751E+01  0.10566000000E+00 0.  1.
        -14    1    4    4    0    0  0.83277446436E-01  0.79656211178E+01  0.73742223403E+01  0.10855284890E+02  0.00000000000E+00 0.  1.
<mgrwt>
<rscale>  0 0.77567758E+02</rscale>
<asrwt>0</asrwt>
<pdfrwt beam="1">  1        2 0.30619517E-02 0.77567758E+02</pdfrwt>
<pdfrwt beam="2">  1       -1 0.11627261E-01 0.77567758E+02</pdfrwt>
<totfact> 0.13550293E+05</totfact>
</mgrwt>
</event>
<event>
 8    1  0.1226832E-016  0.7946445E+02  0.7818608E-02  0.1330578E+00
         -1   -1    0    0    0  501 -0.00000000000E+00  0.00000000000E+00  0.56889724602E+01  0.56889746927E+01  0.50400000000E-02 0.  1.
          2   -1    0    0  501    0  0.00000000000E+00 -0.00000000000E+00 -0.27749288391E+03  0.27749288392E+03  0.25500000000E-02 0. -1.
         24    2    1    2    0    0  0.00000000000E+00 -0.35527136788E-14 -0.27180391145E+03  0.28318185861E+03  0.79464449717E+02 0.  0.
         66    2    3    3    0    0 -0.33071023201E+01 -0.26972983058E+02 -0.23915878566E+03  0.24070605206E+03  0.19999993839E+01 0.  0.
        -13    1    3    3    0    0  0.33071023201E+01  0.26972983058E+02 -0.32645125786E+02  0.42475806554E+02  0.10566000000E+00 0.  1.
         13    1    4    4    0    0 -0.11785456111E+01 -0.74995458649E+01 -0.72123317651E+02  0.72521833064E+02  0.10566000000E+00 0. -1.
        -13    1    4    4    0    0 -0.57010510761E-01 -0.49837076748E+01 -0.43297999589E+02  0.43584039795E+02  0.10566000000E+00 0.  1.
         14    1    4    4    0    0 -0.20715461982E+01 -0.14489729518E+02 -0.12373746842E+03  0.12460017920E+03  0.00000000000E+00 0. -1.
<mgrwt>
<rscale>  0 0.79464450E+02</rscale>
<asrwt>0</asrwt>
<pdfrwt beam="1">  1        2 0.42691203E-01 0.79464450E+02</pdfrwt>
<pdfrwt beam="2">  1       -1 0.87522692E-03 0.79464450E+02</pdfrwt>
<totfact> 0.25224957E+05</totfact>
</mgrwt>
</event>
<event>
 8    1  0.1226832E-016  0.7967217E+02  0.7818608E-02  0.1329984E+00
          2   -1    0    0  501    0  0.00000000000E+00  0.00000000000E+00  0.30094993574E+03  0.30094993575E+03  0.25500000000E-02 0. -1.
         -1   -1    0    0    0  501 -0.00000000000E+00 -0.00000000000E+00 -0.52730144770E+01  0.52730168856E+01  0.50400000000E-02 0.  1.
         24    2    1    2    0    0 -0.17763568394E-14  0.00000000000E+00  0.29567692126E+03  0.30622295263E+03  0.79672171765E+02 0.  0.
         66    2    3    3    0    0  0.13473669729E+02  0.37309231828E+02  0.16090307229E+03  0.16573266796E+03  0.20000008501E+01 0.  0.
        -13    1    3    3    0    0 -0.13473669729E+02 -0.37309231828E+02  0.13477384897E+03  0.14049028467E+03  0.10566000000E+00 0.  1.
         13    1    4    4    0    0  0.10710525934E+01  0.25990179371E+01  0.10260112839E+02  0.10638755914E+02  0.10566000000E+00 0. -1.
        -13    1    4    4    0    0  0.53671244506E+01  0.15470563064E+02  0.63923793721E+02  0.65987930064E+02  0.10566000000E+00 0.  1.
         14    1    4    4    0    0  0.70354926846E+01  0.19239650827E+02  0.86719165726E+02  0.89105981985E+02  0.00000000000E+00 0. -1.
<mgrwt>
<rscale>  0 0.79672172E+02</rscale>
<asrwt>0</asrwt>
<pdfrwt beam="1">  1        2 0.46300005E-01 0.79672172E+02</pdfrwt>
<pdfrwt beam="2">  1       -1 0.81123293E-03 0.79672172E+02</pdfrwt>
<totfact> 0.25799887E+05</totfact>
</mgrwt>
</event>
<event>
 8    1  0.1226832E-016  0.7806175E+02  0.7818608E-02  0.1334644E+00
         -1   -1    0    0    0  501 -0.00000000000E+00  0.00000000000E+00  0.14740823994E+03  0.14740824002E+03  0.50400000000E-02 0.  1.
          2   -1    0    0  501    0  0.00000000000E+00 -0.00000000000E+00 -0.10334627612E+02  0.10334627927E+02  0.25500000000E-02 0. -1.
         24    2    1    2    0    0 -0.35527136788E-14 -0.35527136788E-14  0.13707361233E+03  0.15774286795E+03  0.78061752436E+02 0.  0.
         66    2    3    3    0    0 -0.24091441070E+02 -0.29776145228E+02  0.83484303435E+02  0.91872984478E+02  0.19999998170E+01 0.  0.
        -13    1    3    3    0    0  0.24091441070E+02  0.29776145228E+02  0.53589308890E+02  0.65869883473E+02  0.10566000000E+00 0.  1.
         13    1    4    4    0    0 -0.67855031081E+01 -0.85836171097E+01  0.22470529332E+02  0.24993146812E+02  0.10566000000E+00 0. -1.
        -13    1    4    4    0    0 -0.54449719979E+01 -0.69317639571E+01  0.18301841186E+02  0.20314173044E+02  0.10566000000E+00 0.  1.
        -14    1    4    4    0    0 -0.11860965964E+02 -0.14260764161E+02  0.42711932918E+02  0.46565664621E+02  0.00000000000E+00 0.  1.
<mgrwt>
<rscale>  0 0.78061752E+02</rscale>
<asrwt>0</asrwt>
<pdfrwt beam="1">  1        2 0.15899427E-02 0.78061752E+02</pdfrwt>
<pdfrwt beam="2">  1       -1 0.22678191E-01 0.78061752E+02</pdfrwt>
<totfact> 0.11527444E+05</totfact>
</mgrwt>
</event>
<event>
 8    1  0.1226832E-016  0.8025950E+02  0.7818608E-02  0.1328317E+00
          2   -1    0    0  501    0  0.00000000000E+00  0.00000000000E+00  0.22678925676E+02  0.22678925820E+02  0.25500000000E-02 0. -1.
         -1   -1    0    0    0  501 -0.00000000000E+00 -0.00000000000E+00 -0.71008510107E+02  0.71008510286E+02  0.50400000000E-02 0.  1.
         24    2    1    2    0    0  0.35527136788E-14  0.88817841970E-15 -0.48329584431E+02  0.93687436106E+02  0.80259497586E+02 0.  0.
         66    2    3    3    0    0  0.24103673712E+02 -0.44154827924E+01  0.12879390134E+02  0.27755400599E+02  0.19999993713E+01 0.  0.
        -13    1    3    3    0    0 -0.24103673712E+02  0.44154827924E+01 -0.61208974565E+02  0.65932035506E+02  0.10566000000E+00 0.  1.
         13    1    4    4    0    0  0.10301898396E+02 -0.12976201004E+01  0.53845156511E+01  0.11696884257E+02  0.10566000000E+00 0.  1.
        -13    1    4    4    0    0  0.33149934748E+00  0.66144277024E-01  0.11372051091E+00  0.37197214004E+00  0.10566000000E+00 0. -1.
         14    1    4    4    0    0  0.13470275969E+02 -0.31840069691E+01  0.73811539724E+01  0.15686544203E+02  0.00000000000E+00 0. -1.
<mgrwt>
<rscale>  0 0.80259498E+02</rscale>
<asrwt>0</asrwt>
<pdfrwt beam="1">  1        2 0.34890655E-02 0.80259498E+02</pdfrwt>
<pdfrwt beam="2">  1       -1 0.10924386E-01 0.80259498E+02</pdfrwt>
<totfact> 0.12615457E+05</totfact>
</mgrwt>
</event>
<event>
 8    1  0.1226832E-016  0.8032587E+02  0.7818608E-02  0.1328129E+00
         -1   -1    0    0    0  501 -0.00000000000E+00  0.00000000000E+00  0.50425500750E+01  0.50425525937E+01  0.50400000000E-02 0.  1.
          2   -1    0    0  501    0  0.00000000000E+00 -0.00000000000E+00 -0.31988993744E+03  0.31988993745E+03  0.25500000000E-02 0. -1.
         24    2    1    2    0    0 -0.35527136788E-14 -0.71054273576E-14 -0.31484738737E+03  0.32493249005E+03  0.80325872268E+02 0.  0.
         66    2    3    3    0    0 -0.26036283162E+02 -0.21276839458E+02 -0.24618931111E+03  0.24848293453E+03  0.19999782541E+01 0.  0.
        -13    1    3    3    0    0  0.26036283162E+02  0.21276839458E+02 -0.68658076263E+02  0.76449555515E+02  0.10566000000E+00 0.  1.
         13    1    4    4    0    0 -0.17806084247E+02 -0.15123239123E+02 -0.16979962449E+03  0.17139922007E+03  0.10566000000E+00 0. -1.
        -13    1    4    4    0    0 -0.73277659337E+01 -0.53747077137E+01 -0.69495217226E+02  0.70086946130E+02  0.10566000000E+00 0.  1.
         14    1    4    4    0    0 -0.90243298113E+00 -0.77889262188E+00 -0.68944693888E+01  0.69967683365E+01  0.00000000000E+00 0. -1.
<mgrwt>
<rscale>  0 0.80325872E+02</rscale>
<asrwt>0</asrwt>
<pdfrwt beam="1">  1        2 0.49213821E-01 0.80325872E+02</pdfrwt>
<pdfrwt beam="2">  1       -1 0.77577738E-03 0.80325872E+02</pdfrwt>
<totfact> 0.25816563E+05</totfact>
</mgrwt>
</event>
<event>
 8    1  0.1226832E-016  0.7992613E+02  0.7818608E-02  0.1329261E+00
          2   -1    0    0  501    0  0.00000000000E+00  0.00000000000E+00  0.29798793858E+02  0.29798793967E+02  0.25500000000E-02 0. -1.
         -1   -1    0    0    0  501 -0.00000000000E+00 -0.00000000000E+00 -0.53594330401E+02  0.53594330638E+02  0.50400000000E-02 0.  1.
         24    2    1    2    0    0  0.35527136788E-14  0.00000000000E+00 -0.23795536543E+02  0.83393124605E+02  0.79926126342E+02 0.  0.
         66    2    3    3    0    0 -0.30544187006E+02 -0.24665931411E+02 -0.42602984335E+01  0.39541189366E+02  0.19999953691E+01 0.  0.
        -13    1    3    3    0    0  0.30544187006E+02  0.24665931411E+02 -0.19535238109E+02  0.43851935239E+02  0.10566000000E+00 0.  1.
         13    1    4    4    0    0 -0.11785879435E+02 -0.10671842015E+02 -0.20288797617E+01  0.16028807915E+02  0.10566000000E+00 0. -1.
        -13    1    4    4    0    0 -0.20796525942E+01 -0.15331093261E+01 -0.18288734656E+00  0.25922945310E+01  0.10566000000E+00 0.  1.
         14    1    4    4    0    0 -0.16678654977E+02 -0.12460980070E+02 -0.20485313253E+01  0.20920086920E+02  0.00000000000E+00 0. -1.
<mgrwt>
<rscale>  0 0.79926126E+02</rscale>
<asrwt>0</asrwt>
<pdfrwt beam="1">  1        2 0.45844299E-02 0.79926126E+02</pdfrwt>
<pdfrwt beam="2">  1       -1 0.82452816E-02 0.79926126E+02</pdfrwt>
<totfact> 0.13472214E+05</totfact>
</mgrwt>
</event>
<event>
 8    1  0.1226832E-016  0.7945063E+02  0.7818608E-02  0.1330618E+00
          2   -1    0    0  501    0  0.00000000000E+00  0.00000000000E+00  0.16406136892E+02  0.16406137090E+02  0.25500000000E-02 0. -1.
         -1   -1    0    0    0  501 -0.00000000000E+00 -0.00000000000E+00 -0.96189644410E+02  0.96189644542E+02  0.50400000000E-02 0.  1.
         24    2    1    2    0    0 -0.35527136788E-14  0.00000000000E+00 -0.79783507518E+02  0.11259578163E+03  0.79450625985E+02 0.  0.
         66    2    3    3    0    0 -0.17731176250E+02 -0.19537868371E+02  0.21227159929E+01  0.26544845986E+02  0.20000033905E+01 0.  0.
        -13    1    3    3    0    0  0.17731176250E+02  0.19537868371E+02 -0.81906223511E+02  0.86050935646E+02  0.10566000000E+00 0.  1.
         13    1    4    4    0    0 -0.76054244815E+01 -0.90020921509E+01  0.92566546210E+00  0.11821512814E+02  0.10566000000E+00 0. -1.
        -13    1    4    4    0    0 -0.91074585663E+00 -0.15670291972E+01  0.15426097143E+00  0.18220864422E+01  0.10566000000E+00 0.  1.
         14    1    4    4    0    0 -0.92150059114E+01 -0.89687470232E+01  0.10427895594E+01  0.12901246730E+02  0.00000000000E+00 0. -1.
<mgrwt>
<rscale>  0 0.79450626E+02</rscale>
<asrwt>0</asrwt>
<pdfrwt beam="1">  1        2 0.25240211E-02 0.79450626E+02</pdfrwt>
<pdfrwt beam="2">  1       -1 0.14798407E-01 0.79450626E+02</pdfrwt>
<totfact> 0.12158210E+05</totfact>
</mgrwt>
</event>
<event>
 8    1  0.1226832E-016  0.7848616E+02  0.7818608E-02  0.1333403E+00
         -1   -1    0    0    0  501 -0.00000000000E+00  0.00000000000E+00  0.71198004389E+01  0.71198022228E+01  0.50400000000E-02 0.  1.
          2   -1    0    0  501    0  0.00000000000E+00 -0.00000000000E+00 -0.21630086703E+03  0.21630086705E+03  0.25500000000E-02 0. -1.
         24    2    1    2    0    0  0.00000000000E+00  0.00000000000E+00 -0.20918106659E+03  0.22342066927E+03  0.78486156970E+02 0.  0.
         66    2    3    3    0    0 -0.37206141883E+01 -0.22838203549E+02 -0.19479284775E+03  0.19617257729E+03  0.20000082123E+01 0.  0.
        -13    1    3    3    0    0  0.37206141883E+01  0.22838203549E+02 -0.14388218842E+02  0.27248091984E+02  0.10566000000E+00 0.  1.
         13    1    4    4    0    0 -0.20779233022E+01 -0.10473694224E+02 -0.96179128294E+02  0.96770098271E+02  0.10566000000E+00 0. -1.
        -13    1    4    4    0    0 -0.51505671907E+00 -0.66197981432E+01 -0.51415687676E+02  0.51842753728E+02  0.10566000000E+00 0.  1.
         14    1    4    4    0    0 -0.11276341671E+01 -0.57447111820E+01 -0.47198031781E+02  0.47559725287E+02  0.00000000000E+00 0. -1.
<mgrwt>
<rscale>  0 0.78486157E+02</rscale>
<asrwt>0</asrwt>
<pdfrwt beam="1">  1        2 0.33277051E-01 0.78486157E+02</pdfrwt>
<pdfrwt beam="2">  1       -1 0.10953542E-02 0.78486157E+02</pdfrwt>
<totfact> 0.23840698E+05</totfact>
</mgrwt>
</event>
<event>
 8    1  0.1226832E-016  0.7751010E+02  0.7818608E-02  0.1336270E+00
          2   -1    0    0  501    0  0.00000000000E+00  0.00000000000E+00  0.16901341876E+02  0.16901342069E+02  0.25500000000E-02 0. -1.
         -1   -1    0    0    0  501 -0.00000000000E+00 -0.00000000000E+00 -0.88865962361E+02  0.88865962504E+02  0.50400000000E-02 0.  1.
         24    2    1    2    0    0  0.00000000000E+00  0.00000000000E+00 -0.71964620485E+02  0.10576730457E+03  0.77510103309E+02 0.  0.
         66    2    3    3    0    0 -0.33218552033E+02 -0.15594207133E+02 -0.19111098403E+02  0.41423249247E+02  0.20000001863E+01 0.  0.
        -13    1    3    3    0    0  0.33218552033E+02  0.15594207133E+02 -0.52853522081E+02  0.64344055325E+02  0.10566000000E+00 0.  1.
         13    1    4    4    0    0 -0.86973345128E+01 -0.38648140443E+01 -0.42118142289E+01  0.10408215907E+02  0.10566000000E+00 0.  1.
        -13    1    4    4    0    0 -0.20224376997E+02 -0.10038130870E+02 -0.12134795424E+02  0.25633063030E+02  0.10566000000E+00 0. -1.
         14    1    4    4    0    0 -0.42968405230E+01 -0.16912622189E+01 -0.27644887501E+01  0.53819703105E+01  0.00000000000E+00 0. -1.
<mgrwt>
<rscale>  0 0.77510103E+02</rscale>
<asrwt>0</asrwt>
<pdfrwt beam="1">  1        2 0.26002065E-02 0.77510103E+02</pdfrwt>
<pdfrwt beam="2">  1       -1 0.13671686E-01 0.77510103E+02</pdfrwt>
<totfact> 0.13142717E+05</totfact>
</mgrwt>
</event>
<event>
 8    1  0.1226832E-016  0.8117232E+02  0.7818608E-02  0.1325757E+00
          2   -1    0    0  501    0  0.00000000000E+00  0.00000000000E+00  0.56949901302E+03  0.56949901303E+03  0.25500000000E-02 0. -1.
         -1   -1    0    0    0  501 -0.00000000000E+00 -0.00000000000E+00 -0.28924283435E+01  0.28924327346E+01  0.50400000000E-02 0.  1.
         24    2    1    2    0    0  0.00000000000E+00  0.00000000000E+00  0.56660658468E+03  0.57239144576E+03  0.81172319056E+02 0.  0.
         66    2    3    3    0    0  0.58329950287E+01 -0.11158125473E+02  0.55536740865E+03  0.55551371377E+03  0.20000027693E+01 0.  0.
        -13    1    3    3    0    0 -0.58329950287E+01  0.11158125473E+02  0.11239176031E+02  0.16877731985E+02  0.10566000000E+00 0.  1.
         13    1    4    4    0    0  0.23442696369E+01 -0.47145985306E+01  0.20645059866E+03  0.20651775684E+03  0.10566000000E+00 0. -1.
        -13    1    4    4    0    0  0.94700189503E+00 -0.94793119992E+00  0.51627958416E+02  0.51645451304E+02  0.10566000000E+00 0.  1.
        -14    1    4    4    0    0  0.25417234967E+01 -0.54955957428E+01  0.29728885157E+03  0.29735050563E+03  0.00000000000E+00 0.  1.
<mgrwt>
<rscale>  0 0.81172319E+02</rscale>
<asrwt>0</asrwt>
<pdfrwt beam="1">  1        2 0.87615279E-01 0.81172319E+02</pdfrwt>
<pdfrwt beam="2">  1       -1 0.44498908E-03 0.81172319E+02</pdfrwt>
<totfact> 0.30509946E+05</totfact>
</mgrwt>
</event>
<event>
 8    1  0.1226832E-016  0.7702130E+02  0.7818608E-02  0.1337724E+00
          2   -1    0    0  501    0  0.00000000000E+00  0.00000000000E+00  0.10431517657E+02  0.10431517969E+02  0.25500000000E-02 0. -1.
         -1   -1    0    0    0  501 -0.00000000000E+00 -0.00000000000E+00 -0.14217203251E+03  0.14217203260E+03  0.50400000000E-02 0.  1.
         24    2    1    2    0    0  0.00000000000E+00 -0.88817841970E-15 -0.13174051485E+03  0.15260355057E+03  0.77021298302E+02 0.  0.
         66    2    3    3    0    0  0.23230928430E+02  0.59910359860E+01 -0.62938271416E+01  0.24883343985E+02  0.19999999692E+01 0.  0.
        -13    1    3    3    0    0 -0.23230928430E+02 -0.59910359860E+01 -0.12544668771E+03  0.12772020658E+03  0.10566000000E+00 0.  1.
         13    1    4    4    0    0  0.46333221417E+01  0.90174895599E+00 -0.17730479110E+01  0.50433806300E+01  0.10566000000E+00 0. -1.
        -13    1    4    4    0    0  0.78683022700E+01  0.26897968735E+01 -0.16703018840E+01  0.84821141382E+01  0.10566000000E+00 0.  1.
        -14    1    4    4    0    0  0.10729304018E+02  0.23994901564E+01 -0.28504773466E+01  0.11357849216E+02  0.00000000000E+00 0.  1.
<mgrwt>
<rscale>  0 0.77021298E+02</rscale>
<asrwt>0</asrwt>
<pdfrwt beam="1">  1        2 0.16048490E-02 0.77021298E+02</pdfrwt>
<pdfrwt beam="2">  1       -1 0.21872619E-01 0.77021298E+02</pdfrwt>
<totfact> 0.12031860E+05</totfact>
</mgrwt>
</event>
<event>
 8    1  0.1226832E-016  0.8211926E+02  0.7818608E-02  0.1323143E+00
         -1   -1    0    0    0  501 -0.00000000000E+00  0.00000000000E+00  0.14353833584E+01  0.14353922067E+01  0.50400000000E-02 0.  1.
          2   -1    0    0  501    0  0.00000000000E+00 -0.00000000000E+00 -0.11745210589E+04  0.11745210590E+04  0.25500000000E-02 0. -1.
         24    2    1    2    0    0  0.88817841970E-15 -0.35527136788E-14 -0.11730856756E+04  0.11759564512E+04  0.82119259283E+02 0.  0.
         66    2    3    3    0    0 -0.79376643651E+01  0.24711532541E+02 -0.10420398258E+04  0.10423649385E+04  0.20000003247E+01 0.  0.
        -13    1    3    3    0    0  0.79376643651E+01 -0.24711532541E+02 -0.13104584976E+03  0.13359151267E+03  0.10566000000E+00 0.  1.
         13    1    4    4    0    0 -0.25877356612E+01  0.62216368099E+01 -0.27314492065E+03  0.27322804392E+03  0.10566000000E+00 0. -1.
        -13    1    4    4    0    0 -0.29897663371E+00  0.24753563455E+01 -0.94108806125E+02  0.94141889350E+02  0.10566000000E+00 0.  1.
         14    1    4    4    0    0 -0.50509520702E+01  0.16014539385E+02 -0.67478609905E+03  0.67499500522E+03  0.00000000000E+00 0. -1.
<mgrwt>
<rscale>  0 0.82119259E+02</rscale>
<asrwt>0</asrwt>
<pdfrwt beam="1">  1        2 0.18069478E+00 0.82119259E+02</pdfrwt>
<pdfrwt beam="2">  1       -1 0.22082983E-03 0.82119259E+02</pdfrwt>
<totfact> 0.32805845E+05</totfact>
</mgrwt>
</event>
<event>
 8    1  0.1226832E-016  0.7905448E+02  0.7818608E-02  0.1331756E+00
         -1   -1    0    0    0  501 -0.00000000000E+00  0.00000000000E+00  0.11647778418E+02  0.11647779509E+02  0.50400000000E-02 0.  1.
          2   -1    0    0  501    0  0.00000000000E+00 -0.00000000000E+00 -0.13413740192E+03  0.13413740194E+03  0.25500000000E-02 0. -1.
         24    2    1    2    0    0  0.00000000000E+00  0.00000000000E+00 -0.12248962350E+03  0.14578518145E+03  0.79054482894E+02 0.  0.
         66    2    3    3    0    0 -0.68235478148E+01 -0.38111448131E+02 -0.75728663679E+02  0.85075694460E+02  0.20000004170E+01 0.  0.
        -13    1    3    3    0    0  0.68235478148E+01  0.38111448131E+02 -0.46760959823E+02  0.60709486994E+02  0.10566000000E+00 0.  1.
         13    1    4    4    0    0 -0.18190987414E+01 -0.78054473988E+01 -0.15178465009E+02  0.17164821391E+02  0.10566000000E+00 0. -1.
        -13    1    4    4    0    0 -0.20124111399E+01 -0.10569447200E+02 -0.19839443108E+02  0.22569396970E+02  0.10566000000E+00 0.  1.
        -14    1    4    4    0    0 -0.29920379335E+01 -0.19736553532E+02 -0.40710755562E+02  0.45341476098E+02  0.00000000000E+00 0.  1.
<mgrwt>
<rscale>  0 0.79054483E+02</rscale>
<asrwt>0</asrwt>
<pdfrwt beam="1">  1        2 0.20636522E-01 0.79054483E+02</pdfrwt>
<pdfrwt beam="2">  1       -1 0.17919661E-02 0.79054483E+02</pdfrwt>
<totfact> 0.19953925E+05</totfact>
</mgrwt>
</event>
<event>
 8    1  0.1226832E-016  0.8051978E+02  0.7818608E-02  0.1327583E+00
         -1   -1    0    0    0  501 -0.00000000000E+00  0.00000000000E+00  0.21559386804E+03  0.21559386810E+03  0.50400000000E-02 0.  1.
          2   -1    0    0  501    0  0.00000000000E+00 -0.00000000000E+00 -0.75181107202E+01  0.75181111526E+01  0.25500000000E-02 0. -1.
         24    2    1    2    0    0  0.35527136788E-14  0.00000000000E+00  0.20807575732E+03  0.22311197925E+03  0.80519777082E+02 0.  0.
         66    2    3    3    0    0 -0.29460078902E+02 -0.17177501195E+02  0.44938806956E+02  0.56448730350E+02  0.19999978325E+01 0.  0.
        -13    1    3    3    0    0  0.29460078902E+02  0.17177501195E+02  0.16313695037E+03  0.16666324890E+03  0.10566000000E+00 0.  1.
         13    1    4    4    0    0 -0.19716004442E+02 -0.11317243685E+02  0.28554339960E+02  0.36498799026E+02  0.10566000000E+00 0. -1.
        -13    1    4    4    0    0 -0.15737270366E+01 -0.11256472126E+01  0.28981885629E+01  0.34863102866E+01  0.10566000000E+00 0.  1.
         14    1    4    4    0    0 -0.81703474229E+01 -0.47346102980E+01  0.13486278433E+02  0.16463621037E+02  0.00000000000E+00 0. -1.
<mgrwt>
<rscale>  0 0.80519777E+02</rscale>
<asrwt>0</asrwt>
<pdfrwt beam="1">  1        2 0.11566326E-02 0.80519777E+02</pdfrwt>
<pdfrwt beam="2">  1       -1 0.33168284E-01 0.80519777E+02</pdfrwt>
<totfact> 0.95717871E+04</totfact>
</mgrwt>
</event>
<event>
 8    1  0.1226832E-016  0.8058885E+02  0.7818608E-02  0.1327389E+00
          2   -1    0    0  501    0  0.00000000000E+00  0.00000000000E+00  0.27297117800E+03  0.27297117801E+03  0.25500000000E-02 0. -1.
         -1   -1    0    0    0  501 -0.00000000000E+00 -0.00000000000E+00 -0.59480283576E+01  0.59480304929E+01  0.50400000000E-02 0.  1.
         24    2    1    2    0    0  0.00000000000E+00  0.00000000000E+00  0.26702314964E+03  0.27891920851E+03  0.80588848038E+02 0.  0.
         66    2    3    3    0    0 -0.36531639728E+02  0.16561039548E+02  0.14597941863E+03  0.15140283813E+03  0.19999995248E+01 0.  0.
        -13    1    3    3    0    0  0.36531639728E+02 -0.16561039548E+02  0.12104373102E+03  0.12751637038E+03  0.10566000000E+00 0.  1.
         13    1    4    4    0    0 -0.12642192778E+02  0.54857241401E+01  0.48720837275E+02  0.50632493089E+02  0.10566000000E+00 0. -1.
        -13    1    4    4    0    0 -0.18881019182E+02  0.88602628169E+01  0.79140995367E+02  0.81843175978E+02  0.10566000000E+00 0.  1.
        -14    1    4    4    0    0 -0.50084277681E+01  0.22150525909E+01  0.18117585985E+02  0.18927169060E+02  0.00000000000E+00 0.  1.
<mgrwt>
<rscale>  0 0.80588848E+02</rscale>
<asrwt>0</asrwt>
<pdfrwt beam="1">  1        2 0.41995576E-01 0.80588848E+02</pdfrwt>
<pdfrwt beam="2">  1       -1 0.91508123E-03 0.80588848E+02</pdfrwt>
<totfact> 0.24167300E+05</totfact>
</mgrwt>
</event>
<event>
 8    1  0.1226832E-016  0.7996684E+02  0.7818608E-02  0.1329146E+00
          2   -1    0    0  501    0  0.00000000000E+00  0.00000000000E+00  0.41867482250E+02  0.41867482328E+02  0.25500000000E-02 0. -1.
         -1   -1    0    0    0  501 -0.00000000000E+00 -0.00000000000E+00 -0.38184139895E+02  0.38184140228E+02  0.50400000000E-02 0.  1.
         24    2    1    2    0    0  0.71054273576E-14  0.00000000000E+00  0.36833423548E+01  0.80051622556E+02  0.79966838520E+02 0.  0.
         66    2    3    3    0    0 -0.36269479062E+02 -0.15173295476E+02  0.89893559174E+01  0.40379605327E+02  0.19999998723E+01 0.  0.
        -13    1    3    3    0    0  0.36269479062E+02  0.15173295476E+02 -0.53060135626E+01  0.39672017229E+02  0.10566000000E+00 0.  1.
         13    1    4    4    0    0 -0.27626341159E+02 -0.12435485105E+02  0.68129627055E+01  0.31052916779E+02  0.10566000000E+00 0. -1.
        -13    1    4    4    0    0 -0.22560269438E+01 -0.75601710885E+00  0.56227084835E+00  0.24471477239E+01  0.10566000000E+00 0. -1.
         14    1    4    4    0    0 -0.63871109589E+01 -0.19817932626E+01  0.16141223635E+01  0.68795408234E+01  0.00000000000E+00 0. -1.
<mgrwt>
<rscale>  0 0.79966839E+02</rscale>
<asrwt>0</asrwt>
<pdfrwt beam="1">  1        2 0.64411511E-02 0.79966839E+02</pdfrwt>
<pdfrwt beam="2">  1       -1 0.58744832E-02 0.79966839E+02</pdfrwt>
<totfact> 0.14406664E+05</totfact>
</mgrwt>
</event>
<event>
 8    1  0.1226832E-016  0.8020805E+02  0.7818608E-02  0.1328462E+00
          2   -1    0    0  501    0  0.00000000000E+00  0.00000000000E+00  0.38839374724E+03  0.38839374725E+03  0.25500000000E-02 0. -1.
         -1   -1    0    0    0  501 -0.00000000000E+00 -0.00000000000E+00 -0.41409841862E+01  0.41409872533E+01  0.50400000000E-02 0.  1.
         24    2    1    2    0    0  0.00000000000E+00  0.17763568394E-14  0.38425276305E+03  0.39253473450E+03  0.80208053684E+02 0.  0.
         66    2    3    3    0    0 -0.50270042966E+00  0.11739777713E+02  0.37977109927E+03  0.37995810686E+03  0.20000106394E+01 0.  0.
        -13    1    3    3    0    0  0.50270042966E+00 -0.11739777713E+02  0.44816637867E+01  0.12576627640E+02  0.10566000000E+00 0.  1.
         13    1    4    4    0    0 -0.18901138009E+00  0.50515793895E+01  0.16415187242E+03  0.16422972497E+03  0.10566000000E+00 0. -1.
        -13    1    4    4    0    0 -0.78377000349E+00  0.20105238179E+01  0.67516364697E+02  0.67550922773E+02  0.10566000000E+00 0.  1.
        -14    1    4    4    0    0  0.47008095391E+00  0.46776745055E+01  0.14810286215E+03  0.14817745912E+03  0.00000000000E+00 0.  1.
<mgrwt>
<rscale>  0 0.80208054E+02</rscale>
<asrwt>0</asrwt>
<pdfrwt beam="1">  1        2 0.59752893E-01 0.80208054E+02</pdfrwt>
<pdfrwt beam="2">  1       -1 0.63707464E-03 0.80208054E+02</pdfrwt>
<totfact> 0.27774040E+05</totfact>
</mgrwt>
</event>
<event>
 8    1  0.1226832E-016  0.7967124E+02  0.7818608E-02  0.1329987E+00
          2   -1    0    0  501    0  0.00000000000E+00  0.00000000000E+00  0.85750409777E+01  0.85750413569E+01  0.25500000000E-02 0. -1.
         -1   -1    0    0    0  501 -0.00000000000E+00 -0.00000000000E+00 -0.18505759622E+03  0.18505759629E+03  0.50400000000E-02 0.  1.
         24    2    1    2    0    0 -0.35527136788E-14 -0.35527136788E-14 -0.17648255524E+03  0.19363263764E+03  0.79671237323E+02 0.  0.
         66    2    3    3    0    0  0.28813256338E+02  0.22457799612E+02 -0.49844594713E+02  0.61830738132E+02  0.20000129213E+01 0.  0.
        -13    1    3    3    0    0 -0.28813256338E+02 -0.22457799612E+02 -0.12663796053E+03  0.13180189951E+03  0.10566000000E+00 0.  1.
         13    1    4    4    0    0  0.18661387020E+01  0.19477664690E+01 -0.41967523732E+01  0.49900062515E+01  0.10566000000E+00 0.  1.
        -13    1    4    4    0    0  0.15547796555E+02  0.11554951445E+02 -0.25828779161E+02  0.32286032236E+02  0.10566000000E+00 0. -1.
        -14    1    4    4    0    0  0.11399321081E+02  0.89550816986E+01 -0.19819063179E+02  0.24554699645E+02  0.00000000000E+00 0.  1.
<mgrwt>
<rscale>  0 0.79671237E+02</rscale>
<asrwt>0</asrwt>
<pdfrwt beam="1">  1        2 0.13192372E-02 0.79671237E+02</pdfrwt>
<pdfrwt beam="2">  1       -1 0.28470397E-01 0.79671237E+02</pdfrwt>
<totfact> 0.10298572E+05</totfact>
</mgrwt>
</event>
<event>
 8    1  0.1226832E-016  0.8000143E+02  0.7818608E-02  0.1329047E+00
          2   -1    0    0  501    0  0.00000000000E+00  0.00000000000E+00  0.43046060174E+03  0.43046060174E+03  0.25500000000E-02 0. -1.
         -1   -1    0    0    0  501 -0.00000000000E+00 -0.00000000000E+00 -0.37170797167E+01  0.37170831336E+01  0.50400000000E-02 0.  1.
         24    2    1    2    0    0  0.00000000000E+00 -0.71054273576E-14  0.42674352202E+03  0.43417768488E+03  0.80001427861E+02 0.  0.
         66    2    3    3    0    0 -0.53248262568E+01  0.39599947423E+02  0.20676429265E+03  0.21059910333E+03  0.19999990088E+01 0.  0.
        -13    1    3    3    0    0  0.53248262568E+01 -0.39599947423E+02  0.21997922937E+03  0.22357858155E+03  0.10566000000E+00 0.  1.
         13    1    4    4    0    0 -0.31320473228E+01  0.21529430343E+02  0.10957848659E+03  0.11171742021E+03  0.10566000000E+00 0. -1.
        -13    1    4    4    0    0 -0.76497886741E+00  0.39973598430E+01  0.19938494865E+02  0.20349909580E+02  0.10566000000E+00 0.  1.
        -14    1    4    4    0    0 -0.14278000666E+01  0.14073157236E+02  0.77247311201E+02  0.78531773541E+02  0.00000000000E+00 0.  1.
<mgrwt>
<rscale>  0 0.80001428E+02</rscale>
<asrwt>0</asrwt>
<pdfrwt beam="1">  1        2 0.66224687E-01 0.80001428E+02</pdfrwt>
<pdfrwt beam="2">  1       -1 0.57185886E-03 0.80001428E+02</pdfrwt>
<totfact> 0.28978226E+05</totfact>
</mgrwt>
</event>
<event>
 8    1  0.1226832E-016  0.7679549E+02  0.7818608E-02  0.1338399E+00
          2   -1    0    0  501    0  0.00000000000E+00  0.00000000000E+00  0.45706526782E+03  0.45706526782E+03  0.25500000000E-02 0. -1.
         -1   -1    0    0    0  501 -0.00000000000E+00 -0.00000000000E+00 -0.32257670247E+01  0.32257709620E+01  0.50400000000E-02 0.  1.
         24    2    1    2    0    0  0.00000000000E+00  0.00000000000E+00  0.45383950079E+03  0.46029103879E+03  0.76795494056E+02 0.  0.
         66    2    3    3    0    0  0.33904697808E+02  0.77639839303E+01  0.32419636908E+03  0.32606302106E+03  0.19999986103E+01 0.  0.
        -13    1    3    3    0    0 -0.33904697808E+02 -0.77639839303E+01  0.12964313171E+03  0.13422801773E+03  0.10566000000E+00 0.  1.
         13    1    4    4    0    0  0.28370025183E+02  0.66466649260E+01  0.27584276541E+03  0.27737750247E+03  0.10566000000E+00 0. -1.
        -13    1    4    4    0    0  0.42665631012E+01  0.72823599689E+00  0.38626976804E+02  0.38868861437E+02  0.10566000000E+00 0.  1.
        -14    1    4    4    0    0  0.12681095244E+01  0.38908300734E+00  0.97266268740E+01  0.98166571549E+01  0.00000000000E+00 0.  1.
<mgrwt>
<rscale>  0 0.76795494E+02</rscale>
<asrwt>0</asrwt>
<pdfrwt beam="1">  1        2 0.70317751E-01 0.76795494E+02</pdfrwt>
<pdfrwt beam="2">  1       -1 0.49627203E-03 0.76795494E+02</pdfrwt>
<totfact> 0.32892910E+05</totfact>
</mgrwt>
</event>
<event>
 8    1  0.1226832E-016  0.7954762E+02  0.7818608E-02  0.1330340E+00
          2   -1    0    0  501    0  0.00000000000E+00  0.00000000000E+00  0.53687876154E+03  0.53687876155E+03  0.25500000000E-02 0. -1.
         -1   -1    0    0    0  501 -0.00000000000E+00 -0.00000000000E+00 -0.29465773672E+01  0.29465816775E+01  0.50400000000E-02 0.  1.
         24    2    1    2    0    0  0.88817841970E-15  0.17763568394E-14  0.53393218417E+03  0.53982534322E+03  0.79547620272E+02 0.  0.
         66    2    3    3    0    0 -0.51553942330E+01 -0.15776518464E+02  0.51223468609E+03  0.51250741483E+03  0.19999998096E+01 0.  0.
        -13    1    3    3    0    0  0.51553942330E+01  0.15776518464E+02  0.21697498083E+02  0.27317928392E+02  0.10566000000E+00 0.  1.
         13    1    4    4    0    0 -0.13810003061E+01 -0.47259785643E+01  0.13055565630E+03  0.13064850780E+03  0.10566000000E+00 0. -1.
        -13    1    4    4    0    0 -0.23979724140E+01 -0.71752017449E+01  0.26209111480E+03  0.26220030018E+03  0.10566000000E+00 0.  1.
        -14    1    4    4    0    0 -0.13764215129E+01 -0.38753381545E+01  0.11958791499E+03  0.11965860685E+03  0.00000000000E+00 0.  1.
<mgrwt>
<rscale>  0 0.79547620E+02</rscale>
<asrwt>0</asrwt>
<pdfrwt beam="1">  1        2 0.82596740E-01 0.79547620E+02</pdfrwt>
<pdfrwt beam="2">  1       -1 0.45331989E-03 0.79547620E+02</pdfrwt>
<totfact> 0.31597740E+05</totfact>
</mgrwt>
</event>
<event>
 8    1  0.1226832E-016  0.7969148E+02  0.7818608E-02  0.1329929E+00
          2   -1    0    0  501    0  0.00000000000E+00  0.00000000000E+00  0.12891352540E+03  0.12891352542E+03  0.25500000000E-02 0. -1.
         -1   -1    0    0    0  501 -0.00000000000E+00 -0.00000000000E+00 -0.12315876710E+02  0.12315877741E+02  0.50400000000E-02 0.  1.
         24    2    1    2    0    0  0.00000000000E+00  0.00000000000E+00  0.11659764869E+03  0.14122940316E+03  0.79691484103E+02 0.  0.
         66    2    3    3    0    0 -0.12305434493E+02 -0.15219470031E+02  0.11979335601E+03  0.12139812243E+03  0.20000001444E+01 0.  0.
        -13    1    3    3    0    0  0.12305434493E+02  0.15219470031E+02 -0.31957073212E+01  0.19831280730E+02  0.10566000000E+00 0.  1.
         13    1    4    4    0    0 -0.69354523587E+01 -0.83466398404E+01  0.60841406205E+02  0.61801737590E+02  0.10566000000E+00 0. -1.
        -13    1    4    4    0    0 -0.35123961018E+01 -0.48581033098E+01  0.39575534298E+02  0.40027142955E+02  0.10566000000E+00 0.  1.
         14    1    4    4    0    0 -0.18575860325E+01 -0.20147268805E+01  0.19376415503E+02  0.19569241887E+02  0.00000000000E+00 0. -1.
<mgrwt>
<rscale>  0 0.79691484E+02</rscale>
<asrwt>0</asrwt>
<pdfrwt beam="1">  1        2 0.19832851E-01 0.79691484E+02</pdfrwt>
<pdfrwt beam="2">  1       -1 0.18947503E-02 0.79691484E+02</pdfrwt>
<totfact> 0.19294574E+05</totfact>
</mgrwt>
</event>
<event>
 8    1  0.1226832E-016  0.7967429E+02  0.7818608E-02  0.1329978E+00
         -1   -1    0    0    0  501 -0.00000000000E+00  0.00000000000E+00  0.71543915351E+01  0.71543933103E+01  0.50400000000E-02 0.  1.
          2   -1    0    0  501    0  0.00000000000E+00 -0.00000000000E+00 -0.22182152422E+03  0.22182152423E+03  0.25500000000E-02 0. -1.
         24    2    1    2    0    0  0.00000000000E+00  0.17763568394E-14 -0.21466713268E+03  0.22897591754E+03  0.79674292970E+02 0.  0.
         66    2    3    3    0    0  0.18959145823E+02 -0.13359557392E+02 -0.20039581409E+03  0.20174342440E+03  0.20000004850E+01 0.  0.
        -13    1    3    3    0    0 -0.18959145823E+02  0.13359557392E+02 -0.14271318593E+02  0.27232493137E+02  0.10566000000E+00 0.  1.
         13    1    4    4    0    0  0.26516490778E+01 -0.24525348268E+01 -0.27456418442E+02  0.27693180525E+02  0.10566000000E+00 0. -1.
        -13    1    4    4    0    0  0.12258154737E+01 -0.10080977569E+01 -0.14743976152E+02  0.14829527352E+02  0.10566000000E+00 0.  1.
         14    1    4    4    0    0  0.15081681272E+02 -0.98989248087E+01 -0.15819541950E+03  0.15922071653E+03  0.00000000000E+00 0. -1.
<mgrwt>
<rscale>  0 0.79674293E+02</rscale>
<asrwt>0</asrwt>
<pdfrwt beam="1">  1        2 0.34126383E-01 0.79674293E+02</pdfrwt>
<pdfrwt beam="2">  1       -1 0.11006759E-02 0.79674293E+02</pdfrwt>
<totfact> 0.23120790E+05</totfact>
</mgrwt>
</event>
<event>
 8    1  0.1226832E-016  0.7847005E+02  0.7818608E-02  0.1333450E+00
          2   -1    0    0  501    0  0.00000000000E+00  0.00000000000E+00  0.14483054854E+03  0.14483054856E+03  0.25500000000E-02 0. -1.
         -1   -1    0    0    0  501 -0.00000000000E+00 -0.00000000000E+00 -0.10628883158E+02  0.10628884353E+02  0.50400000000E-02 0.  1.
         24    2    1    2    0    0  0.00000000000E+00  0.00000000000E+00  0.13420166538E+03  0.15545943292E+03  0.78470047095E+02 0.  0.
         66    2    3    3    0    0  0.11250156772E+02 -0.34409351119E+02  0.96980728618E+02  0.10353661742E+03  0.19999876810E+01 0.  0.
        -13    1    3    3    0    0 -0.11250156772E+02  0.34409351119E+02  0.37220936765E+02  0.51922815500E+02  0.10566000000E+00 0.  1.
         13    1    4    4    0    0  0.36813181393E+01 -0.10126369903E+02  0.30963744442E+02  0.32785059167E+02  0.10566000000E+00 0.  1.
        -13    1    4    4    0    0  0.41851095904E+00 -0.13324667462E+01  0.32573217255E+01  0.35456914575E+01  0.10566000000E+00 0. -1.
         14    1    4    4    0    0  0.71503276737E+01 -0.22950514470E+02  0.62759662451E+02  0.67205866792E+02  0.00000000000E+00 0. -1.
<mgrwt>
<rscale>  0 0.78470047E+02</rscale>
<asrwt>0</asrwt>
<pdfrwt beam="1">  1        2 0.22281622E-01 0.78470047E+02</pdfrwt>
<pdfrwt beam="2">  1       -1 0.16352130E-02 0.78470047E+02</pdfrwt>
<totfact> 0.20847025E+05</totfact>
</mgrwt>
</event>
<event>
 8    1  0.1226832E-016  0.8260965E+02  0.7818608E-02  0.1321805E+00
         -1   -1    0    0    0  501 -0.00000000000E+00  0.00000000000E+00  0.22646956847E+02  0.22646957408E+02  0.50400000000E-02 0.  1.
          2   -1    0    0  501    0  0.00000000000E+00 -0.00000000000E+00 -0.75334116909E+02  0.75334116952E+02  0.25500000000E-02 0. -1.
         24    2    1    2    0    0  0.00000000000E+00 -0.88817841970E-15 -0.52687160062E+02  0.97981074361E+02  0.82609648937E+02 0.  0.
         66    2    3    3    0    0 -0.13717853118E+02  0.65846160805E+01 -0.71873080315E+02  0.73493376161E+02  0.20000006204E+01 0.  0.
        -13    1    3    3    0    0  0.13717853118E+02 -0.65846160805E+01  0.19185920253E+02  0.24487698199E+02  0.10566000000E+00 0.  1.
         13    1    4    4    0    0 -0.61663973270E+01  0.25500812934E+01 -0.33263538829E+02  0.33926413752E+02  0.10566000000E+00 0. -1.
        -13    1    4    4    0    0 -0.52288556439E+00  0.42541776449E+00 -0.46892524891E+01  0.47386329811E+01  0.10566000000E+00 0.  1.
        -14    1    4    4    0    0 -0.70285702270E+01  0.36091170227E+01 -0.33920288997E+02  0.34828329428E+02  0.00000000000E+00 0.  1.
<mgrwt>
<rscale>  0 0.82609649E+02</rscale>
<asrwt>0</asrwt>
<pdfrwt beam="1">  1        2 0.11589864E-01 0.82609649E+02</pdfrwt>
<pdfrwt beam="2">  1       -1 0.34841473E-02 0.82609649E+02</pdfrwt>
<totfact> 0.15074681E+05</totfact>
</mgrwt>
</event>
<event>
 8    1  0.1226832E-016  0.7918085E+02  0.7818608E-02  0.1331392E+00
         -1   -1    0    0    0  501 -0.00000000000E+00  0.00000000000E+00  0.49058023307E+02  0.49058023566E+02  0.50400000000E-02 0.  1.
          2   -1    0    0  501    0  0.00000000000E+00 -0.00000000000E+00 -0.31949953990E+02  0.31949954092E+02  0.25500000000E-02 0. -1.
         24    2    1    2    0    0  0.22204460493E-15  0.71054273576E-14  0.17108069317E+02  0.81007977658E+02  0.79180846222E+02 0.  0.
         66    2    3    3    0    0 -0.19071971562E+01 -0.38650775759E+02  0.16988326138E+02  0.42309846305E+02  0.20000004104E+01 0.  0.
        -13    1    3    3    0    0  0.19071971562E+01  0.38650775759E+02  0.11974317878E+00  0.38698131353E+02  0.10566000000E+00 0.  1.
         13    1    4    4    0    0 -0.35513866450E+00 -0.63997966872E+01  0.30386655068E+01  0.70942352094E+01  0.10566000000E+00 0. -1.
        -13    1    4    4    0    0 -0.38702047437E+00 -0.10300676065E+02  0.53286202982E+01  0.11604269497E+02  0.10566000000E+00 0.  1.
        -14    1    4    4    0    0 -0.11650380173E+01 -0.21950303006E+02  0.86210403334E+01  0.23611341599E+02  0.00000000000E+00 0.  1.
<mgrwt>
<rscale>  0 0.79180846E+02</rscale>
<asrwt>0</asrwt>
<pdfrwt beam="1">  1        2 0.49153776E-02 0.79180846E+02</pdfrwt>
<pdfrwt beam="2">  1       -1 0.75473882E-02 0.79180846E+02</pdfrwt>
<totfact> 0.14021031E+05</totfact>
</mgrwt>
</event>
<event>
 8    1  0.1226832E-016  0.8139126E+02  0.7818608E-02  0.1325149E+00
         -1   -1    0    0    0  501 -0.00000000000E+00  0.00000000000E+00  0.31383004150E+02  0.31383004555E+02  0.50400000000E-02 0.  1.
          2   -1    0    0  501    0  0.00000000000E+00 -0.00000000000E+00 -0.52771694777E+02  0.52771694839E+02  0.25500000000E-02 0. -1.
         24    2    1    2    0    0  0.00000000000E+00  0.00000000000E+00 -0.21388690627E+02  0.84154699394E+02  0.81391260853E+02 0.  0.
         66    2    3    3    0    0 -0.32383070264E+01  0.21779176435E+02 -0.46056975175E+02  0.51088786656E+02  0.20000002846E+01 0.  0.
        -13    1    3    3    0    0  0.32383070264E+01 -0.21779176435E+02  0.24668284548E+02  0.33065912737E+02  0.10566000000E+00 0.  1.
         13    1    4    4    0    0 -0.76438644337E+00  0.45643005574E+01 -0.11457066275E+02  0.12356887063E+02  0.10566000000E+00 0. -1.
        -13    1    4    4    0    0 -0.14053594210E+01  0.11705657041E+02 -0.23872214129E+02  0.26625011048E+02  0.10566000000E+00 0.  1.
        -14    1    4    4    0    0 -0.10685611620E+01  0.55092188370E+01 -0.10727694771E+02  0.12106888546E+02  0.00000000000E+00 0.  1.
<mgrwt>
<rscale>  0 0.81391261E+02</rscale>
<asrwt>0</asrwt>
<pdfrwt beam="1">  1        2 0.81187223E-02 0.81391261E+02</pdfrwt>
<pdfrwt beam="2">  1       -1 0.48281546E-02 0.81391261E+02</pdfrwt>
<totfact> 0.14424010E+05</totfact>
</mgrwt>
</event>
<event>
 8    1  0.1226832E-016  0.7003761E+02  0.7818608E-02  0.1359965E+00
          2   -1    0    0  501    0  0.00000000000E+00  0.00000000000E+00  0.41773514503E+03  0.41773514504E+03  0.25500000000E-02 0. -1.
         -1   -1    0    0    0  501 -0.00000000000E+00 -0.00000000000E+00 -0.29356297803E+01  0.29356341068E+01  0.50400000000E-02 0.  1.
         24    2    1    2    0    0  0.17763568394E-14  0.00000000000E+00  0.41479951525E+03  0.42067077915E+03  0.70037608288E+02 0.  0.
         66    2    3    3    0    0 -0.10726801456E+02 -0.11828298586E+02  0.39457153823E+03  0.39489957166E+03  0.19999994409E+01 0.  0.
        -13    1    3    3    0    0  0.10726801456E+02  0.11828298586E+02  0.20227977017E+02  0.25771207484E+02  0.10566000000E+00 0.  1.
         13    1    4    4    0    0 -0.11996616931E+01 -0.13738197011E+01  0.52698806079E+02  0.52730464581E+02  0.10566000000E+00 0. -1.
        -13    1    4    4    0    0 -0.61899038633E+00 -0.43438537493E+00  0.27515787933E+02  0.27526379881E+02  0.10566000000E+00 0.  1.
         14    1    4    4    0    0 -0.89081493767E+01 -0.10020093510E+02  0.31435694422E+03  0.31464272720E+03  0.00000000000E+00 0. -1.
<mgrwt>
<rscale>  0 0.70037608E+02</rscale>
<asrwt>0</asrwt>
<pdfrwt beam="1">  1        2 0.64266898E-01 0.70037608E+02</pdfrwt>
<pdfrwt beam="2">  1       -1 0.45163602E-03 0.70037608E+02</pdfrwt>
<totfact> 0.40490007E+05</totfact>
</mgrwt>
</event>
<event>
 8    1  0.1226832E-016  0.7918781E+02  0.7818608E-02  0.1331372E+00
         -1   -1    0    0    0  501 -0.00000000000E+00  0.00000000000E+00  0.35532272124E+01  0.35532307868E+01  0.50400000000E-02 0.  1.
          2   -1    0    0  501    0  0.00000000000E+00 -0.00000000000E+00 -0.44119795285E+03  0.44119795286E+03  0.25500000000E-02 0. -1.
         24    2    1    2    0    0 -0.17763568394E-14  0.00000000000E+00 -0.43764472564E+03  0.44475118364E+03  0.79187811401E+02 0.  0.
         66    2    3    3    0    0  0.66953408082E+01  0.38189687640E+02 -0.26332500371E+03  0.26617163149E+03  0.20000001564E+01 0.  0.
        -13    1    3    3    0    0 -0.66953408082E+01 -0.38189687640E+02 -0.17431972193E+03  0.17857955216E+03  0.10566000000E+00 0.  1.
         13    1    4    4    0    0  0.49832698911E+01  0.27127328578E+02 -0.18627485868E+03  0.18830575954E+03  0.10566000000E+00 0. -1.
        -13    1    4    4    0    0  0.10371914767E+01  0.83157944174E+01 -0.60061965832E+02  0.60643871138E+02  0.10566000000E+00 0.  1.
         14    1    4    4    0    0  0.67487944037E+00  0.27465646452E+01 -0.16988179192E+02  0.17222000809E+02  0.00000000000E+00 0. -1.
<mgrwt>
<rscale>  0 0.79187811E+02</rscale>
<asrwt>0</asrwt>
<pdfrwt beam="1">  1        2 0.67876565E-01 0.79187811E+02</pdfrwt>
<pdfrwt beam="2">  1       -1 0.54665097E-03 0.79187811E+02</pdfrwt>
<totfact> 0.30011493E+05</totfact>
</mgrwt>
</event>
<event>
 8    1  0.1226832E-016  0.7531737E+02  0.7818608E-02  0.1342891E+00
         -1   -1    0    0    0  501 -0.00000000000E+00  0.00000000000E+00  0.15427476900E+01  0.15427559225E+01  0.50400000000E-02 0.  1.
          2   -1    0    0  501    0  0.00000000000E+00 -0.00000000000E+00 -0.91925115089E+03  0.91925115089E+03  0.25500000000E-02 0. -1.
         24    2    1    2    0    0 -0.35527136788E-14  0.11102230246E-15 -0.91770840320E+03  0.92079390681E+03  0.75317365366E+02 0.  0.
         66    2    3    3    0    0  0.25034505790E+02 -0.65393563677E+00 -0.80258500590E+03  0.80297811041E+03  0.19999990717E+01 0.  0.
        -13    1    3    3    0    0 -0.25034505790E+02  0.65393563677E+00 -0.11512339730E+03  0.11781579640E+03  0.10566000000E+00 0.  1.
         13    1    4    4    0    0  0.16424326847E+02  0.32284745881E+00 -0.52149605190E+03  0.52175473745E+03  0.10566000000E+00 0. -1.
        -13    1    4    4    0    0  0.63728474304E+01 -0.10210672191E+01 -0.21077462822E+03  0.21087344742E+03  0.10566000000E+00 0.  1.
        -14    1    4    4    0    0  0.22373315117E+01  0.44284123522E-01 -0.70314325783E+02  0.70349925541E+02  0.00000000000E+00 0.  1.
<mgrwt>
<rscale>  0 0.75317365E+02</rscale>
<asrwt>0</asrwt>
<pdfrwt beam="1">  1        2 0.14142282E+00 0.75317365E+02</pdfrwt>
<pdfrwt beam="2">  1       -1 0.23734717E-03 0.75317365E+02</pdfrwt>
<totfact> 0.40941352E+05</totfact>
</mgrwt>
</event>
<event>
 8    1  0.1226832E-016  0.8160607E+02  0.7818608E-02  0.1324554E+00
          2   -1    0    0  501    0  0.00000000000E+00  0.00000000000E+00  0.67551268943E+03  0.67551268943E+03  0.25500000000E-02 0. -1.
         -1   -1    0    0    0  501 -0.00000000000E+00 -0.00000000000E+00 -0.24646257387E+01  0.24646308920E+01  0.50400000000E-02 0.  1.
         24    2    1    2    0    0  0.00000000000E+00  0.00000000000E+00  0.67304806369E+03  0.67797732033E+03  0.81606071091E+02 0.  0.
         66    2    3    3    0    0  0.36336074617E+02  0.13498428622E+02  0.44193323338E+03  0.44363442231E+03  0.20000012405E+01 0.  0.
        -13    1    3    3    0    0 -0.36336074617E+02 -0.13498428622E+02  0.23111483031E+03  0.23434289801E+03  0.10566000000E+00 0.  1.
         13    1    4    4    0    0  0.53642459611E+01  0.14763730834E+01  0.58805432364E+02  0.59068137364E+02  0.10566000000E+00 0. -1.
        -13    1    4    4    0    0  0.20801465402E+02  0.80665495189E+01  0.26115579230E+03  0.26210709491E+03  0.10566000000E+00 0.  1.
         14    1    4    4    0    0  0.10170363253E+02  0.39555060200E+01  0.12197200871E+03  0.12245919004E+03  0.00000000000E+00 0. -1.
<mgrwt>
<rscale>  0 0.81606071E+02</rscale>
<asrwt>0</asrwt>
<pdfrwt beam="1">  1        2 0.10392506E+00 0.81606071E+02</pdfrwt>
<pdfrwt beam="2">  1       -1 0.37917347E-03 0.81606071E+02</pdfrwt>
<totfact> 0.31500160E+05</totfact>
</mgrwt>
</event>
<event>
 8    1  0.1226832E-016  0.8076786E+02  0.7818608E-02  0.1326886E+00
         -1   -1    0    0    0  501 -0.00000000000E+00  0.00000000000E+00  0.17558758680E+02  0.17558759403E+02  0.50400000000E-02 0.  1.
          2   -1    0    0  501    0  0.00000000000E+00 -0.00000000000E+00 -0.92880244681E+02  0.92880244716E+02  0.25500000000E-02 0. -1.
         24    2    1    2    0    0  0.35527136788E-14  0.00000000000E+00 -0.75321486001E+02  0.11043900412E+03  0.80767861043E+02 0.  0.
         66    2    3    3    0    0  0.30704670827E+02 -0.26033468412E+02 -0.41632251434E+02  0.57946204824E+02  0.20000014500E+01 0.  0.
        -13    1    3    3    0    0 -0.30704670827E+02  0.26033468412E+02 -0.33689234567E+02  0.52492799296E+02  0.10566000000E+00 0.  1.
         13    1    4    4    0    0  0.18913352780E+02 -0.16937994638E+02 -0.25705344810E+02  0.36130132737E+02  0.10566000000E+00 0. -1.
        -13    1    4    4    0    0  0.54245337274E+01 -0.45604278501E+01 -0.78403282745E+01  0.10569057660E+02  0.10566000000E+00 0.  1.
         14    1    4    4    0    0  0.63667843203E+01 -0.45350459242E+01 -0.80865783494E+01  0.11247014427E+02  0.00000000000E+00 0. -1.
<mgrwt>
<rscale>  0 0.80767861E+02</rscale>
<asrwt>0</asrwt>
<pdfrwt beam="1">  1        2 0.14289268E-01 0.80767861E+02</pdfrwt>
<pdfrwt beam="2">  1       -1 0.27013476E-02 0.80767861E+02</pdfrwt>
<totfact> 0.16928213E+05</totfact>
</mgrwt>
</event>
<event>
 8    1  0.1226832E-016  0.8184604E+02  0.7818608E-02  0.1323893E+00
         -1   -1    0    0    0  501 -0.00000000000E+00  0.00000000000E+00  0.95163751039E+02  0.95163751173E+02  0.50400000000E-02 0.  1.
          2   -1    0    0  501    0  0.00000000000E+00 -0.00000000000E+00 -0.17598020136E+02  0.17598020321E+02  0.25500000000E-02 0. -1.
         24    2    1    2    0    0  0.22204460493E-15  0.00000000000E+00  0.77565730904E+02  0.11276177149E+03  0.81846041442E+02 0.  0.
         66    2    3    3    0    0  0.19833008164E+01  0.34918158416E+02  0.95968625229E+01  0.36322321585E+02  0.20000014453E+01 0.  0.
        -13    1    3    3    0    0 -0.19833008164E+01 -0.34918158416E+02  0.67968868381E+02  0.76439449908E+02  0.10566000000E+00 0.  1.
         13    1    4    4    0    0  0.21426237267E+01  0.29534120539E+02  0.81529679305E+01  0.30713794336E+02  0.10566000000E+00 0. -1.
        -13    1    4    4    0    0  0.11103780803E+00  0.29417225579E+01  0.56884552666E+00  0.30001350422E+01  0.10566000000E+00 0.  1.
         14    1    4    4    0    0 -0.27036071829E+00  0.24423153191E+01  0.87504906576E+00  0.26083922066E+01  0.00000000000E+00 0. -1.
<mgrwt>
<rscale>  0 0.81846041E+02</rscale>
<asrwt>0</asrwt>
<pdfrwt beam="1">  1        2 0.27073877E-02 0.81846041E+02</pdfrwt>
<pdfrwt beam="2">  1       -1 0.14640577E-01 0.81846041E+02</pdfrwt>
<totfact> 0.11317914E+05</totfact>
</mgrwt>
</event>
<event>
 8    1  0.1226832E-016  0.7949797E+02  0.7818608E-02  0.1330482E+00
          2   -1    0    0  501    0  0.00000000000E+00  0.00000000000E+00  0.20818465580E+02  0.20818465736E+02  0.25500000000E-02 0. -1.
         -1   -1    0    0    0  501 -0.00000000000E+00 -0.00000000000E+00 -0.75893280461E+02  0.75893280628E+02  0.50400000000E-02 0.  1.
         24    2    1    2    0    0  0.71054273576E-14  0.22204460493E-15 -0.55074814881E+02  0.96711746365E+02  0.79497966331E+02 0.  0.
         66    2    3    3    0    0  0.29398325726E+02  0.10404782360E+01  0.49207262063E+01  0.29892435796E+02  0.20000052411E+01 0.  0.
        -13    1    3    3    0    0 -0.29398325726E+02 -0.10404782360E+01 -0.59995541087E+02  0.66819310569E+02  0.10566000000E+00 0.  1.
         13    1    4    4    0    0  0.11496376253E+02 -0.34400359244E+00  0.13698503507E+01  0.11583292254E+02  0.10566000000E+00 0. -1.
        -13    1    4    4    0    0  0.15235163150E+02  0.13366428205E+01  0.30578416600E+01  0.15596742284E+02  0.10566000000E+00 0.  1.
         14    1    4    4    0    0  0.26667863238E+01  0.47839007889E-01  0.49303419548E+00  0.27124012582E+01  0.00000000000E+00 0. -1.
<mgrwt>
<rscale>  0 0.79497966E+02</rscale>
<asrwt>0</asrwt>
<pdfrwt beam="1">  1        2 0.32028409E-02 0.79497966E+02</pdfrwt>
<pdfrwt beam="2">  1       -1 0.11675889E-01 0.79497966E+02</pdfrwt>
<totfact> 0.12744136E+05</totfact>
</mgrwt>
</event>
<event>
 8    1  0.1226832E-016  0.8130806E+02  0.7818608E-02  0.1325380E+00
          2   -1    0    0  501    0  0.00000000000E+00  0.00000000000E+00  0.78395625967E+03  0.78395625967E+03  0.25500000000E-02 0. -1.
         -1   -1    0    0    0  501 -0.00000000000E+00 -0.00000000000E+00 -0.21082142936E+01  0.21082203181E+01  0.50400000000E-02 0.  1.
         24    2    1    2    0    0  0.00000000000E+00  0.00000000000E+00  0.78184804537E+03  0.78606447999E+03  0.81308060158E+02 0.  0.
         66    2    3    3    0    0  0.11097349677E+02  0.27627899824E+02  0.65843256624E+03  0.65910841014E+03  0.20000023844E+01 0.  0.
        -13    1    3    3    0    0 -0.11097349677E+02 -0.27627899824E+02  0.12341547914E+03  0.12695606985E+03  0.10566000000E+00 0.  1.
         13    1    4    4    0    0  0.15872143594E+01  0.45222858981E+01  0.10220391671E+03  0.10231628450E+03  0.10566000000E+00 0. -1.
        -13    1    4    4    0    0  0.65078700000E+01  0.17485728595E+02  0.42253544858E+03  0.42294718293E+03  0.10566000000E+00 0.  1.
        -14    1    4    4    0    0  0.30022653177E+01  0.56198853313E+01  0.13369320095E+03  0.13384494271E+03  0.00000000000E+00 0.  1.
<mgrwt>
<rscale>  0 0.81308060E+02</rscale>
<asrwt>0</asrwt>
<pdfrwt beam="1">  1        2 0.12060863E+00 0.81308060E+02</pdfrwt>
<pdfrwt beam="2">  1       -1 0.32434120E-03 0.81308060E+02</pdfrwt>
<totfact> 0.32828520E+05</totfact>
</mgrwt>
</event>
<event>
 8    1  0.1226832E-016  0.8052030E+02  0.7818608E-02  0.1327581E+00
         -1   -1    0    0    0  501 -0.00000000000E+00  0.00000000000E+00  0.59753771161E+01  0.59753792417E+01  0.50400000000E-02 0.  1.
          2   -1    0    0  501    0  0.00000000000E+00 -0.00000000000E+00 -0.27125978721E+03  0.27125978722E+03  0.25500000000E-02 0. -1.
         24    2    1    2    0    0 -0.44408920985E-15  0.35527136788E-14 -0.26528441009E+03  0.27723516646E+03  0.80520303559E+02 0.  0.
         66    2    3    3    0    0 -0.36432862209E+01  0.29443533351E+02 -0.22630121268E+03  0.22824643271E+03  0.19999976355E+01 0.  0.
        -13    1    3    3    0    0  0.36432862209E+01 -0.29443533351E+02 -0.38983197407E+02  0.48988733753E+02  0.10566000000E+00 0.  1.
         13    1    4    4    0    0 -0.54776225649E+00  0.91725590605E+01 -0.72115555776E+02  0.72698696220E+02  0.10566000000E+00 0.  1.
        -13    1    4    4    0    0 -0.29584537047E+01  0.16314787318E+02 -0.12450302240E+03  0.12560230286E+03  0.10566000000E+00 0. -1.
         14    1    4    4    0    0 -0.13707025969E+00  0.39561869728E+01 -0.29682634513E+02  0.29945433630E+02  0.00000000000E+00 0. -1.
<mgrwt>
<rscale>  0 0.80520304E+02</rscale>
<asrwt>0</asrwt>
<pdfrwt beam="1">  1        2 0.41732266E-01 0.80520304E+02</pdfrwt>
<pdfrwt beam="2">  1       -1 0.91928916E-03 0.80520304E+02</pdfrwt>
<totfact> 0.24166257E+05</totfact>
</mgrwt>
</event>
<event>
 8    1  0.1226832E-016  0.7786658E+02  0.7818608E-02  0.1335217E+00
         -1   -1    0    0    0  501 -0.00000000000E+00  0.00000000000E+00  0.79311794700E+00  0.79313396060E+00  0.50400000000E-02 0.  1.
          2   -1    0    0  501    0  0.00000000000E+00 -0.00000000000E+00 -0.19111729855E+04  0.19111729855E+04  0.25500000000E-02 0. -1.
         24    2    1    2    0    0  0.00000000000E+00  0.00000000000E+00 -0.19103798676E+04  0.19119661195E+04  0.77866575756E+02 0.  0.
         66    2    3    3    0    0 -0.65152282286E+01 -0.14375298006E+02 -0.18290362354E+04  0.18291054228E+04  0.20000024037E+01 0.  0.
        -13    1    3    3    0    0  0.65152282286E+01  0.14375298006E+02 -0.81343632244E+02  0.82860696729E+02  0.10566000000E+00 0.  1.
         13    1    4    4    0    0 -0.47667680592E+01 -0.99766179506E+01 -0.13577022057E+04  0.13577472318E+04  0.10566000000E+00 0. -1.
        -13    1    4    4    0    0 -0.39280753674E+00 -0.60564253981E+00 -0.86750296458E+02  0.86753364201E+02  0.10566000000E+00 0.  1.
         14    1    4    4    0    0 -0.13556526327E+01 -0.37930375156E+01 -0.38458373317E+03  0.38460482673E+03  0.00000000000E+00 0. -1.
<mgrwt>
<rscale>  0 0.77866576E+02</rscale>
<asrwt>0</asrwt>
<pdfrwt beam="1">  1        2 0.29402293E+00 0.77866576E+02</pdfrwt>
<pdfrwt beam="2">  1       -1 0.12202091E-03 0.77866576E+02</pdfrwt>
<totfact> 0.30989535E+05</totfact>
</mgrwt>
</event>
<event>
 8    1  0.1226832E-016  0.7884654E+02  0.7818608E-02  0.1332357E+00
         -1   -1    0    0    0  501 -0.00000000000E+00  0.00000000000E+00  0.15086829127E+03  0.15086829135E+03  0.50400000000E-02 0.  1.
          2   -1    0    0  501    0  0.00000000000E+00 -0.00000000000E+00 -0.10301661557E+02  0.10301661872E+02  0.25500000000E-02 0. -1.
         24    2    1    2    0    0  0.00000000000E+00 -0.17763568394E-14  0.14056662971E+03  0.16116995323E+03  0.78846537237E+02 0.  0.
         66    2    3    3    0    0 -0.24101389864E+02  0.12862863330E+02  0.12301297298E+02  0.30027523365E+02  0.19999994436E+01 0.  0.
        -13    1    3    3    0    0  0.24101389864E+02 -0.12862863330E+02  0.12826533242E+03  0.13114242986E+03  0.10566000000E+00 0.  1.
         13    1    4    4    0    0 -0.55188613442E+01  0.29402108888E+01  0.32881980778E+01  0.70658390331E+01  0.10566000000E+00 0. -1.
        -13    1    4    4    0    0 -0.13102032190E+01  0.11001067550E+01  0.92456297478E+00  0.19475235756E+01  0.10566000000E+00 0.  1.
        -14    1    4    4    0    0 -0.17272325301E+02  0.88225456864E+01  0.80885362450E+01  0.21014160756E+02  0.00000000000E+00 0.  1.
<mgrwt>
<rscale>  0 0.78846537E+02</rscale>
<asrwt>0</asrwt>
<pdfrwt beam="1">  1        2 0.15848711E-02 0.78846537E+02</pdfrwt>
<pdfrwt beam="2">  1       -1 0.23210505E-01 0.78846537E+02</pdfrwt>
<totfact> 0.11174105E+05</totfact>
</mgrwt>
</event>
<event>
 8    1  0.1226832E-016  0.7947656E+02  0.7818608E-02  0.1330543E+00
          2   -1    0    0  501    0  0.00000000000E+00  0.00000000000E+00  0.36993187442E+03  0.36993187443E+03  0.25500000000E-02 0. -1.
         -1   -1    0    0    0  501 -0.00000000000E+00 -0.00000000000E+00 -0.42687054360E+01  0.42687084113E+01  0.50400000000E-02 0.  1.
         24    2    1    2    0    0  0.71054273576E-14  0.88817841970E-15  0.36566316899E+03  0.37420058284E+03  0.79476556584E+02 0.  0.
         66    2    3    3    0    0 -0.34377536182E+02 -0.76242423378E+01  0.26940349997E+03  0.27170239209E+03  0.20000009547E+01 0.  0.
        -13    1    3    3    0    0  0.34377536182E+02  0.76242423378E+01  0.96259669014E+02  0.10249819075E+03  0.10566000000E+00 0.  1.
         13    1    4    4    0    0 -0.23920259512E+02 -0.56536984456E+01  0.18408945243E+03  0.18572312937E+03  0.10566000000E+00 0. -1.
        -13    1    4    4    0    0 -0.48284565266E+01 -0.70474353570E+00  0.36216698759E+02  0.36544097867E+02  0.10566000000E+00 0.  1.
        -14    1    4    4    0    0 -0.56288201435E+01 -0.12658003566E+01  0.49097348786E+02  0.49435164858E+02  0.00000000000E+00 0.  1.
<mgrwt>
<rscale>  0 0.79476557E+02</rscale>
<asrwt>0</asrwt>
<pdfrwt beam="1">  1        2 0.56912588E-01 0.79476557E+02</pdfrwt>
<pdfrwt beam="2">  1       -1 0.65672424E-03 0.79476557E+02</pdfrwt>
<totfact> 0.27961095E+05</totfact>
</mgrwt>
</event>
<event>
 8    1  0.1226832E-016  0.8083175E+02  0.7818608E-02  0.1326707E+00
         -1   -1    0    0    0  501 -0.00000000000E+00  0.00000000000E+00  0.41731767117E+02  0.41731767421E+02  0.50400000000E-02 0.  1.
          2   -1    0    0  501    0  0.00000000000E+00 -0.00000000000E+00 -0.39141474232E+02  0.39141474315E+02  0.25500000000E-02 0. -1.
         24    2    1    2    0    0  0.00000000000E+00  0.00000000000E+00  0.25902928850E+01  0.80873241735E+02  0.80831748785E+02 0.  0.
         66    2    3    3    0    0 -0.23256145772E+02  0.21991673930E+02 -0.23353184253E+02  0.39671819327E+02  0.19999988876E+01 0.  0.
        -13    1    3    3    0    0  0.23256145772E+02 -0.21991673930E+02  0.25943477138E+02  0.41201422408E+02  0.10566000000E+00 0.  1.
         13    1    4    4    0    0 -0.56171636387E+01  0.49423201484E+01 -0.52722429543E+01  0.91535111076E+01  0.10566000000E+00 0.  1.
        -13    1    4    4    0    0 -0.15945491828E+02  0.15005206325E+02 -0.15597688181E+02  0.26883339955E+02  0.10566000000E+00 0. -1.
         14    1    4    4    0    0 -0.16934903053E+01  0.20441474563E+01 -0.24832531179E+01  0.36349682646E+01  0.00000000000E+00 0. -1.
<mgrwt>
<rscale>  0 0.80831749E+02</rscale>
<asrwt>0</asrwt>
<pdfrwt beam="1">  1        2 0.60217653E-02 0.80831749E+02</pdfrwt>
<pdfrwt beam="2">  1       -1 0.64202719E-02 0.80831749E+02</pdfrwt>
<totfact> 0.13791167E+05</totfact>
</mgrwt>
</event>
<event>
 8    1  0.1226832E-016  0.7950098E+02  0.7818608E-02  0.1330474E+00
          2   -1    0    0  501    0  0.00000000000E+00  0.00000000000E+00  0.18737497966E+03  0.18737497968E+03  0.25500000000E-02 0. -1.
         -1   -1    0    0    0  501 -0.00000000000E+00 -0.00000000000E+00 -0.84328293834E+01  0.84328308895E+01  0.50400000000E-02 0.  1.
         24    2    1    2    0    0  0.35527136788E-14  0.00000000000E+00  0.17894215028E+03  0.19580781057E+03  0.79500978191E+02 0.  0.
         66    2    3    3    0    0 -0.25989853225E+02 -0.22555396750E+02  0.13840835351E+03  0.14263621818E+03  0.20000051096E+01 0.  0.
        -13    1    3    3    0    0  0.25989853225E+02  0.22555396750E+02  0.40533796766E+02  0.53171592392E+02  0.10566000000E+00 0.  1.
         13    1    4    4    0    0 -0.87519743214E+01 -0.78662583502E+01  0.46944390644E+02  0.48396921926E+02  0.10566000000E+00 0. -1.
        -13    1    4    4    0    0 -0.14929584915E+01 -0.18795752976E+01  0.93014282251E+01  0.96067403118E+01  0.10566000000E+00 0.  1.
        -14    1    4    4    0    0 -0.15744920412E+02 -0.12809563102E+02  0.82162534643E+02  0.84632555938E+02  0.00000000000E+00 0.  1.
<mgrwt>
<rscale>  0 0.79500978E+02</rscale>
<asrwt>0</asrwt>
<pdfrwt beam="1">  1        2 0.28826919E-01 0.79500978E+02</pdfrwt>
<pdfrwt beam="2">  1       -1 0.12973585E-02 0.79500978E+02</pdfrwt>
<totfact> 0.21927211E+05</totfact>
</mgrwt>
</event>
<event>
 8    1  0.1226832E-016  0.7903175E+02  0.7818608E-02  0.1331822E+00
         -1   -1    0    0    0  501 -0.00000000000E+00  0.00000000000E+00  0.68518514547E+01  0.68518533083E+01  0.50400000000E-02 0.  1.
          2   -1    0    0  501    0  0.00000000000E+00 -0.00000000000E+00 -0.22789519489E+03  0.22789519490E+03  0.25500000000E-02 0. -1.
         24    2    1    2    0    0  0.00000000000E+00  0.00000000000E+00 -0.22104334344E+03  0.23474704821E+03  0.79031746580E+02 0.  0.
         66    2    3    3    0    0  0.11049919342E+01  0.24672744163E+02 -0.20212022030E+03  0.20363336851E+03  0.20000006191E+01 0.  0.
        -13    1    3    3    0    0 -0.11049919342E+01 -0.24672744163E+02 -0.18923123133E+02  0.31113679706E+02  0.10566000000E+00 0.  1.
         13    1    4    4    0    0  0.20552213298E+00  0.62600331668E+01 -0.49696771192E+02  0.50090023812E+02  0.10566000000E+00 0. -1.
        -13    1    4    4    0    0 -0.47878129472E+00  0.65057577369E+01 -0.53410206437E+02  0.53807206125E+02  0.10566000000E+00 0.  1.
        -14    1    4    4    0    0  0.13782510959E+01  0.11906953259E+02 -0.99013242674E+02  0.99736138570E+02  0.00000000000E+00 0.  1.
<mgrwt>
<rscale>  0 0.79031747E+02</rscale>
<asrwt>0</asrwt>
<pdfrwt beam="1">  1        2 0.35060793E-01 0.79031747E+02</pdfrwt>
<pdfrwt beam="2">  1       -1 0.10541313E-02 0.79031747E+02</pdfrwt>
<totfact> 0.23845378E+05</totfact>
</mgrwt>
</event>
<event>
 8    1  0.1226832E-016  0.8316143E+02  0.7818608E-02  0.1320312E+00
          2   -1    0    0  501    0  0.00000000000E+00  0.00000000000E+00  0.37134969119E+03  0.37134969120E+03  0.25500000000E-02 0. -1.
         -1   -1    0    0    0  501 -0.00000000000E+00 -0.00000000000E+00 -0.46558684908E+01  0.46558712187E+01  0.50400000000E-02 0.  1.
         24    2    1    2    0    0  0.00000000000E+00  0.71054273576E-14  0.36669382270E+03  0.37600556242E+03  0.83161429540E+02 0.  0.
         66    2    3    3    0    0 -0.83094855040E+01  0.40674105621E+02  0.19193601551E+03  0.19638448138E+03  0.20000143764E+01 0.  0.
        -13    1    3    3    0    0  0.83094855040E+01 -0.40674105621E+02  0.17475780719E+03  0.17962108104E+03  0.10566000000E+00 0.  1.
         13    1    4    4    0    0 -0.27286829587E+01  0.15360124140E+02  0.72644345134E+02  0.74300680806E+02  0.10566000000E+00 0. -1.
        -13    1    4    4    0    0 -0.80723330346E+00  0.22868571749E+01  0.12488941622E+02  0.12722663566E+02  0.10566000000E+00 0.  1.
        -14    1    4    4    0    0 -0.47735692418E+01  0.23027124306E+02  0.10680272876E+03  0.10936113701E+03  0.00000000000E+00 0.  1.
<mgrwt>
<rscale>  0 0.83161430E+02</rscale>
<asrwt>0</asrwt>
<pdfrwt beam="1">  1        2 0.57130727E-01 0.83161430E+02</pdfrwt>
<pdfrwt beam="2">  1       -1 0.71628761E-03 0.83161430E+02</pdfrwt>
<totfact> 0.24865490E+05</totfact>
</mgrwt>
</event>
<event>
 8    1  0.1226832E-016  0.7928560E+02  0.7818608E-02  0.1331091E+00
         -1   -1    0    0    0  501 -0.00000000000E+00  0.00000000000E+00  0.52324357331E+01  0.52324381604E+01  0.50400000000E-02 0.  1.
          2   -1    0    0  501    0  0.00000000000E+00 -0.00000000000E+00 -0.30034790509E+03  0.30034790511E+03  0.25500000000E-02 0. -1.
         24    2    1    2    0    0  0.35527136788E-14  0.35527136788E-14 -0.29511546936E+03  0.30558034327E+03  0.79285597267E+02 0.  0.
         66    2    3    3    0    0  0.30386995459E+02  0.22640787513E+02 -0.10310744168E+03  0.10986864559E+03  0.19999999889E+01 0.  0.
        -13    1    3    3    0    0 -0.30386995459E+02 -0.22640787513E+02 -0.19200802768E+03  0.19571169768E+03  0.10566000000E+00 0.  1.
         13    1    4    4    0    0  0.20318914945E+02  0.14937673893E+02 -0.68194975420E+02  0.72708721914E+02  0.10566000000E+00 0. -1.
        -13    1    4    4    0    0  0.81152629810E+00  0.37268480979E+00 -0.19780678776E+01  0.21728749306E+01  0.10566000000E+00 0.  1.
         14    1    4    4    0    0  0.92565542164E+01  0.73304288103E+01 -0.32934398387E+02  0.34987048741E+02  0.00000000000E+00 0. -1.
<mgrwt>
<rscale>  0 0.79285597E+02</rscale>
<asrwt>0</asrwt>
<pdfrwt beam="1">  1        2 0.46207357E-01 0.79285597E+02</pdfrwt>
<pdfrwt beam="2">  1       -1 0.80499053E-03 0.79285597E+02</pdfrwt>
<totfact> 0.26111839E+05</totfact>
</mgrwt>
</event>
<event>
 8    1  0.1226832E-016  0.8099375E+02  0.7818608E-02  0.1326255E+00
         -1   -1    0    0    0  501 -0.00000000000E+00  0.00000000000E+00  0.37739779594E+02  0.37739779931E+02  0.50400000000E-02 0.  1.
          2   -1    0    0  501    0  0.00000000000E+00 -0.00000000000E+00 -0.43455391954E+02  0.43455392029E+02  0.25500000000E-02 0. -1.
         24    2    1    2    0    0  0.00000000000E+00  0.44408920985E-15 -0.57156123597E+01  0.81195171960E+02  0.80993751148E+02 0.  0.
         66    2    3    3    0    0 -0.39774241956E+02 -0.29162685618E+01 -0.97684903432E+01  0.41108616490E+02  0.20000001567E+01 0.  0.
        -13    1    3    3    0    0  0.39774241956E+02  0.29162685618E+01  0.40528779835E+01  0.40086555470E+02  0.10566000000E+00 0.  1.
         13    1    4    4    0    0 -0.15671050028E+02 -0.68226547717E+00 -0.39995541127E+01  0.16188109596E+02  0.10566000000E+00 0. -1.
        -13    1    4    4    0    0 -0.11636887280E+02 -0.72328640147E+00 -0.21985287695E+01  0.11865284723E+02  0.10566000000E+00 0.  1.
        -14    1    4    4    0    0 -0.12466304648E+02 -0.15107166831E+01 -0.35704074611E+01  0.13055222171E+02  0.00000000000E+00 0.  1.
<mgrwt>
<rscale>  0 0.80993751E+02</rscale>
<asrwt>0</asrwt>
<pdfrwt beam="1">  1        2 0.66854450E-02 0.80993751E+02</pdfrwt>
<pdfrwt beam="2">  1       -1 0.58061200E-02 0.80993751E+02</pdfrwt>
<totfact> 0.14016977E+05</totfact>
</mgrwt>
</event>
<event>
 8    1  0.1226832E-016  0.7980055E+02  0.7818608E-02  0.1329618E+00
          2   -1    0    0  501    0  0.00000000000E+00  0.00000000000E+00  0.39649513688E+03  0.39649513689E+03  0.25500000000E-02 0. -1.
         -1   -1    0    0    0  501 -0.00000000000E+00 -0.00000000000E+00 -0.40152607137E+01  0.40152638768E+01  0.50400000000E-02 0.  1.
         24    2    1    2    0    0  0.00000000000E+00  0.35527136788E-14  0.39247987617E+03  0.40051040076E+03  0.79800550909E+02 0.  0.
         66    2    3    3    0    0 -0.12020652894E+02 -0.17576416612E+02  0.36556732775E+03  0.36619243254E+03  0.20000033525E+01 0.  0.
        -13    1    3    3    0    0  0.12020652894E+02  0.17576416612E+02  0.26912548419E+02  0.34317968229E+02  0.10566000000E+00 0.  1.
         13    1    4    4    0    0 -0.16404010997E+01 -0.27273704977E+01  0.53268210341E+02  0.53363310079E+02  0.10566000000E+00 0. -1.
        -13    1    4    4    0    0 -0.86153614895E+01 -0.12366245717E+02  0.24755157274E+03  0.24800996113E+03  0.10566000000E+00 0.  1.
         14    1    4    4    0    0 -0.17648903044E+01 -0.24828003978E+01  0.64747544661E+02  0.64819161328E+02  0.00000000000E+00 0. -1.
<mgrwt>
<rscale>  0 0.79800551E+02</rscale>
<asrwt>0</asrwt>
<pdfrwt beam="1">  1        2 0.60999291E-01 0.79800551E+02</pdfrwt>
<pdfrwt beam="2">  1       -1 0.61773226E-03 0.79800551E+02</pdfrwt>
<totfact> 0.28351000E+05</totfact>
</mgrwt>
</event>
<event>
 8    1  0.1226832E-016  0.7999931E+02  0.7818608E-02  0.1329053E+00
         -1   -1    0    0    0  501 -0.00000000000E+00  0.00000000000E+00  0.77031428899E+02  0.77031429063E+02  0.50400000000E-02 0.  1.
          2   -1    0    0  501    0  0.00000000000E+00 -0.00000000000E+00 -0.20770382857E+02  0.20770383014E+02  0.25500000000E-02 0. -1.
         24    2    1    2    0    0  0.00000000000E+00  0.00000000000E+00  0.56261046041E+02  0.97801812077E+02  0.79999307147E+02 0.  0.
         66    2    3    3    0    0  0.30948040793E+01  0.24707383935E+02 -0.10082939245E+02  0.26938788004E+02  0.20000005297E+01 0.  0.
        -13    1    3    3    0    0 -0.30948040793E+01 -0.24707383935E+02  0.66343985286E+02  0.70863024074E+02  0.10566000000E+00 0.  1.
         13    1    4    4    0    0  0.95351889434E+00  0.99860526800E+01 -0.44766198133E+01  0.10985523902E+02  0.10566000000E+00 0. -1.
        -13    1    4    4    0    0 -0.11081194188E+00  0.28023295783E+00 -0.14309320543E+00  0.34992784707E+00  0.10566000000E+00 0.  1.
         14    1    4    4    0    0  0.22520971269E+01  0.14441098297E+02 -0.54632262261E+01  0.15603336255E+02  0.00000000000E+00 0. -1.
<mgrwt>
<rscale>  0 0.79999307E+02</rscale>
<asrwt>0</asrwt>
<pdfrwt beam="1">  1        2 0.31954435E-02 0.79999307E+02</pdfrwt>
<pdfrwt beam="2">  1       -1 0.11850989E-01 0.79999307E+02</pdfrwt>
<totfact> 0.12511030E+05</totfact>
</mgrwt>
</event>
<event>
 8    1  0.1226832E-016  0.8350484E+02  0.7818608E-02  0.1319389E+00
         -1   -1    0    0    0  501 -0.00000000000E+00  0.00000000000E+00  0.74781678708E+00  0.74783377072E+00  0.50400000000E-02 0.  1.
          2   -1    0    0  501    0  0.00000000000E+00 -0.00000000000E+00 -0.23311119722E+04  0.23311119722E+04  0.25500000000E-02 0. -1.
         24    2    1    2    0    0  0.00000000000E+00 -0.22204460493E-15 -0.23303641554E+04  0.23318598059E+04  0.83504837434E+02 0.  0.
         66    2    3    3    0    0 -0.16978820357E+02  0.16059447316E+01 -0.22293417746E+04  0.22294079051E+04  0.20000075116E+01 0.  0.
        -13    1    3    3    0    0  0.16978820357E+02 -0.16059447316E+01 -0.10102238077E+03  0.10245190081E+03  0.10566000000E+00 0.  1.
         13    1    4    4    0    0 -0.31985923795E+01  0.62733981002E+00 -0.38166218407E+03  0.38167611722E+03  0.10566000000E+00 0. -1.
        -13    1    4    4    0    0 -0.74071688071E+01 -0.85696661158E-02 -0.92541661710E+03  0.92544626672E+03  0.10566000000E+00 0.  1.
         14    1    4    4    0    0 -0.63730591701E+01  0.98717458772E+00 -0.92226297346E+03  0.92228552120E+03  0.00000000000E+00 0. -1.
<mgrwt>
<rscale>  0 0.83504837E+02</rscale>
<asrwt>0</asrwt>
<pdfrwt beam="1">  1        2 0.35862679E+00 0.83504837E+02</pdfrwt>
<pdfrwt beam="2">  1       -1 0.11505191E-03 0.83504837E+02</pdfrwt>
<totfact> 0.20833313E+05</totfact>
</mgrwt>
</event>
<event>
 8    1  0.1226832E-016  0.7908982E+02  0.7818608E-02  0.1331654E+00
          2   -1    0    0  501    0  0.00000000000E+00  0.00000000000E+00  0.75957709093E+03  0.75957709093E+03  0.25500000000E-02 0. -1.
         -1   -1    0    0    0  501 -0.00000000000E+00 -0.00000000000E+00 -0.20587738761E+01  0.20587800452E+01  0.50400000000E-02 0.  1.
         24    2    1    2    0    0  0.00000000000E+00  0.00000000000E+00  0.75751831705E+03  0.76163587097E+03  0.79089817869E+02 0.  0.
         66    2    3    3    0    0 -0.16346275521E+02  0.53306131983E+01  0.72166929376E+03  0.72187684942E+03  0.20000017278E+01 0.  0.
        -13    1    3    3    0    0  0.16346275521E+02 -0.53306131983E+01  0.35849023291E+02  0.39759021560E+02  0.10566000000E+00 0.  1.
         13    1    4    4    0    0 -0.74310143945E+01  0.27502642170E+01  0.32829383283E+03  0.32838945745E+03  0.10566000000E+00 0. -1.
        -13    1    4    4    0    0 -0.53430870918E+01  0.85726308883E+00  0.23410583577E+03  0.23416839451E+03  0.10566000000E+00 0.  1.
        -14    1    4    4    0    0 -0.35721740344E+01  0.17230858925E+01  0.15926962516E+03  0.15931899746E+03  0.00000000000E+00 0.  1.
<mgrwt>
<rscale>  0 0.79089818E+02</rscale>
<asrwt>0</asrwt>
<pdfrwt beam="1">  1        2 0.11685790E+00 0.79089818E+02</pdfrwt>
<pdfrwt beam="2">  1       -1 0.31673523E-03 0.79089818E+02</pdfrwt>
<totfact> 0.35065163E+05</totfact>
</mgrwt>
</event>
<event>
 8    1  0.1226832E-016  0.8215831E+02  0.7818608E-02  0.1323036E+00
          2   -1    0    0  501    0  0.00000000000E+00  0.00000000000E+00  0.13633374543E+04  0.13633374543E+04  0.25500000000E-02 0. -1.
         -1   -1    0    0    0  501 -0.00000000000E+00 -0.00000000000E+00 -0.12377641086E+01  0.12377743696E+01  0.50400000000E-02 0.  1.
         24    2    1    2    0    0  0.44408920985E-15  0.00000000000E+00  0.13620996902E+04  0.13645752287E+04  0.82158314770E+02 0.  0.
         66    2    3    3    0    0  0.33912729619E+01  0.24117389717E+02  0.12303930501E+04  0.12306356922E+04  0.19999984425E+01 0.  0.
        -13    1    3    3    0    0 -0.33912729619E+01 -0.24117389717E+02  0.13170664016E+03  0.13393953653E+03  0.10566000000E+00 0.  1.
         13    1    4    4    0    0  0.21952029727E+01  0.15886210339E+02  0.77840223539E+03  0.77856742920E+03  0.10566000000E+00 0. -1.
        -13    1    4    4    0    0  0.65782311023E+00  0.26567844183E+01  0.13152592866E+03  0.13155444618E+03  0.10566000000E+00 0.  1.
         14    1    4    4    0    0  0.53824687898E+00  0.55743949599E+01  0.32046488602E+03  0.32051381680E+03  0.00000000000E+00 0. -1.
<mgrwt>
<rscale>  0 0.82158315E+02</rscale>
<asrwt>0</asrwt>
<pdfrwt beam="1">  1        2 0.20974496E+00 0.82158315E+02</pdfrwt>
<pdfrwt beam="2">  1       -1 0.19042537E-03 0.82158315E+02</pdfrwt>
<totfact> 0.31962689E+05</totfact>
</mgrwt>
</event>
<event>
 8    1  0.1226832E-016  0.7648344E+02  0.7818608E-02  0.1339338E+00
          2   -1    0    0  501    0  0.00000000000E+00  0.00000000000E+00  0.23112050062E+03  0.23112050063E+03  0.25500000000E-02 0. -1.
         -1   -1    0    0    0  501 -0.00000000000E+00 -0.00000000000E+00 -0.63275597281E+01  0.63275617353E+01  0.50400000000E-02 0.  1.
         24    2    1    2    0    0  0.00000000000E+00  0.00000000000E+00  0.22479294089E+03  0.23744806237E+03  0.76483436430E+02 0.  0.
         66    2    3    3    0    0 -0.58161144598E+01  0.13938053023E+02  0.22145750878E+03  0.22198091069E+03  0.20000023087E+01 0.  0.
        -13    1    3    3    0    0  0.58161144598E+01 -0.13938053023E+02  0.33354321136E+01  0.15467151674E+02  0.10566000000E+00 0.  1.
         13    1    4    4    0    0 -0.13827530180E+01  0.51267956789E+01  0.78084161665E+02  0.78264573766E+02  0.10566000000E+00 0. -1.
        -13    1    4    4    0    0 -0.33130028195E+01  0.63417710855E+01  0.96818306077E+02  0.97082385651E+02  0.10566000000E+00 0.  1.
        -14    1    4    4    0    0 -0.11203586224E+01  0.24694862590E+01  0.46555041036E+02  0.46633951277E+02  0.00000000000E+00 0.  1.
<mgrwt>
<rscale>  0 0.76483436E+02</rscale>
<asrwt>0</asrwt>
<pdfrwt beam="1">  1        2 0.35556995E-01 0.76483436E+02</pdfrwt>
<pdfrwt beam="2">  1       -1 0.97347103E-03 0.76483436E+02</pdfrwt>
<totfact> 0.26117181E+05</totfact>
</mgrwt>
</event>
<event>
 8    1  0.1226832E-016  0.7991751E+02  0.7818608E-02  0.1329286E+00
          2   -1    0    0  501    0  0.00000000000E+00  0.00000000000E+00  0.13540666399E+02  0.13540666639E+02  0.25500000000E-02 0. -1.
         -1   -1    0    0    0  501 -0.00000000000E+00 -0.00000000000E+00 -0.11791901853E+03  0.11791901864E+03  0.50400000000E-02 0.  1.
         24    2    1    2    0    0  0.00000000000E+00 -0.88817841970E-15 -0.10437835214E+03  0.13145968528E+03  0.79917510346E+02 0.  0.
         66    2    3    3    0    0  0.17234493308E+02 -0.66982570970E+01  0.60008825601E+01  0.19542389819E+02  0.20000001529E+01 0.  0.
        -13    1    3    3    0    0 -0.17234493308E+02  0.66982570970E+01 -0.11037923470E+03  0.11191729546E+03  0.10566000000E+00 0.  1.
         13    1    4    4    0    0  0.75686897297E+01 -0.23143905203E+01  0.19905442228E+01  0.81617950258E+01  0.10566000000E+00 0. -1.
        -13    1    4    4    0    0  0.12937672309E+01 -0.82503151849E+00  0.80009484112E+00  0.17337319414E+01  0.10566000000E+00 0.  1.
         14    1    4    4    0    0  0.83720363474E+01 -0.35588350582E+01  0.32102434962E+01  0.96468628516E+01  0.00000000000E+00 0. -1.
<mgrwt>
<rscale>  0 0.79917510E+02</rscale>
<asrwt>0</asrwt>
<pdfrwt beam="1">  1        2 0.20831796E-02 0.79917510E+02</pdfrwt>
<pdfrwt beam="2">  1       -1 0.18141387E-01 0.79917510E+02</pdfrwt>
<totfact> 0.11459613E+05</totfact>
</mgrwt>
</event>
<event>
 8    1  0.1226832E-016  0.8013103E+02  0.7818608E-02  0.1328680E+00
          2   -1    0    0  501    0  0.00000000000E+00  0.00000000000E+00  0.65566902992E+03  0.65566902993E+03  0.25500000000E-02 0. -1.
         -1   -1    0    0    0  501 -0.00000000000E+00 -0.00000000000E+00 -0.24482532079E+01  0.24482583956E+01  0.50400000000E-02 0.  1.
         24    2    1    2    0    0  0.00000000000E+00  0.00000000000E+00  0.65322077671E+03  0.65811728832E+03  0.80131030557E+02 0.  0.
         66    2    3    3    0    0  0.14157688278E+02 -0.28390588019E+02  0.52744882045E+03  0.52840583250E+03  0.19999997461E+01 0.  0.
        -13    1    3    3    0    0 -0.14157688278E+02  0.28390588019E+02  0.12577195626E+03  0.12971145582E+03  0.10566000000E+00 0.  1.
         13    1    4    4    0    0  0.69029645964E+01 -0.14119035237E+02  0.25358600547E+03  0.25407257115E+03  0.10566000000E+00 0. -1.
        -13    1    4    4    0    0  0.63600109672E-01 -0.30724729402E+00  0.39742520701E+01  0.39880182329E+01  0.10566000000E+00 0. -1.
         14    1    4    4    0    0  0.71911235723E+01 -0.13964305488E+02  0.26988856291E+03  0.27034524312E+03  0.00000000000E+00 0. -1.
<mgrwt>
<rscale>  0 0.80131031E+02</rscale>
<asrwt>0</asrwt>
<pdfrwt beam="1">  1        2 0.10087232E+00 0.80131031E+02</pdfrwt>
<pdfrwt beam="2">  1       -1 0.37665415E-03 0.80131031E+02</pdfrwt>
<totfact> 0.32789751E+05</totfact>
</mgrwt>
</event>
<event>
 8    1  0.1226832E-016  0.7919395E+02  0.7818608E-02  0.1331355E+00
          2   -1    0    0  501    0  0.00000000000E+00  0.00000000000E+00  0.42165597687E+03  0.42165597688E+03  0.25500000000E-02 0. -1.
         -1   -1    0    0    0  501 -0.00000000000E+00 -0.00000000000E+00 -0.37184810659E+01  0.37184844815E+01  0.50400000000E-02 0.  1.
         24    2    1    2    0    0  0.00000000000E+00  0.00000000000E+00  0.41793749581E+03  0.42537446136E+03  0.79193951649E+02 0.  0.
         66    2    3    3    0    0 -0.19133100879E+02  0.30922825153E+02  0.29293848814E+03  0.29519358817E+03  0.19999987563E+01 0.  0.
        -13    1    3    3    0    0  0.19133100879E+02 -0.30922825153E+02  0.12499900766E+03  0.13018087320E+03  0.10566000000E+00 0.  1.
         13    1    4    4    0    0 -0.51098510623E+01  0.84874213426E+01  0.75372818466E+02  0.76021180118E+02  0.10566000000E+00 0. -1.
        -13    1    4    4    0    0 -0.12099642520E+02  0.19629357412E+02  0.19284478459E+03  0.19421852416E+03  0.10566000000E+00 0.  1.
        -14    1    4    4    0    0 -0.19236072964E+01  0.28060463990E+01  0.24720885089E+02  0.24953883886E+02  0.00000000000E+00 0.  1.
<mgrwt>
<rscale>  0 0.79193952E+02</rscale>
<asrwt>0</asrwt>
<pdfrwt beam="1">  1        2 0.64870104E-01 0.79193952E+02</pdfrwt>
<pdfrwt beam="2">  1       -1 0.57207468E-03 0.79193952E+02</pdfrwt>
<totfact> 0.29545534E+05</totfact>
</mgrwt>
</event>
<event>
 8    1  0.1226832E-016  0.7948280E+02  0.7818608E-02  0.1330526E+00
         -1   -1    0    0    0  501 -0.00000000000E+00  0.00000000000E+00  0.10370386848E+01  0.10370509319E+01  0.50400000000E-02 0.  1.
          2   -1    0    0  501    0  0.00000000000E+00 -0.00000000000E+00 -0.15229612494E+04  0.15229612494E+04  0.25500000000E-02 0. -1.
         24    2    1    2    0    0  0.00000000000E+00  0.00000000000E+00 -0.15219242107E+04  0.15239983004E+04  0.79482804808E+02 0.  0.
         66    2    3    3    0    0  0.16652275231E+02  0.41151915226E+01 -0.14482713697E+04  0.14483743278E+04  0.20000002417E+01 0.  0.
        -13    1    3    3    0    0 -0.16652275231E+02 -0.41151915226E+01 -0.73652841031E+02  0.75623972573E+02  0.10566000000E+00 0.  1.
         13    1    4    4    0    0  0.12658437060E+02  0.36953691658E+01 -0.10962041065E+04  0.10962834242E+04  0.10566000000E+00 0. -1.
        -13    1    4    4    0    0  0.21326804506E+01  0.27904339596E+00 -0.21826319316E+03  0.21827381621E+03  0.10566000000E+00 0.  1.
        -14    1    4    4    0    0  0.18611577205E+01  0.14077896082E+00 -0.13380407001E+03  0.13381708739E+03  0.00000000000E+00 0.  1.
<mgrwt>
<rscale>  0 0.79482805E+02</rscale>
<asrwt>0</asrwt>
<pdfrwt beam="1">  1        2 0.23429994E+00 0.79482805E+02</pdfrwt>
<pdfrwt beam="2">  1       -1 0.15954657E-03 0.79482805E+02</pdfrwt>
<totfact> 0.33618471E+05</totfact>
</mgrwt>
</event>
<event>
 8    1  0.1226832E-016  0.8273879E+02  0.7818608E-02  0.1321454E+00
          2   -1    0    0  501    0  0.00000000000E+00  0.00000000000E+00  0.46471875752E+03  0.46471875753E+03  0.25500000000E-02 0. -1.
         -1   -1    0    0    0  501 -0.00000000000E+00 -0.00000000000E+00 -0.36827133776E+01  0.36827168264E+01  0.50400000000E-02 0.  1.
         24    2    1    2    0    0  0.00000000000E+00  0.71054273576E-14  0.46103604414E+03  0.46840147436E+03  0.82738788836E+02 0.  0.
         66    2    3    3    0    0 -0.10890391938E+02  0.33056453930E+02  0.35699903368E+03  0.35869714221E+03  0.19999979459E+01 0.  0.
        -13    1    3    3    0    0  0.10890391938E+02 -0.33056453930E+02  0.10403701046E+03  0.10970433215E+03  0.10566000000E+00 0.  1.
         13    1    4    4    0    0 -0.84187590059E+01  0.25148745674E+02  0.27419481198E+03  0.27547439262E+03  0.10566000000E+00 0. -1.
        -13    1    4    4    0    0 -0.69145019689E+00  0.20835813215E+01  0.26120787436E+02  0.26213090523E+02  0.10566000000E+00 0.  1.
        -14    1    4    4    0    0 -0.17801827349E+01  0.58241269344E+01  0.56683434273E+02  0.57009659059E+02  0.00000000000E+00 0.  1.
<mgrwt>
<rscale>  0 0.82738789E+02</rscale>
<asrwt>0</asrwt>
<pdfrwt beam="1">  1        2 0.71495139E-01 0.82738789E+02</pdfrwt>
<pdfrwt beam="2">  1       -1 0.56657199E-03 0.82738789E+02</pdfrwt>
<totfact> 0.27232573E+05</totfact>
</mgrwt>
</event>
<event>
 8    1  0.1226832E-016  0.7883099E+02  0.7818608E-02  0.1332402E+00
          2   -1    0    0  501    0  0.00000000000E+00  0.00000000000E+00  0.48049422608E+03  0.48049422608E+03  0.25500000000E-02 0. -1.
         -1   -1    0    0    0  501 -0.00000000000E+00 -0.00000000000E+00 -0.32332968292E+01  0.32333007574E+01  0.50400000000E-02 0.  1.
         24    2    1    2    0    0  0.00000000000E+00  0.00000000000E+00  0.47726092925E+03  0.48372752684E+03  0.78830994142E+02 0.  0.
         66    2    3    3    0    0  0.17090733082E+02  0.21725291775E+02  0.41098147752E+03  0.41191486539E+03  0.20000001575E+01 0.  0.
        -13    1    3    3    0    0 -0.17090733082E+02 -0.21725291775E+02  0.66279451724E+02  0.71812661452E+02  0.10566000000E+00 0.  1.
         13    1    4    4    0    0  0.67349597867E+01  0.83475342245E+01  0.16612244061E+03  0.16646836771E+03  0.10566000000E+00 0. -1.
        -13    1    4    4    0    0  0.42058793974E+01  0.43896381332E+01  0.86707478016E+02  0.86920401819E+02  0.10566000000E+00 0.  1.
        -14    1    4    4    0    0  0.61498938982E+01  0.89881194173E+01  0.15815155890E+03  0.15852609586E+03  0.00000000000E+00 0.  1.
<mgrwt>
<rscale>  0 0.78830994E+02</rscale>
<asrwt>0</asrwt>
<pdfrwt beam="1">  1        2 0.73922115E-01 0.78830994E+02</pdfrwt>
<pdfrwt beam="2">  1       -1 0.49743108E-03 0.78830994E+02</pdfrwt>
<totfact> 0.31238803E+05</totfact>
</mgrwt>
</event>
<event>
 8    1  0.1226832E-016  0.7973575E+02  0.7818608E-02  0.1329803E+00
          2   -1    0    0  501    0  0.00000000000E+00  0.00000000000E+00  0.39304601456E+03  0.39304601457E+03  0.25500000000E-02 0. -1.
         -1   -1    0    0    0  501 -0.00000000000E+00 -0.00000000000E+00 -0.40439200591E+01  0.40439231998E+01  0.50400000000E-02 0.  1.
         24    2    1    2    0    0  0.18041124150E-15  0.17763568394E-14  0.38900209450E+03  0.39708993777E+03  0.79735745751E+02 0.  0.
         66    2    3    3    0    0  0.11779819264E+00  0.14013315533E+02  0.38036418811E+03  0.38062751147E+03  0.20000013752E+01 0.  0.
        -13    1    3    3    0    0 -0.11779819264E+00 -0.14013315533E+02  0.86379063907E+01  0.16462426294E+02  0.10566000000E+00 0.  1.
         13    1    4    4    0    0  0.44722357582E+00  0.71842673962E+01  0.18383987496E+03  0.18398077209E+03  0.10566000000E+00 0. -1.
        -13    1    4    4    0    0 -0.74546346109E+00  0.35884122495E+01  0.10729597437E+03  0.10735860328E+03  0.10566000000E+00 0.  1.
        -14    1    4    4    0    0  0.41603807792E+00  0.32406358872E+01  0.89228338775E+02  0.89288136105E+02  0.00000000000E+00 0.  1.
<mgrwt>
<rscale>  0 0.79735746E+02</rscale>
<asrwt>0</asrwt>
<pdfrwt beam="1">  1        2 0.60468632E-01 0.79735746E+02</pdfrwt>
<pdfrwt beam="2">  1       -1 0.62214165E-03 0.79735746E+02</pdfrwt>
<totfact> 0.28324303E+05</totfact>
</mgrwt>
</event>
<event>
 8    1  0.1226832E-016  0.7828035E+02  0.7818608E-02  0.1334004E+00
          2   -1    0    0  501    0  0.00000000000E+00  0.00000000000E+00  0.24461053766E+03  0.24461053767E+03  0.25500000000E-02 0. -1.
         -1   -1    0    0    0  501 -0.00000000000E+00 -0.00000000000E+00 -0.62628247687E+01  0.62628267966E+01  0.50400000000E-02 0.  1.
         24    2    1    2    0    0 -0.17763568394E-14 -0.35527136788E-14  0.23834771289E+03  0.25087336447E+03  0.78280347214E+02 0.  0.
         66    2    3    3    0    0 -0.61672567963E+01 -0.19150732430E+02  0.22675167891E+03  0.22765128926E+03  0.20000008651E+01 0.  0.
        -13    1    3    3    0    0  0.61672567963E+01  0.19150732430E+02  0.11596033981E+02  0.23222075211E+02  0.10566000000E+00 0.  1.
         13    1    4    4    0    0 -0.16622956624E+01 -0.55225693444E+01  0.64531344038E+02  0.64788637325E+02  0.10566000000E+00 0. -1.
        -13    1    4    4    0    0 -0.37618365014E+01 -0.10535738398E+02  0.11859002006E+03  0.11911656988E+03  0.10566000000E+00 0.  1.
         14    1    4    4    0    0 -0.74312463251E+00 -0.30924246877E+01  0.43630314810E+02  0.43746082054E+02  0.00000000000E+00 0. -1.
<mgrwt>
<rscale>  0 0.78280347E+02</rscale>
<asrwt>0</asrwt>
<pdfrwt beam="1">  1        2 0.37632384E-01 0.78280347E+02</pdfrwt>
<pdfrwt beam="2">  1       -1 0.96351182E-03 0.78280347E+02</pdfrwt>
<totfact> 0.25074212E+05</totfact>
</mgrwt>
</event>
<event>
 8    1  0.1226832E-016  0.7851668E+02  0.7818608E-02  0.1333314E+00
          2   -1    0    0  501    0  0.00000000000E+00  0.00000000000E+00  0.57461241521E+03  0.57461241522E+03  0.25500000000E-02 0. -1.
         -1   -1    0    0    0  501 -0.00000000000E+00 -0.00000000000E+00 -0.26821832073E+01  0.26821879425E+01  0.50400000000E-02 0.  1.
         24    2    1    2    0    0  0.00000000000E+00  0.00000000000E+00  0.57193023201E+03  0.57729460316E+03  0.78516676935E+02 0.  0.
         66    2    3    3    0    0 -0.17158672401E+02  0.25327170572E+02  0.46674767947E+03  0.46775344136E+03  0.20000003963E+01 0.  0.
        -13    1    3    3    0    0  0.17158672401E+02 -0.25327170572E+02  0.10518255253E+03  0.10954116180E+03  0.10566000000E+00 0.  1.
         13    1    4    4    0    0 -0.45340953003E+01  0.63031242286E+01  0.10922165007E+03  0.10949733971E+03  0.10566000000E+00 0. -1.
        -13    1    4    4    0    0 -0.54641279724E+01  0.91354627551E+01  0.17049332312E+03  0.17082534287E+03  0.10566000000E+00 0.  1.
        -14    1    4    4    0    0 -0.71604491278E+01  0.98885835883E+01  0.18703270628E+03  0.18743075878E+03  0.00000000000E+00 0.  1.
<mgrwt>
<rscale>  0 0.78516677E+02</rscale>
<asrwt>0</asrwt>
<pdfrwt beam="1">  1        2 0.88401972E-01 0.78516677E+02</pdfrwt>
<pdfrwt beam="2">  1       -1 0.41264365E-03 0.78516677E+02</pdfrwt>
<totfact> 0.33355481E+05</totfact>
</mgrwt>
</event>
<event>
 8    1  0.1226832E-016  0.7713896E+02  0.7818608E-02  0.1337372E+00
          2   -1    0    0  501    0  0.00000000000E+00  0.00000000000E+00  0.10830232590E+04  0.10830232590E+04  0.25500000000E-02 0. -1.
         -1   -1    0    0    0  501 -0.00000000000E+00 -0.00000000000E+00 -0.13735622314E+01  0.13735714780E+01  0.50400000000E-02 0.  1.
         24    2    1    2    0    0 -0.88817841970E-15 -0.35527136788E-14  0.10816496967E+04  0.10843968304E+04  0.77138961863E+02 0.  0.
         66    2    3    3    0    0 -0.60729579750E+01 -0.25527762156E+02  0.93806619641E+03  0.93843525951E+03  0.19999987752E+01 0.  0.
        -13    1    3    3    0    0  0.60729579750E+01  0.25527762156E+02  0.14358350031E+03  0.14596157092E+03  0.10566000000E+00 0.  1.
         13    1    4    4    0    0 -0.41810170007E+01 -0.19554281202E+02  0.69998370367E+03  0.70026926777E+03  0.10566000000E+00 0. -1.
        -13    1    4    4    0    0 -0.70182396338E+00 -0.23717562660E+01  0.10693259305E+03  0.10696124721E+03  0.10566000000E+00 0.  1.
        -14    1    4    4    0    0 -0.11901170109E+01 -0.36017246886E+01  0.13114989969E+03  0.13120474454E+03  0.00000000000E+00 0.  1.
<mgrwt>
<rscale>  0 0.77138962E+02</rscale>
<asrwt>0</asrwt>
<pdfrwt beam="1">  1        2 0.16661888E+00 0.77138962E+02</pdfrwt>
<pdfrwt beam="2">  1       -1 0.21131808E-03 0.77138962E+02</pdfrwt>
<totfact> 0.38755629E+05</totfact>
</mgrwt>
</event>
<event>
 8    1  0.1226832E-016  0.7721762E+02  0.7818608E-02  0.1337138E+00
          2   -1    0    0  501    0  0.00000000000E+00  0.00000000000E+00  0.19752211291E+03  0.19752211292E+03  0.25500000000E-02 0. -1.
         -1   -1    0    0    0  501 -0.00000000000E+00 -0.00000000000E+00 -0.75467004646E+01  0.75467021476E+01  0.50400000000E-02 0.  1.
         24    2    1    2    0    0  0.00000000000E+00  0.00000000000E+00  0.18997541244E+03  0.20506881507E+03  0.77217624815E+02 0.  0.
         66    2    3    3    0    0  0.26109952093E+02  0.11890562339E+02  0.16356281296E+03  0.16607199922E+03  0.20000176128E+01 0.  0.
        -13    1    3    3    0    0 -0.26109952093E+02 -0.11890562339E+02  0.26412599480E+02  0.38996815849E+02  0.10566000000E+00 0.  1.
         13    1    4    4    0    0  0.12754416382E+02  0.63357058886E+01  0.79870462662E+02  0.81130254999E+02  0.10566000000E+00 0. -1.
        -13    1    4    4    0    0  0.13423305245E+01  0.89469706441E+00  0.82504475826E+01  0.84073410436E+01  0.10566000000E+00 0. -1.
         14    1    4    4    0    0  0.12013205186E+02  0.46601593859E+01  0.75441902717E+02  0.76534403179E+02  0.00000000000E+00 0. -1.
<mgrwt>
<rscale>  0 0.77217625E+02</rscale>
<asrwt>0</asrwt>
<pdfrwt beam="1">  1        2 0.30388019E-01 0.77217625E+02</pdfrwt>
<pdfrwt beam="2">  1       -1 0.11610309E-02 0.77217625E+02</pdfrwt>
<totfact> 0.24110120E+05</totfact>
</mgrwt>
</event>
<event>
 8    1  0.1226832E-016  0.7902448E+02  0.7818608E-02  0.1331843E+00
         -1   -1    0    0    0  501 -0.00000000000E+00  0.00000000000E+00  0.14390192411E+03  0.14390192420E+03  0.50400000000E-02 0.  1.
          2   -1    0    0  501    0  0.00000000000E+00 -0.00000000000E+00 -0.10849174788E+02  0.10849175088E+02  0.25500000000E-02 0. -1.
         24    2    1    2    0    0  0.35527136788E-14  0.00000000000E+00  0.13305274932E+03  0.15475109929E+03  0.79024481195E+02 0.  0.
         66    2    3    3    0    0 -0.22646888744E+02 -0.27041515318E+02  0.31808257950E+02  0.47538304724E+02  0.20000054596E+01 0.  0.
        -13    1    3    3    0    0  0.22646888744E+02  0.27041515318E+02  0.10124449137E+03  0.10721279456E+03  0.10566000000E+00 0.  1.
         13    1    4    4    0    0 -0.92032888566E+01 -0.11258410724E+02  0.13259526971E+02  0.19679394232E+02  0.10566000000E+00 0. -1.
        -13    1    4    4    0    0 -0.76003150030E+01 -0.78815760026E+01  0.10185335781E+02  0.14954472824E+02  0.10566000000E+00 0.  1.
        -14    1    4    4    0    0 -0.58432848841E+01 -0.79015285909E+01  0.83633951966E+01  0.12904437668E+02  0.00000000000E+00 0.  1.
<mgrwt>
<rscale>  0 0.79024481E+02</rscale>
<asrwt>0</asrwt>
<pdfrwt beam="1">  1        2 0.16691038E-02 0.79024481E+02</pdfrwt>
<pdfrwt beam="2">  1       -1 0.22138758E-01 0.79024481E+02</pdfrwt>
<totfact> 0.11243622E+05</totfact>
</mgrwt>
</event>
<event>
 8    1  0.1226832E-016  0.7705992E+02  0.7818608E-02  0.1337608E+00
         -1   -1    0    0    0  501 -0.00000000000E+00  0.00000000000E+00  0.28226536030E+02  0.28226536480E+02  0.50400000000E-02 0.  1.
          2   -1    0    0  501    0  0.00000000000E+00 -0.00000000000E+00 -0.52594408794E+02  0.52594408856E+02  0.25500000000E-02 0. -1.
         24    2    1    2    0    0  0.00000000000E+00  0.00000000000E+00 -0.24367872764E+02  0.80820945336E+02  0.77059924617E+02 0.  0.
         66    2    3    3    0    0 -0.32317015133E+02 -0.20630748498E+02 -0.15905522389E+02  0.41557224313E+02  0.19999998658E+01 0.  0.
        -13    1    3    3    0    0  0.32317015133E+02  0.20630748498E+02 -0.84623503750E+01  0.39263721023E+02  0.10566000000E+00 0.  1.
         13    1    4    4    0    0 -0.15649177426E+02 -0.90131863173E+01 -0.74181497066E+01  0.19523687941E+02  0.10566000000E+00 0. -1.
        -13    1    4    4    0    0 -0.15338355145E+01 -0.12106139356E+01 -0.10190272508E+01  0.22063132281E+01  0.10566000000E+00 0.  1.
         14    1    4    4    0    0 -0.15134002192E+02 -0.10406948245E+02 -0.74683454319E+01  0.19827223144E+02  0.00000000000E+00 0. -1.
<mgrwt>
<rscale>  0 0.77059925E+02</rscale>
<asrwt>0</asrwt>
<pdfrwt beam="1">  1        2 0.80914475E-02 0.77059925E+02</pdfrwt>
<pdfrwt beam="2">  1       -1 0.43425440E-02 0.77059925E+02</pdfrwt>
<totfact> 0.16734007E+05</totfact>
</mgrwt>
</event>
<event>
 8    1  0.1226832E-016  0.8066561E+02  0.7818608E-02  0.1327173E+00
         -1   -1    0    0    0  501 -0.00000000000E+00  0.00000000000E+00  0.11783926115E+01  0.11784033895E+01  0.50400000000E-02 0.  1.
          2   -1    0    0  501    0  0.00000000000E+00 -0.00000000000E+00 -0.13804632839E+04  0.13804632839E+04  0.25500000000E-02 0. -1.
         24    2    1    2    0    0  0.17763568394E-14  0.00000000000E+00 -0.13792848913E+04  0.13816416873E+04  0.80665610552E+02 0.  0.
         66    2    3    3    0    0  0.15139609921E+02  0.18819433634E+02 -0.12427857951E+04  0.12430220881E+04  0.19999985865E+01 0.  0.
        -13    1    3    3    0    0 -0.15139609921E+02 -0.18819433634E+02 -0.13649909613E+03  0.13861959919E+03  0.10566000000E+00 0.  1.
         13    1    4    4    0    0  0.48131165897E+01  0.72710137057E+01 -0.44593510035E+03  0.44602035673E+03  0.10566000000E+00 0. -1.
        -13    1    4    4    0    0  0.46662365611E+01  0.55611122755E+01 -0.35529100238E+03  0.35536517453E+03  0.10566000000E+00 0.  1.
         14    1    4    4    0    0  0.56602567698E+01  0.59873076524E+01 -0.44155969240E+03  0.44163655681E+03  0.00000000000E+00 0. -1.
<mgrwt>
<rscale>  0 0.80665611E+02</rscale>
<asrwt>0</asrwt>
<pdfrwt beam="1">  1        2 0.21237767E+00 0.80665611E+02</pdfrwt>
<pdfrwt beam="2">  1       -1 0.18129310E-03 0.80665611E+02</pdfrwt>
<totfact> 0.33417438E+05</totfact>
</mgrwt>
</event>
<event>
 8    1  0.1226832E-016  0.8184679E+02  0.7818608E-02  0.1323891E+00
         -1   -1    0    0    0  501 -0.00000000000E+00  0.00000000000E+00  0.21120852862E+01  0.21120912996E+01  0.50400000000E-02 0.  1.
          2   -1    0    0  501    0  0.00000000000E+00 -0.00000000000E+00 -0.79292332866E+03  0.79292332867E+03  0.25500000000E-02 0. -1.
         24    2    1    2    0    0 -0.88817841970E-15  0.00000000000E+00 -0.79081124338E+03  0.79503541997E+03  0.81846785829E+02 0.  0.
         66    2    3    3    0    0  0.48874302346E+01  0.26865255897E+02 -0.69140541939E+03  0.69194731223E+03  0.20000004893E+01 0.  0.
        -13    1    3    3    0    0 -0.48874302346E+01 -0.26865255897E+02 -0.99405823991E+02  0.10308810773E+03  0.10566000000E+00 0.  1.
         13    1    4    4    0    0  0.21003439816E+00  0.32170375552E+01 -0.74988270304E+02  0.75057613154E+02  0.10566000000E+00 0. -1.
        -13    1    4    4    0    0  0.17497121120E+01  0.86114970155E+01 -0.24071356524E+03  0.24087393182E+03  0.10566000000E+00 0.  1.
         14    1    4    4    0    0  0.29276837245E+01  0.15036721327E+02 -0.37570358384E+03  0.37601576726E+03  0.00000000000E+00 0. -1.
<mgrwt>
<rscale>  0 0.81846786E+02</rscale>
<asrwt>0</asrwt>
<pdfrwt beam="1">  1        2 0.12198797E+00 0.81846786E+02</pdfrwt>
<pdfrwt beam="2">  1       -1 0.32493729E-03 0.81846786E+02</pdfrwt>
<totfact> 0.32334971E+05</totfact>
</mgrwt>
</event>
<event>
 8    1  0.1226832E-016  0.7983726E+02  0.7818608E-02  0.1329514E+00
         -1   -1    0    0    0  501 -0.00000000000E+00  0.00000000000E+00  0.83409692447E+01  0.83409707674E+01  0.50400000000E-02 0.  1.
          2   -1    0    0  501    0  0.00000000000E+00 -0.00000000000E+00 -0.19104458857E+03  0.19104458859E+03  0.25500000000E-02 0. -1.
         24    2    1    2    0    0  0.35527136788E-14 -0.35527136788E-14 -0.18270361933E+03  0.19938555936E+03  0.79837264260E+02 0.  0.
         66    2    3    3    0    0 -0.19469283513E+02  0.19532880350E+02 -0.16339761501E+03  0.16572075011E+03  0.20000020335E+01 0.  0.
        -13    1    3    3    0    0  0.19469283513E+02 -0.19532880350E+02 -0.19306004313E+02  0.33664809250E+02  0.10566000000E+00 0.  1.
         13    1    4    4    0    0 -0.14204984582E+02  0.13712194672E+02 -0.11423323793E+03  0.11592691526E+03  0.10566000000E+00 0. -1.
        -13    1    4    4    0    0 -0.41405148950E+01  0.50340859895E+01 -0.40218849905E+02  0.40743747214E+02  0.10566000000E+00 0.  1.
        -14    1    4    4    0    0 -0.11237840356E+01  0.78659968830E+00 -0.89455271828E+01  0.90500876353E+01  0.00000000000E+00 0.  1.
<mgrwt>
<rscale>  0 0.79837264E+02</rscale>
<asrwt>0</asrwt>
<pdfrwt beam="1">  1        2 0.29391472E-01 0.79837264E+02</pdfrwt>
<pdfrwt beam="2">  1       -1 0.12832263E-02 0.79837264E+02</pdfrwt>
<totfact> 0.21829023E+05</totfact>
</mgrwt>
</event>
<event>
 8    1  0.1226832E-016  0.8019876E+02  0.7818608E-02  0.1328488E+00
          2   -1    0    0  501    0  0.00000000000E+00  0.00000000000E+00  0.19691800520E+03  0.19691800522E+03  0.25500000000E-02 0. -1.
         -1   -1    0    0    0  501 -0.00000000000E+00 -0.00000000000E+00 -0.81656325513E+01  0.81656341067E+01  0.50400000000E-02 0.  1.
         24    2    1    2    0    0  0.71054273576E-14  0.00000000000E+00  0.18875237265E+03  0.20508363933E+03  0.80198758953E+02 0.  0.
         66    2    3    3    0    0 -0.37424458088E+02 -0.63728113659E+01  0.61611633918E+02  0.72396106386E+02  0.19999994777E+01 0.  0.
        -13    1    3    3    0    0  0.37424458088E+02  0.63728113659E+01  0.12714073873E+03  0.13268753294E+03  0.10566000000E+00 0.  1.
         13    1    4    4    0    0 -0.25537327061E+02 -0.42518357384E+01  0.43133698488E+02  0.50306662480E+02  0.10566000000E+00 0. -1.
        -13    1    4    4    0    0 -0.31867612094E+01 -0.42937954556E+00  0.55465809582E+01  0.64121399050E+01  0.10566000000E+00 0. -1.
         14    1    4    4    0    0 -0.87003698184E+01 -0.16915960819E+01  0.12931354472E+02  0.15677304002E+02  0.00000000000E+00 0. -1.
<mgrwt>
<rscale>  0 0.80198759E+02</rscale>
<asrwt>0</asrwt>
<pdfrwt beam="1">  1        2 0.30295076E-01 0.80198759E+02</pdfrwt>
<pdfrwt beam="2">  1       -1 0.12562513E-02 0.80198759E+02</pdfrwt>
<totfact> 0.21796849E+05</totfact>
</mgrwt>
</event>
<event>
 8    1  0.1226832E-016  0.8087665E+02  0.7818608E-02  0.1326582E+00
         -1   -1    0    0    0  501 -0.00000000000E+00  0.00000000000E+00  0.24667375314E+01  0.24667426802E+01  0.50400000000E-02 0.  1.
          2   -1    0    0  501    0  0.00000000000E+00 -0.00000000000E+00 -0.66292273928E+03  0.66292273929E+03  0.25500000000E-02 0. -1.
         24    2    1    2    0    0 -0.44408920985E-15  0.00000000000E+00 -0.66045600175E+03  0.66538948197E+03  0.80876649684E+02 0.  0.
         66    2    3    3    0    0  0.25751170427E+01  0.35913413475E+02 -0.48142702785E+03  0.48277571152E+03  0.19999996795E+01 0.  0.
        -13    1    3    3    0    0 -0.25751170427E+01 -0.35913413475E+02 -0.17902897391E+03  0.18261377045E+03  0.10566000000E+00 0.  1.
         13    1    4    4    0    0  0.12132791618E+01  0.16545312732E+02 -0.21979420496E+03  0.22041942546E+03  0.10566000000E+00 0. -1.
        -13    1    4    4    0    0  0.57236957045E+00  0.11572194281E+02 -0.16494821616E+03  0.16535467477E+03  0.10566000000E+00 0.  1.
        -14    1    4    4    0    0  0.78946831043E+00  0.77959064615E+01 -0.96684606723E+02  0.97001611301E+02  0.00000000000E+00 0.  1.
<mgrwt>
<rscale>  0 0.80876650E+02</rscale>
<asrwt>0</asrwt>
<pdfrwt beam="1">  1        2 0.10198797E+00 0.80876650E+02</pdfrwt>
<pdfrwt beam="2">  1       -1 0.37949901E-03 0.80876650E+02</pdfrwt>
<totfact> 0.32097049E+05</totfact>
</mgrwt>
</event>
<event>
 8    1  0.1226832E-016  0.8019921E+02  0.7818608E-02  0.1328487E+00
         -1   -1    0    0    0  501 -0.00000000000E+00  0.00000000000E+00  0.18606327128E+01  0.18606395388E+01  0.50400000000E-02 0.  1.
          2   -1    0    0  501    0  0.00000000000E+00 -0.00000000000E+00 -0.86420885677E+03  0.86420885678E+03  0.25500000000E-02 0. -1.
         24    2    1    2    0    0  0.35527136788E-14 -0.44408920985E-15 -0.86234822406E+03  0.86606949632E+03  0.80199207655E+02 0.  0.
         66    2    3    3    0    0  0.23748198401E+02 -0.30178409127E+01 -0.77850544443E+03  0.77887599225E+03  0.20000012954E+01 0.  0.
        -13    1    3    3    0    0 -0.23748198401E+02  0.30178409127E+01 -0.83842779629E+02  0.87193504065E+02  0.10566000000E+00 0.  1.
         13    1    4    4    0    0  0.10116268907E+02 -0.15062836172E+01 -0.31883266088E+03  0.31899668430E+03  0.10566000000E+00 0. -1.
        -13    1    4    4    0    0  0.12568105638E+02 -0.14389728535E+01 -0.43411880038E+03  0.43430308763E+03  0.10566000000E+00 0.  1.
        -14    1    4    4    0    0  0.10638238562E+01 -0.72584442047E-01 -0.25553983174E+02  0.25576220318E+02  0.00000000000E+00 0.  1.
<mgrwt>
<rscale>  0 0.80199208E+02</rscale>
<asrwt>0</asrwt>
<pdfrwt beam="1">  1        2 0.13295489E+00 0.80199208E+02</pdfrwt>
<pdfrwt beam="2">  1       -1 0.28625240E-03 0.80199208E+02</pdfrwt>
<totfact> 0.34550568E+05</totfact>
</mgrwt>
</event>
<event>
 8    1  0.1226832E-016  0.8111201E+02  0.7818608E-02  0.1325925E+00
          2   -1    0    0  501    0  0.00000000000E+00  0.00000000000E+00  0.11482591550E+03  0.11482591553E+03  0.25500000000E-02 0. -1.
         -1   -1    0    0    0  501 -0.00000000000E+00 -0.00000000000E+00 -0.14324199881E+02  0.14324200767E+02  0.50400000000E-02 0.  1.
         24    2    1    2    0    0  0.00000000000E+00  0.00000000000E+00  0.10050171562E+03  0.12915011630E+03  0.81112007106E+02 0.  0.
         66    2    3    3    0    0  0.16789799226E+02 -0.31666047509E+02  0.80414245278E+02  0.88062970476E+02  0.20000006305E+01 0.  0.
        -13    1    3    3    0    0 -0.16789799226E+02  0.31666047509E+02  0.20087470341E+02  0.41087145820E+02  0.10566000000E+00 0.  1.
         13    1    4    4    0    0  0.73847993866E+01 -0.13973299319E+02  0.35567935109E+02  0.38921427617E+02  0.10566000000E+00 0.  1.
        -13    1    4    4    0    0  0.36638173613E+01 -0.59846439357E+01  0.17085555133E+02  0.18470703260E+02  0.10566000000E+00 0. -1.
        -14    1    4    4    0    0  0.57411824781E+01 -0.11708104254E+02  0.27760755037E+02  0.30670839599E+02  0.00000000000E+00 0.  1.
<mgrwt>
<rscale>  0 0.81112007E+02</rscale>
<asrwt>0</asrwt>
<pdfrwt beam="1">  1        2 0.17665526E-01 0.81112007E+02</pdfrwt>
<pdfrwt beam="2">  1       -1 0.22037230E-02 0.81112007E+02</pdfrwt>
<totfact> 0.17775867E+05</totfact>
</mgrwt>
</event>
<event>
 8    1  0.1226832E-016  0.8013206E+02  0.7818608E-02  0.1328677E+00
         -1   -1    0    0    0  501 -0.00000000000E+00  0.00000000000E+00  0.29800456659E+02  0.29800457085E+02  0.50400000000E-02 0.  1.
          2   -1    0    0  501    0  0.00000000000E+00 -0.00000000000E+00 -0.53867852006E+02  0.53867852066E+02  0.25500000000E-02 0. -1.
         24    2    1    2    0    0  0.00000000000E+00  0.00000000000E+00 -0.24067395347E+02  0.83668309151E+02  0.80132056241E+02 0.  0.
         66    2    3    3    0    0  0.34616014729E+02  0.38912773036E+01 -0.32657686819E+02  0.47790533490E+02  0.20000170174E+01 0.  0.
        -13    1    3    3    0    0 -0.34616014729E+02 -0.38912773036E+01  0.85902914716E+01  0.35877775661E+02  0.10566000000E+00 0.  1.
         13    1    4    4    0    0  0.18909380036E+02  0.20996106388E+01 -0.16805982919E+02  0.25385532180E+02  0.10566000000E+00 0. -1.
        -13    1    4    4    0    0  0.66567412767E+01  0.37712998804E+00 -0.69764561805E+01  0.96507272434E+01  0.10566000000E+00 0.  1.
         14    1    4    4    0    0  0.90498934170E+01  0.14145366767E+01 -0.88752477193E+01  0.12754274066E+02  0.00000000000E+00 0. -1.
<mgrwt>
<rscale>  0 0.80132056E+02</rscale>
<asrwt>0</asrwt>
<pdfrwt beam="1">  1        2 0.82873618E-02 0.80132056E+02</pdfrwt>
<pdfrwt beam="2">  1       -1 0.45846857E-02 0.80132056E+02</pdfrwt>
<totfact> 0.15121890E+05</totfact>
</mgrwt>
</event>
<event>
 8    1  0.1226832E-016  0.7752901E+02  0.7818608E-02  0.1336214E+00
         -1   -1    0    0    0  501 -0.00000000000E+00  0.00000000000E+00  0.29859394121E+02  0.29859394547E+02  0.50400000000E-02 0.  1.
          2   -1    0    0  501    0  0.00000000000E+00 -0.00000000000E+00 -0.50325422958E+02  0.50325423022E+02  0.25500000000E-02 0. -1.
         24    2    1    2    0    0  0.00000000000E+00 -0.14210854715E-13 -0.20466028836E+02  0.80184817569E+02  0.77529005103E+02 0.  0.
         66    2    3    3    0    0 -0.11154436151E+02 -0.34549957823E+02 -0.24214154444E+02  0.43685767704E+02  0.19999982702E+01 0.  0.
        -13    1    3    3    0    0  0.11154436151E+02  0.34549957823E+02  0.37481256081E+01  0.36499049864E+02  0.10566000000E+00 0.  1.
         13    1    4    4    0    0 -0.72345333570E+01 -0.22722071844E+02 -0.15548229796E+02  0.28467343318E+02  0.10566000000E+00 0. -1.
        -13    1    4    4    0    0  0.23213059998E-01 -0.60607826578E+00 -0.43073492739E+00  0.75137628634E+00  0.10566000000E+00 0.  1.
        -14    1    4    4    0    0 -0.39431158535E+01 -0.11221807713E+02 -0.82351897214E+01  0.14467048100E+02  0.00000000000E+00 0.  1.
<mgrwt>
<rscale>  0 0.77529005E+02</rscale>
<asrwt>0</asrwt>
<pdfrwt beam="1">  1        2 0.77423728E-02 0.77529005E+02</pdfrwt>
<pdfrwt beam="2">  1       -1 0.45937530E-02 0.77529005E+02</pdfrwt>
<totfact> 0.16303616E+05</totfact>
</mgrwt>
</event>
<event>
 8    1  0.1226832E-016  0.7983527E+02  0.7818608E-02  0.1329520E+00
          2   -1    0    0  501    0  0.00000000000E+00  0.00000000000E+00  0.69105524460E+03  0.69105524460E+03  0.25500000000E-02 0. -1.
         -1   -1    0    0    0  501 -0.00000000000E+00 -0.00000000000E+00 -0.23057716965E+01  0.23057772048E+01  0.50400000000E-02 0.  1.
         24    2    1    2    0    0 -0.22204460493E-15 -0.35527136788E-14  0.68874947290E+03  0.69336102181E+03  0.79835268772E+02 0.  0.
         66    2    3    3    0    0 -0.12048829093E+01  0.28052863602E+02  0.59069601555E+03  0.59136638194E+03  0.20000007754E+01 0.  0.
        -13    1    3    3    0    0  0.12048829093E+01 -0.28052863602E+02  0.98053457349E+02  0.10199463987E+03  0.10566000000E+00 0.  1.
         13    1    4    4    0    0 -0.47956665739E+00  0.11984031220E+02  0.24021412758E+03  0.24051337851E+03  0.10566000000E+00 0. -1.
        -13    1    4    4    0    0  0.25215046237E+00  0.11775335977E+01  0.25314851680E+02  0.25343698326E+02  0.10566000000E+00 0.  1.
        -14    1    4    4    0    0 -0.97746671423E+00  0.14891298783E+02  0.32516703629E+03  0.32550930511E+03  0.00000000000E+00 0.  1.
<mgrwt>
<rscale>  0 0.79835269E+02</rscale>
<asrwt>0</asrwt>
<pdfrwt beam="1">  1        2 0.10631627E+00 0.79835269E+02</pdfrwt>
<pdfrwt beam="2">  1       -1 0.35473427E-03 0.79835269E+02</pdfrwt>
<totfact> 0.33531584E+05</totfact>
</mgrwt>
</event>
<event>
 8    1  0.1226832E-016  0.8016202E+02  0.7818608E-02  0.1328592E+00
          2   -1    0    0  501    0  0.00000000000E+00  0.00000000000E+00  0.80227548736E+03  0.80227548737E+03  0.25500000000E-02 0. -1.
         -1   -1    0    0    0  501 -0.00000000000E+00 -0.00000000000E+00 -0.20024103134E+01  0.20024166562E+01  0.50400000000E-02 0.  1.
         24    2    1    2    0    0  0.35527136788E-14 -0.35527136788E-14  0.80027307705E+03  0.80427790402E+03  0.80162017500E+02 0.  0.
         66    2    3    3    0    0 -0.18995779001E+02  0.22417495345E+02  0.67351874566E+03  0.67416235765E+03  0.20000005858E+01 0.  0.
        -13    1    3    3    0    0  0.18995779001E+02 -0.22417495345E+02  0.12675433139E+03  0.13011554637E+03  0.10566000000E+00 0.  1.
         13    1    4    4    0    0 -0.13931496576E+02  0.16851290706E+02  0.51743430217E+03  0.51789605214E+03  0.10566000000E+00 0. -1.
        -13    1    4    4    0    0 -0.77241146880E+00  0.95900000073E+00  0.27658754069E+02  0.27686352977E+02  0.10566000000E+00 0. -1.
         14    1    4    4    0    0 -0.42918709562E+01  0.46072046377E+01  0.12842568942E+03  0.12857995253E+03  0.00000000000E+00 0. -1.
<mgrwt>
<rscale>  0 0.80162017E+02</rscale>
<asrwt>0</asrwt>
<pdfrwt beam="1">  1        2 0.12342703E+00 0.80162017E+02</pdfrwt>
<pdfrwt beam="2">  1       -1 0.30806352E-03 0.80162017E+02</pdfrwt>
<totfact> 0.34202183E+05</totfact>
</mgrwt>
</event>
<event>
 8    1  0.1734383E-016  0.8271048E+02  0.7818608E-02  0.1321531E+00
         -1   -1    0    0    0  501 -0.00000000000E+00  0.00000000000E+00  0.60313608136E+01  0.60313629193E+01  0.50400000000E-02 0.  1.
          2   -1    0    0  501    0  0.00000000000E+00 -0.00000000000E+00 -0.28356049735E+03  0.28356049736E+03  0.25500000000E-02 0. -1.
         24    2    1    2    0    0 -0.35527136788E-14 -0.88817841970E-15 -0.27752913654E+03  0.28959186028E+03  0.82710482493E+02 0.  0.
         66    2    3    3    0    0  0.15451681373E+02  0.36130884160E+01 -0.27246576869E+03  0.27293479802E+03  0.19999992576E+01 0.  0.
        -13    1    3    3    0    0 -0.15451681373E+02 -0.36130884160E+01 -0.50633678450E+01  0.16657062260E+02  0.10566000000E+00 0.  1.
         13    1    4    4    0    0  0.65083614397E+01  0.14329125488E+01 -0.11945515911E+03  0.11964095540E+03  0.10566000000E+00 0. -1.
        -13    1    4    4    0    0  0.69236652704E+01  0.22460187431E+01 -0.12309286577E+03  0.12330793368E+03  0.10566000000E+00 0.  1.
        -14    1    4    4    0    0  0.20196546630E+01 -0.65842875983E-01 -0.29917743813E+02  0.29985908943E+02  0.00000000000E+00 0.  1.
<mgrwt>
<rscale>  0 0.82710482E+02</rscale>
<asrwt>0</asrwt>
<pdfrwt beam="1">  1        2 0.43624682E-01 0.82710482E+02</pdfrwt>
<pdfrwt beam="2">  1       -1 0.92790205E-03 0.82710482E+02</pdfrwt>
<totfact> 0.22884844E+05</totfact>
</mgrwt>
</event>
<event>
 8    1  0.1226832E-016  0.7561124E+02  0.7818608E-02  0.1341989E+00
          2   -1    0    0  501    0  0.00000000000E+00  0.00000000000E+00  0.97916316604E+03  0.97916316604E+03  0.25500000000E-02 0. -1.
         -1   -1    0    0    0  501 -0.00000000000E+00 -0.00000000000E+00 -0.14596755010E+01  0.14596842020E+01  0.50400000000E-02 0.  1.
         24    2    1    2    0    0  0.00000000000E+00  0.17763568394E-14  0.97770349054E+03  0.98062285024E+03  0.75611236011E+02 0.  0.
         66    2    3    3    0    0  0.23922503456E+01 -0.11368678863E+02  0.95541796050E+03  0.95549068492E+03  0.19999999202E+01 0.  0.
        -13    1    3    3    0    0 -0.23922503456E+01  0.11368678863E+02  0.22285530033E+02  0.25132165321E+02  0.10566000000E+00 0.  1.
         13    1    4    4    0    0  0.92896183103E+00 -0.28665400342E+01  0.24721506713E+03  0.24723345365E+03  0.10566000000E+00 0. -1.
        -13    1    4    4    0    0  0.37262107621E+00 -0.51090048418E+01  0.36794934826E+03  0.36798501984E+03  0.10566000000E+00 0.  1.
         14    1    4    4    0    0  0.10906674383E+01 -0.33931339875E+01  0.34025354511E+03  0.34027221144E+03  0.00000000000E+00 0. -1.
<mgrwt>
<rscale>  0 0.75611236E+02</rscale>
<asrwt>0</asrwt>
<pdfrwt beam="1">  1        2 0.15064022E+00 0.75611236E+02</pdfrwt>
<pdfrwt beam="2">  1       -1 0.22456653E-03 0.75611236E+02</pdfrwt>
<totfact> 0.40729491E+05</totfact>
</mgrwt>
</event>
<event>
 8    1  0.1226832E-016  0.8154587E+02  0.7818608E-02  0.1324721E+00
          2   -1    0    0  501    0  0.00000000000E+00  0.00000000000E+00  0.25076293743E+03  0.25076293744E+03  0.25500000000E-02 0. -1.
         -1   -1    0    0    0  501 -0.00000000000E+00 -0.00000000000E+00 -0.66294962581E+01  0.66294981739E+01  0.50400000000E-02 0.  1.
         24    2    1    2    0    0  0.35527136788E-14 -0.88817841970E-15  0.24413344117E+03  0.25739243562E+03  0.81545869389E+02 0.  0.
         66    2    3    3    0    0 -0.13371101626E+02  0.76669753965E+01  0.24120234578E+03  0.24170258684E+03  0.20000014467E+01 0.  0.
        -13    1    3    3    0    0  0.13371101626E+02 -0.76669753965E+01  0.29310953943E+01  0.15689848778E+02  0.10566000000E+00 0.  1.
         13    1    4    4    0    0 -0.54338701895E+01  0.32058197532E+01  0.96211131892E+02  0.96417826617E+02  0.10566000000E+00 0. -1.
        -13    1    4    4    0    0 -0.80537703629E+00  0.23267721078E+00  0.84799016505E+01  0.85218933866E+01  0.10566000000E+00 0.  1.
         14    1    4    4    0    0 -0.71318543999E+01  0.42284784326E+01  0.13651131223E+03  0.13676286683E+03  0.00000000000E+00 0. -1.
<mgrwt>
<rscale>  0 0.81545869E+02</rscale>
<asrwt>0</asrwt>
<pdfrwt beam="1">  1        2 0.38578908E-01 0.81545869E+02</pdfrwt>
<pdfrwt beam="2">  1       -1 0.10199228E-02 0.81545869E+02</pdfrwt>
<totfact> 0.22720851E+05</totfact>
</mgrwt>
</event>
<event>
 8    1  0.1226832E-016  0.7034693E+02  0.7818608E-02  0.1358917E+00
          2   -1    0    0  501    0  0.00000000000E+00  0.00000000000E+00  0.60190458100E+03  0.60190458100E+03  0.25500000000E-02 0. -1.
         -1   -1    0    0    0  501 -0.00000000000E+00 -0.00000000000E+00 -0.20554267417E+01  0.20554329209E+01  0.50400000000E-02 0.  1.
         24    2    1    2    0    0  0.35527136788E-14  0.35527136788E-14  0.59984915426E+03  0.60396001392E+03  0.70346929979E+02 0.  0.
         66    2    3    3    0    0 -0.16510698015E+02 -0.28207238916E+02  0.41108700251E+03  0.41238910650E+03  0.20000123648E+01 0.  0.
        -13    1    3    3    0    0  0.16510698015E+02  0.28207238916E+02  0.18876215175E+03  0.19157090743E+03  0.10566000000E+00 0.  1.
         13    1    4    4    0    0 -0.33262629232E+01 -0.60684669519E+01  0.79100972060E+02  0.79403181681E+02  0.10566000000E+00 0.  1.
        -13    1    4    4    0    0 -0.64565862838E+01 -0.11714476763E+02  0.16993724140E+03  0.17046288057E+03  0.10566000000E+00 0. -1.
         14    1    4    4    0    0 -0.67278488076E+01 -0.10424295201E+02  0.16204878905E+03  0.16252304425E+03  0.00000000000E+00 0. -1.
<mgrwt>
<rscale>  0 0.70346930E+02</rscale>
<asrwt>0</asrwt>
<pdfrwt beam="1">  1        2 0.92600791E-01 0.70346930E+02</pdfrwt>
<pdfrwt beam="2">  1       -1 0.31621968E-03 0.70346930E+02</pdfrwt>
<totfact> 0.44882890E+05</totfact>
</mgrwt>
</event>
<event>
 8    1  0.1226832E-016  0.7858899E+02  0.7818608E-02  0.1333104E+00
          2   -1    0    0  501    0  0.00000000000E+00  0.00000000000E+00  0.10595167858E+03  0.10595167861E+03  0.25500000000E-02 0. -1.
         -1   -1    0    0    0  501 -0.00000000000E+00 -0.00000000000E+00 -0.14573223236E+02  0.14573224107E+02  0.50400000000E-02 0.  1.
         24    2    1    2    0    0 -0.17763568394E-14  0.00000000000E+00  0.91378455344E+02  0.12052490272E+03  0.78588994612E+02 0.  0.
         66    2    3    3    0    0 -0.87613063811E+01 -0.37671742496E+02  0.35302380544E+02  0.52403995492E+02  0.19999998221E+01 0.  0.
        -13    1    3    3    0    0  0.87613063811E+01  0.37671742496E+02  0.56076074800E+02  0.68120907225E+02  0.10566000000E+00 0.  1.
         13    1    4    4    0    0 -0.31220740173E+01 -0.14293225434E+02  0.13225760223E+02  0.19722462752E+02  0.10566000000E+00 0. -1.
        -13    1    4    4    0    0 -0.43155284960E+01 -0.14929546062E+02  0.13930971427E+02  0.20870990891E+02  0.10566000000E+00 0.  1.
        -14    1    4    4    0    0 -0.13237038678E+01 -0.84489709999E+01  0.81456488941E+01  0.11810541850E+02  0.00000000000E+00 0.  1.
<mgrwt>
<rscale>  0 0.78588995E+02</rscale>
<asrwt>0</asrwt>
<pdfrwt beam="1">  1        2 0.16300259E-01 0.78588995E+02</pdfrwt>
<pdfrwt beam="2">  1       -1 0.22420344E-02 0.78588995E+02</pdfrwt>
<totfact> 0.18895658E+05</totfact>
</mgrwt>
</event>
<event>
 8    1  0.1226832E-016  0.8047997E+02  0.7818608E-02  0.1327695E+00
          2   -1    0    0  501    0  0.00000000000E+00  0.00000000000E+00  0.19398479424E+03  0.19398479426E+03  0.25500000000E-02 0. -1.
         -1   -1    0    0    0  501 -0.00000000000E+00 -0.00000000000E+00 -0.83473363123E+01  0.83473378338E+01  0.50400000000E-02 0.  1.
         24    2    1    2    0    0  0.00000000000E+00  0.00000000000E+00  0.18563745793E+03  0.20233213209E+03  0.80479971983E+02 0.  0.
         66    2    3    3    0    0 -0.14568867031E+02 -0.15321566833E+02  0.17887940930E+03  0.18013563052E+03  0.20000036303E+01 0.  0.
        -13    1    3    3    0    0  0.14568867031E+02  0.15321566833E+02  0.67580486316E+01  0.22196501574E+02  0.10566000000E+00 0.  1.
         13    1    4    4    0    0 -0.72245656749E+01 -0.76008050558E+01  0.85198963546E+02  0.85841954428E+02  0.10566000000E+00 0. -1.
        -13    1    4    4    0    0 -0.63466340149E-01 -0.93544848501E-01  0.68051085730E+00  0.69788084765E+00  0.10566000000E+00 0. -1.
         14    1    4    4    0    0 -0.72808350161E+01 -0.76272169291E+01  0.92999934893E+02  0.93595795240E+02  0.00000000000E+00 0. -1.
<mgrwt>
<rscale>  0 0.80479972E+02</rscale>
<asrwt>0</asrwt>
<pdfrwt beam="1">  1        2 0.29843813E-01 0.80479972E+02</pdfrwt>
<pdfrwt beam="2">  1       -1 0.12842058E-02 0.80479972E+02</pdfrwt>
<totfact> 0.21484465E+05</totfact>
</mgrwt>
</event>
<event>
 8    1  0.1226832E-016  0.8147925E+02  0.7818608E-02  0.1324905E+00
          2   -1    0    0  501    0  0.00000000000E+00  0.00000000000E+00  0.23055259923E+02  0.23055260064E+02  0.25500000000E-02 0. -1.
         -1   -1    0    0    0  501 -0.00000000000E+00 -0.00000000000E+00 -0.71988651845E+02  0.71988652022E+02  0.50400000000E-02 0.  1.
         24    2    1    2    0    0  0.00000000000E+00  0.00000000000E+00 -0.48933391922E+02  0.95043912086E+02  0.81479251221E+02 0.  0.
         66    2    3    3    0    0  0.21457787260E+02  0.33628809922E+02 -0.33985067450E+02  0.52443477118E+02  0.19999979432E+01 0.  0.
        -13    1    3    3    0    0 -0.21457787260E+02 -0.33628809922E+02 -0.14948324472E+02  0.42600434968E+02  0.10566000000E+00 0.  1.
         13    1    4    4    0    0  0.75000889950E+01  0.11407339506E+02 -0.11702910909E+02  0.17981880250E+02  0.10566000000E+00 0.  1.
        -13    1    4    4    0    0  0.13236977393E+02  0.21069118446E+02 -0.20630936659E+02  0.32322933563E+02  0.10566000000E+00 0. -1.
         14    1    4    4    0    0  0.72072087205E+00  0.11523519698E+01 -0.16512198818E+01  0.21386633058E+01  0.00000000000E+00 0. -1.
<mgrwt>
<rscale>  0 0.81479251E+02</rscale>
<asrwt>0</asrwt>
<pdfrwt beam="1">  1        2 0.35469631E-02 0.81479251E+02</pdfrwt>
<pdfrwt beam="2">  1       -1 0.11075177E-01 0.81479251E+02</pdfrwt>
<totfact> 0.12124045E+05</totfact>
</mgrwt>
</event>
<event>
 8    1  0.1226832E-016  0.8176173E+02  0.7818608E-02  0.1324125E+00
          2   -1    0    0  501    0  0.00000000000E+00  0.00000000000E+00  0.12020130772E+02  0.12020131043E+02  0.25500000000E-02 0. -1.
         -1   -1    0    0    0  501 -0.00000000000E+00 -0.00000000000E+00 -0.13903719000E+03  0.13903719009E+03  0.50400000000E-02 0.  1.
         24    2    1    2    0    0 -0.71054273576E-14  0.00000000000E+00 -0.12701705923E+03  0.15105732113E+03  0.81761732695E+02 0.  0.
         66    2    3    3    0    0 -0.33345940389E+02 -0.16719822601E+02 -0.32756557460E+02  0.49683963856E+02  0.19999999010E+01 0.  0.
        -13    1    3    3    0    0  0.33345940389E+02  0.16719822601E+02 -0.94260501766E+02  0.10137335728E+03  0.10566000000E+00 0.  1.
         13    1    4    4    0    0 -0.11088701426E+02 -0.59988310419E+01 -0.11936854882E+02  0.17362169844E+02  0.10566000000E+00 0. -1.
        -13    1    4    4    0    0 -0.24625063458E+01 -0.89992076376E+00 -0.20800656629E+01  0.33483775297E+01  0.10566000000E+00 0.  1.
         14    1    4    4    0    0 -0.19794732617E+02 -0.98210707956E+01 -0.18739636915E+02  0.28973416482E+02  0.00000000000E+00 0. -1.
<mgrwt>
<rscale>  0 0.81761733E+02</rscale>
<asrwt>0</asrwt>
<pdfrwt beam="1">  1        2 0.18492510E-02 0.81761733E+02</pdfrwt>
<pdfrwt beam="2">  1       -1 0.21390336E-01 0.81761733E+02</pdfrwt>
<totfact> 0.10406195E+05</totfact>
</mgrwt>
</event>
<event>
 8    1  0.1226832E-016  0.8192379E+02  0.7818608E-02  0.1323679E+00
         -1   -1    0    0    0  501 -0.00000000000E+00  0.00000000000E+00  0.79106813499E+01  0.79106829554E+01  0.50400000000E-02 0.  1.
          2   -1    0    0  501    0  0.00000000000E+00 -0.00000000000E+00 -0.21210264958E+03  0.21210264960E+03  0.25500000000E-02 0. -1.
         24    2    1    2    0    0  0.00000000000E+00 -0.35527136788E-14 -0.20419196823E+03  0.22001333255E+03  0.81923785377E+02 0.  0.
         66    2    3    3    0    0 -0.97837782957E+01  0.19346566632E+02 -0.19541493797E+03  0.19662403196E+03  0.20000003062E+01 0.  0.
        -13    1    3    3    0    0  0.97837782957E+01 -0.19346566632E+02 -0.87770302576E+01  0.23389300596E+02  0.10566000000E+00 0.  1.
         13    1    4    4    0    0 -0.30623550264E+01  0.53206328191E+01 -0.48283341441E+02  0.48672162235E+02  0.10566000000E+00 0.  1.
        -13    1    4    4    0    0 -0.55303772697E+01  0.11682039003E+02 -0.12339432263E+03  0.12406943672E+03  0.10566000000E+00 0. -1.
        -14    1    4    4    0    0 -0.11910459996E+01  0.23438948095E+01 -0.23737273904E+02  0.23882432997E+02  0.00000000000E+00 0.  1.
<mgrwt>
<rscale>  0 0.81923785E+02</rscale>
<asrwt>0</asrwt>
<pdfrwt beam="1">  1        2 0.32631173E-01 0.81923785E+02</pdfrwt>
<pdfrwt beam="2">  1       -1 0.12170282E-02 0.81923785E+02</pdfrwt>
<totfact> 0.21146988E+05</totfact>
</mgrwt>
</event>
