<event>
 8    1  0.2603554E-016  0.7735849E+02  0.7818608E-02  0.1336719E+00
          2   -1    0    0  501    0  0.00000000000E+00  0.00000000000E+00  0.64783452495E+02  0.64783452545E+02  0.25500000000E-02 0. -1.
         -1   -1    0    0    0  501 -0.00000000000E+00 -0.00000000000E+00 -0.23093611764E+02  0.23093612314E+02  0.50400000000E-02 0.  1.
         24    2    1    2    0    0  0.00000000000E+00  0.11102230246E-15  0.41689840731E+02  0.87877064859E+02  0.77358488274E+02 0.  0.
         66    2    3    3    0    0 -0.38120935574E+02 -0.95351800738E+00  0.28040104948E+02  0.47374702253E+02  0.20000006143E+01 0.  0.
        -13    1    3    3    0    0  0.38120935574E+02  0.95351800738E+00  0.13649735783E+02  0.40502362606E+02  0.10566000000E+00 0.  1.
         13    1    4    4    0    0 -0.20615830693E+02 -0.46263026121E+00  0.15079878989E+02  0.25546827911E+02  0.10566000000E+00 0. -1.
        -13    1    4    4    0    0 -0.77828448078E+01  0.38083688847E+00  0.61148375179E+01  0.99055596482E+01  0.10566000000E+00 0.  1.
        -14    1    4    4    0    0 -0.97222600731E+01 -0.87172463464E+00  0.68453884406E+01  0.11922314694E+02  0.00000000000E+00 0.  1.
<mgrwt>
<rscale>  0 0.77358488E+02</rscale>
<asrwt>0</asrwt>
<pdfrwt beam="1">  1        2 0.99666848E-02 0.77358488E+02</pdfrwt>
<pdfrwt beam="2">  1       -1 0.35528635E-02 0.77358488E+02</pdfrwt>
<totfact> 0.17356584E+05</totfact>
</mgrwt>
</event>
<event>
 8    1  0.2603554E-016  0.8089684E+02  0.7818608E-02  0.1326525E+00
         -1   -1    0    0    0  501 -0.00000000000E+00  0.00000000000E+00  0.15097659713E+02  0.15097660554E+02  0.50400000000E-02 0.  1.
          2   -1    0    0  501    0  0.00000000000E+00 -0.00000000000E+00 -0.10836609899E+03  0.10836609902E+03  0.25500000000E-02 0. -1.
         24    2    1    2    0    0  0.00000000000E+00 -0.17763568394E-14 -0.93268439278E+02  0.12346375957E+03  0.80896836544E+02 0.  0.
         66    2    3    3    0    0  0.13673251212E+02 -0.12337913463E+02 -0.10158181879E+03  0.10325719256E+03  0.19999998649E+01 0.  0.
        -13    1    3    3    0    0 -0.13673251212E+02  0.12337913463E+02  0.83133795158E+01  0.20206567010E+02  0.10566000000E+00 0.  1.
         13    1    4    4    0    0  0.51384559626E+01 -0.47059654444E+01 -0.37349809278E+02  0.37994331914E+02  0.10566000000E+00 0. -1.
        -13    1    4    4    0    0  0.34352433369E+01 -0.22812246315E+01 -0.20557569206E+02  0.20967348385E+02  0.10566000000E+00 0.  1.
        -14    1    4    4    0    0  0.50995519124E+01 -0.53507233872E+01 -0.43674440310E+02  0.44295512265E+02  0.00000000000E+00 0.  1.
<mgrwt>
<rscale>  0 0.80896837E+02</rscale>
<asrwt>0</asrwt>
<pdfrwt beam="1">  1        2 0.16671707E-01 0.80896837E+02</pdfrwt>
<pdfrwt beam="2">  1       -1 0.23227170E-02 0.80896837E+02</pdfrwt>
<totfact> 0.17602280E+05</totfact>
</mgrwt>
</event>
<event>
 8    1  0.2603554E-016  0.8096544E+02  0.7818608E-02  0.1326334E+00
          2   -1    0    0  501    0  0.00000000000E+00  0.00000000000E+00  0.79273110479E+01  0.79273114580E+01  0.25500000000E-02 0. -1.
         -1   -1    0    0    0  501 -0.00000000000E+00 -0.00000000000E+00 -0.20673475420E+03  0.20673475426E+03  0.50400000000E-02 0.  1.
         24    2    1    2    0    0  0.71054273576E-14  0.00000000000E+00 -0.19880744315E+03  0.21466206572E+03  0.80965443285E+02 0.  0.
         66    2    3    3    0    0 -0.30701911941E+02  0.20557185110E+02 -0.55767078380E+02  0.66926618467E+02  0.19999929919E+01 0.  0.
        -13    1    3    3    0    0  0.30701911941E+02 -0.20557185110E+02 -0.14304036477E+03  0.14773544725E+03  0.10566000000E+00 0.  1.
         13    1    4    4    0    0 -0.40569288894E+01  0.26849304448E+01 -0.79929254270E+01  0.93576463079E+01  0.10566000000E+00 0. -1.
        -13    1    4    4    0    0 -0.95331603501E+01  0.58461329300E+01 -0.17701010934E+02  0.20937893128E+02  0.10566000000E+00 0.  1.
         14    1    4    4    0    0 -0.17111822702E+02  0.12026121735E+02 -0.30073142019E+02  0.36631079032E+02  0.00000000000E+00 0. -1.
<mgrwt>
<rscale>  0 0.80965443E+02</rscale>
<asrwt>0</asrwt>
<pdfrwt beam="1">  1        2 0.12195865E-02 0.80965443E+02</pdfrwt>
<pdfrwt beam="2">  1       -1 0.31805343E-01 0.80965443E+02</pdfrwt>
<totfact> 0.95632141E+04</totfact>
</mgrwt>
</event>
<event>
 8    1  0.2603554E-016  0.8707168E+02  0.7818608E-02  0.1310102E+00
         -1   -1    0    0    0  501 -0.00000000000E+00  0.00000000000E+00  0.12527856842E+02  0.12527857856E+02  0.50400000000E-02 0.  1.
          2   -1    0    0  501    0  0.00000000000E+00 -0.00000000000E+00 -0.15129239557E+03  0.15129239559E+03  0.25500000000E-02 0. -1.
         24    2    1    2    0    0  0.00000000000E+00 -0.88817841970E-15 -0.13876453873E+03  0.16382025345E+03  0.87071684441E+02 0.  0.
         66    2    3    3    0    0 -0.28226859219E+02  0.46009002107E+01 -0.13111858936E+03  0.13421627449E+03  0.19999998782E+01 0.  0.
        -13    1    3    3    0    0  0.28226859219E+02 -0.46009002107E+01 -0.76459493697E+01  0.29603978955E+02  0.10566000000E+00 0.  1.
         13    1    4    4    0    0 -0.87732870651E+01  0.58564672215E+00 -0.40566007310E+02  0.41508139698E+02  0.10566000000E+00 0. -1.
        -13    1    4    4    0    0 -0.61191395842E+01  0.15712816886E+01 -0.28992399540E+02  0.29672937005E+02  0.10566000000E+00 0.  1.
         14    1    4    4    0    0 -0.13334432570E+02  0.24439717999E+01 -0.61560182507E+02  0.63035197790E+02  0.00000000000E+00 0. -1.
<mgrwt>
<rscale>  0 0.87071684E+02</rscale>
<asrwt>0</asrwt>
<pdfrwt beam="1">  1        2 0.23275752E-01 0.87071684E+02</pdfrwt>
<pdfrwt beam="2">  1       -1 0.19273628E-02 0.87071684E+02</pdfrwt>
<totfact> 0.16026424E+05</totfact>
</mgrwt>
</event>
<event>
 8    1  0.2603554E-016  0.7989429E+02  0.7818608E-02  0.1329352E+00
          2   -1    0    0  501    0  0.00000000000E+00  0.00000000000E+00  0.94197950192E+02  0.94197950227E+02  0.25500000000E-02 0. -1.
         -1   -1    0    0    0  501 -0.00000000000E+00 -0.00000000000E+00 -0.16940648206E+02  0.16940648956E+02  0.50400000000E-02 0.  1.
         24    2    1    2    0    0  0.00000000000E+00  0.00000000000E+00  0.77257301986E+02  0.11113859918E+03  0.79894289646E+02 0.  0.
         66    2    3    3    0    0  0.14360600465E+02  0.21027940434E+02  0.81423819147E+02  0.85336038187E+02  0.19999911034E+01 0.  0.
        -13    1    3    3    0    0 -0.14360600465E+02 -0.21027940434E+02 -0.41665171605E+01  0.25802560995E+02  0.10566000000E+00 0.  1.
         13    1    4    4    0    0  0.77360966459E+01  0.10272108041E+02  0.39520244077E+02  0.41559887522E+02  0.10566000000E+00 0. -1.
        -13    1    4    4    0    0  0.64219100146E+00  0.87679108851E+00  0.29067646842E+01  0.31050953061E+01  0.10566000000E+00 0.  1.
        -14    1    4    4    0    0  0.59823128173E+01  0.98790413052E+01  0.38996810386E+02  0.40671055359E+02  0.00000000000E+00 0.  1.
<mgrwt>
<rscale>  0 0.79894290E+02</rscale>
<asrwt>0</asrwt>
<pdfrwt beam="1">  1        2 0.14491992E-01 0.79894290E+02</pdfrwt>
<pdfrwt beam="2">  1       -1 0.26062537E-02 0.79894290E+02</pdfrwt>
<totfact> 0.17496981E+05</totfact>
</mgrwt>
</event>
<event>
 8    1  0.2603554E-016  0.7844263E+02  0.7818608E-02  0.1333530E+00
         -1   -1    0    0    0  501 -0.00000000000E+00  0.00000000000E+00  0.35487985535E+01  0.35488021324E+01  0.50400000000E-02 0.  1.
          2   -1    0    0  501    0  0.00000000000E+00 -0.00000000000E+00 -0.43347364272E+03  0.43347364273E+03  0.25500000000E-02 0. -1.
         24    2    1    2    0    0  0.00000000000E+00 -0.35527136788E-14 -0.42992484416E+03  0.43702244486E+03  0.78442626676E+02 0.  0.
         66    2    3    3    0    0 -0.13475169688E+02  0.28336786076E+02 -0.34596688983E+03  0.34739263450E+03  0.20000022761E+01 0.  0.
        -13    1    3    3    0    0  0.13475169688E+02 -0.28336786076E+02 -0.83957954339E+02  0.89629810354E+02  0.10566000000E+00 0.  1.
         13    1    4    4    0    0 -0.44211607098E+01  0.11182260002E+02 -0.12917155208E+03  0.12973006834E+03  0.10566000000E+00 0. -1.
        -13    1    4    4    0    0 -0.35945866118E+01  0.62816293150E+01 -0.83488907060E+02  0.83802080439E+02  0.10566000000E+00 0.  1.
        -14    1    4    4    0    0 -0.54594223660E+01  0.10872896758E+02 -0.13330643068E+03  0.13386048572E+03  0.00000000000E+00 0.  1.
<mgrwt>
<rscale>  0 0.78442627E+02</rscale>
<asrwt>0</asrwt>
<pdfrwt beam="1">  1        2 0.66688211E-01 0.78442627E+02</pdfrwt>
<pdfrwt beam="2">  1       -1 0.54596963E-03 0.78442627E+02</pdfrwt>
<totfact> 0.30576426E+05</totfact>
</mgrwt>
</event>
<event>
 8    1  0.2603554E-016  0.8028118E+02  0.7818608E-02  0.1328255E+00
         -1   -1    0    0    0  501 -0.00000000000E+00  0.00000000000E+00  0.62849488111E+02  0.62849488313E+02  0.50400000000E-02 0.  1.
          2   -1    0    0  501    0  0.00000000000E+00 -0.00000000000E+00 -0.25636916501E+02  0.25636916627E+02  0.25500000000E-02 0. -1.
         24    2    1    2    0    0  0.35527136788E-14 -0.35527136788E-14  0.37212571610E+02  0.88486404941E+02  0.80281183184E+02 0.  0.
         66    2    3    3    0    0  0.16250750596E+02 -0.26062215126E+02 -0.98254401161E+01  0.32308903542E+02  0.20000056019E+01 0.  0.
        -13    1    3    3    0    0 -0.16250750596E+02  0.26062215126E+02  0.47038011727E+02  0.56177501399E+02  0.10566000000E+00 0.  1.
         13    1    4    4    0    0  0.10278629930E+02 -0.16526053736E+02 -0.70496818336E+01  0.20699513601E+02  0.10566000000E+00 0. -1.
        -13    1    4    4    0    0  0.31708501408E+01 -0.45856528566E+01 -0.15979572311E+01  0.58006149747E+01  0.10566000000E+00 0.  1.
        -14    1    4    4    0    0  0.28012705249E+01 -0.49505085329E+01 -0.11778010515E+01  0.58087749660E+01  0.00000000000E+00 0.  1.
<mgrwt>
<rscale>  0 0.80281183E+02</rscale>
<asrwt>0</asrwt>
<pdfrwt beam="1">  1        2 0.39441410E-02 0.80281183E+02</pdfrwt>
<pdfrwt beam="2">  1       -1 0.96691520E-02 0.80281183E+02</pdfrwt>
<totfact> 0.12916138E+05</totfact>
</mgrwt>
</event>
<event>
 8    1  0.2603554E-016  0.7956432E+02  0.7818608E-02  0.1330292E+00
          2   -1    0    0  501    0  0.00000000000E+00  0.00000000000E+00  0.57708814939E+01  0.57708820572E+01  0.25500000000E-02 0. -1.
         -1   -1    0    0    0  501 -0.00000000000E+00 -0.00000000000E+00 -0.27424236162E+03  0.27424236167E+03  0.50400000000E-02 0.  1.
         24    2    1    2    0    0 -0.71054273576E-14 -0.35527136788E-14 -0.26847148013E+03  0.28001324372E+03  0.79564320015E+02 0.  0.
         66    2    3    3    0    0 -0.32439896572E+02 -0.11520975072E+02 -0.64327585553E+02  0.72987108630E+02  0.20000017324E+01 0.  0.
        -13    1    3    3    0    0  0.32439896572E+02  0.11520975072E+02 -0.20414389457E+03  0.20702613509E+03  0.10566000000E+00 0.  1.
         13    1    4    4    0    0 -0.86872708023E+01 -0.34478207173E+01 -0.18444356809E+02  0.20677562812E+02  0.10566000000E+00 0.  1.
        -13    1    4    4    0    0 -0.10856935652E+02 -0.42602377180E+01 -0.20608845413E+02  0.23680336789E+02  0.10566000000E+00 0.  1.
         14    1    4    4    0    0 -0.12895690117E+02 -0.38129166363E+01 -0.25274383331E+02  0.28629209029E+02  0.00000000000E+00 0. -1.
<mgrwt>
<rscale>  0 0.79564320E+02</rscale>
<asrwt>0</asrwt>
<pdfrwt beam="1">  1        2 0.88782818E-03 0.79564320E+02</pdfrwt>
<pdfrwt beam="2">  1       -1 0.42191123E-01 0.79564320E+02</pdfrwt>
<totfact> 0.90786993E+04</totfact>
</mgrwt>
</event>
<event>
 8    1  0.2603554E-016  0.7675908E+02  0.7818608E-02  0.1338509E+00
         -1   -1    0    0    0  501 -0.00000000000E+00  0.00000000000E+00  0.94066917699E+01  0.94066931201E+01  0.50400000000E-02 0.  1.
          2   -1    0    0  501    0  0.00000000000E+00 -0.00000000000E+00 -0.15658948369E+03  0.15658948371E+03  0.25500000000E-02 0. -1.
         24    2    1    2    0    0  0.71054273576E-14  0.00000000000E+00 -0.14718279192E+03  0.16599617683E+03  0.76759080800E+02 0.  0.
         66    2    3    3    0    0  0.28527828779E+02  0.23458813987E+01 -0.12884559617E+03  0.13200199959E+03  0.20000173466E+01 0.  0.
        -13    1    3    3    0    0 -0.28527828779E+02 -0.23458813987E+01 -0.18337195758E+02  0.33994177247E+02  0.10566000000E+00 0.  1.
         13    1    4    4    0    0  0.68851284759E+01  0.91336348756E+00 -0.28211092273E+02  0.29053676502E+02  0.10566000000E+00 0. -1.
        -13    1    4    4    0    0  0.41047075103E+01  0.36291943489E+00 -0.17861461406E+02  0.18330938379E+02  0.10566000000E+00 0. -1.
         14    1    4    4    0    0  0.17537992793E+02  0.10695984763E+01 -0.82773042488E+02  0.84617384708E+02  0.00000000000E+00 0. -1.
<mgrwt>
<rscale>  0 0.76759081E+02</rscale>
<asrwt>0</asrwt>
<pdfrwt beam="1">  1        2 0.24090688E-01 0.76759081E+02</pdfrwt>
<pdfrwt beam="2">  1       -1 0.14471836E-02 0.76759081E+02</pdfrwt>
<totfact> 0.22659190E+05</totfact>
</mgrwt>
</event>
<event>
 8    1  0.2603554E-016  0.8078049E+02  0.7818608E-02  0.1326851E+00
         -1   -1    0    0    0  501 -0.00000000000E+00  0.00000000000E+00  0.68311442312E+01  0.68311460904E+01  0.50400000000E-02 0.  1.
          2   -1    0    0  501    0  0.00000000000E+00 -0.00000000000E+00 -0.23881379755E+03  0.23881379756E+03  0.25500000000E-02 0. -1.
         24    2    1    2    0    0  0.00000000000E+00  0.00000000000E+00 -0.23198265331E+03  0.24564494365E+03  0.80780485898E+02 0.  0.
         66    2    3    3    0    0 -0.16395234995E+02  0.14433523493E+02 -0.21928420445E+03  0.22037852130E+03  0.19999990496E+01 0.  0.
        -13    1    3    3    0    0  0.16395234995E+02 -0.14433523493E+02 -0.12698448864E+02  0.25266422353E+02  0.10566000000E+00 0.  1.
         13    1    4    4    0    0 -0.14776028465E+01  0.20763905685E+01 -0.23727632393E+02  0.23864333449E+02  0.10566000000E+00 0. -1.
        -13    1    4    4    0    0 -0.51144391600E+01  0.44039680299E+01 -0.69771262447E+02  0.70097023117E+02  0.10566000000E+00 0.  1.
         14    1    4    4    0    0 -0.98031929884E+01  0.79531648942E+01 -0.12578530961E+03  0.12641716473E+03  0.00000000000E+00 0. -1.
<mgrwt>
<rscale>  0 0.80780486E+02</rscale>
<asrwt>0</asrwt>
<pdfrwt beam="1">  1        2 0.36740578E-01 0.80780486E+02</pdfrwt>
<pdfrwt beam="2">  1       -1 0.10509456E-02 0.80780486E+02</pdfrwt>
<totfact> 0.22888561E+05</totfact>
</mgrwt>
</event>
<event>
 8    1  0.2603554E-016  0.7902464E+02  0.7818608E-02  0.1331842E+00
         -1   -1    0    0    0  501 -0.00000000000E+00  0.00000000000E+00  0.82376986925E+02  0.82376987079E+02  0.50400000000E-02 0.  1.
          2   -1    0    0  501    0  0.00000000000E+00 -0.00000000000E+00 -0.18952179807E+02  0.18952179978E+02  0.25500000000E-02 0. -1.
         24    2    1    2    0    0  0.00000000000E+00  0.17763568394E-14  0.63424807118E+02  0.10132916706E+03  0.79024641337E+02 0.  0.
         66    2    3    3    0    0  0.20058023314E+02 -0.13141284311E+02 -0.84939857578E+01  0.25517943710E+02  0.20000011270E+01 0.  0.
        -13    1    3    3    0    0 -0.20058023314E+02  0.13141284311E+02  0.71918792876E+02  0.75811223347E+02  0.10566000000E+00 0.  1.
         13    1    4    4    0    0  0.48842331227E+01 -0.33176545504E+01 -0.12952168670E+01  0.60457684112E+01  0.10566000000E+00 0. -1.
        -13    1    4    4    0    0  0.32841363886E+01 -0.24594646665E+01 -0.14913994588E+01  0.43669159193E+01  0.10566000000E+00 0.  1.
         14    1    4    4    0    0  0.11889653803E+02 -0.73641650938E+01 -0.57073694320E+01  0.15105259379E+02  0.00000000000E+00 0. -1.
<mgrwt>
<rscale>  0 0.79024641E+02</rscale>
<asrwt>0</asrwt>
<pdfrwt beam="1">  1        2 0.29157200E-02 0.79024641E+02</pdfrwt>
<pdfrwt beam="2">  1       -1 0.12673383E-01 0.79024641E+02</pdfrwt>
<totfact> 0.12722105E+05</totfact>
</mgrwt>
</event>
<event>
 8    1  0.2603554E-016  0.8146932E+02  0.7818608E-02  0.1324933E+00
          2   -1    0    0  501    0  0.00000000000E+00  0.00000000000E+00  0.10028119736E+03  0.10028119739E+03  0.25500000000E-02 0. -1.
         -1   -1    0    0    0  501 -0.00000000000E+00 -0.00000000000E+00 -0.16546596705E+02  0.16546597472E+02  0.50400000000E-02 0.  1.
         24    2    1    2    0    0  0.00000000000E+00  0.00000000000E+00  0.83734600655E+02  0.11682779486E+03  0.81469321256E+02 0.  0.
         66    2    3    3    0    0  0.37370275323E+02 -0.15004429676E+02  0.33331868880E+02  0.52313324224E+02  0.20000051770E+01 0.  0.
        -13    1    3    3    0    0 -0.37370275323E+02  0.15004429676E+02  0.50402731775E+02  0.64514470640E+02  0.10566000000E+00 0.  1.
         13    1    4    4    0    0  0.24452257871E+02 -0.95311143096E+01  0.20756288700E+02  0.33460271063E+02  0.10566000000E+00 0. -1.
        -13    1    4    4    0    0  0.43896517145E+01 -0.16214920266E+01  0.44849793813E+01  0.64826293009E+01  0.10566000000E+00 0.  1.
         14    1    4    4    0    0  0.85283657370E+01 -0.38518233402E+01  0.80906007988E+01  0.12370423860E+02  0.00000000000E+00 0. -1.
<mgrwt>
<rscale>  0 0.81469321E+02</rscale>
<asrwt>0</asrwt>
<pdfrwt beam="1">  1        2 0.15427877E-01 0.81469321E+02</pdfrwt>
<pdfrwt beam="2">  1       -1 0.25456303E-02 0.81469321E+02</pdfrwt>
<totfact> 0.16894809E+05</totfact>
</mgrwt>
</event>
<event>
 8    1  0.2603554E-016  0.8276821E+02  0.7818608E-02  0.1321374E+00
         -1   -1    0    0    0  501 -0.00000000000E+00  0.00000000000E+00  0.58750228466E+01  0.58750250084E+01  0.50400000000E-02 0.  1.
          2   -1    0    0  501    0  0.00000000000E+00 -0.00000000000E+00 -0.29151273836E+03  0.29151273837E+03  0.25500000000E-02 0. -1.
         24    2    1    2    0    0  0.00000000000E+00  0.00000000000E+00 -0.28563771551E+03  0.29738776338E+03  0.82768214214E+02 0.  0.
         66    2    3    3    0    0 -0.24733545476E+02  0.10669947890E+02 -0.25567034912E+03  0.25709321942E+03  0.19999990760E+01 0.  0.
        -13    1    3    3    0    0  0.24733545476E+02 -0.10669947890E+02 -0.29967366394E+02  0.40294543953E+02  0.10566000000E+00 0.  1.
         13    1    4    4    0    0 -0.13621831677E+02  0.50775548428E+01 -0.13513761674E+03  0.13591733695E+03  0.10566000000E+00 0. -1.
        -13    1    4    4    0    0 -0.36926311025E+01  0.22200753309E+01 -0.43869910763E+02  0.44081112660E+02  0.10566000000E+00 0.  1.
         14    1    4    4    0    0 -0.74190826960E+01  0.33723177167E+01 -0.76662821609E+02  0.77094769809E+02  0.00000000000E+00 0. -1.
<mgrwt>
<rscale>  0 0.82768214E+02</rscale>
<asrwt>0</asrwt>
<pdfrwt beam="1">  1        2 0.44848102E-01 0.82768214E+02</pdfrwt>
<pdfrwt beam="2">  1       -1 0.90385006E-03 0.82768214E+02</pdfrwt>
<totfact> 0.23073725E+05</totfact>
</mgrwt>
</event>
<event>
 8    1  0.2603554E-016  0.7756888E+02  0.7818608E-02  0.1336096E+00
          2   -1    0    0  501    0  0.00000000000E+00  0.00000000000E+00  0.40953964728E+02  0.40953964807E+02  0.25500000000E-02 0. -1.
         -1   -1    0    0    0  501 -0.00000000000E+00 -0.00000000000E+00 -0.36729842487E+02  0.36729842833E+02  0.50400000000E-02 0.  1.
         24    2    1    2    0    0  0.00000000000E+00  0.00000000000E+00  0.42241222402E+01  0.77683807640E+02  0.77568877527E+02 0.  0.
         66    2    3    3    0    0  0.36054198363E+02  0.91129157265E+01  0.13051058449E+02  0.39462394539E+02  0.20000008711E+01 0.  0.
        -13    1    3    3    0    0 -0.36054198363E+02 -0.91129157265E+01 -0.88269362084E+01  0.38221413101E+02  0.10566000000E+00 0.  1.
         13    1    4    4    0    0  0.23496871864E+02  0.61849575135E+01  0.93618524787E+01  0.26038666109E+02  0.10566000000E+00 0. -1.
        -13    1    4    4    0    0  0.74284441566E+00  0.23110541660E+00  0.15215273995E+00  0.79971371836E+00  0.10566000000E+00 0.  1.
         14    1    4    4    0    0  0.11814482083E+02  0.26968527964E+01  0.35370532300E+01  0.12624014712E+02  0.00000000000E+00 0. -1.
<mgrwt>
<rscale>  0 0.77568878E+02</rscale>
<asrwt>0</asrwt>
<pdfrwt beam="1">  1        2 0.63006100E-02 0.77568878E+02</pdfrwt>
<pdfrwt beam="2">  1       -1 0.56507450E-02 0.77568878E+02</pdfrwt>
<totfact> 0.15595799E+05</totfact>
</mgrwt>
</event>
<event>
 8    1  0.2603554E-016  0.8072663E+02  0.7818608E-02  0.1327002E+00
         -1   -1    0    0    0  501 -0.00000000000E+00  0.00000000000E+00  0.20290886513E+02  0.20290887139E+02  0.50400000000E-02 0.  1.
          2   -1    0    0  501    0  0.00000000000E+00 -0.00000000000E+00 -0.80292062727E+02  0.80292062768E+02  0.25500000000E-02 0. -1.
         24    2    1    2    0    0  0.00000000000E+00  0.00000000000E+00 -0.60001176214E+02  0.10058294991E+03  0.80726629218E+02 0.  0.
         66    2    3    3    0    0  0.80810868980E+01  0.35843854647E+02 -0.50760002102E+02  0.62695005328E+02  0.19999995725E+01 0.  0.
        -13    1    3    3    0    0 -0.80810868980E+01 -0.35843854647E+02 -0.92411741116E+01  0.37887944579E+02  0.10566000000E+00 0.  1.
         13    1    4    4    0    0  0.36441090431E+01  0.18438265249E+02 -0.24693961407E+02  0.31033079933E+02  0.10566000000E+00 0. -1.
        -13    1    4    4    0    0  0.13126878539E+01  0.63255470642E+01 -0.93784561336E+01  0.11388691696E+02  0.10566000000E+00 0.  1.
         14    1    4    4    0    0  0.31242900010E+01  0.11080042334E+02 -0.16687584562E+02  0.20273233700E+02  0.00000000000E+00 0. -1.
<mgrwt>
<rscale>  0 0.80726629E+02</rscale>
<asrwt>0</asrwt>
<pdfrwt beam="1">  1        2 0.12352625E-01 0.80726629E+02</pdfrwt>
<pdfrwt beam="2">  1       -1 0.31216750E-02 0.80726629E+02</pdfrwt>
<totfact> 0.16308689E+05</totfact>
</mgrwt>
</event>
<event>
 8    1  0.2603554E-016  0.6940240E+02  0.7818608E-02  0.1362137E+00
         -1   -1    0    0    0  501 -0.00000000000E+00  0.00000000000E+00  0.28969035239E+02  0.28969035678E+02  0.50400000000E-02 0.  1.
          2   -1    0    0  501    0  0.00000000000E+00 -0.00000000000E+00 -0.41567602086E+02  0.41567602164E+02  0.25500000000E-02 0. -1.
         24    2    1    2    0    0  0.00000000000E+00  0.35527136788E-14 -0.12598566847E+02  0.70536637842E+02  0.69402401914E+02 0.  0.
         66    2    3    3    0    0  0.72715924631E+00  0.21369147249E+02 -0.34045250618E+02  0.40252308172E+02  0.20000022029E+01 0.  0.
        -13    1    3    3    0    0 -0.72715924631E+00 -0.21369147249E+02  0.21446683772E+02  0.30284329670E+02  0.10566000000E+00 0.  1.
         13    1    4    4    0    0  0.13633122931E+00  0.12212023649E+02 -0.20412280688E+02  0.23787065282E+02  0.10566000000E+00 0. -1.
        -13    1    4    4    0    0  0.83629231896E+00  0.56791512011E+01 -0.87403907229E+01  0.10457424981E+02  0.10566000000E+00 0.  1.
         14    1    4    4    0    0 -0.24546430195E+00  0.34779723986E+01 -0.48925792073E+01  0.60078179091E+01  0.00000000000E+00 0. -1.
<mgrwt>
<rscale>  0 0.69402402E+02</rscale>
<asrwt>0</asrwt>
<pdfrwt beam="1">  1        2 0.63950157E-02 0.69402402E+02</pdfrwt>
<pdfrwt beam="2">  1       -1 0.44567747E-02 0.69402402E+02</pdfrwt>
<totfact> 0.21170407E+05</totfact>
</mgrwt>
</event>
<event>
 8    1  0.2603554E-016  0.7971976E+02  0.7818608E-02  0.1329849E+00
         -1   -1    0    0    0  501 -0.00000000000E+00  0.00000000000E+00  0.39901626791E+01  0.39901658621E+01  0.50400000000E-02 0.  1.
          2   -1    0    0  501    0  0.00000000000E+00 -0.00000000000E+00 -0.39818160813E+03  0.39818160814E+03  0.25500000000E-02 0. -1.
         24    2    1    2    0    0  0.00000000000E+00  0.35527136788E-14 -0.39419144546E+03  0.40217177400E+03  0.79719760010E+02 0.  0.
         66    2    3    3    0    0  0.18661495997E+02  0.27542644821E+02 -0.30774085495E+03  0.30954043763E+03  0.20000008906E+01 0.  0.
        -13    1    3    3    0    0 -0.18661495997E+02 -0.27542644821E+02 -0.86450590502E+02  0.92631336376E+02  0.10566000000E+00 0.  1.
         13    1    4    4    0    0  0.71822520334E+01  0.98695918571E+01 -0.11793296793E+03  0.11856301985E+03  0.10566000000E+00 0. -1.
        -13    1    4    4    0    0  0.33690900295E+01  0.58062651022E+01 -0.57030299213E+02  0.57424121015E+02  0.10566000000E+00 0.  1.
         14    1    4    4    0    0  0.81101539344E+01  0.11866787862E+02 -0.13277758781E+03  0.13355329676E+03  0.00000000000E+00 0. -1.
<mgrwt>
<rscale>  0 0.79719760E+02</rscale>
<asrwt>0</asrwt>
<pdfrwt beam="1">  1        2 0.61258678E-01 0.79719760E+02</pdfrwt>
<pdfrwt beam="2">  1       -1 0.61387174E-03 0.79719760E+02</pdfrwt>
<totfact> 0.28468356E+05</totfact>
</mgrwt>
</event>
<event>
 8    1  0.2603554E-016  0.7893502E+02  0.7818608E-02  0.1332101E+00
         -1   -1    0    0    0  501 -0.00000000000E+00  0.00000000000E+00  0.89784591107E+01  0.89784605252E+01  0.50400000000E-02 0.  1.
          2   -1    0    0  501    0  0.00000000000E+00 -0.00000000000E+00 -0.17349124500E+03  0.17349124502E+03  0.25500000000E-02 0. -1.
         24    2    1    2    0    0  0.00000000000E+00  0.88817841970E-15 -0.16451278589E+03  0.18246970555E+03  0.78935015806E+02 0.  0.
         66    2    3    3    0    0  0.38071313074E+02 -0.37040606481E+01 -0.10454585928E+03  0.11134173358E+03  0.19999999927E+01 0.  0.
        -13    1    3    3    0    0 -0.38071313074E+02  0.37040606481E+01 -0.59966926612E+02  0.71127971965E+02  0.10566000000E+00 0.  1.
         13    1    4    4    0    0  0.16519845280E+02 -0.88215331678E+00 -0.43897299965E+02  0.46911273600E+02  0.10566000000E+00 0. -1.
        -13    1    4    4    0    0  0.73675557979E+01 -0.10669712082E+01 -0.21806035721E+02  0.23041997828E+02  0.10566000000E+00 0.  1.
        -14    1    4    4    0    0  0.14183911996E+02 -0.17549361231E+01 -0.38842523592E+02  0.41388462152E+02  0.00000000000E+00 0.  1.
<mgrwt>
<rscale>  0 0.78935016E+02</rscale>
<asrwt>0</asrwt>
<pdfrwt beam="1">  1        2 0.26690958E-01 0.78935016E+02</pdfrwt>
<pdfrwt beam="2">  1       -1 0.13813016E-02 0.78935016E+02</pdfrwt>
<totfact> 0.21769532E+05</totfact>
</mgrwt>
</event>
<event>
 8    1  0.2603554E-016  0.7834676E+02  0.7818608E-02  0.1333810E+00
         -1   -1    0    0    0  501 -0.00000000000E+00  0.00000000000E+00  0.20585331938E+01  0.20585393636E+01  0.50400000000E-02 0.  1.
          2   -1    0    0  501    0  0.00000000000E+00 -0.00000000000E+00 -0.74545868561E+03  0.74545868562E+03  0.25500000000E-02 0. -1.
         24    2    1    2    0    0  0.00000000000E+00  0.35527136788E-14 -0.74340015242E+03  0.74751722498E+03  0.78346761428E+02 0.  0.
         66    2    3    3    0    0 -0.17077300289E+02 -0.28505380460E+02 -0.56941272597E+03  0.57038499576E+03  0.19999993800E+01 0.  0.
        -13    1    3    3    0    0  0.17077300289E+02  0.28505380460E+02 -0.17398742645E+03  0.17713222922E+03  0.10566000000E+00 0.  1.
         13    1    4    4    0    0 -0.58362357611E+00 -0.15583853401E+01 -0.31962060506E+02  0.32005525416E+02  0.10566000000E+00 0. -1.
        -13    1    4    4    0    0 -0.39577912197E+01 -0.67339942106E+01 -0.13998572022E+03  0.14020350858E+03  0.10566000000E+00 0.  1.
         14    1    4    4    0    0 -0.12535885493E+02 -0.20213000910E+02 -0.39746494524E+03  0.39817596177E+03  0.00000000000E+00 0. -1.
<mgrwt>
<rscale>  0 0.78346761E+02</rscale>
<asrwt>0</asrwt>
<pdfrwt beam="1">  1        2 0.11468574E+00 0.78346761E+02</pdfrwt>
<pdfrwt beam="2">  1       -1 0.31669849E-03 0.78346761E+02</pdfrwt>
<totfact> 0.35799908E+05</totfact>
</mgrwt>
</event>
<event>
 8    1  0.2603554E-016  0.8164666E+02  0.7818608E-02  0.1324442E+00
          2   -1    0    0  501    0  0.00000000000E+00  0.00000000000E+00  0.12345877660E+02  0.12345877923E+02  0.25500000000E-02 0. -1.
         -1   -1    0    0    0  501 -0.00000000000E+00 -0.00000000000E+00 -0.13498792814E+03  0.13498792823E+03  0.50400000000E-02 0.  1.
         24    2    1    2    0    0  0.00000000000E+00  0.35527136788E-14 -0.12264205048E+03  0.14733380616E+03  0.81646664909E+02 0.  0.
         66    2    3    3    0    0 -0.20693027070E+02 -0.30848577497E+02 -0.30909612719E+02  0.48365693087E+02  0.20000016158E+01 0.  0.
        -13    1    3    3    0    0  0.20693027070E+02  0.30848577497E+02 -0.91732437760E+02  0.98968113069E+02  0.10566000000E+00 0.  1.
         13    1    4    4    0    0 -0.14666432930E+02 -0.21424116167E+02 -0.21415312562E+02  0.33655962096E+02  0.10566000000E+00 0. -1.
        -13    1    4    4    0    0 -0.15415380752E+01 -0.23142410159E+01 -0.29571764570E+01  0.40605551038E+01  0.10566000000E+00 0.  1.
         14    1    4    4    0    0 -0.44850560646E+01 -0.71102203140E+01 -0.65371237002E+01  0.10649175888E+02  0.00000000000E+00 0. -1.
<mgrwt>
<rscale>  0 0.81646665E+02</rscale>
<asrwt>0</asrwt>
<pdfrwt beam="1">  1        2 0.18993659E-02 0.81646665E+02</pdfrwt>
<pdfrwt beam="2">  1       -1 0.20767373E-01 0.81646665E+02</pdfrwt>
<totfact> 0.10519193E+05</totfact>
</mgrwt>
</event>
<event>
 8    1  0.2603554E-016  0.7966614E+02  0.7818608E-02  0.1330002E+00
         -1   -1    0    0    0  501 -0.00000000000E+00  0.00000000000E+00  0.10580148558E+03  0.10580148570E+03  0.50400000000E-02 0.  1.
          2   -1    0    0  501    0  0.00000000000E+00 -0.00000000000E+00 -0.14996703819E+02  0.14996704036E+02  0.25500000000E-02 0. -1.
         24    2    1    2    0    0  0.00000000000E+00  0.00000000000E+00  0.90804781757E+02  0.12079818973E+03  0.79666142449E+02 0.  0.
         66    2    3    3    0    0 -0.22050622474E+02 -0.13712290696E+02 -0.32059783914E+00  0.26045338386E+02  0.20000002667E+01 0.  0.
        -13    1    3    3    0    0  0.22050622474E+02  0.13712290696E+02  0.91125379597E+02  0.94752851346E+02  0.10566000000E+00 0.  1.
         13    1    4    4    0    0 -0.12107772256E+02 -0.68768310845E+01 -0.50811234918E+00  0.13934069648E+02  0.10566000000E+00 0.  1.
        -13    1    4    4    0    0 -0.52480089199E+01 -0.34086334089E+01  0.58024855030E+00  0.62855573942E+01  0.10566000000E+00 0. -1.
        -14    1    4    4    0    0 -0.46948412982E+01 -0.34268262028E+01 -0.39273404027E+00  0.58257113442E+01  0.00000000000E+00 0.  1.
<mgrwt>
<rscale>  0 0.79666142E+02</rscale>
<asrwt>0</asrwt>
<pdfrwt beam="1">  1        2 0.23071852E-02 0.79666142E+02</pdfrwt>
<pdfrwt beam="2">  1       -1 0.16277152E-01 0.79666142E+02</pdfrwt>
<totfact> 0.11832305E+05</totfact>
</mgrwt>
</event>
<event>
 8    1  0.2603554E-016  0.8041644E+02  0.7818608E-02  0.1327874E+00
         -1   -1    0    0    0  501 -0.00000000000E+00  0.00000000000E+00  0.16007984638E+01  0.16008063978E+01  0.50400000000E-02 0.  1.
          2   -1    0    0  501    0  0.00000000000E+00 -0.00000000000E+00 -0.10099314835E+04  0.10099314835E+04  0.25500000000E-02 0. -1.
         24    2    1    2    0    0  0.00000000000E+00  0.00000000000E+00 -0.10083306851E+04  0.10115322899E+04  0.80416435678E+02 0.  0.
         66    2    3    3    0    0 -0.24900559716E+02  0.15193292562E+02 -0.85211729291E+03  0.85261876292E+03  0.20000000524E+01 0.  0.
        -13    1    3    3    0    0  0.24900559716E+02 -0.15193292562E+02 -0.15621339218E+03  0.15891352703E+03  0.10566000000E+00 0.  1.
         13    1    4    4    0    0 -0.10786934557E+02  0.60198419194E+01 -0.38292966532E+03  0.38312887675E+03  0.10566000000E+00 0. -1.
        -13    1    4    4    0    0 -0.36017977302E+01  0.25919632169E+01 -0.11970101077E+03  0.11978328082E+03  0.10566000000E+00 0.  1.
         14    1    4    4    0    0 -0.10511827429E+02  0.65814874256E+01 -0.34948661682E+03  0.34970660535E+03  0.00000000000E+00 0. -1.
<mgrwt>
<rscale>  0 0.80416436E+02</rscale>
<asrwt>0</asrwt>
<pdfrwt beam="1">  1        2 0.15537357E+00 0.80416436E+02</pdfrwt>
<pdfrwt beam="2">  1       -1 0.24627810E-03 0.80416436E+02</pdfrwt>
<totfact> 0.34772523E+05</totfact>
</mgrwt>
</event>
<event>
 8    1  0.2603554E-016  0.8015535E+02  0.7818608E-02  0.1328611E+00
         -1   -1    0    0    0  501 -0.00000000000E+00  0.00000000000E+00  0.25769633967E+02  0.25769634460E+02  0.50400000000E-02 0.  1.
          2   -1    0    0  501    0  0.00000000000E+00 -0.00000000000E+00 -0.62329943562E+02  0.62329943615E+02  0.25500000000E-02 0. -1.
         24    2    1    2    0    0 -0.35527136788E-14 -0.17763568394E-14 -0.36560309595E+02  0.88099578075E+02  0.80155345544E+02 0.  0.
         66    2    3    3    0    0 -0.20842101866E+02  0.13515282883E+02 -0.52824547003E+02  0.58407951914E+02  0.19999997971E+01 0.  0.
        -13    1    3    3    0    0  0.20842101866E+02 -0.13515282883E+02  0.16264237408E+02  0.29691626161E+02  0.10566000000E+00 0.  1.
         13    1    4    4    0    0 -0.96893041988E+01  0.67420005834E+01 -0.25170449224E+02  0.27801076704E+02  0.10566000000E+00 0. -1.
        -13    1    4    4    0    0 -0.20923193247E+01  0.73115302651E+00 -0.43197444547E+01  0.48563094109E+01  0.10566000000E+00 0.  1.
        -14    1    4    4    0    0 -0.90604783422E+01  0.60421292732E+01 -0.23334353324E+02  0.25750565799E+02  0.00000000000E+00 0.  1.
<mgrwt>
<rscale>  0 0.80155346E+02</rscale>
<asrwt>0</asrwt>
<pdfrwt beam="1">  1        2 0.95892220E-02 0.80155346E+02</pdfrwt>
<pdfrwt beam="2">  1       -1 0.39645591E-02 0.80155346E+02</pdfrwt>
<totfact> 0.15622114E+05</totfact>
</mgrwt>
</event>
<event>
 8    1  0.2603554E-016  0.8005571E+02  0.7818608E-02  0.1328893E+00
         -1   -1    0    0    0  501 -0.00000000000E+00  0.00000000000E+00  0.64863101300E+02  0.64863101496E+02  0.50400000000E-02 0.  1.
          2   -1    0    0  501    0  0.00000000000E+00 -0.00000000000E+00 -0.24701703410E+02  0.24701703542E+02  0.25500000000E-02 0. -1.
         24    2    1    2    0    0  0.00000000000E+00 -0.35527136788E-14  0.40161397890E+02  0.89564805038E+02  0.80055708235E+02 0.  0.
         66    2    3    3    0    0  0.16418398788E+02 -0.26825203469E+02 -0.75628516947E+01  0.32409135832E+02  0.19999999217E+01 0.  0.
        -13    1    3    3    0    0 -0.16418398788E+02  0.26825203469E+02  0.47724249584E+02  0.57155669206E+02  0.10566000000E+00 0.  1.
         13    1    4    4    0    0  0.88396395758E+01 -0.13017168916E+02 -0.36323775997E+01  0.16149032339E+02  0.10566000000E+00 0. -1.
        -13    1    4    4    0    0  0.50254043649E+00 -0.91247831716E+00 -0.47747660446E+00  0.11507873448E+01  0.10566000000E+00 0.  1.
         14    1    4    4    0    0  0.70762187759E+01 -0.12895556235E+02 -0.34529974905E+01  0.15109316148E+02  0.00000000000E+00 0. -1.
<mgrwt>
<rscale>  0 0.80055708E+02</rscale>
<asrwt>0</asrwt>
<pdfrwt beam="1">  1        2 0.38002622E-02 0.80055708E+02</pdfrwt>
<pdfrwt beam="2">  1       -1 0.99789385E-02 0.80055708E+02</pdfrwt>
<totfact> 0.12924140E+05</totfact>
</mgrwt>
</event>
<event>
 8    1  0.2603554E-016  0.7945342E+02  0.7818608E-02  0.1330610E+00
          2   -1    0    0  501    0  0.00000000000E+00  0.00000000000E+00  0.53024116330E+01  0.53024122462E+01  0.25500000000E-02 0. -1.
         -1   -1    0    0    0  501 -0.00000000000E+00 -0.00000000000E+00 -0.29764027453E+03  0.29764027457E+03  0.50400000000E-02 0.  1.
         24    2    1    2    0    0  0.71054273576E-14  0.44408920985E-15 -0.29233786289E+03  0.30294268681E+03  0.79453416627E+02 0.  0.
         66    2    3    3    0    0  0.36007533492E+02  0.32862039362E+01 -0.83741879816E+02  0.91236199138E+02  0.19999983865E+01 0.  0.
        -13    1    3    3    0    0 -0.36007533492E+02 -0.32862039362E+01 -0.20859598308E+03  0.21170648768E+03  0.10566000000E+00 0.  1.
         13    1    4    4    0    0  0.18672439841E+02  0.23742009846E+01 -0.43878723289E+02  0.47745684218E+02  0.10566000000E+00 0. -1.
        -13    1    4    4    0    0  0.93472225606E+01  0.86709060010E+00 -0.20717625062E+02  0.22745407623E+02  0.10566000000E+00 0.  1.
        -14    1    4    4    0    0  0.79878710906E+01  0.44912351453E-01 -0.19145531465E+02  0.20745107297E+02  0.00000000000E+00 0.  1.
<mgrwt>
<rscale>  0 0.79453417E+02</rscale>
<asrwt>0</asrwt>
<pdfrwt beam="1">  1        2 0.81575592E-03 0.79453417E+02</pdfrwt>
<pdfrwt beam="2">  1       -1 0.45790798E-01 0.79453417E+02</pdfrwt>
<totfact> 0.88245915E+04</totfact>
</mgrwt>
</event>
<event>
 8    1  0.2603554E-016  0.7931494E+02  0.7818608E-02  0.1331007E+00
         -1   -1    0    0    0  501 -0.00000000000E+00  0.00000000000E+00  0.25266198038E+02  0.25266198540E+02  0.50400000000E-02 0.  1.
          2   -1    0    0  501    0  0.00000000000E+00 -0.00000000000E+00 -0.62245805041E+02  0.62245805093E+02  0.25500000000E-02 0. -1.
         24    2    1    2    0    0  0.00000000000E+00 -0.35527136788E-14 -0.36979607003E+02  0.87512003634E+02  0.79314938353E+02 0.  0.
         66    2    3    3    0    0  0.10040327056E+02 -0.28810976889E+02 -0.46410555629E+02  0.55577155698E+02  0.20000012623E+01 0.  0.
        -13    1    3    3    0    0 -0.10040327056E+02  0.28810976889E+02  0.94309486255E+01  0.31934847936E+02  0.10566000000E+00 0.  1.
         13    1    4    4    0    0  0.74972266876E+00 -0.25884869040E+01 -0.36236804511E+01  0.45171420810E+01  0.10566000000E+00 0. -1.
        -13    1    4    4    0    0  0.21695062205E+01 -0.49483488995E+01 -0.74624620319E+01  0.92137081398E+01  0.10566000000E+00 0.  1.
         14    1    4    4    0    0  0.71210981665E+01 -0.21274141085E+02 -0.35324413146E+02  0.41846305477E+02  0.00000000000E+00 0. -1.
<mgrwt>
<rscale>  0 0.79314938E+02</rscale>
<asrwt>0</asrwt>
<pdfrwt beam="1">  1        2 0.95762777E-02 0.79314938E+02</pdfrwt>
<pdfrwt beam="2">  1       -1 0.38871075E-02 0.79314938E+02</pdfrwt>
<totfact> 0.16070712E+05</totfact>
</mgrwt>
</event>
<event>
 8    1  0.2603554E-016  0.8212069E+02  0.7818608E-02  0.1323139E+00
         -1   -1    0    0    0  501 -0.00000000000E+00  0.00000000000E+00  0.30934109270E+01  0.30934150328E+01  0.50400000000E-02 0.  1.
          2   -1    0    0  501    0  0.00000000000E+00 -0.00000000000E+00 -0.54501350065E+03  0.54501350066E+03  0.25500000000E-02 0. -1.
         24    2    1    2    0    0  0.44408920985E-15 -0.35527136788E-14 -0.54192008973E+03  0.54810691569E+03  0.82120687896E+02 0.  0.
         66    2    3    3    0    0  0.38117532174E+01 -0.28454780946E+02 -0.46682308812E+03  0.46770931102E+03  0.20000000218E+01 0.  0.
        -13    1    3    3    0    0 -0.38117532174E+01  0.28454780946E+02 -0.75097001610E+02  0.80397604666E+02  0.10566000000E+00 0.  1.
         13    1    4    4    0    0  0.26928027142E+01 -0.23627660876E+02 -0.38561184263E+03  0.38634443426E+03  0.10566000000E+00 0. -1.
        -13    1    4    4    0    0  0.10267062662E+01 -0.47373630710E+01 -0.80005966970E+02  0.80152745739E+02  0.10566000000E+00 0.  1.
        -14    1    4    4    0    0  0.92244237014E-01 -0.89756999240E-01 -0.12052785189E+01  0.12121310269E+01  0.00000000000E+00 0.  1.
<mgrwt>
<rscale>  0 0.82120688E+02</rscale>
<asrwt>0</asrwt>
<pdfrwt beam="1">  1        2 0.83848155E-01 0.82120688E+02</pdfrwt>
<pdfrwt beam="2">  1       -1 0.47591012E-03 0.82120688E+02</pdfrwt>
<totfact> 0.29214462E+05</totfact>
</mgrwt>
</event>
<event>
 8    1  0.2603554E-016  0.7945304E+02  0.7818608E-02  0.1330611E+00
          2   -1    0    0  501    0  0.00000000000E+00  0.00000000000E+00  0.40921954582E+03  0.40921954583E+03  0.25500000000E-02 0. -1.
         -1   -1    0    0    0  501 -0.00000000000E+00 -0.00000000000E+00 -0.38565995042E+01  0.38566027975E+01  0.50400000000E-02 0.  1.
         24    2    1    2    0    0  0.44408920985E-15  0.00000000000E+00  0.40536294632E+03  0.41307614863E+03  0.79453044734E+02 0.  0.
         66    2    3    3    0    0  0.31317379150E+01  0.35492716536E+02  0.29385152483E+03  0.29601057301E+03  0.19999941336E+01 0.  0.
        -13    1    3    3    0    0 -0.31317379150E+01 -0.35492716536E+02  0.11151142149E+03  0.11706557562E+03  0.10566000000E+00 0.  1.
         13    1    4    4    0    0  0.86910891107E+00  0.13221414816E+02  0.10270919379E+03  0.10356037279E+03  0.10566000000E+00 0. -1.
        -13    1    4    4    0    0  0.13600499670E+01  0.10652281746E+02  0.93723295324E+02  0.94336568162E+02  0.10566000000E+00 0.  1.
         14    1    4    4    0    0  0.90257903693E+00  0.11619019974E+02  0.97419035718E+02  0.98113632051E+02  0.00000000000E+00 0. -1.
<mgrwt>
<rscale>  0 0.79453045E+02</rscale>
<asrwt>0</asrwt>
<pdfrwt beam="1">  1        2 0.62956864E-01 0.79453045E+02</pdfrwt>
<pdfrwt beam="2">  1       -1 0.59332316E-03 0.79453045E+02</pdfrwt>
<totfact> 0.28993480E+05</totfact>
</mgrwt>
</event>
<event>
 8    1  0.2603554E-016  0.8086828E+02  0.7818608E-02  0.1326605E+00
         -1   -1    0    0    0  501 -0.00000000000E+00  0.00000000000E+00  0.31324259894E+02  0.31324260299E+02  0.50400000000E-02 0.  1.
          2   -1    0    0  501    0  0.00000000000E+00 -0.00000000000E+00 -0.52193402073E+02  0.52193402136E+02  0.25500000000E-02 0. -1.
         24    2    1    2    0    0  0.00000000000E+00  0.00000000000E+00 -0.20869142180E+02  0.83517662435E+02  0.80868280823E+02 0.  0.
         66    2    3    3    0    0 -0.36612811165E+02  0.88471637506E+00 -0.28077713832E+02  0.46191326775E+02  0.19999976938E+01 0.  0.
        -13    1    3    3    0    0  0.36612811165E+02 -0.88471637506E+00  0.72085716527E+01  0.37326335659E+02  0.10566000000E+00 0.  1.
         13    1    4    4    0    0 -0.17400914807E+02  0.33541687148E+00 -0.12451065015E+02  0.21399638424E+02  0.10566000000E+00 0. -1.
        -13    1    4    4    0    0 -0.52377898371E+01  0.24452439871E+00 -0.37130682594E+01  0.64259065114E+01  0.10566000000E+00 0.  1.
         14    1    4    4    0    0 -0.13974106520E+02  0.30477510488E+00 -0.11913580558E+02  0.18365781840E+02  0.00000000000E+00 0. -1.
<mgrwt>
<rscale>  0 0.80868281E+02</rscale>
<asrwt>0</asrwt>
<pdfrwt beam="1">  1        2 0.80297542E-02 0.80868281E+02</pdfrwt>
<pdfrwt beam="2">  1       -1 0.48191170E-02 0.80868281E+02</pdfrwt>
<totfact> 0.14645080E+05</totfact>
</mgrwt>
</event>
<event>
 8    1  0.2603554E-016  0.7942314E+02  0.7818608E-02  0.1330696E+00
         -1   -1    0    0    0  501 -0.00000000000E+00  0.00000000000E+00  0.23802444639E+02  0.23802445172E+02  0.50400000000E-02 0.  1.
          2   -1    0    0  501    0  0.00000000000E+00 -0.00000000000E+00 -0.66254064484E+02  0.66254064533E+02  0.25500000000E-02 0. -1.
         24    2    1    2    0    0  0.35527136788E-14  0.35527136788E-14 -0.42451619845E+02  0.90056509705E+02  0.79423138396E+02 0.  0.
         66    2    3    3    0    0  0.27824620245E+02  0.27718209479E+02 -0.27702874330E+02  0.48103616040E+02  0.20000003868E+01 0.  0.
        -13    1    3    3    0    0 -0.27824620245E+02 -0.27718209479E+02 -0.14748745516E+02  0.41952893664E+02  0.10566000000E+00 0.  1.
         13    1    4    4    0    0  0.14200992767E+02  0.13870985446E+02 -0.12924728055E+02  0.23688228979E+02  0.10566000000E+00 0. -1.
        -13    1    4    4    0    0  0.91400719935E+01  0.89033705629E+01 -0.97980149384E+01  0.16087982602E+02  0.10566000000E+00 0.  1.
        -14    1    4    4    0    0  0.44835554846E+01  0.49438534703E+01 -0.49801313356E+01  0.83274044600E+01  0.00000000000E+00 0.  1.
<mgrwt>
<rscale>  0 0.79423138E+02</rscale>
<asrwt>0</asrwt>
<pdfrwt beam="1">  1        2 0.10192933E-01 0.79423138E+02</pdfrwt>
<pdfrwt beam="2">  1       -1 0.36619146E-02 0.79423138E+02</pdfrwt>
<totfact> 0.16248866E+05</totfact>
</mgrwt>
</event>
<event>
 8    1  0.2603554E-016  0.7668004E+02  0.7818608E-02  0.1338746E+00
         -1   -1    0    0    0  501 -0.00000000000E+00  0.00000000000E+00  0.10002360692E+03  0.10002360705E+03  0.50400000000E-02 0.  1.
          2   -1    0    0  501    0  0.00000000000E+00 -0.00000000000E+00 -0.14696103046E+02  0.14696103267E+02  0.25500000000E-02 0. -1.
         24    2    1    2    0    0  0.00000000000E+00  0.17763568394E-14  0.85327503874E+02  0.11471971031E+03  0.76680043147E+02 0.  0.
         66    2    3    3    0    0 -0.37433732531E+02 -0.80754109197E+01  0.40887598887E+02  0.56056153380E+02  0.19999990779E+01 0.  0.
        -13    1    3    3    0    0  0.37433732531E+02  0.80754109197E+01  0.44439904987E+02  0.58663556933E+02  0.10566000000E+00 0.  1.
         13    1    4    4    0    0 -0.24708698360E+01 -0.63616583055E+00  0.21770435625E+01  0.33556798743E+01  0.10566000000E+00 0. -1.
        -13    1    4    4    0    0 -0.24400181743E+02 -0.49147234053E+01  0.27524192152E+02  0.37109509468E+02  0.10566000000E+00 0.  1.
         14    1    4    4    0    0 -0.10562680952E+02 -0.25245216839E+01  0.11186363173E+02  0.15590964039E+02  0.00000000000E+00 0. -1.
<mgrwt>
<rscale>  0 0.76680043E+02</rscale>
<asrwt>0</asrwt>
<pdfrwt beam="1">  1        2 0.22609389E-02 0.76680043E+02</pdfrwt>
<pdfrwt beam="2">  1       -1 0.15388247E-01 0.76680043E+02</pdfrwt>
<totfact> 0.13173222E+05</totfact>
</mgrwt>
</event>
<event>
 8    1  0.2603554E-016  0.7850125E+02  0.7818608E-02  0.1333359E+00
         -1   -1    0    0    0  501 -0.00000000000E+00  0.00000000000E+00  0.10396639777E+03  0.10396639789E+03  0.50400000000E-02 0.  1.
          2   -1    0    0  501    0  0.00000000000E+00 -0.00000000000E+00 -0.14818359785E+02  0.14818360004E+02  0.25500000000E-02 0. -1.
         24    2    1    2    0    0  0.35527136788E-14  0.00000000000E+00  0.89148037987E+02  0.11878475790E+03  0.78501248602E+02 0.  0.
         66    2    3    3    0    0  0.25306472766E+02 -0.57454347782E+01  0.94967557895E-01  0.26027612073E+02  0.19999966866E+01 0.  0.
        -13    1    3    3    0    0 -0.25306472766E+02  0.57454347782E+01  0.89053070430E+02  0.92757145825E+02  0.10566000000E+00 0.  1.
         13    1    4    4    0    0  0.36388660815E+01 -0.25755997797E+00  0.22345521669E+00  0.36563341985E+01  0.10566000000E+00 0. -1.
        -13    1    4    4    0    0  0.17808425218E+02 -0.45280413170E+01  0.24517743398E+00  0.18377008542E+02  0.10566000000E+00 0.  1.
        -14    1    4    4    0    0  0.38591814663E+01 -0.95983348321E+00 -0.37366509278E+00  0.39942693333E+01  0.00000000000E+00 0.  1.
<mgrwt>
<rscale>  0 0.78501249E+02</rscale>
<asrwt>0</asrwt>
<pdfrwt beam="1">  1        2 0.22797477E-02 0.78501249E+02</pdfrwt>
<pdfrwt beam="2">  1       -1 0.15994830E-01 0.78501249E+02</pdfrwt>
<totfact> 0.12322281E+05</totfact>
</mgrwt>
</event>
<event>
 8    1  0.2603554E-016  0.8097103E+02  0.7818608E-02  0.1326318E+00
         -1   -1    0    0    0  501 -0.00000000000E+00  0.00000000000E+00  0.26076567150E+03  0.26076567155E+03  0.50400000000E-02 0.  1.
          2   -1    0    0  501    0  0.00000000000E+00 -0.00000000000E+00 -0.62856304625E+01  0.62856309798E+01  0.25500000000E-02 0. -1.
         24    2    1    2    0    0  0.00000000000E+00  0.00000000000E+00  0.25448004104E+03  0.26705130253E+03  0.80971025039E+02 0.  0.
         66    2    3    3    0    0 -0.27653618035E+02 -0.19320272242E+02  0.53637620475E+02  0.63395503271E+02  0.19999986984E+01 0.  0.
        -13    1    3    3    0    0  0.27653618035E+02  0.19320272242E+02  0.20084242057E+03  0.20365579926E+03  0.10566000000E+00 0.  1.
         13    1    4    4    0    0 -0.14288178006E+02 -0.93043896080E+01  0.26165506681E+02  0.31230891768E+02  0.10566000000E+00 0. -1.
        -13    1    4    4    0    0 -0.29137313785E+01 -0.18412173809E+01  0.61571148211E+01  0.70569922024E+01  0.10566000000E+00 0.  1.
        -14    1    4    4    0    0 -0.10451708650E+02 -0.81746652530E+01  0.21314998973E+02  0.25107619300E+02  0.00000000000E+00 0.  1.
<mgrwt>
<rscale>  0 0.80971025E+02</rscale>
<asrwt>0</asrwt>
<pdfrwt beam="1">  1        2 0.96702007E-03 0.80971025E+02</pdfrwt>
<pdfrwt beam="2">  1       -1 0.40117797E-01 0.80971025E+02</pdfrwt>
<totfact> 0.88445546E+04</totfact>
</mgrwt>
</event>
<event>
 8    1  0.2603554E-016  0.7546083E+02  0.7818608E-02  0.1342450E+00
         -1   -1    0    0    0  501 -0.00000000000E+00  0.00000000000E+00  0.24282670669E+03  0.24282670674E+03  0.50400000000E-02 0.  1.
          2   -1    0    0  501    0  0.00000000000E+00 -0.00000000000E+00 -0.58625524189E+01  0.58625529735E+01  0.25500000000E-02 0. -1.
         24    2    1    2    0    0 -0.35527136788E-14 -0.35527136788E-14  0.23696415427E+03  0.24868925971E+03  0.75460834136E+02 0.  0.
         66    2    3    3    0    0 -0.15353639765E+02 -0.30157115368E+02  0.63775306842E+02  0.72225173003E+02  0.19999978083E+01 0.  0.
        -13    1    3    3    0    0  0.15353639765E+02  0.30157115368E+02  0.17318884743E+03  0.17646408671E+03  0.10566000000E+00 0.  1.
         13    1    4    4    0    0 -0.89261144014E+01 -0.18611357280E+02  0.39555302147E+02  0.44617162954E+02  0.10566000000E+00 0. -1.
        -13    1    4    4    0    0 -0.10439092726E+01 -0.24135616020E+01  0.42554851903E+01  0.50035331933E+01  0.10566000000E+00 0.  1.
         14    1    4    4    0    0 -0.53836160910E+01 -0.91321964860E+01  0.19964519504E+02  0.22604476856E+02  0.00000000000E+00 0. -1.
<mgrwt>
<rscale>  0 0.75460834E+02</rscale>
<asrwt>0</asrwt>
<pdfrwt beam="1">  1        2 0.90193123E-03 0.75460834E+02</pdfrwt>
<pdfrwt beam="2">  1       -1 0.37357953E-01 0.75460834E+02</pdfrwt>
<totfact> 0.10858873E+05</totfact>
</mgrwt>
</event>
<event>
 8    1  0.2603554E-016  0.7763426E+02  0.7818608E-02  0.1335902E+00
         -1   -1    0    0    0  501 -0.00000000000E+00  0.00000000000E+00  0.65083972064E+01  0.65083991578E+01  0.50400000000E-02 0.  1.
          2   -1    0    0  501    0  0.00000000000E+00 -0.00000000000E+00 -0.23151159864E+03  0.23151159865E+03  0.25500000000E-02 0. -1.
         24    2    1    2    0    0  0.17763568394E-14  0.71054273576E-14 -0.22500320143E+03  0.23801999781E+03  0.77634262429E+02 0.  0.
         66    2    3    3    0    0  0.14111009830E+02 -0.33486423213E+02 -0.15419843973E+03  0.15843490762E+03  0.19999992257E+01 0.  0.
        -13    1    3    3    0    0 -0.14111009830E+02  0.33486423213E+02 -0.70804761697E+02  0.79585090194E+02  0.10566000000E+00 0.  1.
         13    1    4    4    0    0  0.41161897772E+01 -0.91554301232E+01 -0.43036794323E+02  0.44192100523E+02  0.10566000000E+00 0.  1.
        -13    1    4    4    0    0  0.55785272440E+01 -0.13269370841E+02 -0.64247440667E+02  0.65840268568E+02  0.10566000000E+00 0. -1.
        -14    1    4    4    0    0  0.44162928091E+01 -0.11061622249E+02 -0.46914204744E+02  0.48402538526E+02  0.00000000000E+00 0.  1.
<mgrwt>
<rscale>  0 0.77634262E+02</rscale>
<asrwt>0</asrwt>
<pdfrwt beam="1">  1        2 0.35617163E-01 0.77634262E+02</pdfrwt>
<pdfrwt beam="2">  1       -1 0.10012922E-02 0.77634262E+02</pdfrwt>
<totfact> 0.25129190E+05</totfact>
</mgrwt>
</event>
<event>
 8    1  0.2603554E-016  0.7631558E+02  0.7818608E-02  0.1339845E+00
          2   -1    0    0  501    0  0.00000000000E+00  0.00000000000E+00  0.30359232537E+02  0.30359232644E+02  0.25500000000E-02 0. -1.
         -1   -1    0    0    0  501 -0.00000000000E+00 -0.00000000000E+00 -0.47959612572E+02  0.47959612837E+02  0.50400000000E-02 0.  1.
         24    2    1    2    0    0  0.00000000000E+00  0.17763568394E-14 -0.17600380036E+02  0.78318845481E+02  0.76315582813E+02 0.  0.
         66    2    3    3    0    0 -0.13964421289E+01  0.15981142188E+02  0.26694683724E+02  0.31208222541E+02  0.20000146991E+01 0.  0.
        -13    1    3    3    0    0  0.13964421289E+01 -0.15981142188E+02 -0.44295063760E+02  0.47110622940E+02  0.10566000000E+00 0.  1.
         13    1    4    4    0    0 -0.24414615385E+00  0.23203109828E+01  0.47365836553E+01  0.52810831427E+01  0.10566000000E+00 0.  1.
        -13    1    4    4    0    0 -0.50448313665E+00  0.10007828478E+02  0.14955819835E+02  0.18002745486E+02  0.10566000000E+00 0. -1.
         14    1    4    4    0    0 -0.64781283843E+00  0.36530027278E+01  0.70022802339E+01  0.79243939122E+01  0.00000000000E+00 0. -1.
<mgrwt>
<rscale>  0 0.76315583E+02</rscale>
<asrwt>0</asrwt>
<pdfrwt beam="1">  1        2 0.46706512E-02 0.76315583E+02</pdfrwt>
<pdfrwt beam="2">  1       -1 0.73784020E-02 0.76315583E+02</pdfrwt>
<totfact> 0.15383059E+05</totfact>
</mgrwt>
</event>
<event>
 8    1  0.2603554E-016  0.7751621E+02  0.7818608E-02  0.1336252E+00
         -1   -1    0    0    0  501 -0.00000000000E+00  0.00000000000E+00  0.18112683435E+01  0.18112753556E+01  0.50400000000E-02 0.  1.
          2   -1    0    0  501    0  0.00000000000E+00 -0.00000000000E+00 -0.82935692273E+03  0.82935692274E+03  0.25500000000E-02 0. -1.
         24    2    1    2    0    0  0.00000000000E+00  0.00000000000E+00 -0.82754565439E+03  0.83116819809E+03  0.77516213927E+02 0.  0.
         66    2    3    3    0    0  0.22278184951E+02 -0.13621251015E+02 -0.72078056202E+03  0.72125617820E+03  0.20000009135E+01 0.  0.
        -13    1    3    3    0    0 -0.22278184951E+02  0.13621251015E+02 -0.10676509237E+03  0.10991201989E+03  0.10566000000E+00 0.  1.
         13    1    4    4    0    0  0.10802835561E+02 -0.57980365075E+01 -0.34790425666E+03  0.34812023993E+03  0.10566000000E+00 0. -1.
        -13    1    4    4    0    0  0.67899795127E+01 -0.46675098392E+01 -0.23271262972E+03  0.23285847347E+03  0.10566000000E+00 0.  1.
        -14    1    4    4    0    0  0.46853698772E+01 -0.31557046682E+01 -0.14016367564E+03  0.14027746481E+03  0.00000000000E+00 0.  1.
<mgrwt>
<rscale>  0 0.77516214E+02</rscale>
<asrwt>0</asrwt>
<pdfrwt beam="1">  1        2 0.12759307E+00 0.77516214E+02</pdfrwt>
<pdfrwt beam="2">  1       -1 0.27865787E-03 0.77516214E+02</pdfrwt>
<totfact> 0.37515027E+05</totfact>
</mgrwt>
</event>
<event>
 8    1  0.2603554E-016  0.8137308E+02  0.7818608E-02  0.1325199E+00
          2   -1    0    0  501    0  0.00000000000E+00  0.00000000000E+00  0.29122788529E+02  0.29122788641E+02  0.25500000000E-02 0. -1.
         -1   -1    0    0    0  501 -0.00000000000E+00 -0.00000000000E+00 -0.56841890244E+02  0.56841890468E+02  0.50400000000E-02 0.  1.
         24    2    1    2    0    0  0.17763568394E-14  0.00000000000E+00 -0.27719101715E+02  0.85964679109E+02  0.81373075734E+02 0.  0.
         66    2    3    3    0    0 -0.13176649253E+02  0.27129669496E+02  0.14942662314E+02  0.33718336398E+02  0.19999999870E+01 0.  0.
        -13    1    3    3    0    0  0.13176649253E+02 -0.27129669496E+02 -0.42661764029E+02  0.52246342710E+02  0.10566000000E+00 0.  1.
         13    1    4    4    0    0 -0.77828967603E+01  0.17855771554E+02  0.96611164927E+01  0.21742824005E+02  0.10566000000E+00 0. -1.
        -13    1    4    4    0    0 -0.16705078160E+01  0.25944793492E+01  0.17918806283E+01  0.35698626974E+01  0.10566000000E+00 0.  1.
         14    1    4    4    0    0 -0.37232446768E+01  0.66794185929E+01  0.34896651925E+01  0.84056496964E+01  0.00000000000E+00 0. -1.
<mgrwt>
<rscale>  0 0.81373076E+02</rscale>
<asrwt>0</asrwt>
<pdfrwt beam="1">  1        2 0.44804290E-02 0.81373076E+02</pdfrwt>
<pdfrwt beam="2">  1       -1 0.87449063E-02 0.81373076E+02</pdfrwt>
<totfact> 0.12751782E+05</totfact>
</mgrwt>
</event>
<event>
 8    1  0.2603554E-016  0.7802481E+02  0.7818608E-02  0.1334752E+00
          2   -1    0    0  501    0  0.00000000000E+00  0.00000000000E+00  0.58242831095E+03  0.58242831096E+03  0.25500000000E-02 0. -1.
         -1   -1    0    0    0  501 -0.00000000000E+00 -0.00000000000E+00 -0.26131396297E+01  0.26131444900E+01  0.50400000000E-02 0.  1.
         24    2    1    2    0    0  0.00000000000E+00  0.00000000000E+00  0.57981517132E+03  0.58504145545E+03  0.78024814622E+02 0.  0.
         66    2    3    3    0    0  0.11802632257E+02 -0.11506665886E+02  0.55501219399E+03  0.55526051630E+03  0.19999989421E+01 0.  0.
        -13    1    3    3    0    0 -0.11802632257E+02  0.11506665886E+02  0.24802977338E+02  0.29780939154E+02  0.10566000000E+00 0.  1.
         13    1    4    4    0    0  0.81068631690E+01 -0.82400744311E+01  0.36298501100E+03  0.36316903699E+03  0.10566000000E+00 0. -1.
        -13    1    4    4    0    0  0.76035334437E+00 -0.56115776495E+00  0.45448205868E+02  0.45458152360E+02  0.10566000000E+00 0.  1.
         14    1    4    4    0    0  0.29354157440E+01 -0.27054336895E+01  0.14657897712E+03  0.14663332694E+03  0.00000000000E+00 0. -1.
<mgrwt>
<rscale>  0 0.78024815E+02</rscale>
<asrwt>0</asrwt>
<pdfrwt beam="1">  1        2 0.89604308E-01 0.78024815E+02</pdfrwt>
<pdfrwt beam="2">  1       -1 0.40202207E-03 0.78024815E+02</pdfrwt>
<totfact> 0.34036325E+05</totfact>
</mgrwt>
</event>
<event>
 8    1  0.2603554E-016  0.8049404E+02  0.7818608E-02  0.1327655E+00
          2   -1    0    0  501    0  0.00000000000E+00  0.00000000000E+00  0.17416119978E+02  0.17416120164E+02  0.25500000000E-02 0. -1.
         -1   -1    0    0    0  501 -0.00000000000E+00 -0.00000000000E+00 -0.93007090501E+02  0.93007090637E+02  0.50400000000E-02 0.  1.
         24    2    1    2    0    0  0.00000000000E+00 -0.88817841970E-15 -0.75590970523E+02  0.11042321080E+03  0.80494041140E+02 0.  0.
         66    2    3    3    0    0  0.31374544365E+02  0.63278807974E+01 -0.44011428911E+01  0.32369339457E+02  0.19999921628E+01 0.  0.
        -13    1    3    3    0    0 -0.31374544365E+02 -0.63278807974E+01 -0.71189827632E+02  0.78053871344E+02  0.10566000000E+00 0.  1.
         13    1    4    4    0    0  0.12875912669E+02  0.30428367309E+01 -0.25699124410E+01  0.13478263851E+02  0.10566000000E+00 0. -1.
        -13    1    4    4    0    0  0.67894375903E+01  0.15096152817E+01 -0.84151628930E+00  0.70067620761E+01  0.10566000000E+00 0. -1.
         14    1    4    4    0    0  0.11709194106E+02  0.17754287848E+01 -0.98971416073E+00  0.11884313531E+02  0.00000000000E+00 0. -1.
<mgrwt>
<rscale>  0 0.80494041E+02</rscale>
<asrwt>0</asrwt>
<pdfrwt beam="1">  1        2 0.26794032E-02 0.80494041E+02</pdfrwt>
<pdfrwt beam="2">  1       -1 0.14308783E-01 0.80494041E+02</pdfrwt>
<totfact> 0.11853831E+05</totfact>
</mgrwt>
</event>
<event>
 8    1  0.2603554E-016  0.7970982E+02  0.7818608E-02  0.1329877E+00
         -1   -1    0    0    0  501 -0.00000000000E+00  0.00000000000E+00  0.65554982995E+01  0.65555002370E+01  0.50400000000E-02 0.  1.
          2   -1    0    0  501    0  0.00000000000E+00 -0.00000000000E+00 -0.24230249609E+03  0.24230249611E+03  0.25500000000E-02 0. -1.
         24    2    1    2    0    0 -0.17763568394E-14  0.00000000000E+00 -0.23574699780E+03  0.24885799635E+03  0.79709819818E+02 0.  0.
         66    2    3    3    0    0 -0.14995189070E+02 -0.15604744220E+02 -0.22234003507E+03  0.22339976485E+03  0.20000002395E+01 0.  0.
        -13    1    3    3    0    0  0.14995189070E+02  0.15604744220E+02 -0.13406962722E+02  0.25458231495E+02  0.10566000000E+00 0.  1.
         13    1    4    4    0    0 -0.70171642579E+01 -0.81766983867E+01 -0.10647280895E+03  0.10701667720E+03  0.10566000000E+00 0. -1.
        -13    1    4    4    0    0 -0.34266426630E+01 -0.31069497866E+01 -0.54341805558E+02  0.54538408597E+02  0.10566000000E+00 0. -1.
        -14    1    4    4    0    0 -0.45513821490E+01 -0.43210960469E+01 -0.61525420570E+02  0.61844679050E+02  0.00000000000E+00 0.  1.
<mgrwt>
<rscale>  0 0.79709820E+02</rscale>
<asrwt>0</asrwt>
<pdfrwt beam="1">  1        2 0.37277300E-01 0.79709820E+02</pdfrwt>
<pdfrwt beam="2">  1       -1 0.10085385E-02 0.79709820E+02</pdfrwt>
<totfact> 0.23829500E+05</totfact>
</mgrwt>
</event>
<event>
 8    1  0.2603554E-016  0.7996100E+02  0.7818608E-02  0.1329162E+00
         -1   -1    0    0    0  501 -0.00000000000E+00  0.00000000000E+00  0.18182416683E+02  0.18182417382E+02  0.50400000000E-02 0.  1.
          2   -1    0    0  501    0  0.00000000000E+00 -0.00000000000E+00 -0.87911324660E+02  0.87911324697E+02  0.25500000000E-02 0. -1.
         24    2    1    2    0    0  0.17763568394E-14  0.00000000000E+00 -0.69728907977E+02  0.10609374208E+03  0.79960999873E+02 0.  0.
         66    2    3    3    0    0  0.12801297599E+02 -0.28909466637E+02 -0.67299840907E+02  0.74383459641E+02  0.20000001185E+01 0.  0.
        -13    1    3    3    0    0 -0.12801297599E+02  0.28909466637E+02 -0.24290670697E+01  0.31710282439E+02  0.10566000000E+00 0.  1.
         13    1    4    4    0    0  0.36733040702E+01 -0.66081708665E+01 -0.15568816418E+02  0.17307810193E+02  0.10566000000E+00 0.  1.
        -13    1    4    4    0    0  0.38066325420E+01 -0.86293647907E+01 -0.19382363325E+02  0.21555592316E+02  0.10566000000E+00 0. -1.
        -14    1    4    4    0    0  0.53213609866E+01 -0.13671930980E+02 -0.32348661165E+02  0.35520057132E+02  0.00000000000E+00 0.  1.
<mgrwt>
<rscale>  0 0.79961000E+02</rscale>
<asrwt>0</asrwt>
<pdfrwt beam="1">  1        2 0.13524819E-01 0.79961000E+02</pdfrwt>
<pdfrwt beam="2">  1       -1 0.27972950E-02 0.79961000E+02</pdfrwt>
<totfact> 0.17135232E+05</totfact>
</mgrwt>
</event>
<event>
 8    1  0.2603554E-016  0.8148866E+02  0.7818608E-02  0.1324879E+00
         -1   -1    0    0    0  501 -0.00000000000E+00  0.00000000000E+00  0.20166216800E+01  0.20166279780E+01  0.50400000000E-02 0.  1.
          2   -1    0    0  501    0  0.00000000000E+00 -0.00000000000E+00 -0.82320734521E+03  0.82320734521E+03  0.25500000000E-02 0. -1.
         24    2    1    2    0    0 -0.17763568394E-14  0.00000000000E+00 -0.82119072353E+03  0.82522397319E+03  0.81488658837E+02 0.  0.
         66    2    3    3    0    0  0.11614056385E+02 -0.18976039674E+01 -0.80560867351E+03  0.80569710315E+03  0.19999982577E+01 0.  0.
        -13    1    3    3    0    0 -0.11614056385E+02  0.18976039674E+01 -0.15582050021E+02  0.19526870036E+02  0.10566000000E+00 0.  1.
         13    1    4    4    0    0  0.18466452791E+01 -0.29984292463E+00 -0.12744520751E+03  0.12745898197E+03  0.10566000000E+00 0. -1.
        -13    1    4    4    0    0  0.87316438951E+01 -0.92029474378E+00 -0.57100730875E+03  0.57107481677E+03  0.10566000000E+00 0.  1.
        -14    1    4    4    0    0  0.10357672112E+01 -0.67746629901E+00 -0.10715615725E+03  0.10716330441E+03  0.00000000000E+00 0.  1.
<mgrwt>
<rscale>  0 0.81488659E+02</rscale>
<asrwt>0</asrwt>
<pdfrwt beam="1">  1        2 0.12664702E+00 0.81488659E+02</pdfrwt>
<pdfrwt beam="2">  1       -1 0.31025063E-03 0.81488659E+02</pdfrwt>
<totfact> 0.32912674E+05</totfact>
</mgrwt>
</event>
<event>
 8    1  0.2603554E-016  0.8128575E+02  0.7818608E-02  0.1325442E+00
         -1   -1    0    0    0  501 -0.00000000000E+00  0.00000000000E+00  0.24600142106E+02  0.24600142622E+02  0.50400000000E-02 0.  1.
          2   -1    0    0  501    0  0.00000000000E+00 -0.00000000000E+00 -0.67147708628E+02  0.67147708676E+02  0.25500000000E-02 0. -1.
         24    2    1    2    0    0  0.71054273576E-14  0.88817841970E-15 -0.42547566522E+02  0.91747851298E+02  0.81285747834E+02 0.  0.
         66    2    3    3    0    0  0.36283872880E+02  0.58654639667E+01 -0.40801036997E+02  0.54951321189E+02  0.19999954046E+01 0.  0.
        -13    1    3    3    0    0 -0.36283872880E+02 -0.58654639667E+01 -0.17465295248E+01  0.36796530110E+02  0.10566000000E+00 0.  1.
         13    1    4    4    0    0  0.18814362244E+01  0.19662193599E+00 -0.18688374492E+01  0.26612365358E+01  0.10566000000E+00 0. -1.
        -13    1    4    4    0    0  0.91703747253E+01  0.85757326895E+00 -0.97327182726E+01  0.13400304979E+02  0.10566000000E+00 0.  1.
         14    1    4    4    0    0  0.25232061930E+02  0.48112687618E+01 -0.29199481275E+02  0.38889779674E+02  0.00000000000E+00 0. -1.
<mgrwt>
<rscale>  0 0.81285748E+02</rscale>
<asrwt>0</asrwt>
<pdfrwt beam="1">  1        2 0.10330417E-01 0.81285748E+02</pdfrwt>
<pdfrwt beam="2">  1       -1 0.37846373E-02 0.81285748E+02</pdfrwt>
<totfact> 0.15307781E+05</totfact>
</mgrwt>
</event>
<event>
 8    1  0.2603554E-016  0.7875889E+02  0.7818608E-02  0.1332611E+00
          2   -1    0    0  501    0  0.00000000000E+00  0.00000000000E+00  0.11294630478E+03  0.11294630481E+03  0.25500000000E-02 0. -1.
         -1   -1    0    0    0  501 -0.00000000000E+00 -0.00000000000E+00 -0.13729891302E+02  0.13729892227E+02  0.50400000000E-02 0.  1.
         24    2    1    2    0    0  0.00000000000E+00 -0.35527136788E-14  0.99216413480E+02  0.12667619704E+03  0.78758886434E+02 0.  0.
         66    2    3    3    0    0  0.64647018984E+00  0.28547508754E+02  0.93196639824E+02  0.97493547764E+02  0.20000003123E+01 0.  0.
        -13    1    3    3    0    0 -0.64647018984E+00 -0.28547508754E+02  0.60197736552E+01  0.29182649274E+02  0.10566000000E+00 0.  1.
         13    1    4    4    0    0 -0.99399824556E-01  0.21416809098E+01  0.71027205822E+01  0.74200054682E+01  0.10566000000E+00 0.  1.
        -13    1    4    4    0    0  0.44716918375E+00  0.21353067788E+02  0.67128088622E+02  0.70443913224E+02  0.10566000000E+00 0. -1.
        -14    1    4    4    0    0  0.29870083065E+00  0.50527600566E+01  0.18965830620E+02  0.19629629072E+02  0.00000000000E+00 0.  1.
<mgrwt>
<rscale>  0 0.78758886E+02</rscale>
<asrwt>0</asrwt>
<pdfrwt beam="1">  1        2 0.17376355E-01 0.78758886E+02</pdfrwt>
<pdfrwt beam="2">  1       -1 0.21122911E-02 0.78758886E+02</pdfrwt>
<totfact> 0.19136532E+05</totfact>
</mgrwt>
</event>
<event>
 8    1  0.2603554E-016  0.7992099E+02  0.7818608E-02  0.1329276E+00
         -1   -1    0    0    0  501 -0.00000000000E+00  0.00000000000E+00  0.47540810429E+01  0.47540837145E+01  0.50400000000E-02 0.  1.
          2   -1    0    0  501    0  0.00000000000E+00 -0.00000000000E+00 -0.33588842874E+03  0.33588842875E+03  0.25500000000E-02 0. -1.
         24    2    1    2    0    0 -0.12490009027E-15  0.35527136788E-14 -0.33113434770E+03  0.34064251247E+03  0.79920992694E+02 0.  0.
         66    2    3    3    0    0 -0.10056644443E+00  0.22594888842E+02 -0.30602048060E+03  0.30686002292E+03  0.20000005804E+01 0.  0.
        -13    1    3    3    0    0  0.10056644443E+00 -0.22594888842E+02 -0.25113867096E+02  0.33782489546E+02  0.10566000000E+00 0.  1.
         13    1    4    4    0    0  0.35800396888E+00  0.12420050081E+02 -0.16445178403E+03  0.16492054525E+03  0.10566000000E+00 0. -1.
        -13    1    4    4    0    0  0.24410125065E+00  0.72848541055E+00 -0.96194972238E+01  0.96507081237E+01  0.10566000000E+00 0. -1.
         14    1    4    4    0    0 -0.70267166396E+00  0.94463533510E+01 -0.13194919935E+03  0.13228876955E+03  0.00000000000E+00 0. -1.
<mgrwt>
<rscale>  0 0.79920993E+02</rscale>
<asrwt>0</asrwt>
<pdfrwt beam="1">  1        2 0.51675124E-01 0.79920993E+02</pdfrwt>
<pdfrwt beam="2">  1       -1 0.73139756E-03 0.79920993E+02</pdfrwt>
<totfact> 0.26624142E+05</totfact>
</mgrwt>
</event>
<event>
 8    1  0.2603554E-016  0.8033657E+02  0.7818608E-02  0.1328099E+00
         -1   -1    0    0    0  501 -0.00000000000E+00  0.00000000000E+00  0.92822829701E+01  0.92822843384E+01  0.50400000000E-02 0.  1.
          2   -1    0    0  501    0  0.00000000000E+00 -0.00000000000E+00 -0.17382479953E+03  0.17382479955E+03  0.25500000000E-02 0. -1.
         24    2    1    2    0    0  0.00000000000E+00  0.00000000000E+00 -0.16454251656E+03  0.18310708389E+03  0.80336569592E+02 0.  0.
         66    2    3    3    0    0  0.33905971100E+02  0.20055365509E+02 -0.64718156252E+02  0.75790977748E+02  0.19999993786E+01 0.  0.
        -13    1    3    3    0    0 -0.33905971100E+02 -0.20055365509E+02 -0.99824360312E+02  0.10731610614E+03  0.10566000000E+00 0.  1.
         13    1    4    4    0    0  0.16529430701E+02  0.98466777854E+01 -0.31371177391E+02  0.36801373312E+02  0.10566000000E+00 0. -1.
        -13    1    4    4    0    0  0.15447092090E+02  0.92719788860E+01 -0.30521433523E+02  0.35442225026E+02  0.10566000000E+00 0.  1.
        -14    1    4    4    0    0  0.19294483086E+01  0.93670883714E+00 -0.28255453383E+01  0.35473794102E+01  0.00000000000E+00 0.  1.
<mgrwt>
<rscale>  0 0.80336570E+02</rscale>
<asrwt>0</asrwt>
<pdfrwt beam="1">  1        2 0.26742274E-01 0.80336570E+02</pdfrwt>
<pdfrwt beam="2">  1       -1 0.14280438E-02 0.80336570E+02</pdfrwt>
<totfact> 0.20792921E+05</totfact>
</mgrwt>
</event>
<event>
 8    1  0.2603554E-016  0.8014552E+02  0.7818608E-02  0.1328639E+00
         -1   -1    0    0    0  501 -0.00000000000E+00  0.00000000000E+00  0.11684843503E+02  0.11684844590E+02  0.50400000000E-02 0.  1.
          2   -1    0    0  501    0  0.00000000000E+00 -0.00000000000E+00 -0.13742811958E+03  0.13742811960E+03  0.25500000000E-02 0. -1.
         24    2    1    2    0    0  0.00000000000E+00  0.00000000000E+00 -0.12574327608E+03  0.14911296419E+03  0.80145521470E+02 0.  0.
         66    2    3    3    0    0  0.29688194652E+02  0.21617381562E+02 -0.92627980166E+02  0.99662644936E+02  0.19999996412E+01 0.  0.
        -13    1    3    3    0    0 -0.29688194652E+02 -0.21617381562E+02 -0.33115295910E+02  0.49450319256E+02  0.10566000000E+00 0.  1.
         13    1    4    4    0    0  0.13946270221E+02  0.10649120038E+02 -0.43426103343E+02  0.46837376381E+02  0.10566000000E+00 0. -1.
        -13    1    4    4    0    0  0.14519803869E+02  0.98038065315E+01 -0.44169394550E+02  0.47517216941E+02  0.10566000000E+00 0.  1.
         14    1    4    4    0    0  0.12221205623E+01  0.11644549924E+01 -0.50324822733E+01  0.53080516132E+01  0.00000000000E+00 0. -1.
<mgrwt>
<rscale>  0 0.80145521E+02</rscale>
<asrwt>0</asrwt>
<pdfrwt beam="1">  1        2 0.21142787E-01 0.80145521E+02</pdfrwt>
<pdfrwt beam="2">  1       -1 0.17976684E-02 0.80145521E+02</pdfrwt>
<totfact> 0.19386272E+05</totfact>
</mgrwt>
</event>
<event>
 8    1  0.2603554E-016  0.7811092E+02  0.7818608E-02  0.1334499E+00
          2   -1    0    0  501    0  0.00000000000E+00  0.00000000000E+00  0.71368093045E+01  0.71368097601E+01  0.25500000000E-02 0. -1.
         -1   -1    0    0    0  501 -0.00000000000E+00 -0.00000000000E+00 -0.21372702512E+03  0.21372702518E+03  0.50400000000E-02 0.  1.
         24    2    1    2    0    0  0.71054273576E-14  0.17763568394E-14 -0.20659021582E+03  0.22086383494E+03  0.78110923139E+02 0.  0.
         66    2    3    3    0    0 -0.32578111188E+02  0.14255073147E+02 -0.57876266065E+02  0.67957358773E+02  0.19999997253E+01 0.  0.
        -13    1    3    3    0    0  0.32578111188E+02 -0.14255073147E+02 -0.14871394976E+03  0.15290647617E+03  0.10566000000E+00 0.  1.
         13    1    4    4    0    0 -0.75736367343E+01  0.28414780785E+01 -0.12853602881E+02  0.15187502827E+02  0.10566000000E+00 0. -1.
        -13    1    4    4    0    0 -0.98356939010E+01  0.41799045176E+01 -0.16273536429E+02  0.19469248271E+02  0.10566000000E+00 0.  1.
        -14    1    4    4    0    0 -0.15168780553E+02  0.72336905505E+01 -0.28749126754E+02  0.33300607676E+02  0.00000000000E+00 0.  1.
<mgrwt>
<rscale>  0 0.78110923E+02</rscale>
<asrwt>0</asrwt>
<pdfrwt beam="1">  1        2 0.10979709E-02 0.78110923E+02</pdfrwt>
<pdfrwt beam="2">  1       -1 0.32881076E-01 0.78110923E+02</pdfrwt>
<totfact> 0.10370560E+05</totfact>
</mgrwt>
</event>
<event>
 8    1  0.2603554E-016  0.8194993E+02  0.7818608E-02  0.1323607E+00
          2   -1    0    0  501    0  0.00000000000E+00  0.00000000000E+00  0.24983368500E+03  0.24983368501E+03  0.25500000000E-02 0. -1.
         -1   -1    0    0    0  501 -0.00000000000E+00 -0.00000000000E+00 -0.67202608265E+01  0.67202627164E+01  0.50400000000E-02 0.  1.
         24    2    1    2    0    0 -0.35527136788E-14  0.00000000000E+00  0.24311342417E+03  0.25655394773E+03  0.81949930336E+02 0.  0.
         66    2    3    3    0    0  0.27163820803E+02  0.40938723174E+01  0.21670439168E+03  0.21844776565E+03  0.19999986458E+01 0.  0.
        -13    1    3    3    0    0 -0.27163820803E+02 -0.40938723174E+01  0.26409032495E+02  0.38106182077E+02  0.10566000000E+00 0.  1.
         13    1    4    4    0    0  0.16732409059E+02  0.25905863387E+01  0.13826893213E+03  0.13930180691E+03  0.10566000000E+00 0. -1.
        -13    1    4    4    0    0  0.25396115239E+01  0.40142607266E+00  0.16356831640E+02  0.16558015428E+02  0.10566000000E+00 0.  1.
        -14    1    4    4    0    0  0.78918002191E+01  0.11018599060E+01  0.62078627901E+02  0.62587943312E+02  0.00000000000E+00 0.  1.
<mgrwt>
<rscale>  0 0.81949930E+02</rscale>
<asrwt>0</asrwt>
<pdfrwt beam="1">  1        2 0.38435952E-01 0.81949930E+02</pdfrwt>
<pdfrwt beam="2">  1       -1 0.10338864E-02 0.81949930E+02</pdfrwt>
<totfact> 0.22397003E+05</totfact>
</mgrwt>
</event>
<event>
 8    1  0.2603554E-016  0.7019783E+02  0.7818608E-02  0.1359422E+00
          2   -1    0    0  501    0  0.00000000000E+00  0.00000000000E+00  0.83049957780E+02  0.83049957819E+02  0.25500000000E-02 0. -1.
         -1   -1    0    0    0  501 -0.00000000000E+00 -0.00000000000E+00 -0.14833649143E+02  0.14833649999E+02  0.50400000000E-02 0.  1.
         24    2    1    2    0    0  0.17763568394E-14  0.00000000000E+00  0.68216308637E+02  0.97883607818E+02  0.70197834123E+02 0.  0.
         66    2    3    3    0    0  0.13759227927E+02 -0.16716438797E+02  0.72606286907E+02  0.75792008681E+02  0.20000005746E+01 0.  0.
        -13    1    3    3    0    0 -0.13759227927E+02  0.16716438797E+02 -0.43899782699E+01  0.22091599137E+02  0.10566000000E+00 0.  1.
         13    1    4    4    0    0  0.10091897756E+02 -0.12306719241E+02  0.53040169827E+02  0.55376642351E+02  0.10566000000E+00 0. -1.
        -13    1    4    4    0    0  0.13258380544E+00 -0.41323732853E-02  0.40480909099E+00  0.43889631774E+00  0.10566000000E+00 0.  1.
        -14    1    4    4    0    0  0.35347463652E+01 -0.44055871829E+01  0.19161307989E+02  0.19976470012E+02  0.00000000000E+00 0.  1.
<mgrwt>
<rscale>  0 0.70197834E+02</rscale>
<asrwt>0</asrwt>
<pdfrwt beam="1">  1        2 0.12776916E-01 0.70197834E+02</pdfrwt>
<pdfrwt beam="2">  1       -1 0.22821000E-02 0.70197834E+02</pdfrwt>
<totfact> 0.23892202E+05</totfact>
</mgrwt>
</event>
<event>
 8    1  0.2603554E-016  0.7862250E+02  0.7818608E-02  0.1333007E+00
          2   -1    0    0  501    0  0.00000000000E+00  0.00000000000E+00  0.36215383902E+02  0.36215383991E+02  0.25500000000E-02 0. -1.
         -1   -1    0    0    0  501 -0.00000000000E+00 -0.00000000000E+00 -0.42671760491E+02  0.42671760788E+02  0.50400000000E-02 0.  1.
         24    2    1    2    0    0  0.00000000000E+00  0.00000000000E+00 -0.64563765890E+01  0.78887144780E+02  0.78622495590E+02 0.  0.
         66    2    3    3    0    0  0.20963644316E+02 -0.31070234921E+02  0.85794530151E+01  0.38502479163E+02  0.20000016627E+01 0.  0.
        -13    1    3    3    0    0 -0.20963644316E+02  0.31070234921E+02 -0.15035829604E+02  0.40384665616E+02  0.10566000000E+00 0.  1.
         13    1    4    4    0    0  0.70400759553E+01 -0.11078020973E+02  0.23286851712E+01  0.13331134865E+02  0.10566000000E+00 0.  1.
        -13    1    4    4    0    0  0.89986467112E+01 -0.12266875980E+02  0.41996438216E+01  0.15782904080E+02  0.10566000000E+00 0. -1.
        -14    1    4    4    0    0  0.49249216496E+01 -0.77253379675E+01  0.20511240223E+01  0.93884402178E+01  0.00000000000E+00 0.  1.
<mgrwt>
<rscale>  0 0.78622496E+02</rscale>
<asrwt>0</asrwt>
<pdfrwt beam="1">  1        2 0.55715975E-02 0.78622496E+02</pdfrwt>
<pdfrwt beam="2">  1       -1 0.65648863E-02 0.78622496E+02</pdfrwt>
<totfact> 0.14658997E+05</totfact>
</mgrwt>
</event>
<event>
 8    1  0.2603554E-016  0.8008546E+02  0.7818608E-02  0.1328809E+00
         -1   -1    0    0    0  501 -0.00000000000E+00  0.00000000000E+00  0.12498963582E+01  0.12499065197E+01  0.50400000000E-02 0.  1.
          2   -1    0    0  501    0  0.00000000000E+00 -0.00000000000E+00 -0.12828374671E+04  0.12828374671E+04  0.25500000000E-02 0. -1.
         24    2    1    2    0    0  0.00000000000E+00  0.00000000000E+00 -0.12815875707E+04  0.12840873736E+04  0.80085464449E+02 0.  0.
         66    2    3    3    0    0 -0.17974461735E+02  0.14484928877E+02 -0.11653143346E+04  0.11655446765E+04  0.20000001081E+01 0.  0.
        -13    1    3    3    0    0  0.17974461735E+02 -0.14484928877E+02 -0.11627323607E+03  0.11854269708E+03  0.10566000000E+00 0.  1.
         13    1    4    4    0    0 -0.44290109638E+01  0.26268641236E+01 -0.25080819054E+03  0.25086106944E+03  0.10566000000E+00 0. -1.
        -13    1    4    4    0    0 -0.30560008099E+00  0.27306690536E+00 -0.23013924406E+02  0.23017815656E+02  0.10566000000E+00 0. -1.
         14    1    4    4    0    0 -0.13239850690E+02  0.11584997848E+02 -0.89149221968E+03  0.89166579141E+03  0.00000000000E+00 0. -1.
<mgrwt>
<rscale>  0 0.80085464E+02</rscale>
<asrwt>0</asrwt>
<pdfrwt beam="1">  1        2 0.19735856E+00 0.80085464E+02</pdfrwt>
<pdfrwt beam="2">  1       -1 0.19229356E-03 0.80085464E+02</pdfrwt>
<totfact> 0.34606780E+05</totfact>
</mgrwt>
</event>
<event>
 8    1  0.2603554E-016  0.7957262E+02  0.7818608E-02  0.1330269E+00
         -1   -1    0    0    0  501 -0.00000000000E+00  0.00000000000E+00  0.17604892239E+01  0.17604964382E+01  0.50400000000E-02 0.  1.
          2   -1    0    0  501    0  0.00000000000E+00 -0.00000000000E+00 -0.89915191742E+03  0.89915191743E+03  0.25500000000E-02 0. -1.
         24    2    1    2    0    0  0.00000000000E+00 -0.17763568394E-14 -0.89739142820E+03  0.90091241387E+03  0.79572621236E+02 0.  0.
         66    2    3    3    0    0  0.18122746424E+02 -0.95806670303E+01 -0.83470809377E+03  0.83496216975E+03  0.20000004759E+01 0.  0.
        -13    1    3    3    0    0 -0.18122746424E+02  0.95806670303E+01 -0.62683334434E+02  0.65950244113E+02  0.10566000000E+00 0.  1.
         13    1    4    4    0    0  0.11046016874E+02 -0.63141774717E+01 -0.52100145703E+03  0.52115680243E+03  0.10566000000E+00 0. -1.
        -13    1    4    4    0    0  0.33631063392E+01 -0.13353845695E+01 -0.12555097923E+03  0.12560315794E+03  0.10566000000E+00 0.  1.
        -14    1    4    4    0    0  0.37136232111E+01 -0.19311049891E+01 -0.18815565751E+03  0.18820220938E+03  0.00000000000E+00 0.  1.
<mgrwt>
<rscale>  0 0.79572621E+02</rscale>
<asrwt>0</asrwt>
<pdfrwt beam="1">  1        2 0.13833070E+00 0.79572621E+02</pdfrwt>
<pdfrwt beam="2">  1       -1 0.27084577E-03 0.79572621E+02</pdfrwt>
<totfact> 0.35432207E+05</totfact>
</mgrwt>
</event>
<event>
 8    1  0.2603554E-016  0.7953655E+02  0.7818608E-02  0.1330372E+00
          2   -1    0    0  501    0  0.00000000000E+00  0.00000000000E+00  0.19764754631E+02  0.19764754795E+02  0.25500000000E-02 0. -1.
         -1   -1    0    0    0  501 -0.00000000000E+00 -0.00000000000E+00 -0.80016956871E+02  0.80016957030E+02  0.50400000000E-02 0.  1.
         24    2    1    2    0    0  0.00000000000E+00  0.83266726847E-16 -0.60252202240E+02  0.99781711825E+02  0.79536545939E+02 0.  0.
         66    2    3    3    0    0  0.19784191506E+02 -0.17550164463E+00  0.13096768949E+02  0.23811140069E+02  0.20000000293E+01 0.  0.
        -13    1    3    3    0    0 -0.19784191506E+02  0.17550164463E+00 -0.73348971189E+02  0.75970571756E+02  0.10566000000E+00 0.  1.
         13    1    4    4    0    0  0.95763854156E+01 -0.55123213059E-01  0.67812909992E+01  0.11734874002E+02  0.10566000000E+00 0. -1.
        -13    1    4    4    0    0  0.25910039363E+01 -0.59046125070E+00  0.15182055753E+01  0.30623615220E+01  0.10566000000E+00 0.  1.
        -14    1    4    4    0    0  0.76168021543E+01  0.47008281913E+00  0.47972723742E+01  0.90139045450E+01  0.00000000000E+00 0.  1.
<mgrwt>
<rscale>  0 0.79536546E+02</rscale>
<asrwt>0</asrwt>
<pdfrwt beam="1">  1        2 0.30407315E-02 0.79536546E+02</pdfrwt>
<pdfrwt beam="2">  1       -1 0.12310301E-01 0.79536546E+02</pdfrwt>
<totfact> 0.12594482E+05</totfact>
</mgrwt>
</event>
<event>
 8    1  0.2603554E-016  0.8051936E+02  0.7818608E-02  0.1327584E+00
         -1   -1    0    0    0  501 -0.00000000000E+00  0.00000000000E+00  0.50825414889E+01  0.50825439878E+01  0.50400000000E-02 0.  1.
          2   -1    0    0  501    0  0.00000000000E+00 -0.00000000000E+00 -0.31890371378E+03  0.31890371379E+03  0.25500000000E-02 0. -1.
         24    2    1    2    0    0  0.00000000000E+00  0.22204460493E-15 -0.31382117229E+03  0.32398625778E+03  0.80519358237E+02 0.  0.
         66    2    3    3    0    0 -0.34812799392E+02 -0.19068081438E+01 -0.23780950895E+03  0.24035999966E+03  0.19999927488E+01 0.  0.
        -13    1    3    3    0    0  0.34812799392E+02  0.19068081438E+01 -0.76011663340E+02  0.83626258116E+02  0.10566000000E+00 0.  1.
         13    1    4    4    0    0 -0.13649472246E+02  0.18258597716E-01 -0.93300318370E+02  0.94293525748E+02  0.10566000000E+00 0. -1.
        -13    1    4    4    0    0 -0.33404727085E+01 -0.54640440591E+00 -0.24670210082E+02  0.24901561100E+02  0.10566000000E+00 0.  1.
         14    1    4    4    0    0 -0.17822854437E+02 -0.13786623356E+01 -0.11983898050E+03  0.12116491282E+03  0.00000000000E+00 0. -1.
<mgrwt>
<rscale>  0 0.80519358E+02</rscale>
<asrwt>0</asrwt>
<pdfrwt beam="1">  1        2 0.49062094E-01 0.80519358E+02</pdfrwt>
<pdfrwt beam="2">  1       -1 0.78192990E-03 0.80519358E+02</pdfrwt>
<totfact> 0.25625708E+05</totfact>
</mgrwt>
</event>
<event>
 8    1  0.2603554E-016  0.8416044E+02  0.7818608E-02  0.1317643E+00
          2   -1    0    0  501    0  0.00000000000E+00  0.00000000000E+00  0.79238336467E+03  0.79238336467E+03  0.25500000000E-02 0. -1.
         -1   -1    0    0    0  501 -0.00000000000E+00 -0.00000000000E+00 -0.22347043547E+01  0.22347100381E+01  0.50400000000E-02 0.  1.
         24    2    1    2    0    0 -0.17763568394E-14  0.00000000000E+00  0.79014866031E+03  0.79461807471E+03  0.84160437625E+02 0.  0.
         66    2    3    3    0    0 -0.14187392366E+02 -0.27678668445E+02  0.66257364605E+03  0.66330628462E+03  0.19999959915E+01 0.  0.
        -13    1    3    3    0    0  0.14187392366E+02  0.27678668445E+02  0.12757501426E+03  0.13131179009E+03  0.10566000000E+00 0.  1.
         13    1    4    4    0    0 -0.69637295824E+01 -0.14005324557E+02  0.32652458406E+03  0.32689900245E+03  0.10566000000E+00 0. -1.
        -13    1    4    4    0    0 -0.20116295396E+01 -0.50835736503E+01  0.12256581594E+03  0.12268773278E+03  0.10566000000E+00 0.  1.
         14    1    4    4    0    0 -0.52120332445E+01 -0.85897702371E+01  0.21348324606E+03  0.21371954939E+03  0.00000000000E+00 0. -1.
<mgrwt>
<rscale>  0 0.84160438E+02</rscale>
<asrwt>0</asrwt>
<pdfrwt beam="1">  1        2 0.12190519E+00 0.84160438E+02</pdfrwt>
<pdfrwt beam="2">  1       -1 0.34380095E-03 0.84160438E+02</pdfrwt>
<totfact> 0.30064489E+05</totfact>
</mgrwt>
</event>
<event>
 8    1  0.2603554E-016  0.8003972E+02  0.7818608E-02  0.1328939E+00
         -1   -1    0    0    0  501 -0.00000000000E+00  0.00000000000E+00  0.82048676111E+02  0.82048676266E+02  0.50400000000E-02 0.  1.
          2   -1    0    0  501    0  0.00000000000E+00 -0.00000000000E+00 -0.19519988643E+02  0.19519988809E+02  0.25500000000E-02 0. -1.
         24    2    1    2    0    0  0.00000000000E+00  0.44408920985E-15  0.62528687468E+02  0.10156866508E+03  0.80039721193E+02 0.  0.
         66    2    3    3    0    0 -0.22074960054E+02  0.29473638422E+01 -0.10872125959E+02  0.24863506248E+02  0.20000012702E+01 0.  0.
        -13    1    3    3    0    0  0.22074960054E+02 -0.29473638422E+01  0.73400813427E+02  0.76705158827E+02  0.10566000000E+00 0.  1.
         13    1    4    4    0    0 -0.58985265012E+00  0.22437493065E+00 -0.12081820804E+00  0.65117688330E+00  0.10566000000E+00 0.  1.
        -13    1    4    4    0    0 -0.46736815164E+01  0.78155705583E+00 -0.29004549977E+01  0.55567916622E+01  0.10566000000E+00 0.  1.
         14    1    4    4    0    0 -0.16811425887E+02  0.19414318557E+01 -0.78508527529E+01  0.18655537702E+02  0.00000000000E+00 0. -1.
<mgrwt>
<rscale>  0 0.80039721E+02</rscale>
<asrwt>0</asrwt>
<pdfrwt beam="1">  1        2 0.30030752E-02 0.80039721E+02</pdfrwt>
<pdfrwt beam="2">  1       -1 0.12622873E-01 0.80039721E+02</pdfrwt>
<totfact> 0.12337081E+05</totfact>
</mgrwt>
</event>
<event>
 8    1  0.2603554E-016  0.8023011E+02  0.7818608E-02  0.1328400E+00
          2   -1    0    0  501    0  0.00000000000E+00  0.00000000000E+00  0.93087355290E+02  0.93087355325E+02  0.25500000000E-02 0. -1.
         -1   -1    0    0    0  501 -0.00000000000E+00 -0.00000000000E+00 -0.17287178564E+02  0.17287179298E+02  0.50400000000E-02 0.  1.
         24    2    1    2    0    0 -0.35527136788E-14  0.35527136788E-14  0.75800176726E+02  0.11037453462E+03  0.80230113434E+02 0.  0.
         66    2    3    3    0    0 -0.21373838923E+02  0.27404891012E+02  0.65415485895E+02  0.74101652061E+02  0.20000004184E+01 0.  0.
        -13    1    3    3    0    0  0.21373838923E+02 -0.27404891012E+02  0.10384690831E+02  0.36272882562E+02  0.10566000000E+00 0.  1.
         13    1    4    4    0    0 -0.13095244416E+01  0.24063930537E+01  0.53511414766E+01  0.60126084963E+01  0.10566000000E+00 0. -1.
        -13    1    4    4    0    0 -0.13555706689E+01  0.13731094488E+01  0.36767825168E+01  0.41536604469E+01  0.10566000000E+00 0.  1.
         14    1    4    4    0    0 -0.18708743812E+02  0.23625388509E+02  0.56387561901E+02  0.63935383118E+02  0.00000000000E+00 0. -1.
<mgrwt>
<rscale>  0 0.80230113E+02</rscale>
<asrwt>0</asrwt>
<pdfrwt beam="1">  1        2 0.14321132E-01 0.80230113E+02</pdfrwt>
<pdfrwt beam="2">  1       -1 0.26595660E-02 0.80230113E+02</pdfrwt>
<totfact> 0.17245173E+05</totfact>
</mgrwt>
</event>
<event>
 8    1  0.2603554E-016  0.7962842E+02  0.7818608E-02  0.1330109E+00
          2   -1    0    0  501    0  0.00000000000E+00  0.00000000000E+00  0.30160307134E+03  0.30160307135E+03  0.25500000000E-02 0. -1.
         -1   -1    0    0    0  501 -0.00000000000E+00 -0.00000000000E+00 -0.52558187909E+01  0.52558212074E+01  0.50400000000E-02 0.  1.
         24    2    1    2    0    0  0.00000000000E+00  0.71054273576E-14  0.29634725255E+03  0.30685889256E+03  0.79628423623E+02 0.  0.
         66    2    3    3    0    0  0.18395350189E+02  0.35251618868E+02  0.15385257199E+03  0.15892035569E+03  0.20000002118E+01 0.  0.
        -13    1    3    3    0    0 -0.18395350189E+02 -0.35251618868E+02  0.14249468056E+03  0.14793853688E+03  0.10566000000E+00 0.  1.
         13    1    4    4    0    0  0.13004123946E+02  0.23616575846E+02  0.10482245408E+03  0.10823404241E+03  0.10566000000E+00 0. -1.
        -13    1    4    4    0    0  0.19606065078E+00  0.86725976021E+00  0.33594903053E+01  0.34767683870E+01  0.10566000000E+00 0.  1.
        -14    1    4    4    0    0  0.51951655926E+01  0.10767783262E+02  0.45670627610E+02  0.47209544885E+02  0.00000000000E+00 0.  1.
<mgrwt>
<rscale>  0 0.79628424E+02</rscale>
<asrwt>0</asrwt>
<pdfrwt beam="1">  1        2 0.46400484E-01 0.79628424E+02</pdfrwt>
<pdfrwt beam="2">  1       -1 0.80858750E-03 0.79628424E+02</pdfrwt>
<totfact> 0.25857322E+05</totfact>
</mgrwt>
</event>
<event>
 8    1  0.2603554E-016  0.8179221E+02  0.7818608E-02  0.1324041E+00
         -1   -1    0    0    0  501 -0.00000000000E+00  0.00000000000E+00  0.21704124307E+03  0.21704124313E+03  0.50400000000E-02 0.  1.
          2   -1    0    0  501    0  0.00000000000E+00 -0.00000000000E+00 -0.77058680717E+01  0.77058684937E+01  0.25500000000E-02 0. -1.
         24    2    1    2    0    0  0.00000000000E+00  0.00000000000E+00  0.20933537500E+03  0.22474711162E+03  0.81792205966E+02 0.  0.
         66    2    3    3    0    0  0.39270869794E+02  0.26360201227E+01  0.74462507035E+02  0.84248529803E+02  0.20000008896E+01 0.  0.
        -13    1    3    3    0    0 -0.39270869794E+02 -0.26360201227E+01  0.13487286796E+03  0.14049858182E+03  0.10566000000E+00 0.  1.
         13    1    4    4    0    0  0.10781261209E+02  0.13610330244E+00  0.21746322077E+02  0.24272779101E+02  0.10566000000E+00 0. -1.
        -13    1    4    4    0    0  0.15905790355E+02  0.13145856739E+01  0.29027570788E+02  0.33126021979E+02  0.10566000000E+00 0.  1.
         14    1    4    4    0    0  0.12583818230E+02  0.11853311464E+01  0.23688614171E+02  0.26849728723E+02  0.00000000000E+00 0. -1.
<mgrwt>
<rscale>  0 0.81792206E+02</rscale>
<asrwt>0</asrwt>
<pdfrwt beam="1">  1        2 0.11855182E-02 0.81792206E+02</pdfrwt>
<pdfrwt beam="2">  1       -1 0.33390962E-01 0.81792206E+02</pdfrwt>
<totfact> 0.91768657E+04</totfact>
</mgrwt>
</event>
<event>
 8    1  0.2603554E-016  0.7997595E+02  0.7818608E-02  0.1329120E+00
         -1   -1    0    0    0  501 -0.00000000000E+00  0.00000000000E+00  0.15487044908E+02  0.15487045728E+02  0.50400000000E-02 0.  1.
          2   -1    0    0  501    0  0.00000000000E+00 -0.00000000000E+00 -0.10325004314E+03  0.10325004318E+03  0.25500000000E-02 0. -1.
         24    2    1    2    0    0  0.00000000000E+00  0.00000000000E+00 -0.87762998236E+02  0.11873708890E+03  0.79975949021E+02 0.  0.
         66    2    3    3    0    0 -0.30394173845E+02  0.30642872774E+01 -0.82161193902E+02  0.87679287370E+02  0.19999975244E+01 0.  0.
        -13    1    3    3    0    0  0.30394173845E+02 -0.30642872774E+01 -0.56018043342E+01  0.31057801533E+02  0.10566000000E+00 0.  1.
         13    1    4    4    0    0 -0.16171147855E+02  0.14022651823E+01 -0.41488881870E+02  0.44551216071E+02  0.10566000000E+00 0. -1.
        -13    1    4    4    0    0 -0.41972331251E+01  0.17465139619E+00 -0.11282656103E+02  0.12039799076E+02  0.10566000000E+00 0.  1.
        -14    1    4    4    0    0 -0.10025792865E+02  0.14873706989E+01 -0.29389655929E+02  0.31088272223E+02  0.00000000000E+00 0.  1.
<mgrwt>
<rscale>  0 0.79975949E+02</rscale>
<asrwt>0</asrwt>
<pdfrwt beam="1">  1        2 0.15884622E-01 0.79975949E+02</pdfrwt>
<pdfrwt beam="2">  1       -1 0.23826224E-02 0.79975949E+02</pdfrwt>
<totfact> 0.17900606E+05</totfact>
</mgrwt>
</event>
<event>
 8    1  0.2603554E-016  0.7975105E+02  0.7818608E-02  0.1329759E+00
         -1   -1    0    0    0  501 -0.00000000000E+00  0.00000000000E+00  0.14811341970E+02  0.14811342828E+02  0.50400000000E-02 0.  1.
          2   -1    0    0  501    0  0.00000000000E+00 -0.00000000000E+00 -0.10735404117E+03  0.10735404120E+03  0.25500000000E-02 0. -1.
         24    2    1    2    0    0 -0.17763568394E-14  0.35527136788E-14 -0.92542699203E+02  0.12216538403E+03  0.79751049397E+02 0.  0.
         66    2    3    3    0    0  0.10285706009E+02 -0.26907728012E+02 -0.88480945119E+02  0.93073622567E+02  0.19999984105E+01 0.  0.
        -13    1    3    3    0    0 -0.10285706009E+02  0.26907728012E+02 -0.40617540842E+01  0.29091761465E+02  0.10566000000E+00 0.  1.
         13    1    4    4    0    0  0.11920471807E+01 -0.32541378491E+01 -0.11945600643E+02  0.12438606368E+02  0.10566000000E+00 0. -1.
        -13    1    4    4    0    0  0.16153796570E+01 -0.42954624256E+01 -0.15713063423E+02  0.16369849574E+02  0.10566000000E+00 0. -1.
         14    1    4    4    0    0  0.74782791718E+01 -0.19358127737E+02 -0.60822281052E+02  0.64265166625E+02  0.00000000000E+00 0. -1.
<mgrwt>
<rscale>  0 0.79751049E+02</rscale>
<asrwt>0</asrwt>
<pdfrwt beam="1">  1        2 0.16516006E-01 0.79751049E+02</pdfrwt>
<pdfrwt beam="2">  1       -1 0.22786681E-02 0.79751049E+02</pdfrwt>
<totfact> 0.18237562E+05</totfact>
</mgrwt>
</event>
<event>
 8    1  0.2603554E-016  0.8008499E+02  0.7818608E-02  0.1328810E+00
          2   -1    0    0  501    0  0.00000000000E+00  0.00000000000E+00  0.22268479809E+03  0.22268479811E+03  0.25500000000E-02 0. -1.
         -1   -1    0    0    0  501 -0.00000000000E+00 -0.00000000000E+00 -0.72003170537E+01  0.72003188176E+01  0.50400000000E-02 0.  1.
         24    2    1    2    0    0  0.00000000000E+00 -0.35527136788E-14  0.21548448104E+03  0.22988511693E+03  0.80084988699E+02 0.  0.
         66    2    3    3    0    0  0.28422902137E+02 -0.28131769009E+02  0.11200707563E+03  0.11894890828E+03  0.19999992960E+01 0.  0.
        -13    1    3    3    0    0 -0.28422902137E+02  0.28131769009E+02  0.10347740541E+03  0.11093620865E+03  0.10566000000E+00 0.  1.
         13    1    4    4    0    0  0.14339194824E+02 -0.13460717415E+02  0.57116150252E+02  0.60407526064E+02  0.10566000000E+00 0. -1.
        -13    1    4    4    0    0  0.39975245502E+01 -0.40221478617E+01  0.14501646320E+02  0.15571345028E+02  0.10566000000E+00 0.  1.
         14    1    4    4    0    0  0.10086182763E+02 -0.10648903733E+02  0.40389279054E+02  0.42970037188E+02  0.00000000000E+00 0. -1.
<mgrwt>
<rscale>  0 0.80084989E+02</rscale>
<asrwt>0</asrwt>
<pdfrwt beam="1">  1        2 0.34259201E-01 0.80084989E+02</pdfrwt>
<pdfrwt beam="2">  1       -1 0.11077412E-02 0.80084989E+02</pdfrwt>
<totfact> 0.22841167E+05</totfact>
</mgrwt>
</event>
<event>
 8    1  0.2603554E-016  0.8336037E+02  0.7818608E-02  0.1319777E+00
         -1   -1    0    0    0  501 -0.00000000000E+00  0.00000000000E+00  0.33886922764E+01  0.33886960244E+01  0.50400000000E-02 0.  1.
          2   -1    0    0  501    0  0.00000000000E+00 -0.00000000000E+00 -0.51265702045E+03  0.51265702046E+03  0.25500000000E-02 0. -1.
         24    2    1    2    0    0  0.00000000000E+00  0.00000000000E+00 -0.50926832817E+03  0.51604571648E+03  0.83360370785E+02 0.  0.
         66    2    3    3    0    0 -0.22423996197E+02 -0.13983735201E+02 -0.45411691064E+03  0.45488960088E+03  0.20000005984E+01 0.  0.
        -13    1    3    3    0    0  0.22423996197E+02  0.13983735201E+02 -0.55151417535E+02  0.61156115604E+02  0.10566000000E+00 0.  1.
         13    1    4    4    0    0 -0.10822783206E+02 -0.57192857289E+01 -0.21530065547E+03  0.21564838575E+03  0.10566000000E+00 0. -1.
        -13    1    4    4    0    0 -0.32129883213E+01 -0.25509799769E+01 -0.69293382816E+02  0.69414802880E+02  0.10566000000E+00 0.  1.
         14    1    4    4    0    0 -0.83882246696E+01 -0.57134694955E+01 -0.16952287235E+03  0.16982641225E+03  0.00000000000E+00 0. -1.
<mgrwt>
<rscale>  0 0.83360371E+02</rscale>
<asrwt>0</asrwt>
<pdfrwt beam="1">  1        2 0.78870250E-01 0.83360371E+02</pdfrwt>
<pdfrwt beam="2">  1       -1 0.52133797E-03 0.83360371E+02</pdfrwt>
<totfact> 0.27566717E+05</totfact>
</mgrwt>
</event>
<event>
 8    1  0.2603554E-016  0.8114693E+02  0.7818608E-02  0.1325828E+00
          2   -1    0    0  501    0  0.00000000000E+00  0.00000000000E+00  0.73631049480E+03  0.73631049480E+03  0.25500000000E-02 0. -1.
         -1   -1    0    0    0  501 -0.00000000000E+00 -0.00000000000E+00 -0.22357467499E+01  0.22357524306E+01  0.50400000000E-02 0.  1.
         24    2    1    2    0    0  0.00000000000E+00 -0.17763568394E-14  0.73407474805E+03  0.73854624723E+03  0.81146925882E+02 0.  0.
         66    2    3    3    0    0  0.97571339091E+01  0.13681735711E+02  0.70312396318E+03  0.70332759021E+03  0.20000014188E+01 0.  0.
        -13    1    3    3    0    0 -0.97571339091E+01 -0.13681735711E+02  0.30950784873E+02  0.35218657023E+02  0.10566000000E+00 0.  1.
         13    1    4    4    0    0  0.17712786642E+01  0.23260905382E+01  0.12366635226E+03  0.12370095379E+03  0.10566000000E+00 0. -1.
        -13    1    4    4    0    0  0.69236960906E+01  0.88457391688E+01  0.44845388334E+03  0.44859456229E+03  0.10566000000E+00 0.  1.
        -14    1    4    4    0    0  0.10621591543E+01  0.25099060044E+01  0.13100372759E+03  0.13103207413E+03  0.00000000000E+00 0.  1.
<mgrwt>
<rscale>  0 0.81146926E+02</rscale>
<asrwt>0</asrwt>
<pdfrwt beam="1">  1        2 0.11327844E+00 0.81146926E+02</pdfrwt>
<pdfrwt beam="2">  1       -1 0.34396176E-03 0.81146926E+02</pdfrwt>
<totfact> 0.32595260E+05</totfact>
</mgrwt>
</event>
<event>
 8    1  0.2603554E-016  0.8141877E+02  0.7818608E-02  0.1325073E+00
         -1   -1    0    0    0  501 -0.00000000000E+00  0.00000000000E+00  0.33753532022E+01  0.33753569650E+01  0.50400000000E-02 0.  1.
          2   -1    0    0  501    0  0.00000000000E+00 -0.00000000000E+00 -0.49098651460E+03  0.49098651461E+03  0.25500000000E-02 0. -1.
         24    2    1    2    0    0  0.88817841970E-15 -0.35527136788E-14 -0.48761116140E+03  0.49436187157E+03  0.81418765307E+02 0.  0.
         66    2    3    3    0    0 -0.53633089790E+01  0.30988270918E+02 -0.40067296247E+03  0.40191026470E+03  0.19999982091E+01 0.  0.
        -13    1    3    3    0    0  0.53633089790E+01 -0.30988270918E+02 -0.86938198927E+02  0.92451606878E+02  0.10566000000E+00 0.  1.
         13    1    4    4    0    0 -0.90951045200E+00  0.76842745515E+01 -0.97289749028E+02  0.97597037427E+02  0.10566000000E+00 0. -1.
        -13    1    4    4    0    0 -0.10643301414E+00  0.25178198734E+01 -0.35693480137E+02  0.35782487801E+02  0.10566000000E+00 0.  1.
        -14    1    4    4    0    0 -0.43473655129E+01  0.20786176493E+02 -0.26768973331E+03  0.26853073947E+03  0.00000000000E+00 0.  1.
<mgrwt>
<rscale>  0 0.81418765E+02</rscale>
<asrwt>0</asrwt>
<pdfrwt beam="1">  1        2 0.75536330E-01 0.81418765E+02</pdfrwt>
<pdfrwt beam="2">  1       -1 0.51928579E-03 0.81418765E+02</pdfrwt>
<totfact> 0.28917323E+05</totfact>
</mgrwt>
</event>
<event>
 8    1  0.2603554E-016  0.8148296E+02  0.7818608E-02  0.1324895E+00
          2   -1    0    0  501    0  0.00000000000E+00  0.00000000000E+00  0.27655749014E+03  0.27655749016E+03  0.25500000000E-02 0. -1.
         -1   -1    0    0    0  501 -0.00000000000E+00 -0.00000000000E+00 -0.60018904214E+01  0.60018925375E+01  0.50400000000E-02 0.  1.
         24    2    1    2    0    0  0.00000000000E+00  0.11102230246E-15  0.27055559972E+03  0.28255938269E+03  0.81482956542E+02 0.  0.
         66    2    3    3    0    0  0.33983611786E+02  0.65569371469E+00  0.21309672210E+03  0.21579974229E+03  0.20000003493E+01 0.  0.
        -13    1    3    3    0    0 -0.33983611786E+02 -0.65569371469E+00  0.57458877628E+02  0.66759640402E+02  0.10566000000E+00 0.  1.
         13    1    4    4    0    0  0.24012478227E+02  0.32095221944E-01  0.15135593116E+03  0.15324891256E+03  0.10566000000E+00 0. -1.
        -13    1    4    4    0    0  0.44890726839E+01  0.45043667781E+00  0.25243831974E+02  0.25644041872E+02  0.10566000000E+00 0.  1.
         14    1    4    4    0    0  0.54820608748E+01  0.17316181494E+00  0.36496958960E+02  0.36906787855E+02  0.00000000000E+00 0. -1.
<mgrwt>
<rscale>  0 0.81482957E+02</rscale>
<asrwt>0</asrwt>
<pdfrwt beam="1">  1        2 0.42547312E-01 0.81482957E+02</pdfrwt>
<pdfrwt beam="2">  1       -1 0.92336780E-03 0.81482957E+02</pdfrwt>
<totfact> 0.23587870E+05</totfact>
</mgrwt>
</event>
<event>
 8    1  0.2603554E-016  0.7732502E+02  0.7818608E-02  0.1336819E+00
         -1   -1    0    0    0  501 -0.00000000000E+00  0.00000000000E+00  0.34197758289E+02  0.34197758660E+02  0.50400000000E-02 0.  1.
          2   -1    0    0  501    0  0.00000000000E+00 -0.00000000000E+00 -0.43710170723E+02  0.43710170797E+02  0.25500000000E-02 0. -1.
         24    2    1    2    0    0  0.00000000000E+00  0.00000000000E+00 -0.95124124340E+01  0.77907929457E+02  0.77325024940E+02 0.  0.
         66    2    3    3    0    0  0.13592689864E+02 -0.51204370136E+01 -0.40831572536E+02  0.43384299195E+02  0.20000019750E+01 0.  0.
        -13    1    3    3    0    0 -0.13592689864E+02  0.51204370136E+01  0.31319160102E+02  0.34523630262E+02  0.10566000000E+00 0.  1.
         13    1    4    4    0    0  0.28867298256E+01 -0.97629461668E+00 -0.72617430774E+01  0.78759403771E+01  0.10566000000E+00 0. -1.
        -13    1    4    4    0    0  0.13835131212E+01 -0.66000251656E-01 -0.44623194358E+01  0.46735343556E+01  0.10566000000E+00 0.  1.
        -14    1    4    4    0    0  0.93224469173E+01 -0.40781421452E+01 -0.29107510023E+02  0.30834824462E+02  0.00000000000E+00 0.  1.
<mgrwt>
<rscale>  0 0.77325025E+02</rscale>
<asrwt>0</asrwt>
<pdfrwt beam="1">  1        2 0.67246417E-02 0.77325025E+02</pdfrwt>
<pdfrwt beam="2">  1       -1 0.52611936E-02 0.77325025E+02</pdfrwt>
<totfact> 0.15941960E+05</totfact>
</mgrwt>
</event>
<event>
 8    1  0.2603554E-016  0.7845375E+02  0.7818608E-02  0.1333498E+00
         -1   -1    0    0    0  501 -0.00000000000E+00  0.00000000000E+00  0.12109767977E+01  0.12109872857E+01  0.50400000000E-02 0.  1.
          2   -1    0    0  501    0  0.00000000000E+00 -0.00000000000E+00 -0.12706610260E+04  0.12706610260E+04  0.25500000000E-02 0. -1.
         24    2    1    2    0    0  0.00000000000E+00  0.00000000000E+00 -0.12694500492E+04  0.12718720133E+04  0.78453749219E+02 0.  0.
         66    2    3    3    0    0  0.83832836972E+00  0.15599415808E+02 -0.12180151926E+04  0.12181170116E+04  0.19999998261E+01 0.  0.
        -13    1    3    3    0    0 -0.83832836972E+00 -0.15599415808E+02 -0.51434856650E+02  0.53755001727E+02  0.10566000000E+00 0.  1.
         13    1    4    4    0    0 -0.11811470068E+00  0.57517667920E+01 -0.39403190376E+03  0.39407391327E+03  0.10566000000E+00 0.  1.
        -13    1    4    4    0    0  0.84438959094E+00  0.78270198859E+01 -0.62757139945E+03  0.62762078344E+03  0.10566000000E+00 0. -1.
         14    1    4    4    0    0  0.11205347945E+00  0.20206291302E+01 -0.19641188937E+03  0.19642231489E+03  0.00000000000E+00 0. -1.
<mgrwt>
<rscale>  0 0.78453749E+02</rscale>
<asrwt>0</asrwt>
<pdfrwt beam="1">  1        2 0.19548524E+00 0.78453749E+02</pdfrwt>
<pdfrwt beam="2">  1       -1 0.18630595E-03 0.78453749E+02</pdfrwt>
<totfact> 0.36565714E+05</totfact>
</mgrwt>
</event>
<event>
 8    1  0.2603554E-016  0.7981298E+02  0.7818608E-02  0.1329583E+00
         -1   -1    0    0    0  501 -0.00000000000E+00  0.00000000000E+00  0.13758204040E+02  0.13758204963E+02  0.50400000000E-02 0.  1.
          2   -1    0    0  501    0  0.00000000000E+00 -0.00000000000E+00 -0.11575113871E+03  0.11575113874E+03  0.25500000000E-02 0. -1.
         24    2    1    2    0    0  0.00000000000E+00  0.00000000000E+00 -0.10199293467E+03  0.12950934370E+03  0.79812977537E+02 0.  0.
         66    2    3    3    0    0 -0.11312520292E+02  0.27445469730E+02 -0.94244079455E+02  0.98829010501E+02  0.19999700551E+01 0.  0.
        -13    1    3    3    0    0  0.11312520292E+02 -0.27445469730E+02 -0.77488552133E+01  0.30680333199E+02  0.10566000000E+00 0.  1.
         13    1    4    4    0    0 -0.38065738763E+01  0.75201389135E+01 -0.28411713271E+02  0.29635774142E+02  0.10566000000E+00 0. -1.
        -13    1    4    4    0    0 -0.34173283993E+00  0.81979367170E+00 -0.25181441283E+01  0.26722756004E+01  0.10566000000E+00 0. -1.
         14    1    4    4    0    0 -0.71642135761E+01  0.19105537145E+02 -0.63314222055E+02  0.66520960758E+02  0.00000000000E+00 0. -1.
<mgrwt>
<rscale>  0 0.79812978E+02</rscale>
<asrwt>0</asrwt>
<pdfrwt beam="1">  1        2 0.17807867E-01 0.79812978E+02</pdfrwt>
<pdfrwt beam="2">  1       -1 0.21166469E-02 0.79812978E+02</pdfrwt>
<totfact> 0.18603259E+05</totfact>
</mgrwt>
</event>
<event>
 8    1  0.2603554E-016  0.7842687E+02  0.7818608E-02  0.1333576E+00
          2   -1    0    0  501    0  0.00000000000E+00  0.00000000000E+00  0.68222043145E+03  0.68222043145E+03  0.25500000000E-02 0. -1.
         -1   -1    0    0    0  501 -0.00000000000E+00 -0.00000000000E+00 -0.22539514539E+01  0.22539570888E+01  0.50400000000E-02 0.  1.
         24    2    1    2    0    0  0.17763568394E-14  0.00000000000E+00  0.67996647999E+03  0.68447438854E+03  0.78426874563E+02 0.  0.
         66    2    3    3    0    0 -0.97431690838E+01  0.26079661459E+02  0.58090228298E+03  0.58157247223E+03  0.20000009264E+01 0.  0.
        -13    1    3    3    0    0  0.97431690838E+01 -0.26079661459E+02  0.99064197014E+02  0.10290191631E+03  0.10566000000E+00 0.  1.
         13    1    4    4    0    0 -0.18625469248E+00  0.40858634281E+00  0.67468186429E+01  0.67625704762E+01  0.10566000000E+00 0.  1.
        -13    1    4    4    0    0 -0.20682448658E+01  0.69152811257E+01  0.14553361254E+03  0.14571253307E+03  0.10566000000E+00 0. -1.
         14    1    4    4    0    0 -0.74886695255E+01  0.18755793991E+02  0.42862185179E+03  0.42909736869E+03  0.00000000000E+00 0. -1.
<mgrwt>
<rscale>  0 0.78426875E+02</rscale>
<asrwt>0</asrwt>
<pdfrwt beam="1">  1        2 0.10495692E+00 0.78426875E+02</pdfrwt>
<pdfrwt beam="2">  1       -1 0.34676243E-03 0.78426875E+02</pdfrwt>
<totfact> 0.35011541E+05</totfact>
</mgrwt>
</event>
<event>
 8    1  0.2603554E-016  0.7579989E+02  0.7818608E-02  0.1341412E+00
          2   -1    0    0  501    0  0.00000000000E+00  0.00000000000E+00  0.82931661658E+03  0.82931661659E+03  0.25500000000E-02 0. -1.
         -1   -1    0    0    0  501 -0.00000000000E+00 -0.00000000000E+00 -0.17320317263E+01  0.17320390592E+01  0.50400000000E-02 0.  1.
         24    2    1    2    0    0  0.00000000000E+00  0.88817841970E-15  0.82758458486E+03  0.83104865565E+03  0.75799887591E+02 0.  0.
         66    2    3    3    0    0 -0.13810456485E+02 -0.63308066481E+01  0.79444208798E+03  0.79458985583E+03  0.20000010828E+01 0.  0.
        -13    1    3    3    0    0  0.13810456485E+02  0.63308066481E+01  0.33142496875E+02  0.36458799820E+02  0.10566000000E+00 0.  1.
         13    1    4    4    0    0 -0.42406586356E+01 -0.13525857751E+01  0.25478881134E+03  0.25482771086E+03  0.10566000000E+00 0. -1.
        -13    1    4    4    0    0 -0.29494979705E+01 -0.17271354735E+01  0.14882698624E+03  0.14886626728E+03  0.10566000000E+00 0.  1.
         14    1    4    4    0    0 -0.66202998794E+01 -0.32510853996E+01  0.39082629040E+03  0.39089587769E+03  0.00000000000E+00 0. -1.
<mgrwt>
<rscale>  0 0.75799888E+02</rscale>
<asrwt>0</asrwt>
<pdfrwt beam="1">  1        2 0.12758717E+00 0.75799888E+02</pdfrwt>
<pdfrwt beam="2">  1       -1 0.26646699E-03 0.75799888E+02</pdfrwt>
<totfact> 0.39751001E+05</totfact>
</mgrwt>
</event>
<event>
 8    1  0.2603554E-016  0.8033655E+02  0.7818608E-02  0.1328099E+00
          2   -1    0    0  501    0  0.00000000000E+00  0.00000000000E+00  0.20947775843E+03  0.20947775845E+03  0.25500000000E-02 0. -1.
         -1   -1    0    0    0  501 -0.00000000000E+00 -0.00000000000E+00 -0.77024420344E+01  0.77024436833E+01  0.50400000000E-02 0.  1.
         24    2    1    2    0    0  0.00000000000E+00  0.00000000000E+00  0.20177531640E+03  0.21718020213E+03  0.80336553886E+02 0.  0.
         66    2    3    3    0    0  0.32982900976E+02  0.10636323552E+02  0.15572146836E+03  0.15954365801E+03  0.19999916642E+01 0.  0.
        -13    1    3    3    0    0 -0.32982900976E+02 -0.10636323552E+02  0.46053848042E+02  0.57636544128E+02  0.10566000000E+00 0.  1.
         13    1    4    4    0    0  0.11287346641E+02  0.31968757313E+01  0.49618908625E+02  0.50986973491E+02  0.10566000000E+00 0. -1.
        -13    1    4    4    0    0  0.18802119400E+02  0.63797693331E+01  0.93156396780E+02  0.95248866533E+02  0.10566000000E+00 0.  1.
         14    1    4    4    0    0  0.28934349348E+01  0.10596784879E+01  0.12946162952E+02  0.13307817981E+02  0.00000000000E+00 0. -1.
<mgrwt>
<rscale>  0 0.80336554E+02</rscale>
<asrwt>0</asrwt>
<pdfrwt beam="1">  1        2 0.32227345E-01 0.80336554E+02</pdfrwt>
<pdfrwt beam="2">  1       -1 0.11849913E-02 0.80336554E+02</pdfrwt>
<totfact> 0.22170812E+05</totfact>
</mgrwt>
</event>
<event>
 8    1  0.2603554E-016  0.7439095E+02  0.7818608E-02  0.1345768E+00
         -1   -1    0    0    0  501 -0.00000000000E+00  0.00000000000E+00  0.39136921470E+02  0.39136921794E+02  0.50400000000E-02 0.  1.
          2   -1    0    0  501    0  0.00000000000E+00 -0.00000000000E+00 -0.35350333921E+02  0.35350334013E+02  0.25500000000E-02 0. -1.
         24    2    1    2    0    0 -0.44408920985E-15  0.00000000000E+00  0.37865875483E+01  0.74487255808E+02  0.74390947248E+02 0.  0.
         66    2    3    3    0    0  0.27280068059E+01 -0.19562834613E+02 -0.29631844918E+02  0.35667810787E+02  0.19999934651E+01 0.  0.
        -13    1    3    3    0    0 -0.27280068059E+01  0.19562834613E+02  0.33418432466E+02  0.38819445021E+02  0.10566000000E+00 0.  1.
         13    1    4    4    0    0  0.19243144622E+01 -0.12278241847E+02 -0.20015117024E+02  0.23560014484E+02  0.10566000000E+00 0. -1.
        -13    1    4    4    0    0  0.71411517144E+00 -0.39242561748E+01 -0.54370892422E+01  0.67440974539E+01  0.10566000000E+00 0.  1.
         14    1    4    4    0    0  0.89577172233E-01 -0.33603365914E+01 -0.41796386519E+01  0.53636988485E+01  0.00000000000E+00 0. -1.
<mgrwt>
<rscale>  0 0.74390947E+02</rscale>
<asrwt>0</asrwt>
<pdfrwt beam="1">  1        2 0.54385129E-02 0.74390947E+02</pdfrwt>
<pdfrwt beam="2">  1       -1 0.60210649E-02 0.74390947E+02</pdfrwt>
<totfact> 0.16994115E+05</totfact>
</mgrwt>
</event>
<event>
 8    1  0.2603554E-016  0.8025416E+02  0.7818608E-02  0.1328332E+00
         -1   -1    0    0    0  501 -0.00000000000E+00  0.00000000000E+00  0.36693992175E+02  0.36693992522E+02  0.50400000000E-02 0.  1.
          2   -1    0    0  501    0  0.00000000000E+00 -0.00000000000E+00 -0.43881365857E+02  0.43881365931E+02  0.25500000000E-02 0. -1.
         24    2    1    2    0    0  0.17763568394E-14  0.00000000000E+00 -0.71873736819E+01  0.80575358453E+02  0.80254159078E+02 0.  0.
         66    2    3    3    0    0  0.11683520795E+02 -0.90818328676E+01 -0.41016966984E+02  0.43650612097E+02  0.20000023755E+01 0.  0.
        -13    1    3    3    0    0 -0.11683520795E+02  0.90818328676E+01  0.33829593302E+02  0.36924746356E+02  0.10566000000E+00 0.  1.
         13    1    4    4    0    0  0.71507124180E+01 -0.62431944479E+01 -0.25561581180E+02  0.27267485426E+02  0.10566000000E+00 0. -1.
        -13    1    4    4    0    0  0.18415772779E+01 -0.11242814598E+01 -0.76914709239E+01  0.79890740815E+01  0.10566000000E+00 0.  1.
        -14    1    4    4    0    0  0.26912310993E+01 -0.17143569599E+01 -0.77639148796E+01  0.83940525894E+01  0.00000000000E+00 0.  1.
<mgrwt>
<rscale>  0 0.80254159E+02</rscale>
<asrwt>0</asrwt>
<pdfrwt beam="1">  1        2 0.67509793E-02 0.80254159E+02</pdfrwt>
<pdfrwt beam="2">  1       -1 0.56452296E-02 0.80254159E+02</pdfrwt>
<totfact> 0.14405591E+05</totfact>
</mgrwt>
</event>
<event>
 8    1  0.2603554E-016  0.8336068E+02  0.7818608E-02  0.1319776E+00
          2   -1    0    0  501    0  0.00000000000E+00  0.00000000000E+00  0.73821212051E+02  0.73821212095E+02  0.25500000000E-02 0. -1.
         -1   -1    0    0    0  501 -0.00000000000E+00 -0.00000000000E+00 -0.23533218624E+02  0.23533219164E+02  0.50400000000E-02 0.  1.
         24    2    1    2    0    0 -0.88817841970E-15  0.71054273576E-14  0.50287993427E+02  0.97354431259E+02  0.83360680197E+02 0.  0.
         66    2    3    3    0    0  0.73847086263E+01  0.36070144578E+02  0.47914113390E+02  0.60459503127E+02  0.20000012495E+01 0.  0.
        -13    1    3    3    0    0 -0.73847086263E+01 -0.36070144578E+02  0.23738800369E+01  0.36894928132E+02  0.10566000000E+00 0.  1.
         13    1    4    4    0    0  0.49308860946E+01  0.22600319242E+02  0.31065745895E+02  0.38732154595E+02  0.10566000000E+00 0. -1.
        -13    1    4    4    0    0  0.10384135818E+01  0.40778831290E+01  0.55920390808E+01  0.69992498668E+01  0.10566000000E+00 0.  1.
        -14    1    4    4    0    0  0.14154089500E+01  0.93919422073E+01  0.11256328414E+02  0.14728098665E+02  0.00000000000E+00 0.  1.
<mgrwt>
<rscale>  0 0.83360680E+02</rscale>
<asrwt>0</asrwt>
<pdfrwt beam="1">  1        2 0.11357109E-01 0.83360680E+02</pdfrwt>
<pdfrwt beam="2">  1       -1 0.36204953E-02 0.83360680E+02</pdfrwt>
<totfact> 0.14633528E+05</totfact>
</mgrwt>
</event>
<event>
 8    1  0.2603554E-016  0.7377481E+02  0.7818608E-02  0.1347708E+00
         -1   -1    0    0    0  501 -0.00000000000E+00  0.00000000000E+00  0.71111575467E+02  0.71111575646E+02  0.50400000000E-02 0.  1.
          2   -1    0    0  501    0  0.00000000000E+00 -0.00000000000E+00 -0.19134447094E+02  0.19134447264E+02  0.25500000000E-02 0. -1.
         24    2    1    2    0    0 -0.44408920985E-15  0.00000000000E+00  0.51977128374E+02  0.90246022909E+02  0.73774811264E+02 0.  0.
         66    2    3    3    0    0  0.38805135401E+01  0.21353255462E+02 -0.10437753739E+02  0.24165401111E+02  0.20000008972E+01 0.  0.
        -13    1    3    3    0    0 -0.38805135401E+01 -0.21353255462E+02  0.62414882112E+02  0.66080621799E+02  0.10566000000E+00 0.  1.
         13    1    4    4    0    0  0.28197039147E+01  0.11779938511E+02 -0.55826465473E+01  0.13337720494E+02  0.10566000000E+00 0. -1.
        -13    1    4    4    0    0  0.28497098652E+00  0.11396017686E+01 -0.32728562158E+00  0.12240018660E+01  0.10566000000E+00 0.  1.
         14    1    4    4    0    0  0.77583863891E+00  0.84337151826E+01 -0.45278215698E+01  0.96036787505E+01  0.00000000000E+00 0. -1.
<mgrwt>
<rscale>  0 0.73774811E+02</rscale>
<asrwt>0</asrwt>
<pdfrwt beam="1">  1        2 0.29437611E-02 0.73774811E+02</pdfrwt>
<pdfrwt beam="2">  1       -1 0.10940242E-01 0.73774811E+02</pdfrwt>
<totfact> 0.15507447E+05</totfact>
</mgrwt>
</event>
<event>
 8    1  0.2603554E-016  0.8063410E+02  0.7818608E-02  0.1327262E+00
          2   -1    0    0  501    0  0.00000000000E+00  0.00000000000E+00  0.30938650595E+02  0.30938650700E+02  0.25500000000E-02 0. -1.
         -1   -1    0    0    0  501 -0.00000000000E+00 -0.00000000000E+00 -0.52538314148E+02  0.52538314390E+02  0.50400000000E-02 0.  1.
         24    2    1    2    0    0  0.00000000000E+00  0.00000000000E+00 -0.21599663554E+02  0.83476965089E+02  0.80634100943E+02 0.  0.
         66    2    3    3    0    0  0.29602941930E+02 -0.27291026622E+02 -0.12385106968E+02  0.42172564330E+02  0.20000006347E+01 0.  0.
        -13    1    3    3    0    0 -0.29602941930E+02  0.27291026622E+02 -0.92145565858E+01  0.41304400760E+02  0.10566000000E+00 0.  1.
         13    1    4    4    0    0  0.82037544173E+01 -0.75027865150E+01 -0.36667091624E+01  0.11706806232E+02  0.10566000000E+00 0. -1.
        -13    1    4    4    0    0  0.49508675391E+01 -0.55033341020E+01 -0.23981561336E+01  0.77820365268E+01  0.10566000000E+00 0.  1.
         14    1    4    4    0    0  0.16448319974E+02 -0.14284906005E+02 -0.63202416717E+01  0.22683721571E+02  0.00000000000E+00 0. -1.
<mgrwt>
<rscale>  0 0.80634101E+02</rscale>
<asrwt>0</asrwt>
<pdfrwt beam="1">  1        2 0.47597924E-02 0.80634101E+02</pdfrwt>
<pdfrwt beam="2">  1       -1 0.80828176E-02 0.80634101E+02</pdfrwt>
<totfact> 0.13241388E+05</totfact>
</mgrwt>
</event>
<event>
 8    1  0.2603554E-016  0.7835543E+02  0.7818608E-02  0.1333784E+00
         -1   -1    0    0    0  501 -0.00000000000E+00  0.00000000000E+00  0.31662229977E+02  0.31662230378E+02  0.50400000000E-02 0.  1.
          2   -1    0    0  501    0  0.00000000000E+00 -0.00000000000E+00 -0.48477104090E+02  0.48477104157E+02  0.25500000000E-02 0. -1.
         24    2    1    2    0    0  0.35527136788E-14 -0.88817841970E-15 -0.16814874113E+02  0.80139334535E+02  0.78355427050E+02 0.  0.
         66    2    3    3    0    0 -0.29260781267E+02  0.71688859907E+01 -0.33988248865E+02  0.45461932511E+02  0.20000000229E+01 0.  0.
        -13    1    3    3    0    0  0.29260781267E+02 -0.71688859907E+01  0.17173374751E+02  0.34677402023E+02  0.10566000000E+00 0.  1.
         13    1    4    4    0    0 -0.16565546703E+02  0.36853377164E+01 -0.19222600389E+02  0.25642125135E+02  0.10566000000E+00 0. -1.
        -13    1    4    4    0    0 -0.49397275895E+01  0.12345554955E+01 -0.48571060610E+01  0.70375904437E+01  0.10566000000E+00 0.  1.
         14    1    4    4    0    0 -0.77555069738E+01  0.22489927788E+01 -0.99085424147E+01  0.12782216933E+02  0.00000000000E+00 0. -1.
<mgrwt>
<rscale>  0 0.78355427E+02</rscale>
<asrwt>0</asrwt>
<pdfrwt beam="1">  1        2 0.74580160E-02 0.78355427E+02</pdfrwt>
<pdfrwt beam="2">  1       -1 0.48711124E-02 0.78355427E+02</pdfrwt>
<totfact> 0.15711956E+05</totfact>
</mgrwt>
</event>
<event>
 8    1  0.2603554E-016  0.7812795E+02  0.7818608E-02  0.1334450E+00
          2   -1    0    0  501    0  0.00000000000E+00  0.00000000000E+00  0.15252182844E+03  0.15252182846E+03  0.25500000000E-02 0. -1.
         -1   -1    0    0    0  501 -0.00000000000E+00 -0.00000000000E+00 -0.10005085909E+02  0.10005087178E+02  0.50400000000E-02 0.  1.
         24    2    1    2    0    0 -0.35527136788E-14  0.00000000000E+00  0.14251674253E+03  0.16252691564E+03  0.78127948941E+02 0.  0.
         66    2    3    3    0    0 -0.31286945451E+02 -0.18037071288E+02  0.10214485641E+03  0.10835949693E+03  0.19999971307E+01 0.  0.
        -13    1    3    3    0    0  0.31286945451E+02  0.18037071288E+02  0.40371886127E+02  0.54167418711E+02  0.10566000000E+00 0.  1.
         13    1    4    4    0    0 -0.40592535667E+01 -0.24658463487E+01  0.13597010749E+02  0.14403048396E+02  0.10566000000E+00 0. -1.
        -13    1    4    4    0    0 -0.14856102978E+02 -0.92391043680E+01  0.51204002326E+02  0.54110311988E+02  0.10566000000E+00 0.  1.
        -14    1    4    4    0    0 -0.12371588906E+02 -0.63321205714E+01  0.37343843332E+02  0.39846136548E+02  0.00000000000E+00 0.  1.
<mgrwt>
<rscale>  0 0.78127949E+02</rscale>
<asrwt>0</asrwt>
<pdfrwt beam="1">  1        2 0.23464895E-01 0.78127949E+02</pdfrwt>
<pdfrwt beam="2">  1       -1 0.15392442E-02 0.78127949E+02</pdfrwt>
<totfact> 0.21441882E+05</totfact>
</mgrwt>
</event>
<event>
 8    1  0.2603554E-016  0.7983163E+02  0.7818608E-02  0.1329530E+00
          2   -1    0    0  501    0  0.00000000000E+00  0.00000000000E+00  0.94526522524E+03  0.94526522525E+03  0.25500000000E-02 0. -1.
         -1   -1    0    0    0  501 -0.00000000000E+00 -0.00000000000E+00 -0.16855256930E+01  0.16855332282E+01  0.50400000000E-02 0.  1.
         24    2    1    2    0    0  0.00000000000E+00  0.17763568394E-14  0.94357969955E+03  0.94695075847E+03  0.79831632657E+02 0.  0.
         66    2    3    3    0    0 -0.29657248403E+02 -0.10095169887E+02  0.76500378312E+03  0.76564760370E+03  0.20000069703E+01 0.  0.
        -13    1    3    3    0    0  0.29657248403E+02  0.10095169887E+02  0.17857591643E+03  0.18130315477E+03  0.10566000000E+00 0.  1.
         13    1    4    4    0    0 -0.23877021716E+00 -0.51906210566E-02  0.56875421359E+01  0.56935347318E+01  0.10566000000E+00 0.  1.
        -13    1    4    4    0    0 -0.13570729461E+02 -0.53526792625E+01  0.35515306157E+03  0.35545256249E+03  0.10566000000E+00 0.  1.
         14    1    4    4    0    0 -0.15847748725E+02 -0.47373000036E+01  0.40416317941E+03  0.40450150647E+03  0.00000000000E+00 0. -1.
<mgrwt>
<rscale>  0 0.79831633E+02</rscale>
<asrwt>0</asrwt>
<pdfrwt beam="1">  1        2 0.14542533E+00 0.79831633E+02</pdfrwt>
<pdfrwt beam="2">  1       -1 0.25931239E-03 0.79831633E+02</pdfrwt>
<totfact> 0.35302660E+05</totfact>
</mgrwt>
</event>
<event>
 8    1  0.2603554E-016  0.7904211E+02  0.7818608E-02  0.1331792E+00
          2   -1    0    0  501    0  0.00000000000E+00  0.00000000000E+00  0.31087799032E+01  0.31087809491E+01  0.25500000000E-02 0. -1.
         -1   -1    0    0    0  501 -0.00000000000E+00 -0.00000000000E+00 -0.50242010184E+03  0.50242010187E+03  0.50400000000E-02 0.  1.
         24    2    1    2    0    0  0.71054273576E-14  0.88817841970E-15 -0.49931132194E+03  0.50552888282E+03  0.79042109950E+02 0.  0.
         66    2    3    3    0    0  0.37144183351E+02  0.55437448329E+01 -0.32801146359E+03  0.33016048173E+03  0.19999973183E+01 0.  0.
        -13    1    3    3    0    0 -0.37144183351E+02 -0.55437448329E+01 -0.17129985835E+03  0.17536840109E+03  0.10566000000E+00 0.  1.
         13    1    4    4    0    0  0.29422760306E+02  0.43861456817E+01 -0.26638827913E+03  0.26804414472E+03  0.10566000000E+00 0. -1.
        -13    1    4    4    0    0  0.58732867892E+01  0.89927926601E+00 -0.46161431576E+02  0.46542379935E+02  0.10566000000E+00 0.  1.
         14    1    4    4    0    0  0.18481362556E+01  0.25831988526E+00 -0.15461752884E+02  0.15573957077E+02  0.00000000000E+00 0. -1.
<mgrwt>
<rscale>  0 0.79042110E+02</rscale>
<asrwt>0</asrwt>
<pdfrwt beam="1">  1        2 0.47827431E-03 0.79042110E+02</pdfrwt>
<pdfrwt beam="2">  1       -1 0.77295336E-01 0.79042110E+02</pdfrwt>
<totfact> 0.68689811E+04</totfact>
</mgrwt>
</event>
<event>
 8    1  0.2603554E-016  0.8013936E+02  0.7818608E-02  0.1328656E+00
          2   -1    0    0  501    0  0.00000000000E+00  0.00000000000E+00  0.17685251304E+03  0.17685251306E+03  0.25500000000E-02 0. -1.
         -1   -1    0    0    0  501 -0.00000000000E+00 -0.00000000000E+00 -0.90786329995E+01  0.90786343985E+01  0.50400000000E-02 0.  1.
         24    2    1    2    0    0  0.00000000000E+00 -0.35527136788E-14  0.16777388004E+03  0.18593114746E+03  0.80139358438E+02 0.  0.
         66    2    3    3    0    0 -0.16658086659E+02 -0.14234647862E+02  0.16170410825E+03  0.16319416559E+03  0.20000016278E+01 0.  0.
        -13    1    3    3    0    0  0.16658086659E+02  0.14234647862E+02  0.60697717929E+01  0.22736981870E+02  0.10566000000E+00 0.  1.
         13    1    4    4    0    0 -0.49844910283E+01 -0.44227243975E+01  0.47452379114E+02  0.47918108159E+02  0.10566000000E+00 0. -1.
        -13    1    4    4    0    0 -0.11046233238E+02 -0.87186077922E+01  0.10486981163E+03  0.10580983861E+03  0.10566000000E+00 0.  1.
        -14    1    4    4    0    0 -0.62736239287E+00 -0.10933156722E+01  0.93819175048E+01  0.94662188227E+01  0.00000000000E+00 0.  1.
<mgrwt>
<rscale>  0 0.80139358E+02</rscale>
<asrwt>0</asrwt>
<pdfrwt beam="1">  1        2 0.27208080E-01 0.80139358E+02</pdfrwt>
<pdfrwt beam="2">  1       -1 0.13967128E-02 0.80139358E+02</pdfrwt>
<totfact> 0.21050509E+05</totfact>
</mgrwt>
</event>
<event>
 8    1  0.2603554E-016  0.8013208E+02  0.7818608E-02  0.1328677E+00
         -1   -1    0    0    0  501 -0.00000000000E+00  0.00000000000E+00  0.17838467080E+02  0.17838467792E+02  0.50400000000E-02 0.  1.
          2   -1    0    0  501    0  0.00000000000E+00 -0.00000000000E+00 -0.89990215592E+02  0.89990215628E+02  0.25500000000E-02 0. -1.
         24    2    1    2    0    0 -0.71054273576E-14  0.00000000000E+00 -0.72151748512E+02  0.10782868342E+03  0.80132079437E+02 0.  0.
         66    2    3    3    0    0  0.38604424188E+02 -0.43780516967E+01 -0.49131781673E+02  0.62668978584E+02  0.20000007289E+01 0.  0.
        -13    1    3    3    0    0 -0.38604424188E+02  0.43780516967E+01 -0.23019966839E+02  0.45159704836E+02  0.10566000000E+00 0.  1.
         13    1    4    4    0    0  0.24140069881E+02 -0.30513978655E+01 -0.30211892953E+02  0.38792056437E+02  0.10566000000E+00 0. -1.
        -13    1    4    4    0    0  0.23538874691E+01 -0.57908861478E+00 -0.29171710750E+01  0.37943617326E+01  0.10566000000E+00 0.  1.
         14    1    4    4    0    0  0.12110466838E+02 -0.74756521651E+00 -0.16002717644E+02  0.20082560414E+02  0.00000000000E+00 0. -1.
<mgrwt>
<rscale>  0 0.80132079E+02</rscale>
<asrwt>0</asrwt>
<pdfrwt beam="1">  1        2 0.13844648E-01 0.80132079E+02</pdfrwt>
<pdfrwt beam="2">  1       -1 0.27443797E-02 0.80132079E+02</pdfrwt>
<totfact> 0.17144056E+05</totfact>
</mgrwt>
</event>
<event>
 8    1  0.2603554E-016  0.7798743E+02  0.7818608E-02  0.1334862E+00
          2   -1    0    0  501    0  0.00000000000E+00  0.00000000000E+00  0.90884925959E+02  0.90884925995E+02  0.25500000000E-02 0. -1.
         -1   -1    0    0    0  501 -0.00000000000E+00 -0.00000000000E+00 -0.16730054549E+02  0.16730055308E+02  0.50400000000E-02 0.  1.
         24    2    1    2    0    0  0.00000000000E+00  0.00000000000E+00  0.74154871410E+02  0.10761498130E+03  0.77987430057E+02 0.  0.
         66    2    3    3    0    0  0.19736436150E+02  0.11214067880E+02  0.80808329077E+02  0.83959920676E+02  0.20000003232E+01 0.  0.
        -13    1    3    3    0    0 -0.19736436150E+02 -0.11214067880E+02 -0.66534576670E+01  0.23655060627E+02  0.10566000000E+00 0.  1.
         13    1    4    4    0    0  0.40208325559E+01  0.25011373657E+01  0.16190960324E+02  0.16869532976E+02  0.10566000000E+00 0. -1.
        -13    1    4    4    0    0  0.65133126207E+01  0.27524483982E+01  0.26529052570E+02  0.27455436762E+02  0.10566000000E+00 0.  1.
        -14    1    4    4    0    0  0.92022909732E+01  0.59604821158E+01  0.38088316183E+02  0.39634950938E+02  0.00000000000E+00 0.  1.
<mgrwt>
<rscale>  0 0.77987430E+02</rscale>
<asrwt>0</asrwt>
<pdfrwt beam="1">  1        2 0.13982296E-01 0.77987430E+02</pdfrwt>
<pdfrwt beam="2">  1       -1 0.25738546E-02 0.77987430E+02</pdfrwt>
<totfact> 0.18487079E+05</totfact>
</mgrwt>
</event>
<event>
 8    1  0.2603554E-016  0.7996150E+02  0.7818608E-02  0.1329161E+00
         -1   -1    0    0    0  501 -0.00000000000E+00  0.00000000000E+00  0.43458027227E+01  0.43458056453E+01  0.50400000000E-02 0.  1.
          2   -1    0    0  501    0  0.00000000000E+00 -0.00000000000E+00 -0.36781689878E+03  0.36781689878E+03  0.25500000000E-02 0. -1.
         24    2    1    2    0    0  0.17763568394E-14  0.00000000000E+00 -0.36347109605E+03  0.37216270443E+03  0.79961496375E+02 0.  0.
         66    2    3    3    0    0  0.97488828377E+01 -0.31955081812E+01 -0.36157883650E+03  0.36172988126E+03  0.20000004728E+01 0.  0.
        -13    1    3    3    0    0 -0.97488828377E+01  0.31955081812E+01 -0.18922595565E+01  0.10432823174E+02  0.10566000000E+00 0.  1.
         13    1    4    4    0    0  0.52622504373E+01 -0.14162126601E+01 -0.21015942953E+03  0.21023009757E+03  0.10566000000E+00 0.  1.
        -13    1    4    4    0    0  0.35015357252E+01 -0.18209589718E+01 -0.12172545722E+03  0.12178946894E+03  0.10566000000E+00 0. -1.
        -14    1    4    4    0    0  0.98509667512E+00  0.41663450709E-01 -0.29693949745E+02  0.29710314754E+02  0.00000000000E+00 0.  1.
<mgrwt>
<rscale>  0 0.79961496E+02</rscale>
<asrwt>0</asrwt>
<pdfrwt beam="1">  1        2 0.56587191E-01 0.79961496E+02</pdfrwt>
<pdfrwt beam="2">  1       -1 0.66858555E-03 0.79961496E+02</pdfrwt>
<totfact> 0.27464242E+05</totfact>
</mgrwt>
</event>
<event>
 8    1  0.2603554E-016  0.7776040E+02  0.7818608E-02  0.1335530E+00
         -1   -1    0    0    0  501 -0.00000000000E+00  0.00000000000E+00  0.48335839558E+01  0.48335865834E+01  0.50400000000E-02 0.  1.
          2   -1    0    0  501    0  0.00000000000E+00 -0.00000000000E+00 -0.31274303652E+03  0.31274303653E+03  0.25500000000E-02 0. -1.
         24    2    1    2    0    0  0.17763568394E-14  0.00000000000E+00 -0.30790945257E+03  0.31757662312E+03  0.77760404898E+02 0.  0.
         66    2    3    3    0    0  0.14754861217E+02  0.25569735093E+02 -0.25722563682E+03  0.25892189078E+03  0.20000019051E+01 0.  0.
        -13    1    3    3    0    0 -0.14754861217E+02 -0.25569735093E+02 -0.50683815746E+02  0.58654732331E+02  0.10566000000E+00 0.  1.
         13    1    4    4    0    0  0.44583810081E+00  0.61636557464E+00 -0.53303091045E+01  0.53853539642E+01  0.10566000000E+00 0.  1.
        -13    1    4    4    0    0  0.30766715127E+01  0.51492066316E+01 -0.47675383717E+02  0.48051364321E+02  0.10566000000E+00 0.  1.
         14    1    4    4    0    0  0.11232351604E+02  0.19804162886E+02 -0.20421994400E+03  0.20548517250E+03  0.00000000000E+00 0. -1.
<mgrwt>
<rscale>  0 0.77760405E+02</rscale>
<asrwt>0</asrwt>
<pdfrwt beam="1">  1        2 0.48114298E-01 0.77760405E+02</pdfrwt>
<pdfrwt beam="2">  1       -1 0.74362875E-03 0.77760405E+02</pdfrwt>
<totfact> 0.27877126E+05</totfact>
</mgrwt>
</event>
<event>
 8    1  0.2603554E-016  0.8391286E+02  0.7818608E-02  0.1318300E+00
          2   -1    0    0  501    0  0.00000000000E+00  0.00000000000E+00  0.65392732532E+02  0.65392732581E+02  0.25500000000E-02 0. -1.
         -1   -1    0    0    0  501 -0.00000000000E+00 -0.00000000000E+00 -0.26919535067E+02  0.26919535539E+02  0.50400000000E-02 0.  1.
         24    2    1    2    0    0  0.44408920985E-15 -0.71054273576E-14  0.38473197464E+02  0.92312268120E+02  0.83912859101E+02 0.  0.
         66    2    3    3    0    0 -0.22836105366E+01 -0.41331024604E+02  0.26616378426E+02  0.49253427058E+02  0.20000011479E+01 0.  0.
        -13    1    3    3    0    0  0.22836105366E+01  0.41331024604E+02  0.11856819038E+02  0.43058841062E+02  0.10566000000E+00 0.  1.
         13    1    4    4    0    0 -0.15128651688E+01 -0.15008196531E+02  0.93409818551E+01  0.17742599307E+02  0.10566000000E+00 0. -1.
        -13    1    4    4    0    0  0.14693780065E+00 -0.25560143222E+01  0.18876483370E+01  0.31826373045E+01  0.10566000000E+00 0.  1.
         14    1    4    4    0    0 -0.91768316844E+00 -0.23766813751E+02  0.15387748234E+02  0.28328190446E+02  0.00000000000E+00 0. -1.
<mgrwt>
<rscale>  0 0.83912859E+02</rscale>
<asrwt>0</asrwt>
<pdfrwt beam="1">  1        2 0.10060420E-01 0.83912859E+02</pdfrwt>
<pdfrwt beam="2">  1       -1 0.41414670E-02 0.83912859E+02</pdfrwt>
<totfact> 0.13947916E+05</totfact>
</mgrwt>
</event>
<event>
 8    1  0.2603554E-016  0.7892436E+02  0.7818608E-02  0.1332132E+00
          2   -1    0    0  501    0  0.00000000000E+00  0.00000000000E+00  0.28660438161E+03  0.28660438162E+03  0.25500000000E-02 0. -1.
         -1   -1    0    0    0  501 -0.00000000000E+00 -0.00000000000E+00 -0.54334948908E+01  0.54334972283E+01  0.50400000000E-02 0.  1.
         24    2    1    2    0    0  0.00000000000E+00  0.00000000000E+00  0.28117088672E+03  0.29203787885E+03  0.78924363441E+02 0.  0.
         66    2    3    3    0    0  0.11682578392E+02 -0.42103507109E+01  0.27917706629E+03  0.27946027276E+03  0.20000042991E+01 0.  0.
        -13    1    3    3    0    0 -0.11682578392E+02  0.42103507109E+01  0.19938204271E+01  0.12577606089E+02  0.10566000000E+00 0.  1.
         13    1    4    4    0    0  0.56788639975E+01 -0.13131204436E+01  0.11788352521E+03  0.11802758348E+03  0.10566000000E+00 0. -1.
        -13    1    4    4    0    0  0.27606451342E+01 -0.10604638496E+01  0.76779873112E+02  0.76836878023E+02  0.10566000000E+00 0.  1.
         14    1    4    4    0    0  0.32430692603E+01 -0.18367664178E+01  0.84513667965E+02  0.84595811256E+02  0.00000000000E+00 0. -1.
<mgrwt>
<rscale>  0 0.78924363E+02</rscale>
<asrwt>0</asrwt>
<pdfrwt beam="1">  1        2 0.44092991E-01 0.78924363E+02</pdfrwt>
<pdfrwt beam="2">  1       -1 0.83592231E-03 0.78924363E+02</pdfrwt>
<totfact> 0.25982010E+05</totfact>
</mgrwt>
</event>
<event>
 8    1  0.2603554E-016  0.8754280E+02  0.7818608E-02  0.1308914E+00
         -1   -1    0    0    0  501 -0.00000000000E+00  0.00000000000E+00  0.33747650786E+01  0.33747688420E+01  0.50400000000E-02 0.  1.
          2   -1    0    0  501    0  0.00000000000E+00 -0.00000000000E+00 -0.56772374384E+03  0.56772374384E+03  0.25500000000E-02 0. -1.
         24    2    1    2    0    0  0.00000000000E+00  0.00000000000E+00 -0.56434897876E+03  0.57109851269E+03  0.87542797334E+02 0.  0.
         66    2    3    3    0    0  0.12904113837E+02 -0.34747387920E+02 -0.43392192205E+03  0.43550675259E+03  0.19999976434E+01 0.  0.
        -13    1    3    3    0    0 -0.12904113837E+02  0.34747387920E+02 -0.13042705671E+03  0.13559176010E+03  0.10566000000E+00 0.  1.
         13    1    4    4    0    0  0.27114368707E+01 -0.70395913353E+01 -0.89471213049E+02  0.89788734619E+02  0.10566000000E+00 0. -1.
        -13    1    4    4    0    0  0.71023322857E+01 -0.16874879422E+02 -0.21431918260E+03  0.21509980910E+03  0.10566000000E+00 0.  1.
        -14    1    4    4    0    0  0.30903446810E+01 -0.10832917163E+02 -0.13013152640E+03  0.13061820887E+03  0.00000000000E+00 0.  1.
<mgrwt>
<rscale>  0 0.87542797E+02</rscale>
<asrwt>0</asrwt>
<pdfrwt beam="1">  1        2 0.87342039E-01 0.87542797E+02</pdfrwt>
<pdfrwt beam="2">  1       -1 0.51919537E-03 0.87542797E+02</pdfrwt>
<totfact> 0.25014081E+05</totfact>
</mgrwt>
</event>
<event>
 8    1  0.2603554E-016  0.8108022E+02  0.7818608E-02  0.1326014E+00
          2   -1    0    0  501    0  0.00000000000E+00  0.00000000000E+00  0.68454316140E+03  0.68454316141E+03  0.25500000000E-02 0. -1.
         -1   -1    0    0    0  501 -0.00000000000E+00 -0.00000000000E+00 -0.24008695536E+01  0.24008748437E+01  0.50400000000E-02 0.  1.
         24    2    1    2    0    0 -0.17763568394E-14  0.00000000000E+00  0.68214229185E+03  0.68694403625E+03  0.81080223309E+02 0.  0.
         66    2    3    3    0    0 -0.13823726339E+02 -0.25116522050E+02  0.58382567856E+03  0.58453259791E+03  0.19999968101E+01 0.  0.
        -13    1    3    3    0    0  0.13823726339E+02  0.25116522050E+02  0.98316613290E+02  0.10241143834E+03  0.10566000000E+00 0.  1.
         13    1    4    4    0    0 -0.13500198332E+01 -0.21275063730E+01  0.60065425242E+02  0.60118344209E+02  0.10566000000E+00 0. -1.
        -13    1    4    4    0    0 -0.22548881026E+01 -0.43905468960E+01  0.10801792816E+03  0.10813068663E+03  0.10566000000E+00 0.  1.
         14    1    4    4    0    0 -0.10218818404E+02 -0.18598468781E+02  0.41574232515E+03  0.41628356707E+03  0.00000000000E+00 0. -1.
<mgrwt>
<rscale>  0 0.81080223E+02</rscale>
<asrwt>0</asrwt>
<pdfrwt beam="1">  1        2 0.10531436E+00 0.81080223E+02</pdfrwt>
<pdfrwt beam="2">  1       -1 0.36936484E-03 0.81080223E+02</pdfrwt>
<totfact> 0.32137023E+05</totfact>
</mgrwt>
</event>
<event>
 8    1  0.2603554E-016  0.8201158E+02  0.7818608E-02  0.1323438E+00
         -1   -1    0    0    0  501 -0.00000000000E+00  0.00000000000E+00  0.28634054550E+01  0.28634098906E+01  0.50400000000E-02 0.  1.
          2   -1    0    0  501    0  0.00000000000E+00 -0.00000000000E+00 -0.58722852551E+03  0.58722852551E+03  0.25500000000E-02 0. -1.
         24    2    1    2    0    0  0.00000000000E+00  0.35527136788E-14 -0.58436512005E+03  0.59009193540E+03  0.82011576588E+02 0.  0.
         66    2    3    3    0    0  0.24577318170E+02 -0.22243348697E+02 -0.46573820966E+03  0.46692064750E+03  0.19999995669E+01 0.  0.
        -13    1    3    3    0    0 -0.24577318170E+02  0.22243348697E+02 -0.11862691039E+03  0.12317128790E+03  0.10566000000E+00 0.  1.
         13    1    4    4    0    0  0.80827072490E+01 -0.75680752215E+01 -0.14766476493E+03  0.14807937022E+03  0.10566000000E+00 0. -1.
        -13    1    4    4    0    0  0.12958687100E+02 -0.11703196971E+02 -0.25842107590E+03  0.25901033961E+03  0.10566000000E+00 0.  1.
         14    1    4    4    0    0  0.35359238208E+01 -0.29720765038E+01 -0.59652368828E+02  0.59830937673E+02  0.00000000000E+00 0. -1.
<mgrwt>
<rscale>  0 0.82011577E+02</rscale>
<asrwt>0</asrwt>
<pdfrwt beam="1">  1        2 0.90342754E-01 0.82011577E+02</pdfrwt>
<pdfrwt beam="2">  1       -1 0.44052473E-03 0.82011577E+02</pdfrwt>
<totfact> 0.29966224E+05</totfact>
</mgrwt>
</event>
<event>
 8    1  0.2603554E-016  0.8346353E+02  0.7818608E-02  0.1319500E+00
          2   -1    0    0  501    0  0.00000000000E+00  0.00000000000E+00  0.51021273098E+03  0.51021273099E+03  0.25500000000E-02 0. -1.
         -1   -1    0    0    0  501 -0.00000000000E+00 -0.00000000000E+00 -0.34133591931E+01  0.34133629140E+01  0.50400000000E-02 0.  1.
         24    2    1    2    0    0  0.17763568394E-14 -0.22204460493E-15  0.50679937179E+03  0.51362609390E+03  0.83463531508E+02 0.  0.
         66    2    3    3    0    0  0.12105272505E+02 -0.97095117546E+00  0.49908879160E+03  0.49924052545E+03  0.19999975614E+01 0.  0.
        -13    1    3    3    0    0 -0.12105272505E+02  0.97095117546E+00  0.77105801900E+01  0.14385568446E+02  0.10566000000E+00 0.  1.
         13    1    4    4    0    0  0.43416816127E+01 -0.12651686930E+00  0.15649680320E+03  0.15655710390E+03  0.10566000000E+00 0. -1.
        -13    1    4    4    0    0  0.61415824534E+01 -0.20570850475E+00  0.27788131593E+03  0.27794927281E+03  0.10566000000E+00 0.  1.
        -14    1    4    4    0    0  0.16220084386E+01 -0.63872580141E+00  0.64710672472E+02  0.64734148746E+02  0.00000000000E+00 0.  1.
<mgrwt>
<rscale>  0 0.83463532E+02</rscale>
<asrwt>0</asrwt>
<pdfrwt beam="1">  1        2 0.78494276E-01 0.83463532E+02</pdfrwt>
<pdfrwt beam="2">  1       -1 0.52513240E-03 0.83463532E+02</pdfrwt>
<totfact> 0.27436280E+05</totfact>
</mgrwt>
</event>
<event>
 8    1  0.2603554E-016  0.7934242E+02  0.7818608E-02  0.1330928E+00
         -1   -1    0    0    0  501 -0.00000000000E+00  0.00000000000E+00  0.10499649679E+02  0.10499650889E+02  0.50400000000E-02 0.  1.
          2   -1    0    0  501    0  0.00000000000E+00 -0.00000000000E+00 -0.14989118708E+03  0.14989118711E+03  0.25500000000E-02 0. -1.
         24    2    1    2    0    0  0.00000000000E+00  0.00000000000E+00 -0.13939153741E+03  0.16039083800E+03  0.79342423787E+02 0.  0.
         66    2    3    3    0    0  0.28066165809E+02  0.18616075566E+02 -0.11202422446E+03  0.11699442207E+03  0.19999996552E+01 0.  0.
        -13    1    3    3    0    0 -0.28066165809E+02 -0.18616075566E+02 -0.27367312951E+02  0.43396415923E+02  0.10566000000E+00 0.  1.
         13    1    4    4    0    0  0.81779979382E+01  0.53523255509E+01 -0.32612748330E+02  0.34045991787E+02  0.10566000000E+00 0. -1.
        -13    1    4    4    0    0  0.50312975937E+01  0.31542974833E+01 -0.17404003072E+02  0.18389508831E+02  0.10566000000E+00 0.  1.
        -14    1    4    4    0    0  0.14856870277E+02  0.10109452532E+02 -0.62007473054E+02  0.64558921455E+02  0.00000000000E+00 0.  1.
<mgrwt>
<rscale>  0 0.79342424E+02</rscale>
<asrwt>0</asrwt>
<pdfrwt beam="1">  1        2 0.23060181E-01 0.79342424E+02</pdfrwt>
<pdfrwt beam="2">  1       -1 0.16153309E-02 0.79342424E+02</pdfrwt>
<totfact> 0.20468546E+05</totfact>
</mgrwt>
</event>
<event>
 8    1  0.2603554E-016  0.7984529E+02  0.7818608E-02  0.1329491E+00
         -1   -1    0    0    0  501 -0.00000000000E+00  0.00000000000E+00  0.53580832756E+01  0.53580856460E+01  0.50400000000E-02 0.  1.
          2   -1    0    0  501    0  0.00000000000E+00 -0.00000000000E+00 -0.29746035505E+03  0.29746035506E+03  0.25500000000E-02 0. -1.
         24    2    1    2    0    0 -0.35527136788E-14  0.55511151231E-16 -0.29210227178E+03  0.30281844071E+03  0.79845293264E+02 0.  0.
         66    2    3    3    0    0 -0.25171902380E+02  0.45538730086E+00 -0.26352718539E+03  0.26473460197E+03  0.19999986280E+01 0.  0.
        -13    1    3    3    0    0  0.25171902380E+02 -0.45538730086E+00 -0.28575086389E+02  0.38083838740E+02  0.10566000000E+00 0.  1.
         13    1    4    4    0    0 -0.79505454511E+01  0.56097113502E+00 -0.81096972204E+02  0.81487765500E+02  0.10566000000E+00 0. -1.
        -13    1    4    4    0    0 -0.15834021960E+02 -0.32432136674E+00 -0.16387067047E+03  0.16463422864E+03  0.10566000000E+00 0.  1.
        -14    1    4    4    0    0 -0.13873349689E+01  0.21873753258E+00 -0.18559542712E+02  0.18612607826E+02  0.00000000000E+00 0.  1.
<mgrwt>
<rscale>  0 0.79845293E+02</rscale>
<asrwt>0</asrwt>
<pdfrwt beam="1">  1        2 0.45763119E-01 0.79845293E+02</pdfrwt>
<pdfrwt beam="2">  1       -1 0.82432092E-03 0.79845293E+02</pdfrwt>
<totfact> 0.25545443E+05</totfact>
</mgrwt>
</event>
<event>
 8    1  0.2603554E-016  0.8291230E+02  0.7818608E-02  0.1320984E+00
          2   -1    0    0  501    0  0.00000000000E+00  0.00000000000E+00  0.65754315321E+02  0.65754315370E+02  0.25500000000E-02 0. -1.
         -1   -1    0    0    0  501 -0.00000000000E+00 -0.00000000000E+00 -0.26136874649E+02  0.26136875135E+02  0.50400000000E-02 0.  1.
         24    2    1    2    0    0  0.00000000000E+00  0.00000000000E+00  0.39617440672E+02  0.91891190505E+02  0.82912298769E+02 0.  0.
         66    2    3    3    0    0  0.54006497436E+01  0.40555461445E+02  0.12578478334E+02  0.42850094280E+02  0.19999979741E+01 0.  0.
        -13    1    3    3    0    0 -0.54006497436E+01 -0.40555461445E+02  0.27038962337E+02  0.49041096226E+02  0.10566000000E+00 0.  1.
         13    1    4    4    0    0  0.22494386070E+01  0.13923294016E+02  0.42052556894E+01  0.14717792965E+02  0.10566000000E+00 0. -1.
        -13    1    4    4    0    0  0.26243441558E+01  0.21292112298E+02  0.60931557961E+01  0.22301994080E+02  0.10566000000E+00 0.  1.
        -14    1    4    4    0    0  0.52686698083E+00  0.53400551314E+01  0.22800668487E+01  0.58303072352E+01  0.00000000000E+00 0.  1.
<mgrwt>
<rscale>  0 0.82912299E+02</rscale>
<asrwt>0</asrwt>
<pdfrwt beam="1">  1        2 0.10116048E-01 0.82912299E+02</pdfrwt>
<pdfrwt beam="2">  1       -1 0.40210577E-02 0.82912299E+02</pdfrwt>
<totfact> 0.14431097E+05</totfact>
</mgrwt>
</event>
<event>
 8    1  0.2603554E-016  0.7881637E+02  0.7818608E-02  0.1332444E+00
         -1   -1    0    0    0  501 -0.00000000000E+00  0.00000000000E+00  0.72997777894E+01  0.72997795292E+01  0.50400000000E-02 0.  1.
          2   -1    0    0  501    0  0.00000000000E+00 -0.00000000000E+00 -0.21274684944E+03  0.21274684945E+03  0.25500000000E-02 0. -1.
         24    2    1    2    0    0  0.00000000000E+00 -0.88817841970E-15 -0.20544707165E+03  0.22004662898E+03  0.78816366813E+02 0.  0.
         66    2    3    3    0    0 -0.16561690828E+02 -0.69331826150E+01 -0.20065077190E+03  0.20146238083E+03  0.19999998938E+01 0.  0.
        -13    1    3    3    0    0  0.16561690828E+02  0.69331826150E+01 -0.47962997484E+01  0.18584248157E+02  0.10566000000E+00 0.  1.
         13    1    4    4    0    0 -0.11688559129E+02 -0.49336762368E+01 -0.13959985749E+03  0.14017522945E+03  0.10566000000E+00 0. -1.
        -13    1    4    4    0    0 -0.37549772624E+01 -0.15022270414E+01 -0.51397334658E+02  0.51556315949E+02  0.10566000000E+00 0.  1.
        -14    1    4    4    0    0 -0.11181544360E+01 -0.49727933685E+00 -0.96535797555E+01  0.97308354306E+01  0.00000000000E+00 0.  1.
<mgrwt>
<rscale>  0 0.78816367E+02</rscale>
<asrwt>0</asrwt>
<pdfrwt beam="1">  1        2 0.32730280E-01 0.78816367E+02</pdfrwt>
<pdfrwt beam="2">  1       -1 0.11230430E-02 0.78816367E+02</pdfrwt>
<totfact> 0.23442182E+05</totfact>
</mgrwt>
</event>
<event>
 8    1  0.2603554E-016  0.7839316E+02  0.7818608E-02  0.1333674E+00
         -1   -1    0    0    0  501 -0.00000000000E+00  0.00000000000E+00  0.94959454974E+01  0.94959468349E+01  0.50400000000E-02 0.  1.
          2   -1    0    0  501    0  0.00000000000E+00 -0.00000000000E+00 -0.16179237855E+03  0.16179237857E+03  0.25500000000E-02 0. -1.
         24    2    1    2    0    0  0.00000000000E+00  0.00000000000E+00 -0.15229643305E+03  0.17128832540E+03  0.78393155947E+02 0.  0.
         66    2    3    3    0    0  0.27236914942E+00  0.34677176482E+02 -0.11599723789E+03  0.12108649787E+03  0.20000039690E+01 0.  0.
        -13    1    3    3    0    0 -0.27236914942E+00 -0.34677176482E+02 -0.36299195159E+02  0.50201827526E+02  0.10566000000E+00 0.  1.
         13    1    4    4    0    0  0.28438835332E+00  0.30186071907E+02 -0.99831123858E+02  0.10429546619E+03  0.10566000000E+00 0. -1.
        -13    1    4    4    0    0 -0.16438093352E+00  0.57992255554E+00 -0.26377940123E+01  0.27078501711E+01  0.10566000000E+00 0.  1.
         14    1    4    4    0    0  0.15236172961E+00  0.39111820190E+01 -0.13528320019E+02  0.14083181509E+02  0.00000000000E+00 0. -1.
<mgrwt>
<rscale>  0 0.78393156E+02</rscale>
<asrwt>0</asrwt>
<pdfrwt beam="1">  1        2 0.24891133E-01 0.78393156E+02</pdfrwt>
<pdfrwt beam="2">  1       -1 0.14609149E-02 0.78393156E+02</pdfrwt>
<totfact> 0.21662464E+05</totfact>
</mgrwt>
</event>
<event>
 8    1  0.2603554E-016  0.8271680E+02  0.7818608E-02  0.1321514E+00
         -1   -1    0    0    0  501 -0.00000000000E+00  0.00000000000E+00  0.13132795301E+02  0.13132796268E+02  0.50400000000E-02 0.  1.
          2   -1    0    0  501    0  0.00000000000E+00 -0.00000000000E+00 -0.13024775824E+03  0.13024775827E+03  0.25500000000E-02 0. -1.
         24    2    1    2    0    0  0.00000000000E+00 -0.35527136788E-14 -0.11711496294E+03  0.14338055453E+03  0.82716799225E+02 0.  0.
         66    2    3    3    0    0  0.11856212189E+02 -0.25320695311E+02 -0.11136205546E+03  0.11483559899E+03  0.20000050474E+01 0.  0.
        -13    1    3    3    0    0 -0.11856212189E+02  0.25320695311E+02 -0.57529074779E+01  0.28544955544E+02  0.10566000000E+00 0.  1.
         13    1    4    4    0    0  0.10586344706E+02 -0.22195505609E+02 -0.97901250760E+02  0.10094244513E+03  0.10566000000E+00 0. -1.
        -13    1    4    4    0    0  0.45308697050E+00 -0.18660993783E+01 -0.69118452785E+01  0.71744256831E+01  0.10566000000E+00 0.  1.
         14    1    4    4    0    0  0.81678051231E+00 -0.12590903240E+01 -0.65489594232E+01  0.67187281814E+01  0.00000000000E+00 0. -1.
<mgrwt>
<rscale>  0 0.82716799E+02</rscale>
<asrwt>0</asrwt>
<pdfrwt beam="1">  1        2 0.20038116E-01 0.82716799E+02</pdfrwt>
<pdfrwt beam="2">  1       -1 0.20204302E-02 0.82716799E+02</pdfrwt>
<totfact> 0.17525508E+05</totfact>
</mgrwt>
</event>
<event>
 8    1  0.2603554E-016  0.8068410E+02  0.7818608E-02  0.1327121E+00
          2   -1    0    0  501    0  0.00000000000E+00  0.00000000000E+00  0.57978407048E+03  0.57978407049E+03  0.25500000000E-02 0. -1.
         -1   -1    0    0    0  501 -0.00000000000E+00 -0.00000000000E+00 -0.28070445913E+01  0.28070491159E+01  0.50400000000E-02 0.  1.
         24    2    1    2    0    0  0.00000000000E+00  0.35527136788E-14  0.57697702589E+03  0.58259111961E+03  0.80684101502E+02 0.  0.
         66    2    3    3    0    0  0.65358304552E+01 -0.25136319090E+02  0.51132871421E+03  0.51199180227E+03  0.20000003006E+01 0.  0.
        -13    1    3    3    0    0 -0.65358304552E+01  0.25136319090E+02  0.65648311687E+02  0.70599317337E+02  0.10566000000E+00 0.  1.
         13    1    4    4    0    0  0.31555909620E+01 -0.11080025272E+02  0.20991419934E+03  0.21023012858E+03  0.10566000000E+00 0. -1.
        -13    1    4    4    0    0  0.12621065263E+00 -0.10158653609E+01  0.22450121469E+02  0.22473696393E+02  0.10566000000E+00 0.  1.
         14    1    4    4    0    0  0.32540288406E+01 -0.13040428458E+02  0.27896439340E+03  0.27928797730E+03  0.00000000000E+00 0. -1.
<mgrwt>
<rscale>  0 0.80684102E+02</rscale>
<asrwt>0</asrwt>
<pdfrwt beam="1">  1        2 0.89197659E-01 0.80684102E+02</pdfrwt>
<pdfrwt beam="2">  1       -1 0.43185283E-03 0.80684102E+02</pdfrwt>
<totfact> 0.31154668E+05</totfact>
</mgrwt>
</event>
<event>
 8    1  0.2603554E-016  0.7871626E+02  0.7818608E-02  0.1332734E+00
          2   -1    0    0  501    0  0.00000000000E+00  0.00000000000E+00  0.83598348503E+02  0.83598348542E+02  0.25500000000E-02 0. -1.
         -1   -1    0    0    0  501 -0.00000000000E+00 -0.00000000000E+00 -0.18529818539E+02  0.18529819225E+02  0.50400000000E-02 0.  1.
         24    2    1    2    0    0 -0.17763568394E-14  0.00000000000E+00  0.65068529964E+02  0.10212816777E+03  0.78716256642E+02 0.  0.
         66    2    3    3    0    0  0.10732500622E+02  0.16839772178E+02  0.76520244979E+02  0.79108232115E+02  0.20000000087E+01 0.  0.
        -13    1    3    3    0    0 -0.10732500622E+02 -0.16839772178E+02 -0.11451715015E+02  0.23019935652E+02  0.10566000000E+00 0.  1.
         13    1    4    4    0    0  0.19705529774E+01  0.41194674364E+01  0.16388456538E+02  0.17013105616E+02  0.10566000000E+00 0.  1.
        -13    1    4    4    0    0  0.20135558789E+01  0.35481201970E+01  0.14422518794E+02  0.14988788364E+02  0.10566000000E+00 0.  1.
         14    1    4    4    0    0  0.67483917653E+01  0.91721845448E+01  0.45709269647E+02  0.47106338134E+02  0.00000000000E+00 0. -1.
<mgrwt>
<rscale>  0 0.78716257E+02</rscale>
<asrwt>0</asrwt>
<pdfrwt beam="1">  1        2 0.12861284E-01 0.78716257E+02</pdfrwt>
<pdfrwt beam="2">  1       -1 0.28507414E-02 0.78716257E+02</pdfrwt>
<totfact> 0.17637941E+05</totfact>
</mgrwt>
</event>
<event>
 8    1  0.2603554E-016  0.7852576E+02  0.7818608E-02  0.1333288E+00
          2   -1    0    0  501    0  0.00000000000E+00  0.00000000000E+00  0.11723297474E+03  0.11723297477E+03  0.25500000000E-02 0. -1.
         -1   -1    0    0    0  501 -0.00000000000E+00 -0.00000000000E+00 -0.13149660424E+02  0.13149661390E+02  0.50400000000E-02 0.  1.
         24    2    1    2    0    0 -0.88817841970E-15  0.00000000000E+00  0.10408331432E+03  0.13038263616E+03  0.78525763240E+02 0.  0.
         66    2    3    3    0    0  0.75042520792E+01 -0.25776341136E+02  0.99587603684E+02  0.10316212662E+03  0.19999996826E+01 0.  0.
        -13    1    3    3    0    0 -0.75042520792E+01  0.25776341136E+02  0.44957106333E+01  0.27220509543E+02  0.10566000000E+00 0.  1.
         13    1    4    4    0    0  0.36168984925E+01 -0.15092322984E+02  0.55808698072E+02  0.57926523392E+02  0.10566000000E+00 0. -1.
        -13    1    4    4    0    0  0.13452950886E+01 -0.32096566741E+01  0.12517209658E+02  0.12992436896E+02  0.10566000000E+00 0.  1.
         14    1    4    4    0    0  0.25420584981E+01 -0.74743614779E+01  0.31261695954E+02  0.32243166328E+02  0.00000000000E+00 0. -1.
<mgrwt>
<rscale>  0 0.78525763E+02</rscale>
<asrwt>0</asrwt>
<pdfrwt beam="1">  1        2 0.18035842E-01 0.78525763E+02</pdfrwt>
<pdfrwt beam="2">  1       -1 0.20230248E-02 0.78525763E+02</pdfrwt>
<totfact> 0.19500368E+05</totfact>
</mgrwt>
</event>
<event>
 8    1  0.2603554E-016  0.7978160E+02  0.7818608E-02  0.1329672E+00
          2   -1    0    0  501    0  0.00000000000E+00  0.00000000000E+00  0.33273854579E+03  0.33273854580E+03  0.25500000000E-02 0. -1.
         -1   -1    0    0    0  501 -0.00000000000E+00 -0.00000000000E+00 -0.47823604520E+01  0.47823631077E+01  0.50400000000E-02 0.  1.
         24    2    1    2    0    0  0.00000000000E+00  0.00000000000E+00  0.32795618534E+03  0.33752090891E+03  0.79781604698E+02 0.  0.
         66    2    3    3    0    0 -0.94391969233E+01  0.13079330387E+02  0.31831387585E+03  0.31872855359E+03  0.19999990955E+01 0.  0.
        -13    1    3    3    0    0  0.94391969233E+01 -0.13079330387E+02  0.96423094911E+01  0.18792355315E+02  0.10566000000E+00 0.  1.
         13    1    4    4    0    0 -0.13504093625E+01  0.22580856093E+01  0.50926184544E+02  0.50994215283E+02  0.10566000000E+00 0.  1.
        -13    1    4    4    0    0 -0.27005745612E+01  0.30772221518E+01  0.67493720253E+02  0.67617866254E+02  0.10566000000E+00 0. -1.
         14    1    4    4    0    0 -0.53882129995E+01  0.77440226261E+01  0.19989397105E+03  0.20011647205E+03  0.00000000000E+00 0. -1.
<mgrwt>
<rscale>  0 0.79781605E+02</rscale>
<asrwt>0</asrwt>
<pdfrwt beam="1">  1        2 0.51190545E-01 0.79781605E+02</pdfrwt>
<pdfrwt beam="2">  1       -1 0.73574797E-03 0.79781605E+02</pdfrwt>
<totfact> 0.26655724E+05</totfact>
</mgrwt>
</event>
<event>
 8    1  0.2603554E-016  0.7999088E+02  0.7818608E-02  0.1329077E+00
         -1   -1    0    0    0  501 -0.00000000000E+00  0.00000000000E+00  0.18713985225E+02  0.18713985904E+02  0.50400000000E-02 0.  1.
          2   -1    0    0  501    0  0.00000000000E+00 -0.00000000000E+00 -0.85478066464E+02  0.85478066503E+02  0.25500000000E-02 0. -1.
         24    2    1    2    0    0  0.00000000000E+00  0.00000000000E+00 -0.66764081240E+02  0.10419205241E+03  0.79990882236E+02 0.  0.
         66    2    3    3    0    0  0.19582882981E+02 -0.21429041145E+02 -0.69191848078E+02  0.75061341359E+02  0.20000039937E+01 0.  0.
        -13    1    3    3    0    0 -0.19582882981E+02  0.21429041145E+02  0.24277668386E+01  0.29130711047E+02  0.10566000000E+00 0.  1.
         13    1    4    4    0    0  0.39845992272E+01 -0.39122927278E+01 -0.11773884084E+02  0.13031445654E+02  0.10566000000E+00 0. -1.
        -13    1    4    4    0    0  0.93476154345E+01 -0.11070612930E+02 -0.35024676375E+02  0.37903502532E+02  0.10566000000E+00 0.  1.
        -14    1    4    4    0    0  0.62506683190E+01 -0.64461354876E+01 -0.22393287619E+02  0.24126393173E+02  0.00000000000E+00 0.  1.
<mgrwt>
<rscale>  0 0.79990882E+02</rscale>
<asrwt>0</asrwt>
<pdfrwt beam="1">  1        2 0.13150472E-01 0.79990882E+02</pdfrwt>
<pdfrwt beam="2">  1       -1 0.28790748E-02 0.79990882E+02</pdfrwt>
<totfact> 0.16991127E+05</totfact>
</mgrwt>
</event>
<event>
 8    1  0.2603554E-016  0.8068371E+02  0.7818608E-02  0.1327122E+00
          2   -1    0    0  501    0  0.00000000000E+00  0.00000000000E+00  0.65347908683E+03  0.65347908683E+03  0.25500000000E-02 0. -1.
         -1   -1    0    0    0  501 -0.00000000000E+00 -0.00000000000E+00 -0.24904598047E+01  0.24904649045E+01  0.50400000000E-02 0.  1.
         24    2    1    2    0    0  0.00000000000E+00  0.35527136788E-14  0.65098862702E+03  0.65596955174E+03  0.80683705251E+02 0.  0.
         66    2    3    3    0    0  0.60231213500E+01  0.23992394708E+02  0.58452685759E+03  0.58505346784E+03  0.19999993324E+01 0.  0.
        -13    1    3    3    0    0 -0.60231213500E+01 -0.23992394708E+02  0.66461769436E+02  0.70916083897E+02  0.10566000000E+00 0.  1.
         13    1    4    4    0    0  0.42108738722E+01  0.13642168362E+02  0.34093694672E+03  0.34123577336E+03  0.10566000000E+00 0. -1.
        -13    1    4    4    0    0  0.78277032589E+00  0.32840634219E+01  0.85079467859E+02  0.85146490340E+02  0.10566000000E+00 0. -1.
        -14    1    4    4    0    0  0.10294771519E+01  0.70661629237E+01  0.15851044301E+03  0.15867120414E+03  0.00000000000E+00 0.  1.
<mgrwt>
<rscale>  0 0.80683705E+02</rscale>
<asrwt>0</asrwt>
<pdfrwt beam="1">  1        2 0.10053507E+00 0.80683705E+02</pdfrwt>
<pdfrwt beam="2">  1       -1 0.38314871E-03 0.80683705E+02</pdfrwt>
<totfact> 0.32181358E+05</totfact>
</mgrwt>
</event>
<event>
 8    1  0.2603554E-016  0.7982775E+02  0.7818608E-02  0.1329541E+00
          2   -1    0    0  501    0  0.00000000000E+00  0.00000000000E+00  0.64002586035E+02  0.64002586086E+02  0.25500000000E-02 0. -1.
         -1   -1    0    0    0  501 -0.00000000000E+00 -0.00000000000E+00 -0.24891454613E+02  0.24891455124E+02  0.50400000000E-02 0.  1.
         24    2    1    2    0    0  0.00000000000E+00  0.00000000000E+00  0.39111131422E+02  0.88894041209E+02  0.79827751825E+02 0.  0.
         66    2    3    3    0    0  0.19498582774E+02 -0.89820564702E+01  0.57005076946E+02  0.60946294984E+02  0.20000015206E+01 0.  0.
        -13    1    3    3    0    0 -0.19498582774E+02  0.89820564702E+01 -0.17893945524E+02  0.27947746225E+02  0.10566000000E+00 0.  1.
         13    1    4    4    0    0  0.93915185209E+01 -0.40804765982E+01  0.24764503455E+02  0.26798184729E+02  0.10566000000E+00 0. -1.
        -13    1    4    4    0    0  0.61355717804E+01 -0.33287633266E+01  0.20173549665E+02  0.21347345888E+02  0.10566000000E+00 0.  1.
        -14    1    4    4    0    0  0.39714924723E+01 -0.15728165454E+01  0.12067023826E+02  0.12800764366E+02  0.00000000000E+00 0.  1.
<mgrwt>
<rscale>  0 0.79827752E+02</rscale>
<asrwt>0</asrwt>
<pdfrwt beam="1">  1        2 0.98465515E-02 0.79827752E+02</pdfrwt>
<pdfrwt beam="2">  1       -1 0.38294547E-02 0.79827752E+02</pdfrwt>
<totfact> 0.15895528E+05</totfact>
</mgrwt>
</event>
<event>
 8    1  0.2603554E-016  0.8397558E+02  0.7818608E-02  0.1318133E+00
         -1   -1    0    0    0  501 -0.00000000000E+00  0.00000000000E+00  0.90421055614E+01  0.90421069660E+01  0.50400000000E-02 0.  1.
          2   -1    0    0  501    0  0.00000000000E+00 -0.00000000000E+00 -0.19497385890E+03  0.19497385891E+03  0.25500000000E-02 0. -1.
         24    2    1    2    0    0 -0.35527136788E-14  0.00000000000E+00 -0.18593175334E+03  0.20401596588E+03  0.83975576422E+02 0.  0.
         66    2    3    3    0    0 -0.19890947990E+02  0.30820717879E+02 -0.14253450281E+03  0.14719256419E+03  0.19999997046E+01 0.  0.
        -13    1    3    3    0    0  0.19890947990E+02 -0.30820717879E+02 -0.43397250529E+02  0.56823401693E+02  0.10566000000E+00 0.  1.
         13    1    4    4    0    0 -0.11999704766E+02  0.18739013042E+02 -0.87091297402E+02  0.89889091504E+02  0.10566000000E+00 0. -1.
        -13    1    4    4    0    0 -0.20125735592E+01  0.25936831246E+01 -0.10984050677E+02  0.11464649048E+02  0.10566000000E+00 0.  1.
        -14    1    4    4    0    0 -0.58786696651E+01  0.94880217130E+01 -0.44459154728E+02  0.45838823634E+02  0.00000000000E+00 0.  1.
<mgrwt>
<rscale>  0 0.83975576E+02</rscale>
<asrwt>0</asrwt>
<pdfrwt beam="1">  1        2 0.29995975E-01 0.83975576E+02</pdfrwt>
<pdfrwt beam="2">  1       -1 0.13910934E-02 0.83975576E+02</pdfrwt>
<totfact> 0.19231091E+05</totfact>
</mgrwt>
</event>
<event>
 8    1  0.2603554E-016  0.8020065E+02  0.7818608E-02  0.1328483E+00
          2   -1    0    0  501    0  0.00000000000E+00  0.00000000000E+00  0.59959726642E+03  0.59959726642E+03  0.25500000000E-02 0. -1.
         -1   -1    0    0    0  501 -0.00000000000E+00 -0.00000000000E+00 -0.26818579434E+01  0.26818626792E+01  0.50400000000E-02 0.  1.
         24    2    1    2    0    0  0.00000000000E+00  0.00000000000E+00  0.59691540847E+03  0.60227912910E+03  0.80200651358E+02 0.  0.
         66    2    3    3    0    0 -0.34884090743E+02  0.17820284465E+02  0.36217323133E+03  0.36429097137E+03  0.20000014541E+01 0.  0.
        -13    1    3    3    0    0  0.34884090743E+02 -0.17820284465E+02  0.23474217715E+03  0.23798815773E+03  0.10566000000E+00 0.  1.
         13    1    4    4    0    0 -0.19486946408E+02  0.10145239291E+02  0.20514016644E+03  0.20631327154E+03  0.10566000000E+00 0. -1.
        -13    1    4    4    0    0 -0.12129666222E+02  0.64049473643E+01  0.12134141081E+03  0.12211429603E+03  0.10566000000E+00 0.  1.
         14    1    4    4    0    0 -0.32674781129E+01  0.12700978100E+01  0.35691654080E+02  0.35863403807E+02  0.00000000000E+00 0. -1.
<mgrwt>
<rscale>  0 0.80200651E+02</rscale>
<asrwt>0</asrwt>
<pdfrwt beam="1">  1        2 0.92245757E-01 0.80200651E+02</pdfrwt>
<pdfrwt beam="2">  1       -1 0.41259379E-03 0.80200651E+02</pdfrwt>
<totfact> 0.31948556E+05</totfact>
</mgrwt>
</event>
<event>
 8    1  0.2603554E-016  0.8052930E+02  0.7818608E-02  0.1327556E+00
         -1   -1    0    0    0  501 -0.00000000000E+00  0.00000000000E+00  0.25769021820E+02  0.25769022313E+02  0.50400000000E-02 0.  1.
          2   -1    0    0  501    0  0.00000000000E+00 -0.00000000000E+00 -0.62914383971E+02  0.62914384023E+02  0.25500000000E-02 0. -1.
         24    2    1    2    0    0  0.00000000000E+00  0.00000000000E+00 -0.37145362151E+02  0.88683406335E+02  0.80529302927E+02 0.  0.
         66    2    3    3    0    0 -0.11575868239E+02 -0.36644814152E+02 -0.31725284723E+02  0.49873207507E+02  0.20000016404E+01 0.  0.
        -13    1    3    3    0    0  0.11575868239E+02  0.36644814152E+02 -0.54200774287E+01  0.38810198828E+02  0.10566000000E+00 0.  1.
         13    1    4    4    0    0 -0.46536864942E+01 -0.14696147649E+02 -0.11860691913E+02  0.19450468642E+02  0.10566000000E+00 0. -1.
        -13    1    4    4    0    0 -0.41139865460E+00 -0.21563889726E+01 -0.16560485442E+01  0.27518944512E+01  0.10566000000E+00 0.  1.
         14    1    4    4    0    0 -0.65107830902E+01 -0.19792277531E+02 -0.18208544266E+02  0.27670844414E+02  0.00000000000E+00 0. -1.
<mgrwt>
<rscale>  0 0.80529303E+02</rscale>
<asrwt>0</asrwt>
<pdfrwt beam="1">  1        2 0.96791359E-02 0.80529303E+02</pdfrwt>
<pdfrwt beam="2">  1       -1 0.39644650E-02 0.80529303E+02</pdfrwt>
<totfact> 0.15459551E+05</totfact>
</mgrwt>
</event>
<event>
 8    1  0.2603554E-016  0.7794005E+02  0.7818608E-02  0.1335001E+00
         -1   -1    0    0    0  501 -0.00000000000E+00  0.00000000000E+00  0.28789183089E+01  0.28789227206E+01  0.50400000000E-02 0.  1.
          2   -1    0    0  501    0  0.00000000000E+00 -0.00000000000E+00 -0.52751120680E+03  0.52751120681E+03  0.25500000000E-02 0. -1.
         24    2    1    2    0    0  0.00000000000E+00  0.00000000000E+00 -0.52463228849E+03  0.53039012953E+03  0.77940049859E+02 0.  0.
         66    2    3    3    0    0 -0.70099172160E+01 -0.28144078086E+02 -0.43934645863E+03  0.44030732312E+03  0.20000032688E+01 0.  0.
        -13    1    3    3    0    0  0.70099172160E+01  0.28144078086E+02 -0.85285829863E+02  0.90082806407E+02  0.10566000000E+00 0.  1.
         13    1    4    4    0    0 -0.44008273073E+01 -0.19732532654E+02 -0.31543614685E+03  0.31608339727E+03  0.10566000000E+00 0. -1.
        -13    1    4    4    0    0 -0.22289492174E+01 -0.73520134387E+01 -0.11016549495E+03  0.11043309177E+03  0.10566000000E+00 0.  1.
         14    1    4    4    0    0 -0.38014069124E+00 -0.10595319940E+01 -0.13744816826E+02  0.13790834078E+02  0.00000000000E+00 0. -1.
<mgrwt>
<rscale>  0 0.77940050E+02</rscale>
<asrwt>0</asrwt>
<pdfrwt beam="1">  1        2 0.81155494E-01 0.77940050E+02</pdfrwt>
<pdfrwt beam="2">  1       -1 0.44291127E-03 0.77940050E+02</pdfrwt>
<totfact> 0.33141654E+05</totfact>
</mgrwt>
</event>
<event>
 8    1  0.2603554E-016  0.7890678E+02  0.7818608E-02  0.1332183E+00
          2   -1    0    0  501    0  0.00000000000E+00  0.00000000000E+00  0.12379080514E+02  0.12379080777E+02  0.25500000000E-02 0. -1.
         -1   -1    0    0    0  501 -0.00000000000E+00 -0.00000000000E+00 -0.12574198315E+03  0.12574198325E+03  0.50400000000E-02 0.  1.
         24    2    1    2    0    0  0.00000000000E+00 -0.17763568394E-14 -0.11336290263E+03  0.13812106402E+03  0.78906784461E+02 0.  0.
         66    2    3    3    0    0  0.18341589003E+02  0.14169393726E+02 -0.88526275955E+00  0.23280233998E+02  0.19999997910E+01 0.  0.
        -13    1    3    3    0    0 -0.18341589003E+02 -0.14169393726E+02 -0.11247763987E+03  0.11484083003E+03  0.10566000000E+00 0.  1.
         13    1    4    4    0    0  0.25670478166E+01  0.20148789201E+01 -0.55672212486E+00  0.33121858516E+01  0.10566000000E+00 0.  1.
        -13    1    4    4    0    0  0.19198685557E+00  0.18514123508E+00 -0.13755387832E+00  0.31815300514E+00  0.10566000000E+00 0.  1.
         14    1    4    4    0    0  0.15582554330E+02  0.11969373570E+02 -0.19098675637E+00  0.19649895141E+02  0.00000000000E+00 0. -1.
<mgrwt>
<rscale>  0 0.78906784E+02</rscale>
<asrwt>0</asrwt>
<pdfrwt beam="1">  1        2 0.19044740E-02 0.78906784E+02</pdfrwt>
<pdfrwt beam="2">  1       -1 0.19344920E-01 0.78906784E+02</pdfrwt>
<totfact> 0.11658171E+05</totfact>
</mgrwt>
</event>
<event>
 8    1  0.2603554E-016  0.8238233E+02  0.7818608E-02  0.1322424E+00
         -1   -1    0    0    0  501 -0.00000000000E+00  0.00000000000E+00  0.13456924902E+01  0.13457019282E+01  0.50400000000E-02 0.  1.
          2   -1    0    0  501    0  0.00000000000E+00 -0.00000000000E+00 -0.12608422609E+04  0.12608422609E+04  0.25500000000E-02 0. -1.
         24    2    1    2    0    0 -0.35527136788E-14  0.00000000000E+00 -0.12594965684E+04  0.12621879628E+04  0.82382326252E+02 0.  0.
         66    2    3    3    0    0 -0.25484883350E+02 -0.15098751927E+01 -0.11249088397E+04  0.11252002740E+04  0.20000037238E+01 0.  0.
        -13    1    3    3    0    0  0.25484883350E+02  0.15098751927E+01 -0.13458772866E+03  0.13698768877E+03  0.10566000000E+00 0.  1.
         13    1    4    4    0    0 -0.82767955096E+01 -0.19943223567E+00 -0.35349395655E+03  0.35359091278E+03  0.10566000000E+00 0. -1.
        -13    1    4    4    0    0 -0.10763587885E+02 -0.15357115225E+01 -0.47946818749E+03  0.47959145865E+03  0.10566000000E+00 0.  1.
        -14    1    4    4    0    0 -0.64444999549E+01  0.22526856553E+00 -0.29194669567E+03  0.29201790259E+03  0.00000000000E+00 0.  1.
<mgrwt>
<rscale>  0 0.82382326E+02</rscale>
<asrwt>0</asrwt>
<pdfrwt beam="1">  1        2 0.19397479E+00 0.82382326E+02</pdfrwt>
<pdfrwt beam="2">  1       -1 0.20703135E-03 0.82382326E+02</pdfrwt>
<totfact> 0.32247599E+05</totfact>
</mgrwt>
</event>
<event>
 8    1  0.2603554E-016  0.8039477E+02  0.7818608E-02  0.1327935E+00
          2   -1    0    0  501    0  0.00000000000E+00  0.00000000000E+00  0.42042840089E+03  0.42042840090E+03  0.25500000000E-02 0. -1.
         -1   -1    0    0    0  501 -0.00000000000E+00 -0.00000000000E+00 -0.38432917294E+01  0.38432950340E+01  0.50400000000E-02 0.  1.
         24    2    1    2    0    0  0.00000000000E+00  0.00000000000E+00  0.41658510916E+03  0.42427169593E+03  0.80394768452E+02 0.  0.
         66    2    3    3    0    0 -0.28587196127E+02  0.40557329301E+01  0.35582357380E+03  0.35699872889E+03  0.20000002439E+01 0.  0.
        -13    1    3    3    0    0  0.28587196127E+02 -0.40557329301E+01  0.60761535361E+02  0.67272967048E+02  0.10566000000E+00 0.  1.
         13    1    4    4    0    0 -0.11606848152E+02  0.14050171425E+01  0.14784571105E+03  0.14830731080E+03  0.10566000000E+00 0. -1.
        -13    1    4    4    0    0 -0.46640237690E+01  0.35083333400E+00  0.50800552586E+02  0.51015522234E+02  0.10566000000E+00 0.  1.
         14    1    4    4    0    0 -0.12316324206E+02  0.22998824535E+01  0.15717731017E+03  0.15767589585E+03  0.00000000000E+00 0. -1.
<mgrwt>
<rscale>  0 0.80394768E+02</rscale>
<asrwt>0</asrwt>
<pdfrwt beam="1">  1        2 0.64681250E-01 0.80394768E+02</pdfrwt>
<pdfrwt beam="2">  1       -1 0.59127630E-03 0.80394768E+02</pdfrwt>
<totfact> 0.28379022E+05</totfact>
</mgrwt>
</event>
<event>
 8    1  0.2603554E-016  0.8004229E+02  0.7818608E-02  0.1328931E+00
          2   -1    0    0  501    0  0.00000000000E+00  0.00000000000E+00  0.85554886059E+02  0.85554886097E+02  0.25500000000E-02 0. -1.
         -1   -1    0    0    0  501 -0.00000000000E+00 -0.00000000000E+00 -0.18721223315E+02  0.18721223993E+02  0.50400000000E-02 0.  1.
         24    2    1    2    0    0 -0.35527136788E-14  0.00000000000E+00  0.66833662744E+02  0.10427611009E+03  0.80042292945E+02 0.  0.
         66    2    3    3    0    0 -0.20146901607E+02 -0.48063282475E+01  0.78012090023E+02  0.80739610011E+02  0.19999998572E+01 0.  0.
        -13    1    3    3    0    0  0.20146901607E+02  0.48063282475E+01 -0.11178427278E+02  0.23536500080E+02  0.10566000000E+00 0.  1.
         13    1    4    4    0    0 -0.16508290615E+02 -0.38414836928E+01  0.63215458889E+02  0.65448346523E+02  0.10566000000E+00 0. -1.
        -13    1    4    4    0    0 -0.28602638541E+01 -0.45647622473E+00  0.10330009900E+02  0.10728921121E+02  0.10566000000E+00 0.  1.
         14    1    4    4    0    0 -0.77834713760E+00 -0.50836832996E+00  0.44666212336E+01  0.45623423666E+01  0.00000000000E+00 0. -1.
<mgrwt>
<rscale>  0 0.80042293E+02</rscale>
<asrwt>0</asrwt>
<pdfrwt beam="1">  1        2 0.13162290E-01 0.80042293E+02</pdfrwt>
<pdfrwt beam="2">  1       -1 0.28801883E-02 0.80042293E+02</pdfrwt>
<totfact> 0.16965802E+05</totfact>
</mgrwt>
</event>
<event>
 8    1  0.2603554E-016  0.8993384E+02  0.7818608E-02  0.1303012E+00
         -1   -1    0    0    0  501 -0.00000000000E+00  0.00000000000E+00  0.29885582570E+01  0.29885625068E+01  0.50400000000E-02 0.  1.
          2   -1    0    0  501    0  0.00000000000E+00 -0.00000000000E+00 -0.67658790375E+03  0.67658790376E+03  0.25500000000E-02 0. -1.
         24    2    1    2    0    0 -0.22204460493E-15  0.00000000000E+00 -0.67359934550E+03  0.67957646627E+03  0.89933838171E+02 0.  0.
         66    2    3    3    0    0 -0.14748696153E+01 -0.28838626774E+02 -0.59721531177E+03  0.59791635724E+03  0.20000002032E+01 0.  0.
        -13    1    3    3    0    0  0.14748696153E+01  0.28838626774E+02 -0.76384033722E+02  0.81660109027E+02  0.10566000000E+00 0.  1.
         13    1    4    4    0    0 -0.78313169416E+00 -0.17398278932E+02 -0.34624306157E+03  0.34668080745E+03  0.10566000000E+00 0. -1.
        -13    1    4    4    0    0 -0.33217328200E+00 -0.29598777720E+01 -0.57483020417E+02  0.57560229463E+02  0.10566000000E+00 0.  1.
        -14    1    4    4    0    0 -0.35956463914E+00 -0.84804700698E+01 -0.19348922979E+03  0.19367532033E+03  0.00000000000E+00 0.  1.
<mgrwt>
<rscale>  0 0.89933838E+02</rscale>
<asrwt>0</asrwt>
<pdfrwt beam="1">  1        2 0.10409032E+00 0.89933838E+02</pdfrwt>
<pdfrwt beam="2">  1       -1 0.45977906E-03 0.89933838E+02</pdfrwt>
<totfact> 0.24435323E+05</totfact>
</mgrwt>
</event>
<event>
 8    1  0.2603554E-016  0.7617754E+02  0.7818608E-02  0.1340263E+00
          2   -1    0    0  501    0  0.00000000000E+00  0.00000000000E+00  0.85891404133E+02  0.85891404171E+02  0.25500000000E-02 0. -1.
         -1   -1    0    0    0  501 -0.00000000000E+00 -0.00000000000E+00 -0.16890564416E+02  0.16890565168E+02  0.50400000000E-02 0.  1.
         24    2    1    2    0    0  0.00000000000E+00  0.00000000000E+00  0.69000839717E+02  0.10278196934E+03  0.76177538287E+02 0.  0.
         66    2    3    3    0    0  0.11152935487E+02  0.19164634043E+02  0.76265218859E+02  0.79448441180E+02  0.20000075674E+01 0.  0.
        -13    1    3    3    0    0 -0.11152935487E+02 -0.19164634043E+02 -0.72643791423E+01  0.23333528159E+02  0.10566000000E+00 0.  1.
         13    1    4    4    0    0  0.31009090603E+01  0.44442709449E+01  0.17950227572E+02  0.18750707057E+02  0.10566000000E+00 0. -1.
        -13    1    4    4    0    0  0.17774686675E+01  0.40819134002E+01  0.13775178965E+02  0.14477158955E+02  0.10566000000E+00 0.  1.
         14    1    4    4    0    0  0.62745577587E+01  0.10638449698E+02  0.44539812323E+02  0.46220575168E+02  0.00000000000E+00 0. -1.
<mgrwt>
<rscale>  0 0.76177538E+02</rscale>
<asrwt>0</asrwt>
<pdfrwt beam="1">  1        2 0.13214062E-01 0.76177538E+02</pdfrwt>
<pdfrwt beam="2">  1       -1 0.25985485E-02 0.76177538E+02</pdfrwt>
<totfact> 0.19393944E+05</totfact>
</mgrwt>
</event>
<event>
 8    1  0.2603554E-016  0.7826866E+02  0.7818608E-02  0.1334038E+00
          2   -1    0    0  501    0  0.00000000000E+00  0.00000000000E+00  0.16242740469E+03  0.16242740471E+03  0.25500000000E-02 0. -1.
         -1   -1    0    0    0  501 -0.00000000000E+00 -0.00000000000E+00 -0.94288000629E+01  0.94288014099E+01  0.50400000000E-02 0.  1.
         24    2    1    2    0    0  0.00000000000E+00  0.71054273576E-14  0.15299860463E+03  0.17185620612E+03  0.78268656332E+02 0.  0.
         66    2    3    3    0    0 -0.61761143708E+01 -0.36182434327E+02  0.10618548424E+03  0.11236845657E+03  0.20000063022E+01 0.  0.
        -13    1    3    3    0    0  0.61761143708E+01  0.36182434327E+02  0.46813120385E+02  0.59487749552E+02  0.10566000000E+00 0.  1.
         13    1    4    4    0    0 -0.31449272943E+01 -0.14887646126E+02  0.45107645574E+02  0.47605077756E+02  0.10566000000E+00 0. -1.
        -13    1    4    4    0    0 -0.20150654621E+01 -0.12344698578E+02  0.34131247885E+02  0.36351139157E+02  0.10566000000E+00 0.  1.
        -14    1    4    4    0    0 -0.10161216144E+01 -0.89500896234E+01  0.26946590783E+02  0.28412239656E+02  0.00000000000E+00 0.  1.
<mgrwt>
<rscale>  0 0.78268656E+02</rscale>
<asrwt>0</asrwt>
<pdfrwt beam="1">  1        2 0.24988832E-01 0.78268656E+02</pdfrwt>
<pdfrwt beam="2">  1       -1 0.14505847E-02 0.78268656E+02</pdfrwt>
<totfact> 0.21781659E+05</totfact>
</mgrwt>
</event>
<event>
 8    1  0.2603554E-016  0.8085634E+02  0.7818608E-02  0.1326639E+00
          2   -1    0    0  501    0  0.00000000000E+00  0.00000000000E+00  0.20858563160E+03  0.20858563161E+03  0.25500000000E-02 0. -1.
         -1   -1    0    0    0  501 -0.00000000000E+00 -0.00000000000E+00 -0.78358070268E+01  0.78358086477E+01  0.50400000000E-02 0.  1.
         24    2    1    2    0    0  0.00000000000E+00  0.00000000000E+00  0.20074982457E+03  0.21642144026E+03  0.80856340131E+02 0.  0.
         66    2    3    3    0    0  0.26548362599E+02  0.22755867107E+02  0.15461942789E+03  0.15853647065E+03  0.20000004849E+01 0.  0.
        -13    1    3    3    0    0 -0.26548362599E+02 -0.22755867107E+02  0.46130396684E+02  0.57884969610E+02  0.10566000000E+00 0.  1.
         13    1    4    4    0    0  0.81300782210E+01  0.79143627927E+01  0.49538322740E+02  0.50821175648E+02  0.10566000000E+00 0. -1.
        -13    1    4    4    0    0  0.37950376429E+01  0.33479225890E+01  0.20969366571E+02  0.21571657210E+02  0.10566000000E+00 0.  1.
        -14    1    4    4    0    0  0.14623246735E+02  0.11493581725E+02  0.84111738574E+02  0.86143637792E+02  0.00000000000E+00 0.  1.
<mgrwt>
<rscale>  0 0.80856340E+02</rscale>
<asrwt>0</asrwt>
<pdfrwt beam="1">  1        2 0.32090099E-01 0.80856340E+02</pdfrwt>
<pdfrwt beam="2">  1       -1 0.12055088E-02 0.80856340E+02</pdfrwt>
<totfact> 0.21764144E+05</totfact>
</mgrwt>
</event>
<event>
 8    1  0.2603554E-016  0.7883784E+02  0.7818608E-02  0.1332382E+00
          2   -1    0    0  501    0  0.00000000000E+00  0.00000000000E+00  0.75974165729E+03  0.75974165729E+03  0.25500000000E-02 0. -1.
         -1   -1    0    0    0  501 -0.00000000000E+00 -0.00000000000E+00 -0.20452334090E+01  0.20452396190E+01  0.50400000000E-02 0.  1.
         24    2    1    2    0    0 -0.35527136788E-14 -0.35527136788E-14  0.75769642388E+03  0.76178689691E+03  0.78837843366E+02 0.  0.
         66    2    3    3    0    0 -0.26208504119E+02 -0.23795192787E+02  0.54610515932E+03  0.54725491494E+03  0.19999998088E+01 0.  0.
        -13    1    3    3    0    0  0.26208504119E+02  0.23795192787E+02  0.21159126456E+03  0.21453198197E+03  0.10566000000E+00 0.  1.
         13    1    4    4    0    0 -0.15561441473E+02 -0.14512446005E+02  0.33128066675E+03  0.33196334267E+03  0.10566000000E+00 0. -1.
        -13    1    4    4    0    0 -0.20616232603E+01 -0.17709525080E+01  0.48653041630E+02  0.48729007656E+02  0.10566000000E+00 0.  1.
        -14    1    4    4    0    0 -0.85854393855E+01 -0.75117942744E+01  0.16617145094E+03  0.16656256461E+03  0.00000000000E+00 0.  1.
<mgrwt>
<rscale>  0 0.78837843E+02</rscale>
<asrwt>0</asrwt>
<pdfrwt beam="1">  1        2 0.11688357E+00 0.78837843E+02</pdfrwt>
<pdfrwt beam="2">  1       -1 0.31465113E-03 0.78837843E+02</pdfrwt>
<totfact> 0.35358250E+05</totfact>
</mgrwt>
</event>
<event>
 8    1  0.2603554E-016  0.8056328E+02  0.7818608E-02  0.1327460E+00
         -1   -1    0    0    0  501 -0.00000000000E+00  0.00000000000E+00  0.20048653601E+01  0.20048716951E+01  0.50400000000E-02 0.  1.
          2   -1    0    0  501    0  0.00000000000E+00 -0.00000000000E+00 -0.80933508152E+03  0.80933508152E+03  0.25500000000E-02 0. -1.
         24    2    1    2    0    0  0.88817841970E-15  0.35527136788E-14 -0.80733021616E+03  0.81133995322E+03  0.80563278017E+02 0.  0.
         66    2    3    3    0    0 -0.66005945807E+01 -0.15759857921E+02 -0.77100390375E+03  0.77119579913E+03  0.20000053588E+01 0.  0.
        -13    1    3    3    0    0  0.66005945807E+01  0.15759857921E+02 -0.36326312408E+02  0.40144154091E+02  0.10566000000E+00 0.  1.
         13    1    4    4    0    0 -0.52706085428E+00 -0.89242608015E+00 -0.51120052730E+02  0.51130667633E+02  0.10566000000E+00 0. -1.
        -13    1    4    4    0    0 -0.23756181775E+00 -0.21270969337E+01 -0.94100344221E+02  0.94124741294E+02  0.10566000000E+00 0.  1.
         14    1    4    4    0    0 -0.58359719086E+01 -0.12740334907E+02 -0.62578350680E+03  0.62594039020E+03  0.00000000000E+00 0. -1.
<mgrwt>
<rscale>  0 0.80563278E+02</rscale>
<asrwt>0</asrwt>
<pdfrwt beam="1">  1        2 0.12451283E+00 0.80563278E+02</pdfrwt>
<pdfrwt beam="2">  1       -1 0.30844196E-03 0.80563278E+02</pdfrwt>
<totfact> 0.33811262E+05</totfact>
</mgrwt>
</event>
<event>
 8    1  0.2603554E-016  0.7980333E+02  0.7818608E-02  0.1329610E+00
          2   -1    0    0  501    0  0.00000000000E+00  0.00000000000E+00  0.10544347479E+03  0.10544347483E+03  0.25500000000E-02 0. -1.
         -1   -1    0    0    0  501 -0.00000000000E+00 -0.00000000000E+00 -0.15099490997E+02  0.15099491838E+02  0.50400000000E-02 0.  1.
         24    2    1    2    0    0  0.00000000000E+00  0.00000000000E+00  0.90343983797E+02  0.12054296666E+03  0.79803329527E+02 0.  0.
         66    2    3    3    0    0 -0.30512303766E+01  0.23161556771E+02  0.94014700170E+02  0.96894435174E+02  0.20000001811E+01 0.  0.
        -13    1    3    3    0    0  0.30512303766E+01 -0.23161556771E+02 -0.36707163729E+01  0.23648531489E+02  0.10566000000E+00 0.  1.
         13    1    4    4    0    0 -0.81407169483E+00  0.59564121488E+01  0.21166420387E+02  0.22003864988E+02  0.10566000000E+00 0. -1.
        -13    1    4    4    0    0 -0.40449942226E+00  0.18394851395E+01  0.71831332165E+01  0.74267013002E+01  0.10566000000E+00 0. -1.
         14    1    4    4    0    0 -0.18326592595E+01  0.15365659483E+02  0.65665146567E+02  0.67463868886E+02  0.00000000000E+00 0. -1.
<mgrwt>
<rscale>  0 0.79803330E+02</rscale>
<asrwt>0</asrwt>
<pdfrwt beam="1">  1        2 0.16222073E-01 0.79803330E+02</pdfrwt>
<pdfrwt beam="2">  1       -1 0.23229987E-02 0.79803330E+02</pdfrwt>
<totfact> 0.18112301E+05</totfact>
</mgrwt>
</event>
<event>
 8    1  0.2603554E-016  0.8028431E+02  0.7818608E-02  0.1328247E+00
          2   -1    0    0  501    0  0.00000000000E+00  0.00000000000E+00  0.13441983827E+03  0.13441983829E+03  0.25500000000E-02 0. -1.
         -1   -1    0    0    0  501 -0.00000000000E+00 -0.00000000000E+00 -0.11987758594E+02  0.11987759654E+02  0.50400000000E-02 0.  1.
         24    2    1    2    0    0  0.00000000000E+00  0.00000000000E+00  0.12243207967E+03  0.14640759794E+03  0.80284311064E+02 0.  0.
         66    2    3    3    0    0 -0.28090155948E+02 -0.19321655731E+02  0.22698200391E+02  0.41007213307E+02  0.20000002168E+01 0.  0.
        -13    1    3    3    0    0  0.28090155948E+02  0.19321655731E+02  0.99733879280E+02  0.10540038464E+03  0.10566000000E+00 0.  1.
         13    1    4    4    0    0 -0.16592751959E+02 -0.10980967732E+02  0.13594436778E+02  0.24098152320E+02  0.10566000000E+00 0. -1.
        -13    1    4    4    0    0 -0.32443072426E+01 -0.29665146487E+01  0.29748039525E+01  0.53090828999E+01  0.10566000000E+00 0.  1.
        -14    1    4    4    0    0 -0.82530967460E+01 -0.53741733496E+01  0.61289596611E+01  0.11599978087E+02  0.00000000000E+00 0.  1.
<mgrwt>
<rscale>  0 0.80284311E+02</rscale>
<asrwt>0</asrwt>
<pdfrwt beam="1">  1        2 0.20679976E-01 0.80284311E+02</pdfrwt>
<pdfrwt beam="2">  1       -1 0.18442706E-02 0.80284311E+02</pdfrwt>
<totfact> 0.19164151E+05</totfact>
</mgrwt>
</event>
<event>
 8    1  0.2603554E-016  0.8047758E+02  0.7818608E-02  0.1327702E+00
         -1   -1    0    0    0  501 -0.00000000000E+00  0.00000000000E+00  0.30245760708E+02  0.30245761128E+02  0.50400000000E-02 0.  1.
          2   -1    0    0  501    0  0.00000000000E+00 -0.00000000000E+00 -0.53533456011E+02  0.53533456072E+02  0.25500000000E-02 0. -1.
         24    2    1    2    0    0 -0.17763568394E-14 -0.71054273576E-14 -0.23287695303E+02  0.83779217200E+02  0.80477577511E+02 0.  0.
         66    2    3    3    0    0  0.14552906916E+02 -0.36198952046E+02 -0.21797890814E+02  0.44735883448E+02  0.19999987524E+01 0.  0.
        -13    1    3    3    0    0 -0.14552906916E+02  0.36198952046E+02 -0.14898044890E+01  0.39043333751E+02  0.10566000000E+00 0.  1.
         13    1    4    4    0    0  0.15025855568E+01 -0.32988646841E+01 -0.15225079616E+01  0.39331242147E+01  0.10566000000E+00 0. -1.
        -13    1    4    4    0    0  0.80274891299E+01 -0.20297108102E+02 -0.11933794269E+02  0.24876490683E+02  0.10566000000E+00 0.  1.
         14    1    4    4    0    0  0.50228322289E+01 -0.12602979261E+02 -0.83415885841E+01  0.15926268551E+02  0.00000000000E+00 0. -1.
<mgrwt>
<rscale>  0 0.80477578E+02</rscale>
<asrwt>0</asrwt>
<pdfrwt beam="1">  1        2 0.82359163E-02 0.80477578E+02</pdfrwt>
<pdfrwt beam="2">  1       -1 0.46531940E-02 0.80477578E+02</pdfrwt>
<totfact> 0.14924352E+05</totfact>
</mgrwt>
</event>
<event>
 8    1  0.2603554E-016  0.7817157E+02  0.7818608E-02  0.1334322E+00
         -1   -1    0    0    0  501 -0.00000000000E+00  0.00000000000E+00  0.12418011452E+03  0.12418011462E+03  0.50400000000E-02 0.  1.
          2   -1    0    0  501    0  0.00000000000E+00 -0.00000000000E+00 -0.12302280157E+02  0.12302280421E+02  0.25500000000E-02 0. -1.
         24    2    1    2    0    0 -0.35527136788E-14  0.00000000000E+00  0.11187783436E+03  0.13648239504E+03  0.78171569865E+02 0.  0.
         66    2    3    3    0    0  0.19732015644E+02  0.18339257473E+02  0.65925667855E+01  0.27805444687E+02  0.20000028441E+01 0.  0.
        -13    1    3    3    0    0 -0.19732015644E+02 -0.18339257473E+02  0.10528526758E+03  0.10867695036E+03  0.10566000000E+00 0.  1.
         13    1    4    4    0    0  0.64174959964E+01  0.50530642021E+01  0.20588781726E+01  0.84242421653E+01  0.10566000000E+00 0. -1.
        -13    1    4    4    0    0  0.18792125741E+01  0.22879914388E+01  0.99657919055E+00  0.31258085100E+01  0.10566000000E+00 0.  1.
         14    1    4    4    0    0  0.11435307074E+02  0.10998201832E+02  0.35371094224E+01  0.16255394011E+02  0.00000000000E+00 0. -1.
<mgrwt>
<rscale>  0 0.78171570E+02</rscale>
<asrwt>0</asrwt>
<pdfrwt beam="1">  1        2 0.18926584E-02 0.78171570E+02</pdfrwt>
<pdfrwt beam="2">  1       -1 0.19104634E-01 0.78171570E+02</pdfrwt>
<totfact> 0.11970284E+05</totfact>
</mgrwt>
</event>
<event>
 8    1  0.2603554E-016  0.8145734E+02  0.7818608E-02  0.1324966E+00
          2   -1    0    0  501    0  0.00000000000E+00  0.00000000000E+00  0.66662644672E+03  0.66662644673E+03  0.25500000000E-02 0. -1.
         -1   -1    0    0    0  501 -0.00000000000E+00 -0.00000000000E+00 -0.24883844548E+01  0.24883895589E+01  0.50400000000E-02 0.  1.
         24    2    1    2    0    0 -0.11102230246E-15  0.00000000000E+00  0.66413806227E+03  0.66911483629E+03  0.81457340895E+02 0.  0.
         66    2    3    3    0    0 -0.64089081740E+00 -0.32247019858E+02  0.53623126559E+03  0.53720410575E+03  0.20000013500E+01 0.  0.
        -13    1    3    3    0    0  0.64089081740E+00  0.32247019858E+02  0.12790679668E+03  0.13191073054E+03  0.10566000000E+00 0.  1.
         13    1    4    4    0    0 -0.31716820493E-01 -0.32614750065E+01  0.48773820872E+02  0.48882870125E+02  0.10566000000E+00 0. -1.
        -13    1    4    4    0    0 -0.73269666872E+00 -0.22958599813E+02  0.37628106679E+03  0.37698154668E+03  0.10566000000E+00 0.  1.
        -14    1    4    4    0    0  0.12352267181E+00 -0.60269450385E+01  0.11117637793E+03  0.11133968894E+03  0.00000000000E+00 0.  1.
<mgrwt>
<rscale>  0 0.81457341E+02</rscale>
<asrwt>0</asrwt>
<pdfrwt beam="1">  1        2 0.10255785E+00 0.81457341E+02</pdfrwt>
<pdfrwt beam="2">  1       -1 0.38282903E-03 0.81457341E+02</pdfrwt>
<totfact> 0.31548044E+05</totfact>
</mgrwt>
</event>
<event>
 8    1  0.2603554E-016  0.8152890E+02  0.7818608E-02  0.1324768E+00
          2   -1    0    0  501    0  0.00000000000E+00  0.00000000000E+00  0.76137424543E+03  0.76137424544E+03  0.25500000000E-02 0. -1.
         -1   -1    0    0    0  501 -0.00000000000E+00 -0.00000000000E+00 -0.21825511233E+01  0.21825569425E+01  0.50400000000E-02 0.  1.
         24    2    1    2    0    0 -0.35527136788E-14  0.00000000000E+00  0.75919169431E+03  0.76355680238E+03  0.81528901328E+02 0.  0.
         66    2    3    3    0    0  0.16339259323E+02  0.14238452312E+02  0.70290270417E+03  0.70323958681E+03  0.20000009253E+01 0.  0.
        -13    1    3    3    0    0 -0.16339259323E+02 -0.14238452312E+02  0.56288990140E+02  0.60317215573E+02  0.10566000000E+00 0.  1.
         13    1    4    4    0    0  0.11803987887E+02  0.10341106791E+02  0.50580363545E+03  0.50604703479E+03  0.10566000000E+00 0. -1.
        -13    1    4    4    0    0  0.19464946823E+01  0.10711914472E+01  0.79029999485E+02  0.79061294420E+02  0.10566000000E+00 0.  1.
        -14    1    4    4    0    0  0.25887767537E+01  0.28261540731E+01  0.11806906923E+03  0.11813125760E+03  0.00000000000E+00 0.  1.
<mgrwt>
<rscale>  0 0.81528901E+02</rscale>
<asrwt>0</asrwt>
<pdfrwt beam="1">  1        2 0.11713466E+00 0.81528901E+02</pdfrwt>
<pdfrwt beam="2">  1       -1 0.33577710E-03 0.81528901E+02</pdfrwt>
<totfact> 0.32418209E+05</totfact>
</mgrwt>
</event>
<event>
 8    1  0.2603554E-016  0.7905921E+02  0.7818608E-02  0.1331743E+00
         -1   -1    0    0    0  501 -0.00000000000E+00  0.00000000000E+00  0.95304705863E+00  0.95306038505E+00  0.50400000000E-02 0.  1.
          2   -1    0    0  501    0  0.00000000000E+00 -0.00000000000E+00 -0.16395608139E+04  0.16395608139E+04  0.25500000000E-02 0. -1.
         24    2    1    2    0    0  0.00000000000E+00 -0.35527136788E-14 -0.16386077668E+04  0.16405138742E+04  0.79059206771E+02 0.  0.
         66    2    3    3    0    0 -0.81878502031E+01 -0.18692638329E+02 -0.15217101069E+04  0.15218482530E+04  0.20000016629E+01 0.  0.
        -13    1    3    3    0    0  0.81878502031E+01  0.18692638329E+02 -0.11689765989E+03  0.11866562126E+03  0.10566000000E+00 0.  1.
         13    1    4    4    0    0 -0.29626134428E+01 -0.74736586244E+01 -0.60904433852E+03  0.60909740609E+03  0.10566000000E+00 0. -1.
        -13    1    4    4    0    0 -0.21392032986E+01 -0.39859021998E+01 -0.28717319072E+03  0.28720883733E+03  0.10566000000E+00 0.  1.
        -14    1    4    4    0    0 -0.30860334617E+01 -0.72330775043E+01 -0.62549257768E+03  0.62554200957E+03  0.00000000000E+00 0.  1.
<mgrwt>
<rscale>  0 0.79059207E+02</rscale>
<asrwt>0</asrwt>
<pdfrwt beam="1">  1        2 0.25223787E+00 0.79059207E+02</pdfrwt>
<pdfrwt beam="2">  1       -1 0.14662496E-03 0.79059207E+02</pdfrwt>
<totfact> 0.32960846E+05</totfact>
</mgrwt>
</event>
<event>
 8    1  0.2603554E-016  0.7908333E+02  0.7818608E-02  0.1331673E+00
         -1   -1    0    0    0  501 -0.00000000000E+00  0.00000000000E+00  0.88216459031E+00  0.88217898751E+00  0.50400000000E-02 0.  1.
          2   -1    0    0  501    0  0.00000000000E+00 -0.00000000000E+00 -0.17723795411E+04  0.17723795411E+04  0.25500000000E-02 0. -1.
         24    2    1    2    0    0  0.00000000000E+00  0.17763568394E-14 -0.17714973765E+04  0.17732617200E+04  0.79083329175E+02 0.  0.
         66    2    3    3    0    0 -0.33644046328E+01 -0.14932224608E+02 -0.17032041978E+04  0.17032741499E+04  0.19999920253E+01 0.  0.
        -13    1    3    3    0    0  0.33644046328E+01  0.14932224608E+02 -0.68293178703E+02  0.69987570122E+02  0.10566000000E+00 0.  1.
         13    1    4    4    0    0 -0.13204677405E+01 -0.92350910547E+01 -0.10451435633E+04  0.10451852035E+04  0.10566000000E+00 0. -1.
        -13    1    4    4    0    0 -0.42362181671E+00 -0.67641199861E+00 -0.10864467440E+03  0.10864765726E+03  0.10566000000E+00 0. -1.
         14    1    4    4    0    0 -0.16203150756E+01 -0.50207215547E+01 -0.54941596008E+03  0.54944128919E+03  0.00000000000E+00 0. -1.
<mgrwt>
<rscale>  0 0.79083329E+02</rscale>
<asrwt>0</asrwt>
<pdfrwt beam="1">  1        2 0.27267093E+00 0.79083329E+02</pdfrwt>
<pdfrwt beam="2">  1       -1 0.13572016E-03 0.79083329E+02</pdfrwt>
<totfact> 0.31465450E+05</totfact>
</mgrwt>
</event>
<event>
 8    1  0.2603554E-016  0.8348481E+02  0.7818608E-02  0.1319443E+00
         -1   -1    0    0    0  501 -0.00000000000E+00  0.00000000000E+00  0.25632728460E+02  0.25632728955E+02  0.50400000000E-02 0.  1.
          2   -1    0    0  501    0  0.00000000000E+00 -0.00000000000E+00 -0.67976696762E+02  0.67976696810E+02  0.25500000000E-02 0. -1.
         24    2    1    2    0    0  0.00000000000E+00  0.71054273576E-14 -0.42343968303E+02  0.93609425765E+02  0.83484806645E+02 0.  0.
         66    2    3    3    0    0  0.15371547188E+02 -0.38381884172E+02 -0.27424046279E+02  0.49654121958E+02  0.20000044005E+01 0.  0.
        -13    1    3    3    0    0 -0.15371547188E+02  0.38381884172E+02 -0.14919922023E+02  0.43955303807E+02  0.10566000000E+00 0.  1.
         13    1    4    4    0    0  0.11374875808E+02 -0.30066600384E+02 -0.21731671208E+02  0.38802898807E+02  0.10566000000E+00 0. -1.
        -13    1    4    4    0    0  0.22353748988E+01 -0.51431969633E+01 -0.33763975769E+01  0.65468007893E+01  0.10566000000E+00 0. -1.
         14    1    4    4    0    0  0.17612964817E+01 -0.31720868248E+01 -0.23159774946E+01  0.43044223627E+01  0.00000000000E+00 0. -1.
<mgrwt>
<rscale>  0 0.83484807E+02</rscale>
<asrwt>0</asrwt>
<pdfrwt beam="1">  1        2 0.10457953E-01 0.83484807E+02</pdfrwt>
<pdfrwt beam="2">  1       -1 0.39434968E-02 0.83484807E+02</pdfrwt>
<totfact> 0.14278177E+05</totfact>
</mgrwt>
</event>
<event>
 8    1  0.2603554E-016  0.8027780E+02  0.7818608E-02  0.1328265E+00
          2   -1    0    0  501    0  0.00000000000E+00  0.00000000000E+00  0.13707057797E+03  0.13707057799E+03  0.25500000000E-02 0. -1.
         -1   -1    0    0    0  501 -0.00000000000E+00 -0.00000000000E+00 -0.11754027505E+02  0.11754028585E+02  0.50400000000E-02 0.  1.
         24    2    1    2    0    0 -0.17763568394E-14 -0.88817841970E-15  0.12531655046E+03  0.14882460658E+03  0.80277803302E+02 0.  0.
         66    2    3    3    0    0  0.92554921730E+01  0.60639061226E+01  0.13417790177E+03  0.13464822468E+03  0.19999982157E+01 0.  0.
        -13    1    3    3    0    0 -0.92554921730E+01 -0.60639061226E+01 -0.88613513045E+01  0.14176381901E+02  0.10566000000E+00 0.  1.
         13    1    4    4    0    0  0.28501876113E+01  0.13494694699E+01  0.34052634145E+02  0.34198504258E+02  0.10566000000E+00 0. -1.
        -13    1    4    4    0    0  0.53027781179E+01  0.43709814134E+01  0.81877303777E+02  0.82165254044E+02  0.10566000000E+00 0.  1.
         14    1    4    4    0    0  0.11025264438E+01  0.34345523922E+00  0.18247963846E+02  0.18284466374E+02  0.00000000000E+00 0. -1.
<mgrwt>
<rscale>  0 0.80277803E+02</rscale>
<asrwt>0</asrwt>
<pdfrwt beam="1">  1        2 0.21087781E-01 0.80277803E+02</pdfrwt>
<pdfrwt beam="2">  1       -1 0.18083121E-02 0.80277803E+02</pdfrwt>
<totfact> 0.19285673E+05</totfact>
</mgrwt>
</event>
<event>
 8    1  0.2603554E-016  0.8070717E+02  0.7818608E-02  0.1327056E+00
          2   -1    0    0  501    0  0.00000000000E+00  0.00000000000E+00  0.14588849819E+03  0.14588849821E+03  0.25500000000E-02 0. -1.
         -1   -1    0    0    0  501 -0.00000000000E+00 -0.00000000000E+00 -0.11162029045E+02  0.11162030183E+02  0.50400000000E-02 0.  1.
         24    2    1    2    0    0  0.00000000000E+00  0.44408920985E-15  0.13472646914E+03  0.15705052839E+03  0.80707168088E+02 0.  0.
         66    2    3    3    0    0  0.34986487456E+02 -0.38362581427E+01  0.10571686511E+03  0.11143978984E+03  0.20000025287E+01 0.  0.
        -13    1    3    3    0    0 -0.34986487456E+02  0.38362581427E+01  0.29009604033E+02  0.45610738552E+02  0.10566000000E+00 0.  1.
         13    1    4    4    0    0  0.14880737245E+02 -0.11534747127E+01  0.43448561724E+02  0.45940782805E+02  0.10566000000E+00 0. -1.
        -13    1    4    4    0    0  0.41509310299E+01 -0.77310794857E+00  0.14313785849E+02  0.14923925545E+02  0.10566000000E+00 0.  1.
        -14    1    4    4    0    0  0.15954819181E+02 -0.19096754815E+01  0.47954517537E+02  0.50575081490E+02  0.00000000000E+00 0.  1.
<mgrwt>
<rscale>  0 0.80707168E+02</rscale>
<asrwt>0</asrwt>
<pdfrwt beam="1">  1        2 0.22444383E-01 0.80707168E+02</pdfrwt>
<pdfrwt beam="2">  1       -1 0.17172354E-02 0.80707168E+02</pdfrwt>
<totfact> 0.19393465E+05</totfact>
</mgrwt>
</event>
<event>
 8    1  0.2603554E-016  0.7815999E+02  0.7818608E-02  0.1334356E+00
         -1   -1    0    0    0  501 -0.00000000000E+00  0.00000000000E+00  0.42988204673E+02  0.42988204968E+02  0.50400000000E-02 0.  1.
          2   -1    0    0  501    0  0.00000000000E+00 -0.00000000000E+00 -0.35527091765E+02  0.35527091857E+02  0.25500000000E-02 0. -1.
         24    2    1    2    0    0  0.88817841970E-15 -0.35527136788E-14  0.74611129078E+01  0.78515296825E+02  0.78159987396E+02 0.  0.
         66    2    3    3    0    0  0.74341916989E+01  0.31756366368E+02 -0.17847379677E+02  0.37232552585E+02  0.19999998854E+01 0.  0.
        -13    1    3    3    0    0 -0.74341916989E+01 -0.31756366368E+02  0.25308492584E+02  0.41282744241E+02  0.10566000000E+00 0.  1.
         13    1    4    4    0    0  0.33569632553E+01  0.15636638526E+02 -0.82047940746E+01  0.17975079319E+02  0.10566000000E+00 0. -1.
        -13    1    4    4    0    0  0.83696270900E+00  0.18378123792E+01 -0.12776179190E+01  0.23919725124E+01  0.10566000000E+00 0.  1.
        -14    1    4    4    0    0  0.32402657346E+01  0.14281915463E+02 -0.83649676830E+01  0.16865500753E+02  0.00000000000E+00 0.  1.
<mgrwt>
<rscale>  0 0.78159987E+02</rscale>
<asrwt>0</asrwt>
<pdfrwt beam="1">  1        2 0.54657064E-02 0.78159987E+02</pdfrwt>
<pdfrwt beam="2">  1       -1 0.66135700E-02 0.78159987E+02</pdfrwt>
<totfact> 0.14843727E+05</totfact>
</mgrwt>
</event>
<event>
 8    1  0.2603554E-016  0.7871125E+02  0.7818608E-02  0.1332749E+00
          2   -1    0    0  501    0  0.00000000000E+00  0.00000000000E+00  0.53272361377E+03  0.53272361378E+03  0.25500000000E-02 0. -1.
         -1   -1    0    0    0  501 -0.00000000000E+00 -0.00000000000E+00 -0.29074435828E+01  0.29074479512E+01  0.50400000000E-02 0.  1.
         24    2    1    2    0    0  0.35527136788E-14  0.00000000000E+00  0.52981617019E+03  0.53563106173E+03  0.78711245037E+02 0.  0.
         66    2    3    3    0    0  0.25361238895E+02 -0.12360963076E+02  0.45155018863E+03  0.45243514308E+03  0.19999989155E+01 0.  0.
        -13    1    3    3    0    0 -0.25361238895E+02  0.12360963076E+02  0.78265981565E+02  0.83195918655E+02  0.10566000000E+00 0.  1.
         13    1    4    4    0    0  0.53379756085E+01 -0.26329778013E+01  0.88236167669E+02  0.88436751437E+02  0.10566000000E+00 0. -1.
        -13    1    4    4    0    0  0.69982964177E+00 -0.15661804343E+00  0.14992157999E+02  0.15009672090E+02  0.10566000000E+00 0.  1.
         14    1    4    4    0    0  0.19323433645E+02 -0.95713672317E+01  0.34832186296E+03  0.34898871955E+03  0.00000000000E+00 0. -1.
<mgrwt>
<rscale>  0 0.78711245E+02</rscale>
<asrwt>0</asrwt>
<pdfrwt beam="1">  1        2 0.81957486E-01 0.78711245E+02</pdfrwt>
<pdfrwt beam="2">  1       -1 0.44729931E-03 0.78711245E+02</pdfrwt>
<totfact> 0.32401816E+05</totfact>
</mgrwt>
</event>
<event>
 8    1  0.2603554E-016  0.7975731E+02  0.7818608E-02  0.1329742E+00
          2   -1    0    0  501    0  0.00000000000E+00  0.00000000000E+00  0.12520156717E+03  0.12520156719E+03  0.25500000000E-02 0. -1.
         -1   -1    0    0    0  501 -0.00000000000E+00 -0.00000000000E+00 -0.12701975156E+02  0.12701976156E+02  0.50400000000E-02 0.  1.
         24    2    1    2    0    0  0.00000000000E+00  0.00000000000E+00  0.11249959201E+03  0.13790354335E+03  0.79757313555E+02 0.  0.
         66    2    3    3    0    0  0.61087727209E+00  0.32821696251E+02  0.95357740689E+02  0.10086989451E+03  0.19999981589E+01 0.  0.
        -13    1    3    3    0    0 -0.61087727209E+00 -0.32821696251E+02  0.17141851322E+02  0.37033648842E+02  0.10566000000E+00 0.  1.
         13    1    4    4    0    0  0.10901353688E+01  0.26754520579E+02  0.76460373981E+02  0.81013534177E+02  0.10566000000E+00 0. -1.
        -13    1    4    4    0    0 -0.50153774605E+00  0.56669755555E+01  0.17846160624E+02  0.18731331109E+02  0.10566000000E+00 0.  1.
        -14    1    4    4    0    0  0.22279649303E-01  0.40020011643E+00  0.10512060839E+01  0.11250292204E+01  0.00000000000E+00 0.  1.
<mgrwt>
<rscale>  0 0.79757314E+02</rscale>
<asrwt>0</asrwt>
<pdfrwt beam="1">  1        2 0.19261780E-01 0.79757314E+02</pdfrwt>
<pdfrwt beam="2">  1       -1 0.19541500E-02 0.79757314E+02</pdfrwt>
<totfact> 0.19081143E+05</totfact>
</mgrwt>
</event>
<event>
 8    1  0.2603554E-016  0.7652236E+02  0.7818608E-02  0.1339221E+00
         -1   -1    0    0    0  501 -0.00000000000E+00  0.00000000000E+00  0.10688846073E+01  0.10688964896E+01  0.50400000000E-02 0.  1.
          2   -1    0    0  501    0  0.00000000000E+00 -0.00000000000E+00 -0.13695677413E+04  0.13695677413E+04  0.25500000000E-02 0. -1.
         24    2    1    2    0    0  0.00000000000E+00 -0.17763568394E-14 -0.13684988566E+04  0.13706366377E+04  0.76522363321E+02 0.  0.
         66    2    3    3    0    0  0.21670430853E+01  0.14782650963E+02 -0.13151142583E+04  0.13152006445E+04  0.19999997457E+01 0.  0.
        -13    1    3    3    0    0 -0.21670430853E+01 -0.14782650963E+02 -0.53384598345E+02  0.55435993269E+02  0.10566000000E+00 0.  1.
         13    1    4    4    0    0  0.83928610701E+00  0.80373528803E+01 -0.72825686453E+03  0.72830170626E+03  0.10566000000E+00 0. -1.
        -13    1    4    4    0    0  0.14867124828E+01  0.65747406580E+01 -0.57178361147E+03  0.57182335300E+03  0.10566000000E+00 0.  1.
        -14    1    4    4    0    0 -0.15895550452E+00  0.17055742481E+00 -0.15073782301E+02  0.15075585214E+02  0.00000000000E+00 0.  1.
<mgrwt>
<rscale>  0 0.76522363E+02</rscale>
<asrwt>0</asrwt>
<pdfrwt beam="1">  1        2 0.21070133E+00 0.76522363E+02</pdfrwt>
<pdfrwt beam="2">  1       -1 0.16444580E-03 0.76522363E+02</pdfrwt>
<totfact> 0.38392083E+05</totfact>
</mgrwt>
</event>
<event>
 8    1  0.2603554E-016  0.7729380E+02  0.7818608E-02  0.1336911E+00
         -1   -1    0    0    0  501 -0.00000000000E+00  0.00000000000E+00  0.66868647833E+01  0.66868666827E+01  0.50400000000E-02 0.  1.
          2   -1    0    0  501    0  0.00000000000E+00 -0.00000000000E+00 -0.22336068461E+03  0.22336068463E+03  0.25500000000E-02 0. -1.
         24    2    1    2    0    0  0.00000000000E+00  0.35527136788E-14 -0.21667381983E+03  0.23004755131E+03  0.77293800943E+02 0.  0.
         66    2    3    3    0    0 -0.34575464251E+01 -0.29503010134E+02 -0.18186932093E+03  0.18429007606E+03  0.20000004538E+01 0.  0.
        -13    1    3    3    0    0  0.34575464251E+01  0.29503010134E+02 -0.34804498899E+02  0.45757475257E+02  0.10566000000E+00 0.  1.
         13    1    4    4    0    0 -0.21425462637E+01 -0.17366402037E+02 -0.10953112475E+03  0.11092006526E+03  0.10566000000E+00 0. -1.
        -13    1    4    4    0    0 -0.78417320180E+00 -0.57574700091E+01 -0.31174046119E+02  0.31711129025E+02  0.10566000000E+00 0.  1.
        -14    1    4    4    0    0 -0.53082695962E+00 -0.63791380874E+01 -0.41164150060E+02  0.41658881768E+02  0.00000000000E+00 0.  1.
<mgrwt>
<rscale>  0 0.77293801E+02</rscale>
<asrwt>0</asrwt>
<pdfrwt beam="1">  1        2 0.34363177E-01 0.77293801E+02</pdfrwt>
<pdfrwt beam="2">  1       -1 0.10287488E-02 0.77293801E+02</pdfrwt>
<totfact> 0.25100996E+05</totfact>
</mgrwt>
</event>
<event>
 8    1  0.2603554E-016  0.8014531E+02  0.7818608E-02  0.1328640E+00
         -1   -1    0    0    0  501 -0.00000000000E+00  0.00000000000E+00  0.11052562452E+02  0.11052563602E+02  0.50400000000E-02 0.  1.
          2   -1    0    0  501    0  0.00000000000E+00 -0.00000000000E+00 -0.14528918133E+03  0.14528918135E+03  0.25500000000E-02 0. -1.
         24    2    1    2    0    0 -0.44408920985E-15  0.00000000000E+00 -0.13423661887E+03  0.15634174495E+03  0.80145314070E+02 0.  0.
         66    2    3    3    0    0  0.26823470979E+01  0.30233870008E+02 -0.11812334458E+03  0.12197707335E+03  0.20000016082E+01 0.  0.
        -13    1    3    3    0    0 -0.26823470979E+01 -0.30233870008E+02 -0.16113274289E+02  0.34364671597E+02  0.10566000000E+00 0.  1.
         13    1    4    4    0    0  0.10620817244E+01  0.10643613400E+02 -0.42512674785E+02  0.43837805661E+02  0.10566000000E+00 0. -1.
        -13    1    4    4    0    0  0.10314194436E+01  0.89252906093E+01 -0.31770346184E+02  0.33016521610E+02  0.10566000000E+00 0.  1.
        -14    1    4    4    0    0  0.58884592982E+00  0.10664965998E+02 -0.43840323616E+02  0.45122746082E+02  0.00000000000E+00 0.  1.
<mgrwt>
<rscale>  0 0.80145314E+02</rscale>
<asrwt>0</asrwt>
<pdfrwt beam="1">  1        2 0.22352180E-01 0.80145314E+02</pdfrwt>
<pdfrwt beam="2">  1       -1 0.17003944E-02 0.80145314E+02</pdfrwt>
<totfact> 0.19730777E+05</totfact>
</mgrwt>
</event>
<event>
 8    1  0.2603554E-016  0.8387797E+02  0.7818608E-02  0.1318393E+00
         -1   -1    0    0    0  501 -0.00000000000E+00  0.00000000000E+00  0.46301391993E+01  0.46301419424E+01  0.50400000000E-02 0.  1.
          2   -1    0    0  501    0  0.00000000000E+00 -0.00000000000E+00 -0.37987582226E+03  0.37987582227E+03  0.25500000000E-02 0. -1.
         24    2    1    2    0    0  0.00000000000E+00 -0.88817841970E-15 -0.37524568306E+03  0.38450596421E+03  0.83877970041E+02 0.  0.
         66    2    3    3    0    0 -0.37518587905E+02  0.72088350646E+01 -0.26676516112E+03  0.26949445806E+03  0.19999998240E+01 0.  0.
        -13    1    3    3    0    0  0.37518587905E+02 -0.72088350646E+01 -0.10848052195E+03  0.11501150615E+03  0.10566000000E+00 0.  1.
         13    1    4    4    0    0 -0.15776247864E+02  0.34068670033E+01 -0.11689072278E+03  0.11799978379E+03  0.10566000000E+00 0. -1.
        -13    1    4    4    0    0 -0.19726981081E+02  0.37484218131E+01 -0.13578698210E+03  0.13726368828E+03  0.10566000000E+00 0.  1.
        -14    1    4    4    0    0 -0.20153589595E+01  0.53546248177E-01 -0.14087456240E+02  0.14230985990E+02  0.00000000000E+00 0.  1.
<mgrwt>
<rscale>  0 0.83877970E+02</rscale>
<asrwt>0</asrwt>
<pdfrwt beam="1">  1        2 0.58442410E-01 0.83877970E+02</pdfrwt>
<pdfrwt beam="2">  1       -1 0.71232962E-03 0.83877970E+02</pdfrwt>
<totfact> 0.24508997E+05</totfact>
</mgrwt>
</event>
<event>
 8    1  0.2603554E-016  0.8165398E+02  0.7818608E-02  0.1324422E+00
          2   -1    0    0  501    0  0.00000000000E+00  0.00000000000E+00  0.33119683037E+03  0.33119683038E+03  0.25500000000E-02 0. -1.
         -1   -1    0    0    0  501 -0.00000000000E+00 -0.00000000000E+00 -0.50327861201E+01  0.50327886437E+01  0.50400000000E-02 0.  1.
         24    2    1    2    0    0  0.88817841970E-15 -0.35527136788E-14  0.32616404425E+03  0.33622961902E+03  0.81653983045E+02 0.  0.
         66    2    3    3    0    0  0.57934673306E+01 -0.26670332625E+02  0.28807451540E+03  0.28937138305E+03  0.20000005457E+01 0.  0.
        -13    1    3    3    0    0 -0.57934673306E+01  0.26670332625E+02  0.38089528849E+02  0.46858235967E+02  0.10566000000E+00 0.  1.
         13    1    4    4    0    0 -0.90833069927E-01 -0.49368404965E+00  0.44770279831E+01  0.45063198049E+01  0.10566000000E+00 0.  1.
        -13    1    4    4    0    0  0.15326295115E+01 -0.74155740084E+01  0.76383659795E+02  0.76758154869E+02  0.10566000000E+00 0. -1.
         14    1    4    4    0    0  0.43516708891E+01 -0.18761074567E+02  0.20721382762E+03  0.20810690838E+03  0.00000000000E+00 0. -1.
<mgrwt>
<rscale>  0 0.81653983E+02</rscale>
<asrwt>0</asrwt>
<pdfrwt beam="1">  1        2 0.50953373E-01 0.81653983E+02</pdfrwt>
<pdfrwt beam="2">  1       -1 0.77427476E-03 0.81653983E+02</pdfrwt>
<totfact> 0.25041702E+05</totfact>
</mgrwt>
</event>
<event>
 8    1  0.2603554E-016  0.7846749E+02  0.7818608E-02  0.1333458E+00
         -1   -1    0    0    0  501 -0.00000000000E+00  0.00000000000E+00  0.55628873368E+02  0.55628873596E+02  0.50400000000E-02 0.  1.
          2   -1    0    0  501    0  0.00000000000E+00 -0.00000000000E+00 -0.27670642528E+02  0.27670642645E+02  0.25500000000E-02 0. -1.
         24    2    1    2    0    0  0.00000000000E+00  0.00000000000E+00  0.27958230840E+02  0.83299516241E+02  0.78467488391E+02 0.  0.
         66    2    3    3    0    0  0.21085094057E+02  0.28313054546E+02 -0.41232509751E+01  0.35597913662E+02  0.20000023317E+01 0.  0.
        -13    1    3    3    0    0 -0.21085094057E+02 -0.28313054546E+02  0.32081481816E+02  0.47701602580E+02  0.10566000000E+00 0.  1.
         13    1    4    4    0    0  0.37111967385E+01  0.52188903908E+01 -0.34540624810E+00  0.64140679490E+01  0.10566000000E+00 0. -1.
        -13    1    4    4    0    0  0.14851866764E+01  0.14529940330E+01 -0.47435189929E+00  0.21338099455E+01  0.10566000000E+00 0.  1.
         14    1    4    4    0    0  0.15888710642E+02  0.21641170123E+02 -0.33034928277E+01  0.27050035767E+02  0.00000000000E+00 0. -1.
<mgrwt>
<rscale>  0 0.78467488E+02</rscale>
<asrwt>0</asrwt>
<pdfrwt beam="1">  1        2 0.42570219E-02 0.78467488E+02</pdfrwt>
<pdfrwt beam="2">  1       -1 0.85582883E-02 0.78467488E+02</pdfrwt>
<totfact> 0.13982409E+05</totfact>
</mgrwt>
</event>
<event>
 8    1  0.2603554E-016  0.7971469E+02  0.7818608E-02  0.1329863E+00
          2   -1    0    0  501    0  0.00000000000E+00  0.00000000000E+00  0.25436181258E+03  0.25436181260E+03  0.25500000000E-02 0. -1.
         -1   -1    0    0    0  501 -0.00000000000E+00 -0.00000000000E+00 -0.62454642486E+01  0.62454662822E+01  0.50400000000E-02 0.  1.
         24    2    1    2    0    0  0.35527136788E-14  0.00000000000E+00  0.24811634833E+03  0.26060727888E+03  0.79714688066E+02 0.  0.
         66    2    3    3    0    0 -0.26798518726E+02 -0.21700195735E+02  0.18932000138E+03  0.19244511430E+03  0.19999986273E+01 0.  0.
        -13    1    3    3    0    0  0.26798518726E+02  0.21700195735E+02  0.58796346959E+02  0.68162164583E+02  0.10566000000E+00 0.  1.
         13    1    4    4    0    0 -0.16495741141E+02 -0.12788477802E+02  0.11328385953E+03  0.11519070551E+03  0.10566000000E+00 0. -1.
        -13    1    4    4    0    0 -0.47138392915E+01 -0.43740720969E+01  0.38649156840E+02  0.39180623733E+02  0.10566000000E+00 0.  1.
        -14    1    4    4    0    0 -0.55889382938E+01 -0.45376458368E+01  0.37386985002E+02  0.38073785057E+02  0.00000000000E+00 0.  1.
<mgrwt>
<rscale>  0 0.79714688E+02</rscale>
<asrwt>0</asrwt>
<pdfrwt beam="1">  1        2 0.39132586E-01 0.79714688E+02</pdfrwt>
<pdfrwt beam="2">  1       -1 0.96084082E-03 0.79714688E+02</pdfrwt>
<totfact> 0.24243360E+05</totfact>
</mgrwt>
</event>
<event>
 8    1  0.2603554E-016  0.8016324E+02  0.7818608E-02  0.1328589E+00
          2   -1    0    0  501    0  0.00000000000E+00  0.00000000000E+00  0.63573690810E+02  0.63573690861E+02  0.25500000000E-02 0. -1.
         -1   -1    0    0    0  501 -0.00000000000E+00 -0.00000000000E+00 -0.25270455695E+02  0.25270456198E+02  0.50400000000E-02 0.  1.
         24    2    1    2    0    0  0.00000000000E+00  0.00000000000E+00  0.38303235115E+02  0.88844147059E+02  0.80163237499E+02 0.  0.
         66    2    3    3    0    0  0.20184618074E+02 -0.34019574459E+02  0.12173281052E+02  0.41435962992E+02  0.20000010846E+01 0.  0.
        -13    1    3    3    0    0 -0.20184618074E+02  0.34019574459E+02  0.26129954063E+02  0.47408184067E+02  0.10566000000E+00 0.  1.
         13    1    4    4    0    0  0.12930766940E+02 -0.20695276909E+02  0.75276210895E+01  0.25537726275E+02  0.10566000000E+00 0. -1.
        -13    1    4    4    0    0  0.23760974988E+01 -0.53750574130E+01  0.17684247934E+01  0.61380429944E+01  0.10566000000E+00 0.  1.
        -14    1    4    4    0    0  0.48777536346E+01 -0.79492401368E+01  0.28772351689E+01  0.97601937219E+01  0.00000000000E+00 0.  1.
<mgrwt>
<rscale>  0 0.80163237E+02</rscale>
<asrwt>0</asrwt>
<pdfrwt beam="1">  1        2 0.97805676E-02 0.80163237E+02</pdfrwt>
<pdfrwt beam="2">  1       -1 0.38877626E-02 0.80163237E+02</pdfrwt>
<totfact> 0.15690644E+05</totfact>
</mgrwt>
</event>
<event>
 8    1  0.2603554E-016  0.7995353E+02  0.7818608E-02  0.1329183E+00
          2   -1    0    0  501    0  0.00000000000E+00  0.00000000000E+00  0.26143399141E+03  0.26143399143E+03  0.25500000000E-02 0. -1.
         -1   -1    0    0    0  501 -0.00000000000E+00 -0.00000000000E+00 -0.61129832790E+01  0.61129853567E+01  0.50400000000E-02 0.  1.
         24    2    1    2    0    0  0.00000000000E+00  0.00000000000E+00  0.25532100813E+03  0.26754697678E+03  0.79953533948E+02 0.  0.
         66    2    3    3    0    0 -0.35969097943E+01  0.35704399923E+02  0.18650479726E+03  0.18993625603E+03  0.20000040962E+01 0.  0.
        -13    1    3    3    0    0  0.35969097943E+01 -0.35704399923E+02  0.68816210870E+02  0.77610720757E+02  0.10566000000E+00 0.  1.
         13    1    4    4    0    0 -0.83166333846E+00  0.13773868242E+02  0.71222150231E+02  0.72546653663E+02  0.10566000000E+00 0. -1.
        -13    1    4    4    0    0 -0.14916054847E+01  0.75817261965E+01  0.38747002590E+02  0.39510110514E+02  0.10566000000E+00 0.  1.
        -14    1    4    4    0    0 -0.12736409711E+01  0.14348805485E+02  0.76535644443E+02  0.77879491848E+02  0.00000000000E+00 0.  1.
<mgrwt>
<rscale>  0 0.79953534E+02</rscale>
<asrwt>0</asrwt>
<pdfrwt beam="1">  1        2 0.40220615E-01 0.79953534E+02</pdfrwt>
<pdfrwt beam="2">  1       -1 0.94045912E-03 0.79953534E+02</pdfrwt>
<totfact> 0.24292450E+05</totfact>
</mgrwt>
</event>
<event>
 8    1  0.2603554E-016  0.7979736E+02  0.7818608E-02  0.1329627E+00
          2   -1    0    0  501    0  0.00000000000E+00  0.00000000000E+00  0.12907136674E+03  0.12907136677E+03  0.25500000000E-02 0. -1.
         -1   -1    0    0    0  501 -0.00000000000E+00 -0.00000000000E+00 -0.12333520991E+02  0.12333522020E+02  0.50400000000E-02 0.  1.
         24    2    1    2    0    0 -0.35527136788E-14 -0.17763568394E-14  0.11673784575E+03  0.14140488879E+03  0.79797355485E+02 0.  0.
         66    2    3    3    0    0 -0.21838586405E+02 -0.15759040653E+02  0.11051183653E+03  0.11376351449E+03  0.19999992874E+01 0.  0.
        -13    1    3    3    0    0  0.21838586405E+02  0.15759040653E+02  0.62260092266E+01  0.27641374304E+02  0.10566000000E+00 0.  1.
         13    1    4    4    0    0 -0.13938526333E+02 -0.96752182171E+01  0.67776446557E+02  0.69868091685E+02  0.10566000000E+00 0. -1.
        -13    1    4    4    0    0 -0.50099187956E+00 -0.21910739527E+00  0.17438474274E+01  0.18306197856E+01  0.10566000000E+00 0.  1.
         14    1    4    4    0    0 -0.73990681922E+01 -0.58647150410E+01  0.40991542543E+02  0.42064803015E+02  0.00000000000E+00 0. -1.
<mgrwt>
<rscale>  0 0.79797355E+02</rscale>
<asrwt>0</asrwt>
<pdfrwt beam="1">  1        2 0.19857134E-01 0.79797355E+02</pdfrwt>
<pdfrwt beam="2">  1       -1 0.18974648E-02 0.79797355E+02</pdfrwt>
<totfact> 0.19233752E+05</totfact>
</mgrwt>
</event>
<event>
 8    1  0.2603554E-016  0.8382318E+02  0.7818608E-02  0.1318539E+00
          2   -1    0    0  501    0  0.00000000000E+00  0.00000000000E+00  0.15991206199E+03  0.15991206201E+03  0.25500000000E-02 0. -1.
         -1   -1    0    0    0  501 -0.00000000000E+00 -0.00000000000E+00 -0.10984670299E+02  0.10984671455E+02  0.50400000000E-02 0.  1.
         24    2    1    2    0    0 -0.88817841970E-15  0.00000000000E+00  0.14892739169E+03  0.17089673347E+03  0.83823180048E+02 0.  0.
         66    2    3    3    0    0 -0.54049051619E+01  0.27323021350E+02  0.13829119928E+03  0.14108230326E+03  0.19999996039E+01 0.  0.
        -13    1    3    3    0    0  0.54049051619E+01 -0.27323021350E+02  0.10636192408E+02  0.29814430206E+02  0.10566000000E+00 0.  1.
         13    1    4    4    0    0 -0.80239301158E+00  0.43123232375E+01  0.20155162379E+02  0.20627207780E+02  0.10566000000E+00 0. -1.
        -13    1    4    4    0    0 -0.24681372214E+01  0.83746403895E+01  0.44092524817E+02  0.44948728700E+02  0.10566000000E+00 0.  1.
        -14    1    4    4    0    0 -0.21343749289E+01  0.14636057723E+02  0.74043512088E+02  0.75506366780E+02  0.00000000000E+00 0.  1.
<mgrwt>
<rscale>  0 0.83823180E+02</rscale>
<asrwt>0</asrwt>
<pdfrwt beam="1">  1        2 0.24601855E-01 0.83823180E+02</pdfrwt>
<pdfrwt beam="2">  1       -1 0.16899494E-02 0.83823180E+02</pdfrwt>
<totfact> 0.18065755E+05</totfact>
</mgrwt>
</event>
<event>
 8    1  0.2603554E-016  0.8034072E+02  0.7818608E-02  0.1328087E+00
          2   -1    0    0  501    0  0.00000000000E+00  0.00000000000E+00  0.48328944145E+03  0.48328944145E+03  0.25500000000E-02 0. -1.
         -1   -1    0    0    0  501 -0.00000000000E+00 -0.00000000000E+00 -0.33389040241E+01  0.33389078280E+01  0.50400000000E-02 0.  1.
         24    2    1    2    0    0  0.35527136788E-14  0.00000000000E+00  0.47995053742E+03  0.48662834928E+03  0.80340724120E+02 0.  0.
         66    2    3    3    0    0 -0.31351551633E+02  0.19116661569E+02  0.33840601256E+03  0.34039829005E+03  0.19999987253E+01 0.  0.
        -13    1    3    3    0    0  0.31351551633E+02 -0.19116661569E+02  0.14154452487E+03  0.14623005923E+03  0.10566000000E+00 0.  1.
         13    1    4    4    0    0 -0.15708306292E+02  0.93804077571E+01  0.17185189318E+03  0.17282310983E+03  0.10566000000E+00 0. -1.
        -13    1    4    4    0    0 -0.76854836095E+01  0.49466042715E+01  0.88281015048E+02  0.88752939861E+02  0.10566000000E+00 0.  1.
         14    1    4    4    0    0 -0.79577617324E+01  0.47896495400E+01  0.78273104325E+02  0.78822240359E+02  0.00000000000E+00 0. -1.
<mgrwt>
<rscale>  0 0.80340724E+02</rscale>
<asrwt>0</asrwt>
<pdfrwt beam="1">  1        2 0.74352165E-01 0.80340724E+02</pdfrwt>
<pdfrwt beam="2">  1       -1 0.51367823E-03 0.80340724E+02</pdfrwt>
<totfact> 0.29788226E+05</totfact>
</mgrwt>
</event>
<event>
 8    1  0.2603554E-016  0.7661963E+02  0.7818608E-02  0.1338928E+00
          2   -1    0    0  501    0  0.00000000000E+00  0.00000000000E+00  0.24505997549E+03  0.24505997551E+03  0.25500000000E-02 0. -1.
         -1   -1    0    0    0  501 -0.00000000000E+00 -0.00000000000E+00 -0.59889081705E+01  0.59889102912E+01  0.50400000000E-02 0.  1.
         24    2    1    2    0    0 -0.17763568394E-14  0.00000000000E+00  0.23907106732E+03  0.25104888580E+03  0.76619630836E+02 0.  0.
         66    2    3    3    0    0 -0.10317883767E+02 -0.81556832070E+00  0.24038427994E+03  0.24061530691E+03  0.19999997861E+01 0.  0.
        -13    1    3    3    0    0  0.10317883767E+02  0.81556832070E+00 -0.13132126133E+01  0.10433578893E+02  0.10566000000E+00 0.  1.
         13    1    4    4    0    0 -0.45647303253E+01 -0.11130090360E+01  0.98253236911E+02  0.98365569584E+02  0.10566000000E+00 0. -1.
        -13    1    4    4    0    0 -0.99617788206E+00  0.25866428085E+00  0.21367246663E+02  0.21392280654E+02  0.10566000000E+00 0. -1.
        -14    1    4    4    0    0 -0.47569755601E+01  0.38776434492E-01  0.12076379636E+03  0.12085745667E+03  0.00000000000E+00 0.  1.
<mgrwt>
<rscale>  0 0.76619631E+02</rscale>
<asrwt>0</asrwt>
<pdfrwt beam="1">  1        2 0.37701527E-01 0.76619631E+02</pdfrwt>
<pdfrwt beam="2">  1       -1 0.92137085E-03 0.76619631E+02</pdfrwt>
<totfact> 0.26541165E+05</totfact>
</mgrwt>
</event>
<event>
 8    1  0.2603554E-016  0.8079890E+02  0.7818608E-02  0.1326799E+00
          2   -1    0    0  501    0  0.00000000000E+00  0.00000000000E+00  0.34793705914E+03  0.34793705915E+03  0.25500000000E-02 0. -1.
         -1   -1    0    0    0  501 -0.00000000000E+00 -0.00000000000E+00 -0.46908346860E+01  0.46908373936E+01  0.50400000000E-02 0.  1.
         24    2    1    2    0    0 -0.17763568394E-14  0.00000000000E+00  0.34324622445E+03  0.35262789654E+03  0.80798903571E+02 0.  0.
         66    2    3    3    0    0 -0.12248296625E+02 -0.16672829126E+02  0.32304322728E+03  0.32371118407E+03  0.20000001397E+01 0.  0.
        -13    1    3    3    0    0  0.12248296625E+02  0.16672829126E+02  0.20202997175E+02  0.28916712471E+02  0.10566000000E+00 0.  1.
         13    1    4    4    0    0 -0.67965080852E+01 -0.10038200408E+02  0.18109046546E+03  0.18149580114E+03  0.10566000000E+00 0. -1.
        -13    1    4    4    0    0 -0.39298839789E+01 -0.51581707487E+01  0.11205098927E+03  0.11223852313E+03  0.10566000000E+00 0.  1.
        -14    1    4    4    0    0 -0.15219045607E+01 -0.14764579698E+01  0.29901772550E+02  0.29976859797E+02  0.00000000000E+00 0.  1.
<mgrwt>
<rscale>  0 0.80798904E+02</rscale>
<asrwt>0</asrwt>
<pdfrwt beam="1">  1        2 0.53528787E-01 0.80798904E+02</pdfrwt>
<pdfrwt beam="2">  1       -1 0.72166697E-03 0.80798904E+02</pdfrwt>
<totfact> 0.26202169E+05</totfact>
</mgrwt>
</event>
<event>
 8    1  0.2603554E-016  0.7911379E+02  0.7818608E-02  0.1331585E+00
         -1   -1    0    0    0  501 -0.00000000000E+00  0.00000000000E+00  0.22732923688E+01  0.22732979558E+01  0.50400000000E-02 0.  1.
          2   -1    0    0  501    0  0.00000000000E+00 -0.00000000000E+00 -0.68831715655E+03  0.68831715656E+03  0.25500000000E-02 0. -1.
         24    2    1    2    0    0  0.35527136788E-14  0.35527136788E-14 -0.68604386419E+03  0.69059045451E+03  0.79113793237E+02 0.  0.
         66    2    3    3    0    0 -0.11670733363E+02 -0.20524715992E+02 -0.62000505116E+03  0.62045768063E+03  0.19999993434E+01 0.  0.
        -13    1    3    3    0    0  0.11670733363E+02  0.20524715992E+02 -0.66038813022E+02  0.70132773887E+02  0.10566000000E+00 0.  1.
         13    1    4    4    0    0 -0.54043617145E+01 -0.95146888161E+01 -0.29162383357E+03  0.29182907309E+03  0.10566000000E+00 0. -1.
        -13    1    4    4    0    0 -0.12800654220E+01 -0.13533412253E+01 -0.54060840753E+02  0.54093028820E+02  0.10566000000E+00 0.  1.
        -14    1    4    4    0    0 -0.49863062264E+01 -0.96566859503E+01 -0.27432037684E+03  0.27453557872E+03  0.00000000000E+00 0.  1.
<mgrwt>
<rscale>  0 0.79113793E+02</rscale>
<asrwt>0</asrwt>
<pdfrwt beam="1">  1        2 0.10589478E+00 0.79113793E+02</pdfrwt>
<pdfrwt beam="2">  1       -1 0.34973827E-03 0.79113793E+02</pdfrwt>
<totfact> 0.34299917E+05</totfact>
</mgrwt>
</event>
<event>
 8    1  0.2603554E-016  0.7706422E+02  0.7818608E-02  0.1337595E+00
         -1   -1    0    0    0  501 -0.00000000000E+00  0.00000000000E+00  0.44435402475E+01  0.44435431057E+01  0.50400000000E-02 0.  1.
          2   -1    0    0  501    0  0.00000000000E+00 -0.00000000000E+00 -0.33413066831E+03  0.33413066832E+03  0.25500000000E-02 0. -1.
         24    2    1    2    0    0  0.00000000000E+00  0.00000000000E+00 -0.32968712807E+03  0.33857421143E+03  0.77064221480E+02 0.  0.
         66    2    3    3    0    0 -0.35543355548E+02 -0.86757003234E+01 -0.21769722037E+03  0.22075932065E+03  0.19999992222E+01 0.  0.
        -13    1    3    3    0    0  0.35543355548E+02  0.86757003234E+01 -0.11198990770E+03  0.11781489078E+03  0.10566000000E+00 0.  1.
         13    1    4    4    0    0 -0.15329830771E+02 -0.43865852342E+01 -0.96745482143E+02  0.98050728302E+02  0.10566000000E+00 0. -1.
        -13    1    4    4    0    0 -0.13938542152E+02 -0.33880611559E+01 -0.85214151389E+02  0.86413104774E+02  0.10566000000E+00 0. -1.
         14    1    4    4    0    0 -0.62749826248E+01 -0.90105393329E+00 -0.35737586838E+02  0.36295487572E+02  0.00000000000E+00 0. -1.
<mgrwt>
<rscale>  0 0.77064221E+02</rscale>
<asrwt>0</asrwt>
<pdfrwt beam="1">  1        2 0.51404699E-01 0.77064221E+02</pdfrwt>
<pdfrwt beam="2">  1       -1 0.68362206E-03 0.77064221E+02</pdfrwt>
<totfact> 0.29225692E+05</totfact>
</mgrwt>
</event>
<event>
 8    1  0.2603554E-016  0.7881248E+02  0.7818608E-02  0.1332456E+00
         -1   -1    0    0    0  501 -0.00000000000E+00  0.00000000000E+00  0.55973964362E+02  0.55973964589E+02  0.50400000000E-02 0.  1.
          2   -1    0    0  501    0  0.00000000000E+00 -0.00000000000E+00 -0.27742395645E+02  0.27742395762E+02  0.25500000000E-02 0. -1.
         24    2    1    2    0    0  0.44408920985E-15  0.00000000000E+00  0.28231568717E+02  0.83716360351E+02  0.78812483264E+02 0.  0.
         66    2    3    3    0    0  0.19689470461E+01 -0.37973663589E+02  0.32418118112E+01  0.38214986822E+02  0.19999987833E+01 0.  0.
        -13    1    3    3    0    0 -0.19689470461E+01  0.37973663589E+02  0.24989756906E+02  0.45501373530E+02  0.10566000000E+00 0.  1.
         13    1    4    4    0    0 -0.15593147857E+00 -0.85522584517E+00  0.24614799865E+00  0.90965858711E+00  0.10566000000E+00 0.  1.
        -13    1    4    4    0    0  0.17676207897E+01 -0.25823520855E+02  0.20402814932E+01  0.25964449257E+02  0.10566000000E+00 0. -1.
         14    1    4    4    0    0  0.35725773506E+00 -0.11294916888E+02  0.95538231933E+00  0.11340878977E+02  0.00000000000E+00 0. -1.
<mgrwt>
<rscale>  0 0.78812483E+02</rscale>
<asrwt>0</asrwt>
<pdfrwt beam="1">  1        2 0.42680609E-02 0.78812483E+02</pdfrwt>
<pdfrwt beam="2">  1       -1 0.86113792E-02 0.78812483E+02</pdfrwt>
<totfact> 0.13818265E+05</totfact>
</mgrwt>
</event>
<event>
 8    1  0.2603554E-016  0.7891353E+02  0.7818608E-02  0.1332163E+00
          2   -1    0    0  501    0  0.00000000000E+00  0.00000000000E+00  0.67400130255E+02  0.67400130303E+02  0.25500000000E-02 0. -1.
         -1   -1    0    0    0  501 -0.00000000000E+00 -0.00000000000E+00 -0.23098418219E+02  0.23098418769E+02  0.50400000000E-02 0.  1.
         24    2    1    2    0    0 -0.11102230246E-15  0.71054273576E-14  0.44301712036E+02  0.90498549072E+02  0.78913533027E+02 0.  0.
         66    2    3    3    0    0  0.59687809305E+00 -0.32603251401E+02  0.47589596726E+02  0.57724327264E+02  0.19999940684E+01 0.  0.
        -13    1    3    3    0    0 -0.59687809305E+00  0.32603251401E+02 -0.32878846899E+01  0.32774221808E+02  0.10566000000E+00 0.  1.
         13    1    4    4    0    0  0.21562920979E+00 -0.11965947166E+02  0.18680482371E+02  0.22185625373E+02  0.10566000000E+00 0. -1.
        -13    1    4    4    0    0  0.48933369530E+00 -0.85484909511E+01  0.11262491823E+02  0.14148181194E+02  0.10566000000E+00 0.  1.
         14    1    4    4    0    0 -0.10808481205E+00 -0.12088813283E+02  0.17646622531E+02  0.21390520697E+02  0.00000000000E+00 0. -1.
<mgrwt>
<rscale>  0 0.78913533E+02</rscale>
<asrwt>0</asrwt>
<pdfrwt beam="1">  1        2 0.10369251E-01 0.78913533E+02</pdfrwt>
<pdfrwt beam="2">  1       -1 0.35536028E-02 0.78913533E+02</pdfrwt>
<totfact> 0.16602454E+05</totfact>
</mgrwt>
</event>
<event>
 8    1  0.2603554E-016  0.8144601E+02  0.7818608E-02  0.1324997E+00
         -1   -1    0    0    0  501 -0.00000000000E+00  0.00000000000E+00  0.23681315853E+01  0.23681369485E+01  0.50400000000E-02 0.  1.
          2   -1    0    0  501    0  0.00000000000E+00 -0.00000000000E+00 -0.70028248322E+03  0.70028248323E+03  0.25500000000E-02 0. -1.
         24    2    1    2    0    0  0.00000000000E+00  0.00000000000E+00 -0.69791435164E+03  0.70265062018E+03  0.81446005500E+02 0.  0.
         66    2    3    3    0    0  0.32546747931E+02  0.16697011510E+02 -0.50307893143E+03  0.50441103501E+03  0.19999998643E+01 0.  0.
        -13    1    3    3    0    0 -0.32546747931E+02 -0.16697011510E+02 -0.19483542021E+03  0.19823958517E+03  0.10566000000E+00 0.  1.
         13    1    4    4    0    0  0.14660686136E+02  0.85784010326E+01 -0.23516105372E+03  0.23577374119E+03  0.10566000000E+00 0. -1.
        -13    1    4    4    0    0  0.35588899475E+01  0.14662145570E+01 -0.53032798963E+02  0.53172402736E+02  0.10566000000E+00 0.  1.
         14    1    4    4    0    0  0.14327171848E+02  0.66523959208E+01 -0.21488507875E+03  0.21546489109E+03  0.00000000000E+00 0. -1.
<mgrwt>
<rscale>  0 0.81446006E+02</rscale>
<asrwt>0</asrwt>
<pdfrwt beam="1">  1        2 0.10773560E+00 0.81446006E+02</pdfrwt>
<pdfrwt beam="2">  1       -1 0.36432891E-03 0.81446006E+02</pdfrwt>
<totfact> 0.31931292E+05</totfact>
</mgrwt>
</event>
<event>
 8    1  0.2603554E-016  0.7931204E+02  0.7818608E-02  0.1331015E+00
         -1   -1    0    0    0  501 -0.00000000000E+00  0.00000000000E+00  0.23618435438E+01  0.23618489213E+01  0.50400000000E-02 0.  1.
          2   -1    0    0  501    0  0.00000000000E+00 -0.00000000000E+00 -0.66583508038E+03  0.66583508039E+03  0.25500000000E-02 0. -1.
         24    2    1    2    0    0 -0.11102230246E-15  0.00000000000E+00 -0.66347323684E+03  0.66819692931E+03  0.79312044081E+02 0.  0.
         66    2    3    3    0    0  0.71028299489E+00 -0.25630368517E+02 -0.58653754076E+03  0.58710110459E+03  0.19999982760E+01 0.  0.
        -13    1    3    3    0    0 -0.71028299489E+00  0.25630368517E+02 -0.76935696078E+02  0.81095824722E+02  0.10566000000E+00 0.  1.
         13    1    4    4    0    0  0.19503031455E+00 -0.95033400456E+01 -0.20783957576E+03  0.20805684782E+03  0.10566000000E+00 0. -1.
        -13    1    4    4    0    0  0.75485555553E+00 -0.12179326890E+02 -0.27397380084E+03  0.27424543847E+03  0.10566000000E+00 0.  1.
        -14    1    4    4    0    0 -0.23960287519E+00 -0.39477015820E+01 -0.10472416417E+03  0.10479881831E+03  0.00000000000E+00 0.  1.
<mgrwt>
<rscale>  0 0.79312044E+02</rscale>
<asrwt>0</asrwt>
<pdfrwt beam="1">  1        2 0.10243602E+00 0.79312044E+02</pdfrwt>
<pdfrwt beam="2">  1       -1 0.36336149E-03 0.79312044E+02</pdfrwt>
<totfact> 0.33806447E+05</totfact>
</mgrwt>
</event>
<event>
 8    1  0.2603554E-016  0.7868787E+02  0.7818608E-02  0.1332817E+00
         -1   -1    0    0    0  501 -0.00000000000E+00  0.00000000000E+00  0.98974469385E+02  0.98974469514E+02  0.50400000000E-02 0.  1.
          2   -1    0    0  501    0  0.00000000000E+00 -0.00000000000E+00 -0.15639842507E+02  0.15639842715E+02  0.25500000000E-02 0. -1.
         24    2    1    2    0    0 -0.17763568394E-14  0.17763568394E-14  0.83334626878E+02  0.11461431223E+03  0.78687867747E+02 0.  0.
         66    2    3    3    0    0 -0.14398117129E+02  0.10427383570E+02 -0.93877034136E+01  0.20203095714E+02  0.19999990162E+01 0.  0.
        -13    1    3    3    0    0  0.14398117129E+02 -0.10427383570E+02  0.92722330292E+02  0.94411216515E+02  0.10566000000E+00 0.  1.
         13    1    4    4    0    0 -0.27969997598E+01  0.15771626141E+01 -0.24541498427E+01  0.40428535781E+01  0.10566000000E+00 0. -1.
        -13    1    4    4    0    0 -0.76834154852E+01  0.59323632552E+01 -0.48043907923E+01  0.10831488459E+02  0.10566000000E+00 0.  1.
         14    1    4    4    0    0 -0.39177018837E+01  0.29178577005E+01 -0.21291627785E+01  0.53287536767E+01  0.00000000000E+00 0. -1.
<mgrwt>
<rscale>  0 0.78687868E+02</rscale>
<asrwt>0</asrwt>
<pdfrwt beam="1">  1        2 0.24061296E-02 0.78687868E+02</pdfrwt>
<pdfrwt beam="2">  1       -1 0.15226842E-01 0.78687868E+02</pdfrwt>
<totfact> 0.12378878E+05</totfact>
</mgrwt>
</event>
<event>
 8    1  0.2603554E-016  0.7777125E+02  0.7818608E-02  0.1335498E+00
         -1   -1    0    0    0  501 -0.00000000000E+00  0.00000000000E+00  0.81640523953E+02  0.81640524109E+02  0.50400000000E-02 0.  1.
          2   -1    0    0  501    0  0.00000000000E+00 -0.00000000000E+00 -0.18521337113E+02  0.18521337289E+02  0.25500000000E-02 0. -1.
         24    2    1    2    0    0  0.17763568394E-14  0.00000000000E+00  0.63119186840E+02  0.10016186140E+03  0.77771246173E+02 0.  0.
         66    2    3    3    0    0 -0.91840054885E+01  0.29895082570E+02  0.18740574157E+01  0.31393853131E+02  0.20000011345E+01 0.  0.
        -13    1    3    3    0    0  0.91840054885E+01 -0.29895082570E+02  0.61245129424E+02  0.68768008266E+02  0.10566000000E+00 0.  1.
         13    1    4    4    0    0 -0.61045617314E+01  0.18309539499E+02  0.87741888852E+00  0.19320609166E+02  0.10566000000E+00 0. -1.
        -13    1    4    4    0    0 -0.23636468621E+01  0.69676160272E+01  0.55122772340E+00  0.73789915050E+01  0.10566000000E+00 0.  1.
         14    1    4    4    0    0 -0.71579689494E+00  0.46179270439E+01  0.44541080375E+00  0.46942524604E+01  0.00000000000E+00 0. -1.
<mgrwt>
<rscale>  0 0.77771246E+02</rscale>
<asrwt>0</asrwt>
<pdfrwt beam="1">  1        2 0.28494365E-02 0.77771246E+02</pdfrwt>
<pdfrwt beam="2">  1       -1 0.12560081E-01 0.77771246E+02</pdfrwt>
<totfact> 0.13258728E+05</totfact>
</mgrwt>
</event>
<event>
 8    1  0.2603554E-016  0.8951397E+02  0.7818608E-02  0.1304033E+00
         -1   -1    0    0    0  501 -0.00000000000E+00  0.00000000000E+00  0.31254934648E+02  0.31254935054E+02  0.50400000000E-02 0.  1.
          2   -1    0    0  501    0  0.00000000000E+00 -0.00000000000E+00 -0.64091884177E+02  0.64091884227E+02  0.25500000000E-02 0. -1.
         24    2    1    2    0    0 -0.35527136788E-14  0.17763568394E-14 -0.32836949529E+02  0.95346819282E+02  0.89513969261E+02 0.  0.
         66    2    3    3    0    0 -0.26526152046E+02  0.12073829369E+02 -0.52575789835E+02  0.60146718733E+02  0.19999998742E+01 0.  0.
        -13    1    3    3    0    0  0.26526152046E+02 -0.12073829369E+02  0.19738840307E+02  0.35200100549E+02  0.10566000000E+00 0.  1.
         13    1    4    4    0    0 -0.15115529401E+02  0.67994571462E+01 -0.28498210585E+02  0.32967726903E+02  0.10566000000E+00 0. -1.
        -13    1    4    4    0    0 -0.70467606678E+01  0.28523114528E+01 -0.15165333171E+02  0.16964404227E+02  0.10566000000E+00 0.  1.
        -14    1    4    4    0    0 -0.43638619762E+01  0.24220607703E+01 -0.89122460787E+01  0.10214587603E+02  0.00000000000E+00 0.  1.
<mgrwt>
<rscale>  0 0.89513969E+02</rscale>
<asrwt>0</asrwt>
<pdfrwt beam="1">  1        2 0.98602899E-02 0.89513969E+02</pdfrwt>
<pdfrwt beam="2">  1       -1 0.48084515E-02 0.89513969E+02</pdfrwt>
<totfact> 0.11624633E+05</totfact>
</mgrwt>
</event>
<event>
 8    1  0.2603554E-016  0.7688209E+02  0.7818608E-02  0.1338140E+00
          2   -1    0    0  501    0  0.00000000000E+00  0.00000000000E+00  0.37338277686E+02  0.37338277773E+02  0.25500000000E-02 0. -1.
         -1   -1    0    0    0  501 -0.00000000000E+00 -0.00000000000E+00 -0.39576385605E+02  0.39576385926E+02  0.50400000000E-02 0.  1.
         24    2    1    2    0    0  0.00000000000E+00  0.00000000000E+00 -0.22381079191E+01  0.76914663699E+02  0.76882093916E+02 0.  0.
         66    2    3    3    0    0 -0.20816743159E+02  0.28098374229E+02  0.14788303533E+02  0.38020380302E+02  0.19999917074E+01 0.  0.
        -13    1    3    3    0    0  0.20816743159E+02 -0.28098374229E+02 -0.17026411452E+02  0.38894283398E+02  0.10566000000E+00 0.  1.
         13    1    4    4    0    0 -0.42634179299E+01  0.62035125969E+01  0.35852587982E+01  0.83381979870E+01  0.10566000000E+00 0. -1.
        -13    1    4    4    0    0 -0.13785883489E+02  0.18224192954E+02  0.87296375499E+01  0.24462001721E+02  0.10566000000E+00 0.  1.
        -14    1    4    4    0    0 -0.27674417403E+01  0.36706686774E+01  0.24734071851E+01  0.52201805935E+01  0.00000000000E+00 0.  1.
<mgrwt>
<rscale>  0 0.76882094E+02</rscale>
<asrwt>0</asrwt>
<pdfrwt beam="1">  1        2 0.57443504E-02 0.76882094E+02</pdfrwt>
<pdfrwt beam="2">  1       -1 0.60886748E-02 0.76882094E+02</pdfrwt>
<totfact> 0.15689072E+05</totfact>
</mgrwt>
</event>
<event>
 8    1  0.2603554E-016  0.8391170E+02  0.7818608E-02  0.1318303E+00
         -1   -1    0    0    0  501 -0.00000000000E+00  0.00000000000E+00  0.37488807843E+02  0.37488808181E+02  0.50400000000E-02 0.  1.
          2   -1    0    0  501    0  0.00000000000E+00 -0.00000000000E+00 -0.46955164213E+02  0.46955164282E+02  0.25500000000E-02 0. -1.
         24    2    1    2    0    0  0.00000000000E+00 -0.35527136788E-14 -0.94663563702E+01  0.84443972464E+02  0.83911695147E+02 0.  0.
         66    2    3    3    0    0 -0.33561518693E+02 -0.20267631350E+02 -0.19700821041E+02  0.43923510365E+02  0.19999988846E+01 0.  0.
        -13    1    3    3    0    0  0.33561518693E+02  0.20267631350E+02  0.10234464671E+02  0.40520462099E+02  0.10566000000E+00 0.  1.
         13    1    4    4    0    0 -0.34500918000E+01 -0.15839708562E+01 -0.21778748134E+01  0.43779447050E+01  0.10566000000E+00 0. -1.
        -13    1    4    4    0    0 -0.47869226490E+01 -0.29950425615E+01 -0.31946523287E+01  0.64885958365E+01  0.10566000000E+00 0.  1.
         14    1    4    4    0    0 -0.25324504244E+02 -0.15688617932E+02 -0.14328293899E+02  0.33056969823E+02  0.00000000000E+00 0. -1.
<mgrwt>
<rscale>  0 0.83911695E+02</rscale>
<asrwt>0</asrwt>
<pdfrwt beam="1">  1        2 0.72238714E-02 0.83911695E+02</pdfrwt>
<pdfrwt beam="2">  1       -1 0.57675090E-02 0.83911695E+02</pdfrwt>
<totfact> 0.12924744E+05</totfact>
</mgrwt>
</event>
<event>
 8    1  0.2603554E-016  0.7976124E+02  0.7818608E-02  0.1329730E+00
          2   -1    0    0  501    0  0.00000000000E+00  0.00000000000E+00  0.32126727884E+03  0.32126727885E+03  0.25500000000E-02 0. -1.
         -1   -1    0    0    0  501 -0.00000000000E+00 -0.00000000000E+00 -0.49505927911E+01  0.49505953566E+01  0.50400000000E-02 0.  1.
         24    2    1    2    0    0  0.00000000000E+00 -0.17763568394E-14  0.31631668605E+03  0.32621787421E+03  0.79761241083E+02 0.  0.
         66    2    3    3    0    0 -0.23950785095E+02 -0.14436114952E+02  0.27440124516E+03  0.27582981143E+03  0.20000015162E+01 0.  0.
        -13    1    3    3    0    0  0.23950785095E+02  0.14436114952E+02  0.41915440891E+02  0.50388062780E+02  0.10566000000E+00 0.  1.
         13    1    4    4    0    0 -0.52045838208E+01 -0.33247159939E+01  0.67201085716E+02  0.67484357556E+02  0.10566000000E+00 0. -1.
        -13    1    4    4    0    0 -0.34490083451E+01 -0.24901432030E+01  0.41213674090E+02  0.41432771664E+02  0.10566000000E+00 0.  1.
         14    1    4    4    0    0 -0.15297192929E+02 -0.86212557552E+01  0.16598648535E+03  0.16691268221E+03  0.00000000000E+00 0. -1.
<mgrwt>
<rscale>  0 0.79761241E+02</rscale>
<asrwt>0</asrwt>
<pdfrwt beam="1">  1        2 0.49425763E-01 0.79761241E+02</pdfrwt>
<pdfrwt beam="2">  1       -1 0.76162943E-03 0.79761241E+02</pdfrwt>
<totfact> 0.26338850E+05</totfact>
</mgrwt>
</event>
<event>
 8    1  0.2603554E-016  0.7985640E+02  0.7818608E-02  0.1329459E+00
          2   -1    0    0  501    0  0.00000000000E+00  0.00000000000E+00  0.98674128224E+02  0.98674128257E+02  0.25500000000E-02 0. -1.
         -1   -1    0    0    0  501 -0.00000000000E+00 -0.00000000000E+00 -0.16156831146E+02  0.16156831932E+02  0.50400000000E-02 0.  1.
         24    2    1    2    0    0 -0.17763568394E-14 -0.35527136788E-14  0.82517297078E+02  0.11483096019E+03  0.79856403004E+02 0.  0.
         66    2    3    3    0    0 -0.15529822147E+02 -0.31244339672E+02  0.13443070696E+02  0.37444630312E+02  0.20000130029E+01 0.  0.
        -13    1    3    3    0    0  0.15529822147E+02  0.31244339672E+02  0.69074226382E+02  0.77386329876E+02  0.10566000000E+00 0.  1.
         13    1    4    4    0    0 -0.61871393461E+01 -0.10908000271E+02  0.47769728772E+01  0.13419977538E+02  0.10566000000E+00 0. -1.
        -13    1    4    4    0    0 -0.58452288669E+01 -0.13957081341E+02  0.58222102405E+01  0.16213454789E+02  0.10566000000E+00 0.  1.
        -14    1    4    4    0    0 -0.34974539338E+01 -0.63792580590E+01  0.28438875787E+01  0.78111979851E+01  0.00000000000E+00 0.  1.
<mgrwt>
<rscale>  0 0.79856403E+02</rscale>
<asrwt>0</asrwt>
<pdfrwt beam="1">  1        2 0.15180635E-01 0.79856403E+02</pdfrwt>
<pdfrwt beam="2">  1       -1 0.24856664E-02 0.79856403E+02</pdfrwt>
<totfact> 0.17745136E+05</totfact>
</mgrwt>
</event>
<event>
 8    1  0.2603554E-016  0.8167403E+02  0.7818608E-02  0.1324367E+00
         -1   -1    0    0    0  501 -0.00000000000E+00  0.00000000000E+00  0.57001920360E+02  0.57001920583E+02  0.50400000000E-02 0.  1.
          2   -1    0    0  501    0  0.00000000000E+00 -0.00000000000E+00 -0.29256237799E+02  0.29256237910E+02  0.25500000000E-02 0. -1.
         24    2    1    2    0    0  0.00000000000E+00  0.00000000000E+00  0.27745682561E+02  0.86258158493E+02  0.81674028955E+02 0.  0.
         66    2    3    3    0    0  0.92679768217E+01 -0.39040693813E+02  0.21755171925E+02  0.45687620544E+02  0.19999994383E+01 0.  0.
        -13    1    3    3    0    0 -0.92679768217E+01  0.39040693813E+02  0.59905106367E+01  0.40570537949E+02  0.10566000000E+00 0.  1.
         13    1    4    4    0    0  0.33818838262E+01 -0.13597439719E+02  0.76332803041E+01  0.15956366672E+02  0.10566000000E+00 0. -1.
        -13    1    4    4    0    0  0.23566198873E+01 -0.12013628041E+02  0.58553844101E+01  0.13571205054E+02  0.10566000000E+00 0.  1.
        -14    1    4    4    0    0  0.35294731082E+01 -0.13429626052E+02  0.82665072104E+01  0.16160048817E+02  0.00000000000E+00 0.  1.
<mgrwt>
<rscale>  0 0.81674029E+02</rscale>
<asrwt>0</asrwt>
<pdfrwt beam="1">  1        2 0.45009597E-02 0.81674029E+02</pdfrwt>
<pdfrwt beam="2">  1       -1 0.87695263E-02 0.81674029E+02</pdfrwt>
<totfact> 0.12631443E+05</totfact>
</mgrwt>
</event>
<event>
 8    1  0.2603554E-016  0.7939147E+02  0.7818608E-02  0.1330787E+00
         -1   -1    0    0    0  501 -0.00000000000E+00  0.00000000000E+00  0.10743948978E+02  0.10743950160E+02  0.50400000000E-02 0.  1.
          2   -1    0    0  501    0  0.00000000000E+00 -0.00000000000E+00 -0.14666405994E+03  0.14666405996E+03  0.25500000000E-02 0. -1.
         24    2    1    2    0    0  0.00000000000E+00  0.00000000000E+00 -0.13592011096E+03  0.15740801012E+03  0.79391467342E+02 0.  0.
         66    2    3    3    0    0 -0.17226473063E+02 -0.33372683892E+02 -0.93336345514E+02  0.10062882689E+03  0.20000009209E+01 0.  0.
        -13    1    3    3    0    0  0.17226473063E+02  0.33372683892E+02 -0.42583765446E+02  0.56779183227E+02  0.10566000000E+00 0.  1.
         13    1    4    4    0    0 -0.14348828950E+01 -0.27098822704E+01 -0.69718976741E+01  0.76171433002E+01  0.10566000000E+00 0. -1.
        -13    1    4    4    0    0 -0.66132850082E+01 -0.14149811743E+02 -0.40620024589E+02  0.43519538976E+02  0.10566000000E+00 0.  1.
        -14    1    4    4    0    0 -0.91783051603E+01 -0.16512989878E+02 -0.45744423251E+02  0.49492144618E+02  0.00000000000E+00 0.  1.
<mgrwt>
<rscale>  0 0.79391467E+02</rscale>
<asrwt>0</asrwt>
<pdfrwt beam="1">  1        2 0.22563700E-01 0.79391467E+02</pdfrwt>
<pdfrwt beam="2">  1       -1 0.16529154E-02 0.79391467E+02</pdfrwt>
<totfact> 0.20292905E+05</totfact>
</mgrwt>
</event>
<event>
 8    1  0.2603554E-016  0.7710705E+02  0.7818608E-02  0.1337468E+00
          2   -1    0    0  501    0  0.00000000000E+00  0.00000000000E+00  0.10670221110E+04  0.10670221110E+04  0.25500000000E-02 0. -1.
         -1   -1    0    0    0  501 -0.00000000000E+00 -0.00000000000E+00 -0.13930072308E+01  0.13930163483E+01  0.50400000000E-02 0.  1.
         24    2    1    2    0    0  0.00000000000E+00  0.00000000000E+00  0.10656291037E+04  0.10684151273E+04  0.77107052551E+02 0.  0.
         66    2    3    3    0    0 -0.12355534560E+02 -0.81525281061E+01  0.10260432867E+04  0.10261520108E+04  0.20000006488E+01 0.  0.
        -13    1    3    3    0    0  0.12355534560E+02  0.81525281061E+01  0.39585817003E+02  0.42263116551E+02  0.10566000000E+00 0.  1.
         13    1    4    4    0    0 -0.76741822472E+01 -0.53872948915E+01  0.61508119974E+03  0.61515267167E+03  0.10566000000E+00 0. -1.
        -13    1    4    4    0    0 -0.22633655058E+01 -0.13737503309E+01  0.16266787288E+03  0.16268945277E+03  0.10566000000E+00 0.  1.
         14    1    4    4    0    0 -0.24179868069E+01 -0.13914828837E+01  0.24829421411E+03  0.24830988632E+03  0.00000000000E+00 0. -1.
<mgrwt>
<rscale>  0 0.77107053E+02</rscale>
<asrwt>0</asrwt>
<pdfrwt beam="1">  1        2 0.16415760E+00 0.77107053E+02</pdfrwt>
<pdfrwt beam="2">  1       -1 0.21430905E-03 0.77107053E+02</pdfrwt>
<totfact> 0.38804546E+05</totfact>
</mgrwt>
</event>
<event>
 8    1  0.2603554E-016  0.7914587E+02  0.7818608E-02  0.1331493E+00
          2   -1    0    0  501    0  0.00000000000E+00  0.00000000000E+00  0.69722791905E+03  0.69722791905E+03  0.25500000000E-02 0. -1.
         -1   -1    0    0    0  501 -0.00000000000E+00 -0.00000000000E+00 -0.22460591304E+01  0.22460647851E+01  0.50400000000E-02 0.  1.
         24    2    1    2    0    0 -0.44408920985E-15  0.00000000000E+00  0.69498185992E+03  0.69947398384E+03  0.79145868188E+02 0.  0.
         66    2    3    3    0    0  0.30804646940E+01  0.24684080407E+02  0.61942466721E+03  0.61992718238E+03  0.20000042845E+01 0.  0.
        -13    1    3    3    0    0 -0.30804646940E+01 -0.24684080407E+02  0.75557192705E+02  0.79546801455E+02  0.10566000000E+00 0.  1.
         13    1    4    4    0    0  0.23925875627E+01  0.16201910046E+02  0.42249642887E+03  0.42281375325E+03  0.10566000000E+00 0. -1.
        -13    1    4    4    0    0  0.52044795410E+00  0.73312782193E+01  0.16395575310E+03  0.16412043944E+03  0.10566000000E+00 0.  1.
        -14    1    4    4    0    0  0.16742917718E+00  0.11508921415E+01  0.32972485244E+02  0.32992989686E+02  0.00000000000E+00 0.  1.
<mgrwt>
<rscale>  0 0.79145868E+02</rscale>
<asrwt>0</asrwt>
<pdfrwt beam="1">  1        2 0.10726599E+00 0.79145868E+02</pdfrwt>
<pdfrwt beam="2">  1       -1 0.34554749E-03 0.79145868E+02</pdfrwt>
<totfact> 0.34366462E+05</totfact>
</mgrwt>
</event>
<event>
 8    1  0.2603554E-016  0.8066963E+02  0.7818608E-02  0.1327162E+00
          2   -1    0    0  501    0  0.00000000000E+00  0.00000000000E+00  0.50705034223E+03  0.50705034224E+03  0.25500000000E-02 0. -1.
         -1   -1    0    0    0  501 -0.00000000000E+00 -0.00000000000E+00 -0.32085500169E+01  0.32085539753E+01  0.50400000000E-02 0.  1.
         24    2    1    2    0    0  0.35527136788E-14  0.00000000000E+00  0.50384179222E+03  0.51025889622E+03  0.80669632345E+02 0.  0.
         66    2    3    3    0    0 -0.13947944661E+02 -0.25801563046E+02  0.42698151408E+03  0.42799238216E+03  0.20000008479E+01 0.  0.
        -13    1    3    3    0    0  0.13947944661E+02  0.25801563046E+02  0.76860278138E+02  0.82266514058E+02  0.10566000000E+00 0.  1.
         13    1    4    4    0    0 -0.45592871867E+01 -0.88058096074E+01  0.13536325199E+03  0.13572601274E+03  0.10566000000E+00 0. -1.
        -13    1    4    4    0    0 -0.85513100810E-01 -0.34308689962E+00  0.44512568607E+01  0.44665280461E+01  0.10566000000E+00 0. -1.
        -14    1    4    4    0    0 -0.93031443732E+01 -0.16652666539E+02  0.28716700523E+03  0.28779984137E+03  0.00000000000E+00 0.  1.
<mgrwt>
<rscale>  0 0.80669632E+02</rscale>
<asrwt>0</asrwt>
<pdfrwt beam="1">  1        2 0.78007758E-01 0.80669632E+02</pdfrwt>
<pdfrwt beam="2">  1       -1 0.49362330E-03 0.80669632E+02</pdfrwt>
<totfact> 0.29929461E+05</totfact>
</mgrwt>
</event>
<event>
 8    1  0.2603554E-016  0.7956397E+02  0.7818608E-02  0.1330293E+00
         -1   -1    0    0    0  501 -0.00000000000E+00  0.00000000000E+00  0.27255244683E+02  0.27255245149E+02  0.50400000000E-02 0.  1.
          2   -1    0    0  501    0  0.00000000000E+00 -0.00000000000E+00 -0.58066113322E+02  0.58066113378E+02  0.25500000000E-02 0. -1.
         24    2    1    2    0    0  0.00000000000E+00 -0.35527136788E-14 -0.30810868639E+02  0.85321358526E+02  0.79563965427E+02 0.  0.
         66    2    3    3    0    0 -0.26673430966E+02 -0.24935621021E+02 -0.32280365088E+02  0.48777854329E+02  0.19999968686E+01 0.  0.
        -13    1    3    3    0    0  0.26673430966E+02  0.24935621021E+02  0.14694964496E+01  0.36543504198E+02  0.10566000000E+00 0.  1.
         13    1    4    4    0    0 -0.11402088070E+02 -0.11010328836E+02 -0.15038210875E+02  0.21849345614E+02  0.10566000000E+00 0. -1.
        -13    1    4    4    0    0 -0.95130477215E+01 -0.85750997736E+01 -0.11204317226E+02  0.17017000371E+02  0.10566000000E+00 0. -1.
         14    1    4    4    0    0 -0.57582951747E+01 -0.53501924113E+01 -0.60378369880E+01  0.99115083439E+01  0.00000000000E+00 0. -1.
<mgrwt>
<rscale>  0 0.79563965E+02</rscale>
<asrwt>0</asrwt>
<pdfrwt beam="1">  1        2 0.89332482E-02 0.79563965E+02</pdfrwt>
<pdfrwt beam="2">  1       -1 0.41931146E-02 0.79563965E+02</pdfrwt>
<totfact> 0.15681142E+05</totfact>
</mgrwt>
</event>
<event>
 8    1  0.2603554E-016  0.7319614E+02  0.7818608E-02  0.1349550E+00
         -1   -1    0    0    0  501 -0.00000000000E+00  0.00000000000E+00  0.19564459363E+02  0.19564460013E+02  0.50400000000E-02 0.  1.
          2   -1    0    0  501    0  0.00000000000E+00 -0.00000000000E+00 -0.68461825793E+02  0.68461825840E+02  0.25500000000E-02 0. -1.
         24    2    1    2    0    0 -0.17763568394E-14  0.00000000000E+00 -0.48897366429E+02  0.88026285853E+02  0.73196137585E+02 0.  0.
         66    2    3    3    0    0 -0.95514261655E+01 -0.98913055281E+01 -0.65219982564E+02  0.66683684597E+02  0.19999997651E+01 0.  0.
        -13    1    3    3    0    0  0.95514261655E+01  0.98913055281E+01  0.16322616134E+02  0.21342601255E+02  0.10566000000E+00 0.  1.
         13    1    4    4    0    0 -0.25810455298E+01 -0.34271320595E+01 -0.20590876951E+02  0.21033364159E+02  0.10566000000E+00 0. -1.
        -13    1    4    4    0    0 -0.10633763258E+01 -0.16555894993E+01 -0.81973723477E+01  0.84308850806E+01  0.10566000000E+00 0.  1.
         14    1    4    4    0    0 -0.59070043099E+01 -0.48085839693E+01 -0.36431733265E+02  0.37219435358E+02  0.00000000000E+00 0. -1.
<mgrwt>
<rscale>  0 0.73196138E+02</rscale>
<asrwt>0</asrwt>
<pdfrwt beam="1">  1        2 0.10532589E-01 0.73196138E+02</pdfrwt>
<pdfrwt beam="2">  1       -1 0.30099169E-02 0.73196138E+02</pdfrwt>
<totfact> 0.20399554E+05</totfact>
</mgrwt>
</event>
<event>
 8    1  0.2603554E-016  0.7923171E+02  0.7818608E-02  0.1331246E+00
          2   -1    0    0  501    0  0.00000000000E+00  0.00000000000E+00  0.55408644818E+03  0.55408644819E+03  0.25500000000E-02 0. -1.
         -1   -1    0    0    0  501 -0.00000000000E+00 -0.00000000000E+00 -0.28324363663E+01  0.28324408503E+01  0.50400000000E-02 0.  1.
         24    2    1    2    0    0 -0.35527136788E-14  0.35527136788E-14  0.55125401181E+03  0.55691888904E+03  0.79231707192E+02 0.  0.
         66    2    3    3    0    0 -0.15378945171E+02  0.16100867363E+02  0.50590480658E+03  0.50639848263E+03  0.20000003241E+01 0.  0.
        -13    1    3    3    0    0  0.15378945171E+02 -0.16100867363E+02  0.45349205232E+02  0.50520406408E+02  0.10566000000E+00 0.  1.
         13    1    4    4    0    0 -0.35567746185E+01  0.36873439828E+01  0.12324575579E+03  0.12335223807E+03  0.10566000000E+00 0. -1.
        -13    1    4    4    0    0 -0.68294526996E+01  0.66923947812E+01  0.19690812436E+03  0.19714017900E+03  0.10566000000E+00 0.  1.
        -14    1    4    4    0    0 -0.49927178526E+01  0.57211285991E+01  0.18575092643E+03  0.18590606556E+03  0.00000000000E+00 0.  1.
<mgrwt>
<rscale>  0 0.79231707E+02</rscale>
<asrwt>0</asrwt>
<pdfrwt beam="1">  1        2 0.85244073E-01 0.79231707E+02</pdfrwt>
<pdfrwt beam="2">  1       -1 0.43575977E-03 0.79231707E+02</pdfrwt>
<totfact> 0.32232089E+05</totfact>
</mgrwt>
</event>
<event>
 8    1  0.2603554E-016  0.7942823E+02  0.7818608E-02  0.1330682E+00
          2   -1    0    0  501    0  0.00000000000E+00  0.00000000000E+00  0.21814777547E+03  0.21814777549E+03  0.25500000000E-02 0. -1.
         -1   -1    0    0    0  501 -0.00000000000E+00 -0.00000000000E+00 -0.72300103473E+01  0.72300121040E+01  0.50400000000E-02 0.  1.
         24    2    1    2    0    0  0.17763568394E-14 -0.55511151231E-16  0.21091776512E+03  0.22537778759E+03  0.79428228573E+02 0.  0.
         66    2    3    3    0    0  0.13149316943E+02 -0.47337570592E+00  0.21177391472E+03  0.21219170490E+03  0.20000127688E+01 0.  0.
        -13    1    3    3    0    0 -0.13149316943E+02  0.47337570592E+00 -0.85614959543E+00  0.13186082693E+02  0.10566000000E+00 0.  1.
         13    1    4    4    0    0  0.51722308703E+01  0.53133290203E+00  0.90920255976E+02  0.91068866236E+02  0.10566000000E+00 0. -1.
        -13    1    4    4    0    0  0.57285675782E+01 -0.57661672471E+00  0.82182315763E+02  0.82383816139E+02  0.10566000000E+00 0.  1.
         14    1    4    4    0    0  0.22485184941E+01 -0.42809188325E+00  0.38671342981E+02  0.38739022523E+02  0.00000000000E+00 0. -1.
<mgrwt>
<rscale>  0 0.79428229E+02</rscale>
<asrwt>0</asrwt>
<pdfrwt beam="1">  1        2 0.33561193E-01 0.79428229E+02</pdfrwt>
<pdfrwt beam="2">  1       -1 0.11123095E-02 0.79428229E+02</pdfrwt>
<totfact> 0.23172984E+05</totfact>
</mgrwt>
</event>
<event>
 8    1  0.2603554E-016  0.8000550E+02  0.7818608E-02  0.1329036E+00
         -1   -1    0    0    0  501 -0.00000000000E+00  0.00000000000E+00  0.43479802486E+02  0.43479802778E+02  0.50400000000E-02 0.  1.
          2   -1    0    0  501    0  0.00000000000E+00 -0.00000000000E+00 -0.36803750321E+02  0.36803750409E+02  0.25500000000E-02 0. -1.
         24    2    1    2    0    0  0.00000000000E+00  0.00000000000E+00  0.66760521657E+01  0.80283553187E+02  0.80005495061E+02 0.  0.
         66    2    3    3    0    0 -0.44068005563E+01 -0.91967785886E+01 -0.35449306191E+02  0.36941222744E+02  0.20000002293E+01 0.  0.
        -13    1    3    3    0    0  0.44068005563E+01  0.91967785886E+01  0.42125358356E+02  0.43342330443E+02  0.10566000000E+00 0.  1.
         13    1    4    4    0    0 -0.10609415573E+01 -0.30857095887E+01 -0.10979061357E+02  0.11454176224E+02  0.10566000000E+00 0. -1.
        -13    1    4    4    0    0 -0.13417646127E+01 -0.13695345116E+01 -0.52778323774E+01  0.56162830853E+01  0.10566000000E+00 0.  1.
        -14    1    4    4    0    0 -0.20040943864E+01 -0.47415344884E+01 -0.19192412456E+02  0.19870763435E+02  0.00000000000E+00 0.  1.
<mgrwt>
<rscale>  0 0.80005495E+02</rscale>
<asrwt>0</asrwt>
<pdfrwt beam="1">  1        2 0.56621155E-02 0.80005495E+02</pdfrwt>
<pdfrwt beam="2">  1       -1 0.66892004E-02 0.80005495E+02</pdfrwt>
<totfact> 0.14012533E+05</totfact>
</mgrwt>
</event>
<event>
 8    1  0.2603554E-016  0.8009715E+02  0.7818608E-02  0.1328776E+00
         -1   -1    0    0    0  501 -0.00000000000E+00  0.00000000000E+00  0.52593748414E+02  0.52593748655E+02  0.50400000000E-02 0.  1.
          2   -1    0    0  501    0  0.00000000000E+00 -0.00000000000E+00 -0.30495795575E+02  0.30495795682E+02  0.25500000000E-02 0. -1.
         24    2    1    2    0    0  0.00000000000E+00 -0.35527136788E-14  0.22097952838E+02  0.83089544337E+02  0.80097146382E+02 0.  0.
         66    2    3    3    0    0  0.26383358636E+02  0.20607839836E+02 -0.11698030494E+02  0.35519129907E+02  0.19999990649E+01 0.  0.
        -13    1    3    3    0    0 -0.26383358636E+02 -0.20607839836E+02  0.33795983332E+02  0.47570414430E+02  0.10566000000E+00 0.  1.
         13    1    4    4    0    0  0.10403317677E+02  0.90826964903E+01 -0.43520821357E+01  0.14480199487E+02  0.10566000000E+00 0. -1.
        -13    1    4    4    0    0  0.88050706583E+01  0.64798238091E+01 -0.44184855708E+01  0.11792012749E+02  0.10566000000E+00 0.  1.
        -14    1    4    4    0    0  0.71749703003E+01  0.50453195368E+01 -0.29274627876E+01  0.92469176709E+01  0.00000000000E+00 0.  1.
<mgrwt>
<rscale>  0 0.80097146E+02</rscale>
<asrwt>0</asrwt>
<pdfrwt beam="1">  1        2 0.46916609E-02 0.80097146E+02</pdfrwt>
<pdfrwt beam="2">  1       -1 0.80913459E-02 0.80097146E+02</pdfrwt>
<totfact> 0.13453049E+05</totfact>
</mgrwt>
</event>
<event>
 8    1  0.2603554E-016  0.8150594E+02  0.7818608E-02  0.1324831E+00
         -1   -1    0    0    0  501 -0.00000000000E+00  0.00000000000E+00  0.23085509221E+03  0.23085509226E+03  0.50400000000E-02 0.  1.
          2   -1    0    0  501    0  0.00000000000E+00 -0.00000000000E+00 -0.71941420552E+01  0.71941425071E+01  0.25500000000E-02 0. -1.
         24    2    1    2    0    0  0.71054273576E-14 -0.13877787808E-16  0.22366095015E+03  0.23804923477E+03  0.81505935682E+02 0.  0.
         66    2    3    3    0    0 -0.32431534797E+02  0.63237181165E-01  0.39941345698E+02  0.51489022846E+02  0.19999822952E+01 0.  0.
        -13    1    3    3    0    0  0.32431534797E+02 -0.63237181165E-01  0.18371960445E+03  0.18656021192E+03  0.10566000000E+00 0.  1.
         13    1    4    4    0    0 -0.27183533291E+01 -0.22097145911E+00  0.26249575821E+01  0.37867980605E+01  0.10566000000E+00 0. -1.
        -13    1    4    4    0    0 -0.98284592777E+01  0.11217915935E+00  0.12331979387E+02  0.15770227505E+02  0.10566000000E+00 0.  1.
         14    1    4    4    0    0 -0.19884722190E+02  0.17202948092E+00  0.24984408729E+02  0.31931997280E+02  0.00000000000E+00 0. -1.
<mgrwt>
<rscale>  0 0.81505936E+02</rscale>
<asrwt>0</asrwt>
<pdfrwt beam="1">  1        2 0.11067914E-02 0.81505936E+02</pdfrwt>
<pdfrwt beam="2">  1       -1 0.35516159E-01 0.81505936E+02</pdfrwt>
<totfact> 0.90743559E+04</totfact>
</mgrwt>
</event>
<event>
 8    1  0.2603554E-016  0.7789118E+02  0.7818608E-02  0.1335145E+00
         -1   -1    0    0    0  501 -0.00000000000E+00  0.00000000000E+00  0.25053348813E+02  0.25053349320E+02  0.50400000000E-02 0.  1.
          2   -1    0    0  501    0  0.00000000000E+00 -0.00000000000E+00 -0.60541170083E+02  0.60541170136E+02  0.25500000000E-02 0. -1.
         24    2    1    2    0    0 -0.35527136788E-14  0.00000000000E+00 -0.35487821270E+02  0.85594519456E+02  0.77891182444E+02 0.  0.
         66    2    3    3    0    0 -0.20268337879E+02 -0.32503711448E+02 -0.25325813951E+02  0.45964047152E+02  0.20000000205E+01 0.  0.
        -13    1    3    3    0    0  0.20268337879E+02  0.32503711448E+02 -0.10162007318E+02  0.39630472304E+02  0.10566000000E+00 0.  1.
         13    1    4    4    0    0 -0.65766355922E+01 -0.10056444436E+02 -0.82405908650E+01  0.14570611251E+02  0.10566000000E+00 0. -1.
        -13    1    4    4    0    0 -0.11952408735E+02 -0.20239551919E+02 -0.15637571013E+02  0.28231973499E+02  0.10566000000E+00 0.  1.
        -14    1    4    4    0    0 -0.17392935516E+01 -0.22077150938E+01 -0.14476520732E+01  0.31614624020E+01  0.00000000000E+00 0.  1.
<mgrwt>
<rscale>  0 0.77891182E+02</rscale>
<asrwt>0</asrwt>
<pdfrwt beam="1">  1        2 0.93140261E-02 0.77891182E+02</pdfrwt>
<pdfrwt beam="2">  1       -1 0.38543614E-02 0.77891182E+02</pdfrwt>
<totfact> 0.16771907E+05</totfact>
</mgrwt>
</event>
<event>
 8    1  0.2603554E-016  0.8507513E+02  0.7818608E-02  0.1315236E+00
         -1   -1    0    0    0  501 -0.00000000000E+00  0.00000000000E+00  0.86200505236E+02  0.86200505383E+02  0.50400000000E-02 0.  1.
          2   -1    0    0  501    0  0.00000000000E+00 -0.00000000000E+00 -0.20991111038E+02  0.20991111193E+02  0.25500000000E-02 0. -1.
         24    2    1    2    0    0  0.00000000000E+00  0.35527136788E-14  0.65209394198E+02  0.10719161658E+03  0.85075128990E+02 0.  0.
         66    2    3    3    0    0 -0.18927504368E+02 -0.31324525206E+02  0.53665488517E+01  0.37044245962E+02  0.20000028411E+01 0.  0.
        -13    1    3    3    0    0  0.18927504368E+02  0.31324525206E+02  0.59842845346E+02  0.70147370614E+02  0.10566000000E+00 0.  1.
         13    1    4    4    0    0 -0.67848549375E+01 -0.10223241806E+02  0.24487430459E+01  0.12512251439E+02  0.10566000000E+00 0. -1.
        -13    1    4    4    0    0 -0.50353483898E+01 -0.94870826730E+01  0.12092207500E+01  0.10808924549E+02  0.10566000000E+00 0.  1.
         14    1    4    4    0    0 -0.71073010407E+01 -0.11614200727E+02  0.17085850558E+01  0.13723069974E+02  0.00000000000E+00 0. -1.
<mgrwt>
<rscale>  0 0.85075129E+02</rscale>
<asrwt>0</asrwt>
<pdfrwt beam="1">  1        2 0.32294017E-02 0.85075129E+02</pdfrwt>
<pdfrwt beam="2">  1       -1 0.13261616E-01 0.85075129E+02</pdfrwt>
<totfact> 0.10501439E+05</totfact>
</mgrwt>
</event>
<event>
 8    1  0.2603554E-016  0.8080418E+02  0.7818608E-02  0.1326785E+00
         -1   -1    0    0    0  501 -0.00000000000E+00  0.00000000000E+00  0.14409923321E+02  0.14409924203E+02  0.50400000000E-02 0.  1.
          2   -1    0    0  501    0  0.00000000000E+00 -0.00000000000E+00 -0.11327809973E+03  0.11327809976E+03  0.25500000000E-02 0. -1.
         24    2    1    2    0    0  0.00000000000E+00  0.00000000000E+00 -0.98868176412E+02  0.12768802396E+03  0.80804177843E+02 0.  0.
         66    2    3    3    0    0  0.28428125467E+02  0.20795523927E+02 -0.80659508805E+02  0.88037313087E+02  0.20000005027E+01 0.  0.
        -13    1    3    3    0    0 -0.28428125467E+02 -0.20795523927E+02 -0.18208667607E+02  0.39650710877E+02  0.10566000000E+00 0.  1.
         13    1    4    4    0    0  0.58646081763E+01  0.40984727971E+01 -0.17812568785E+02  0.19196090203E+02  0.10566000000E+00 0. -1.
        -13    1    4    4    0    0  0.10888367047E+02  0.87261926788E+01 -0.30555312972E+02  0.33590791752E+02  0.10566000000E+00 0.  1.
        -14    1    4    4    0    0  0.11675150244E+02  0.79708584512E+01 -0.32291627047E+02  0.35250431132E+02  0.00000000000E+00 0.  1.
<mgrwt>
<rscale>  0 0.80804178E+02</rscale>
<asrwt>0</asrwt>
<pdfrwt beam="1">  1        2 0.17427399E-01 0.80804178E+02</pdfrwt>
<pdfrwt beam="2">  1       -1 0.22169114E-02 0.80804178E+02</pdfrwt>
<totfact> 0.17885876E+05</totfact>
</mgrwt>
</event>
<event>
 8    1  0.2603554E-016  0.8042390E+02  0.7818608E-02  0.1327853E+00
         -1   -1    0    0    0  501 -0.00000000000E+00  0.00000000000E+00  0.16479561957E+02  0.16479562728E+02  0.50400000000E-02 0.  1.
          2   -1    0    0  501    0  0.00000000000E+00 -0.00000000000E+00 -0.98121589997E+02  0.98121590030E+02  0.25500000000E-02 0. -1.
         24    2    1    2    0    0  0.00000000000E+00  0.00000000000E+00 -0.81642028040E+02  0.11460115276E+03  0.80423898631E+02 0.  0.
         66    2    3    3    0    0  0.35318395253E+02  0.13120281029E+02 -0.20923935159E+02  0.43143271564E+02  0.20000003048E+01 0.  0.
        -13    1    3    3    0    0 -0.35318395253E+02 -0.13120281029E+02 -0.60718092881E+02  0.71457881194E+02  0.10566000000E+00 0.  1.
         13    1    4    4    0    0  0.10095601626E+02  0.41970425157E+01 -0.60687352435E+01  0.12505080950E+02  0.10566000000E+00 0. -1.
        -13    1    4    4    0    0  0.88914509617E+01  0.35537530141E+01 -0.59974635833E+01  0.11299017398E+02  0.10566000000E+00 0.  1.
        -14    1    4    4    0    0  0.16331342665E+02  0.53694854994E+01 -0.88577363320E+01  0.19339173216E+02  0.00000000000E+00 0.  1.
<mgrwt>
<rscale>  0 0.80423899E+02</rscale>
<asrwt>0</asrwt>
<pdfrwt beam="1">  1        2 0.15095629E-01 0.80423899E+02</pdfrwt>
<pdfrwt beam="2">  1       -1 0.25353174E-02 0.80423899E+02</pdfrwt>
<totfact> 0.17384287E+05</totfact>
</mgrwt>
</event>
<event>
 8    1  0.2603554E-016  0.7603937E+02  0.7818608E-02  0.1340682E+00
          2   -1    0    0  501    0  0.00000000000E+00  0.00000000000E+00  0.11197449895E+04  0.11197449895E+04  0.25500000000E-02 0. -1.
         -1   -1    0    0    0  501 -0.00000000000E+00 -0.00000000000E+00 -0.12909108526E+01  0.12909206912E+01  0.50400000000E-02 0.  1.
         24    2    1    2    0    0  0.00000000000E+00 -0.17763568394E-14  0.11184540786E+04  0.11210359102E+04  0.76039370732E+02 0.  0.
         66    2    3    3    0    0 -0.18321235484E+02  0.14752111778E+02  0.99948308265E+03  0.99976183414E+03  0.20000035304E+01 0.  0.
        -13    1    3    3    0    0  0.18321235484E+02 -0.14752111778E+02  0.11897099596E+03  0.12127407602E+03  0.10566000000E+00 0.  1.
         13    1    4    4    0    0 -0.58130991672E+01  0.51416140233E+01  0.29783173714E+03  0.29793285004E+03  0.10566000000E+00 0. -1.
        -13    1    4    4    0    0 -0.47839070708E+01  0.36496143018E+01  0.28257230517E+03  0.28263638171E+03  0.10566000000E+00 0.  1.
         14    1    4    4    0    0 -0.77242292460E+01  0.59608834532E+01  0.41907904034E+03  0.41919260239E+03  0.00000000000E+00 0. -1.
<mgrwt>
<rscale>  0 0.76039371E+02</rscale>
<asrwt>0</asrwt>
<pdfrwt beam="1">  1        2 0.17226829E+00 0.76039371E+02</pdfrwt>
<pdfrwt beam="2">  1       -1 0.19860263E-03 0.76039371E+02</pdfrwt>
<totfact> 0.40176679E+05</totfact>
</mgrwt>
</event>
<event>
 8    1  0.2603554E-016  0.7937381E+02  0.7818608E-02  0.1330838E+00
         -1   -1    0    0    0  501 -0.00000000000E+00  0.00000000000E+00  0.14515288178E+02  0.14515289053E+02  0.50400000000E-02 0.  1.
          2   -1    0    0  501    0  0.00000000000E+00 -0.00000000000E+00 -0.10850975250E+03  0.10850975253E+03  0.25500000000E-02 0. -1.
         24    2    1    2    0    0  0.00000000000E+00  0.26020852140E-16 -0.93994464320E+02  0.12302504158E+03  0.79373808862E+02 0.  0.
         66    2    3    3    0    0  0.19067431534E+02  0.64264491982E-02 -0.10093028896E+03  0.10273504863E+03  0.19999998551E+01 0.  0.
        -13    1    3    3    0    0 -0.19067431534E+02 -0.64264491982E-02  0.69358246426E+01  0.20289992955E+02  0.10566000000E+00 0.  1.
         13    1    4    4    0    0  0.56862054169E+01 -0.64127926144E+00 -0.28674791394E+02  0.29240365878E+02  0.10566000000E+00 0. -1.
        -13    1    4    4    0    0  0.14536783320E+01 -0.24626430351E+00 -0.79331211572E+01  0.80696593565E+01  0.10566000000E+00 0. -1.
         14    1    4    4    0    0  0.11927547786E+02  0.89397001415E+00 -0.64322376411E+02  0.65425023391E+02  0.00000000000E+00 0. -1.
<mgrwt>
<rscale>  0 0.79373809E+02</rscale>
<asrwt>0</asrwt>
<pdfrwt beam="1">  1        2 0.16693808E-01 0.79373809E+02</pdfrwt>
<pdfrwt beam="2">  1       -1 0.22331214E-02 0.79373809E+02</pdfrwt>
<totfact> 0.18527046E+05</totfact>
</mgrwt>
</event>
<event>
 8    1  0.2603554E-016  0.7779042E+02  0.7818608E-02  0.1335441E+00
         -1   -1    0    0    0  501 -0.00000000000E+00  0.00000000000E+00  0.12780164362E+02  0.12780165356E+02  0.50400000000E-02 0.  1.
          2   -1    0    0  501    0  0.00000000000E+00 -0.00000000000E+00 -0.11837385102E+03  0.11837385104E+03  0.25500000000E-02 0. -1.
         24    2    1    2    0    0  0.00000000000E+00 -0.35527136788E-14 -0.10559368665E+03  0.13115401640E+03  0.77790419438E+02 0.  0.
         66    2    3    3    0    0 -0.18283064782E+02  0.26955756222E+02 -0.88594913798E+02  0.94413674893E+02  0.20000011251E+01 0.  0.
        -13    1    3    3    0    0  0.18283064782E+02 -0.26955756222E+02 -0.16998772855E+02  0.36740341506E+02  0.10566000000E+00 0.  1.
         13    1    4    4    0    0 -0.42499593835E+00  0.80869812584E+00 -0.19693751822E+01  0.21735263629E+01  0.10566000000E+00 0. -1.
        -13    1    4    4    0    0 -0.31549697631E+01  0.38583878612E+01 -0.14131630463E+02  0.14985163819E+02  0.10566000000E+00 0.  1.
         14    1    4    4    0    0 -0.14703099081E+02  0.22288670235E+02 -0.72493908153E+02  0.77254984711E+02  0.00000000000E+00 0. -1.
<mgrwt>
<rscale>  0 0.77790419E+02</rscale>
<asrwt>0</asrwt>
<pdfrwt beam="1">  1        2 0.18211361E-01 0.77790419E+02</pdfrwt>
<pdfrwt beam="2">  1       -1 0.19661793E-02 0.77790419E+02</pdfrwt>
<totfact> 0.20051995E+05</totfact>
</mgrwt>
</event>
<event>
 8    1  0.2603554E-016  0.7991203E+02  0.7818608E-02  0.1329301E+00
          2   -1    0    0  501    0  0.00000000000E+00  0.00000000000E+00  0.30233622141E+03  0.30233622142E+03  0.25500000000E-02 0. -1.
         -1   -1    0    0    0  501 -0.00000000000E+00 -0.00000000000E+00 -0.52804883503E+01  0.52804907555E+01  0.50400000000E-02 0.  1.
         24    2    1    2    0    0  0.00000000000E+00  0.00000000000E+00  0.29705573306E+03  0.30761671218E+03  0.79912033302E+02 0.  0.
         66    2    3    3    0    0 -0.37148213090E+02 -0.13522002510E+02  0.17027491080E+03  0.17481527264E+03  0.20000025763E+01 0.  0.
        -13    1    3    3    0    0  0.37148213090E+02  0.13522002510E+02  0.12678082225E+03  0.13280143954E+03  0.10566000000E+00 0.  1.
         13    1    4    4    0    0 -0.14346758436E+02 -0.49167403524E+01  0.65013958399E+02  0.66759491940E+02  0.10566000000E+00 0. -1.
        -13    1    4    4    0    0 -0.20627972504E+02 -0.76175651305E+01  0.96650598071E+02  0.99120582221E+02  0.10566000000E+00 0.  1.
        -14    1    4    4    0    0 -0.21734821509E+01 -0.98769702730E+00  0.86103543339E+01  0.89351984776E+01  0.00000000000E+00 0.  1.
<mgrwt>
<rscale>  0 0.79912033E+02</rscale>
<asrwt>0</asrwt>
<pdfrwt beam="1">  1        2 0.46513272E-01 0.79912033E+02</pdfrwt>
<pdfrwt beam="2">  1       -1 0.81238289E-03 0.79912033E+02</pdfrwt>
<totfact> 0.25640022E+05</totfact>
</mgrwt>
</event>
<event>
 8    1  0.2603554E-016  0.8019662E+02  0.7818608E-02  0.1328494E+00
         -1   -1    0    0    0  501 -0.00000000000E+00  0.00000000000E+00  0.20824843103E+03  0.20824843109E+03  0.50400000000E-02 0.  1.
          2   -1    0    0  501    0  0.00000000000E+00 -0.00000000000E+00 -0.77209429752E+01  0.77209433963E+01  0.25500000000E-02 0. -1.
         24    2    1    2    0    0  0.00000000000E+00  0.00000000000E+00  0.20052748805E+03  0.21596937449E+03  0.80196616206E+02 0.  0.
         66    2    3    3    0    0  0.35530684084E+02  0.25457313420E+01  0.14975980966E+03  0.15395100146E+03  0.20000002991E+01 0.  0.
        -13    1    3    3    0    0 -0.35530684084E+02 -0.25457313420E+01  0.50767678397E+02  0.62018373031E+02  0.10566000000E+00 0.  1.
         13    1    4    4    0    0  0.16090825993E+02  0.11438063661E+01  0.67003631020E+02  0.68918217534E+02  0.10566000000E+00 0. -1.
        -13    1    4    4    0    0  0.13937442129E+02  0.42676014286E+00  0.57711066822E+02  0.59371818358E+02  0.10566000000E+00 0.  1.
         14    1    4    4    0    0  0.55024159627E+01  0.97516483296E+00  0.25045111814E+02  0.25660965563E+02  0.00000000000E+00 0. -1.
<mgrwt>
<rscale>  0 0.80196616E+02</rscale>
<asrwt>0</asrwt>
<pdfrwt beam="1">  1        2 0.11878373E-02 0.80196616E+02</pdfrwt>
<pdfrwt beam="2">  1       -1 0.32038222E-01 0.80196616E+02</pdfrwt>
<totfact> 0.97764026E+04</totfact>
</mgrwt>
</event>
<event>
 8    1  0.2603554E-016  0.8011542E+02  0.7818608E-02  0.1328724E+00
          2   -1    0    0  501    0  0.00000000000E+00  0.00000000000E+00  0.32956082431E+03  0.32956082432E+03  0.25500000000E-02 0. -1.
         -1   -1    0    0    0  501 -0.00000000000E+00 -0.00000000000E+00 -0.48689641973E+01  0.48689668058E+01  0.50400000000E-02 0.  1.
         24    2    1    2    0    0  0.00000000000E+00 -0.71054273576E-14  0.32469186011E+03  0.33442979112E+03  0.80115424039E+02 0.  0.
         66    2    3    3    0    0 -0.13499076591E+02 -0.37091905200E+02  0.19031848478E+03  0.19437890872E+03  0.20000015325E+01 0.  0.
        -13    1    3    3    0    0  0.13499076591E+02  0.37091905200E+02  0.13437337533E+03  0.14005088240E+03  0.10566000000E+00 0.  1.
         13    1    4    4    0    0 -0.76284042809E+01 -0.19014267429E+02  0.10023366270E+03  0.10230607616E+03  0.10566000000E+00 0. -1.
        -13    1    4    4    0    0 -0.74407506082E+00 -0.16197738116E+01  0.77900598745E+01  0.79920905763E+01  0.10566000000E+00 0.  1.
        -14    1    4    4    0    0 -0.51265972494E+01 -0.16457863959E+02  0.82294762212E+02  0.84080741986E+02  0.00000000000E+00 0.  1.
<mgrwt>
<rscale>  0 0.80115424E+02</rscale>
<asrwt>0</asrwt>
<pdfrwt beam="1">  1        2 0.50701670E-01 0.80115424E+02</pdfrwt>
<pdfrwt beam="2">  1       -1 0.74907155E-03 0.80115424E+02</pdfrwt>
<totfact> 0.26275099E+05</totfact>
</mgrwt>
</event>
<event>
 8    1  0.2603554E-016  0.8004433E+02  0.7818608E-02  0.1328926E+00
          2   -1    0    0  501    0  0.00000000000E+00  0.00000000000E+00  0.19889283235E+03  0.19889283237E+03  0.25500000000E-02 0. -1.
         -1   -1    0    0    0  501 -0.00000000000E+00 -0.00000000000E+00 -0.80534505185E+01  0.80534520956E+01  0.50400000000E-02 0.  1.
         24    2    1    2    0    0 -0.71054273576E-14  0.88817841970E-15  0.19083938184E+03  0.20694628447E+03  0.80044331435E+02 0.  0.
         66    2    3    3    0    0 -0.35125790280E+02  0.57683079944E+01  0.14263506303E+03  0.14702331695E+03  0.20000006709E+01 0.  0.
        -13    1    3    3    0    0  0.35125790280E+02 -0.57683079944E+01  0.48204318809E+02  0.59922967515E+02  0.10566000000E+00 0.  1.
         13    1    4    4    0    0 -0.27850625145E+02  0.44263646560E+01  0.11364345505E+03  0.11709011941E+03  0.10566000000E+00 0. -1.
        -13    1    4    4    0    0 -0.55540670221E+00 -0.46047026496E-01  0.28627851289E+01  0.29184413071E+01  0.10566000000E+00 0. -1.
        -14    1    4    4    0    0 -0.67197584336E+01  0.13879903649E+01  0.26128822852E+02  0.27014756233E+02  0.00000000000E+00 0.  1.
<mgrwt>
<rscale>  0 0.80044331E+02</rscale>
<asrwt>0</asrwt>
<pdfrwt beam="1">  1        2 0.30598898E-01 0.80044331E+02</pdfrwt>
<pdfrwt beam="2">  1       -1 0.12389925E-02 0.80044331E+02</pdfrwt>
<totfact> 0.21983936E+05</totfact>
</mgrwt>
</event>
<event>
 8    1  0.2603554E-016  0.7964008E+02  0.7818608E-02  0.1330076E+00
          2   -1    0    0  501    0  0.00000000000E+00  0.00000000000E+00  0.61478531239E+02  0.61478531292E+02  0.25500000000E-02 0. -1.
         -1   -1    0    0    0  501 -0.00000000000E+00 -0.00000000000E+00 -0.25791696874E+02  0.25791697367E+02  0.50400000000E-02 0.  1.
         24    2    1    2    0    0  0.35527136788E-14  0.11102230246E-15  0.35686834365E+02  0.87270228658E+02  0.79640082013E+02 0.  0.
         66    2    3    3    0    0 -0.26965611577E+02 -0.86269189796E+00  0.49910386277E+02  0.56770900173E+02  0.20000007616E+01 0.  0.
        -13    1    3    3    0    0  0.26965611577E+02  0.86269189796E+00 -0.14223551912E+02  0.30499328486E+02  0.10566000000E+00 0.  1.
         13    1    4    4    0    0 -0.16964073980E+02 -0.96535219213E+00  0.32467804419E+02  0.36645343479E+02  0.10566000000E+00 0. -1.
        -13    1    4    4    0    0 -0.38556211281E+00  0.12880570933E+00  0.84405582091E+00  0.94278487366E+00  0.10566000000E+00 0.  1.
        -14    1    4    4    0    0 -0.96159754849E+01 -0.26145415158E-01  0.16598526037E+02  0.19182771820E+02  0.00000000000E+00 0.  1.
<mgrwt>
<rscale>  0 0.79640082E+02</rscale>
<asrwt>0</asrwt>
<pdfrwt beam="1">  1        2 0.94582356E-02 0.79640082E+02</pdfrwt>
<pdfrwt beam="2">  1       -1 0.39679534E-02 0.79640082E+02</pdfrwt>
<totfact> 0.15847339E+05</totfact>
</mgrwt>
</event>
<event>
 8    1  0.2603554E-016  0.8043971E+02  0.7818608E-02  0.1327808E+00
          2   -1    0    0  501    0  0.00000000000E+00  0.00000000000E+00  0.66489084075E+01  0.66489088965E+01  0.25500000000E-02 0. -1.
         -1   -1    0    0    0  501 -0.00000000000E+00 -0.00000000000E+00 -0.24329357000E+03  0.24329357006E+03  0.50400000000E-02 0.  1.
         24    2    1    2    0    0 -0.35527136788E-14  0.00000000000E+00 -0.23664466160E+03  0.24994247895E+03  0.80439709863E+02 0.  0.
         66    2    3    3    0    0  0.12650785712E+02  0.37976591302E+02 -0.10703467829E+03  0.11429210924E+03  0.20000030345E+01 0.  0.
        -13    1    3    3    0    0 -0.12650785712E+02 -0.37976591302E+02 -0.12960998330E+03  0.13565036971E+03  0.10566000000E+00 0.  1.
         13    1    4    4    0    0  0.33843960488E+01  0.98309958959E+01 -0.29906678906E+02  0.31662647144E+02  0.10566000000E+00 0. -1.
        -13    1    4    4    0    0  0.28360677892E+01  0.95236315482E+01 -0.24971674964E+02  0.26876356764E+02  0.10566000000E+00 0.  1.
         14    1    4    4    0    0  0.64303218740E+01  0.18621963858E+02 -0.52156324421E+02  0.55753105335E+02  0.00000000000E+00 0. -1.
<mgrwt>
<rscale>  0 0.80439710E+02</rscale>
<asrwt>0</asrwt>
<pdfrwt beam="1">  1        2 0.10229092E-02 0.80439710E+02</pdfrwt>
<pdfrwt beam="2">  1       -1 0.37429773E-01 0.80439710E+02</pdfrwt>
<totfact> 0.92190019E+04</totfact>
</mgrwt>
</event>
<event>
 8    1  0.2603554E-016  0.7881686E+02  0.7818608E-02  0.1332443E+00
          2   -1    0    0  501    0  0.00000000000E+00  0.00000000000E+00  0.21675944262E+03  0.21675944263E+03  0.25500000000E-02 0. -1.
         -1   -1    0    0    0  501 -0.00000000000E+00 -0.00000000000E+00 -0.71647365525E+01  0.71647383252E+01  0.50400000000E-02 0.  1.
         24    2    1    2    0    0  0.00000000000E+00  0.00000000000E+00  0.20959470607E+03  0.22392418096E+03  0.78816863723E+02 0.  0.
         66    2    3    3    0    0  0.32040137704E+02 -0.22371112603E+02  0.11877790602E+03  0.12505689902E+03  0.19999827570E+01 0.  0.
        -13    1    3    3    0    0 -0.32040137704E+02  0.22371112603E+02  0.90816800050E+02  0.98867281942E+02  0.10566000000E+00 0.  1.
         13    1    4    4    0    0  0.99663235243E+01 -0.68141302687E+01  0.38516306092E+02  0.40364303226E+02  0.10566000000E+00 0. -1.
        -13    1    4    4    0    0  0.63771777214E+01 -0.40213586716E+01  0.23717504282E+02  0.24887163251E+02  0.10566000000E+00 0.  1.
         14    1    4    4    0    0  0.15696636458E+02 -0.11535623663E+02  0.56544095642E+02  0.59805432541E+02  0.00000000000E+00 0. -1.
<mgrwt>
<rscale>  0 0.78816864E+02</rscale>
<asrwt>0</asrwt>
<pdfrwt beam="1">  1        2 0.33347608E-01 0.78816864E+02</pdfrwt>
<pdfrwt beam="2">  1       -1 0.11022673E-02 0.78816864E+02</pdfrwt>
<totfact> 0.23596011E+05</totfact>
</mgrwt>
</event>
<event>
 8    1  0.2603554E-016  0.7343513E+02  0.7818608E-02  0.1348787E+00
         -1   -1    0    0    0  501 -0.00000000000E+00  0.00000000000E+00  0.21589006706E+03  0.21589006712E+03  0.50400000000E-02 0.  1.
          2   -1    0    0  501    0  0.00000000000E+00 -0.00000000000E+00 -0.62447507850E+01  0.62447513056E+01  0.25500000000E-02 0. -1.
         24    2    1    2    0    0  0.00000000000E+00  0.00000000000E+00  0.20964531628E+03  0.22213481843E+03  0.73435134102E+02 0.  0.
         66    2    3    3    0    0  0.11390413479E+02  0.34375651689E+02  0.12273125478E+03  0.12797807571E+03  0.20000038488E+01 0.  0.
        -13    1    3    3    0    0 -0.11390413479E+02 -0.34375651689E+02  0.86914061503E+02  0.94156742718E+02  0.10566000000E+00 0.  1.
         13    1    4    4    0    0  0.75605258533E+01  0.22176905978E+02  0.80592721145E+02  0.83929581051E+02  0.10566000000E+00 0. -1.
        -13    1    4    4    0    0  0.20181341373E+01  0.48539442319E+01  0.16546815961E+02  0.17362082896E+02  0.10566000000E+00 0.  1.
        -14    1    4    4    0    0  0.18117534887E+01  0.73448014794E+01  0.25591717671E+02  0.26686411764E+02  0.00000000000E+00 0.  1.
<mgrwt>
<rscale>  0 0.73435134E+02</rscale>
<asrwt>0</asrwt>
<pdfrwt beam="1">  1        2 0.96073096E-03 0.73435134E+02</pdfrwt>
<pdfrwt beam="2">  1       -1 0.33213856E-01 0.73435134E+02</pdfrwt>
<totfact> 0.12093525E+05</totfact>
</mgrwt>
</event>
<event>
 8    1  0.2603554E-016  0.7715456E+02  0.7818608E-02  0.1337326E+00
          2   -1    0    0  501    0  0.00000000000E+00  0.00000000000E+00  0.22429109471E+03  0.22429109473E+03  0.25500000000E-02 0. -1.
         -1   -1    0    0    0  501 -0.00000000000E+00 -0.00000000000E+00 -0.66351561969E+01  0.66351581110E+01  0.50400000000E-02 0.  1.
         24    2    1    2    0    0  0.00000000000E+00  0.17763568394E-14  0.21765593852E+03  0.23092625284E+03  0.77154563564E+02 0.  0.
         66    2    3    3    0    0 -0.79975438880E+00  0.15296364607E+02  0.21478763342E+03  0.21534239210E+03  0.19999977085E+01 0.  0.
        -13    1    3    3    0    0  0.79975438880E+00 -0.15296364607E+02  0.28683051007E+01  0.15583860736E+02  0.10566000000E+00 0.  1.
         13    1    4    4    0    0 -0.10808070019E+00  0.27809987404E+01  0.44598301838E+02  0.44685180165E+02  0.10566000000E+00 0. -1.
        -13    1    4    4    0    0 -0.40693999374E+00  0.12182966835E+02  0.16401852067E+03  0.16447089884E+03  0.10566000000E+00 0.  1.
        -14    1    4    4    0    0 -0.28473369487E+00  0.33239903130E+00  0.61708109118E+01  0.61863130944E+01  0.00000000000E+00 0.  1.
<mgrwt>
<rscale>  0 0.77154564E+02</rscale>
<asrwt>0</asrwt>
<pdfrwt beam="1">  1        2 0.34506322E-01 0.77154564E+02</pdfrwt>
<pdfrwt beam="2">  1       -1 0.10207934E-02 0.77154564E+02</pdfrwt>
<totfact> 0.25256995E+05</totfact>
</mgrwt>
</event>
<event>
 8    1  0.2603554E-016  0.8183033E+02  0.7818608E-02  0.1323936E+00
         -1   -1    0    0    0  501 -0.00000000000E+00  0.00000000000E+00  0.15293961665E+01  0.15294044709E+01  0.50400000000E-02 0.  1.
          2   -1    0    0  501    0  0.00000000000E+00 -0.00000000000E+00 -0.10945797731E+04  0.10945797731E+04  0.25500000000E-02 0. -1.
         24    2    1    2    0    0 -0.17763568394E-14  0.00000000000E+00 -0.10930503769E+04  0.10961091776E+04  0.81830328407E+02 0.  0.
         66    2    3    3    0    0  0.10953570439E+02  0.19555392657E+02 -0.10049586416E+04  0.10052105578E+04  0.20000001759E+01 0.  0.
        -13    1    3    3    0    0 -0.10953570439E+02 -0.19555392657E+02 -0.88091735292E+02  0.90898619781E+02  0.10566000000E+00 0.  1.
         13    1    4    4    0    0  0.52802359864E+01  0.89692417830E+01 -0.46568224624E+03  0.46579855497E+03  0.10566000000E+00 0. -1.
        -13    1    4    4    0    0  0.37451767421E+01  0.59604865306E+01 -0.33707545271E+03  0.33714896668E+03  0.10566000000E+00 0.  1.
         14    1    4    4    0    0  0.19281577107E+01  0.46256643432E+01 -0.20220094270E+03  0.20226303615E+03  0.00000000000E+00 0. -1.
<mgrwt>
<rscale>  0 0.81830328E+02</rscale>
<asrwt>0</asrwt>
<pdfrwt beam="1">  1        2 0.16839626E+00 0.81830328E+02</pdfrwt>
<pdfrwt beam="2">  1       -1 0.23529323E-03 0.81830328E+02</pdfrwt>
<totfact> 0.33243804E+05</totfact>
</mgrwt>
</event>
<event>
 8    1  0.2603554E-016  0.8335399E+02  0.7818608E-02  0.1319794E+00
         -1   -1    0    0    0  501 -0.00000000000E+00  0.00000000000E+00  0.71324037698E+01  0.71324055505E+01  0.50400000000E-02 0.  1.
          2   -1    0    0  501    0  0.00000000000E+00 -0.00000000000E+00 -0.24353245032E+03  0.24353245034E+03  0.25500000000E-02 0. -1.
         24    2    1    2    0    0  0.00000000000E+00  0.44408920985E-15 -0.23640004655E+03  0.25066485589E+03  0.83353991905E+02 0.  0.
         66    2    3    3    0    0  0.27146498726E+02 -0.31189483391E+01 -0.21280730106E+03  0.21456376122E+03  0.20000036741E+01 0.  0.
        -13    1    3    3    0    0 -0.27146498726E+02  0.31189483391E+01 -0.23592745493E+02  0.36101094661E+02  0.10566000000E+00 0.  1.
         13    1    4    4    0    0  0.51554962911E+01 -0.55983304436E+00 -0.36964316379E+02  0.37326457165E+02  0.10566000000E+00 0. -1.
        -13    1    4    4    0    0  0.81787513315E+01 -0.66457596988E+00 -0.70375792270E+02  0.70852642409E+02  0.10566000000E+00 0.  1.
        -14    1    4    4    0    0  0.13812251104E+02 -0.18945393248E+01 -0.10546719241E+03  0.10638466165E+03  0.00000000000E+00 0.  1.
<mgrwt>
<rscale>  0 0.83353992E+02</rscale>
<asrwt>0</asrwt>
<pdfrwt beam="1">  1        2 0.37466524E-01 0.83353992E+02</pdfrwt>
<pdfrwt beam="2">  1       -1 0.10972932E-02 0.83353992E+02</pdfrwt>
<totfact> 0.21219817E+05</totfact>
</mgrwt>
</event>
<event>
 8    1  0.2603554E-016  0.7962105E+02  0.7818608E-02  0.1330130E+00
          2   -1    0    0  501    0  0.00000000000E+00  0.00000000000E+00  0.39847019228E+02  0.39847019310E+02  0.25500000000E-02 0. -1.
         -1   -1    0    0    0  501 -0.00000000000E+00 -0.00000000000E+00 -0.39774059413E+02  0.39774059732E+02  0.50400000000E-02 0.  1.
         24    2    1    2    0    0  0.00000000000E+00 -0.71054273576E-14  0.72959815089E-01  0.79621079042E+02  0.79621045614E+02 0.  0.
         66    2    3    3    0    0  0.40886324952E+00  0.39140038302E+02  0.71613223258E+01  0.39842117083E+02  0.19999971886E+01 0.  0.
        -13    1    3    3    0    0 -0.40886324952E+00 -0.39140038302E+02 -0.70883625107E+01  0.39778961959E+02  0.10566000000E+00 0.  1.
         13    1    4    4    0    0  0.47097036918E+00  0.87104579447E+01  0.13457459914E+01  0.88270089500E+01  0.10566000000E+00 0. -1.
        -13    1    4    4    0    0  0.42496855599E+00  0.32468888651E+01  0.72588187096E+00  0.33557345101E+01  0.10566000000E+00 0.  1.
         14    1    4    4    0    0 -0.48707567565E+00  0.27182691492E+02  0.50896944634E+01  0.27659373623E+02  0.00000000000E+00 0. -1.
<mgrwt>
<rscale>  0 0.79621046E+02</rscale>
<asrwt>0</asrwt>
<pdfrwt beam="1">  1        2 0.61303106E-02 0.79621046E+02</pdfrwt>
<pdfrwt beam="2">  1       -1 0.61190862E-02 0.79621046E+02</pdfrwt>
<totfact> 0.14432201E+05</totfact>
</mgrwt>
</event>
<event>
 8    1  0.2603554E-016  0.8067740E+02  0.7818608E-02  0.1327140E+00
          2   -1    0    0  501    0  0.00000000000E+00  0.00000000000E+00  0.35966742646E+02  0.35966742736E+02  0.25500000000E-02 0. -1.
         -1   -1    0    0    0  501 -0.00000000000E+00 -0.00000000000E+00 -0.45242091697E+02  0.45242091978E+02  0.50400000000E-02 0.  1.
         24    2    1    2    0    0  0.00000000000E+00  0.00000000000E+00 -0.92753490514E+01  0.81208834714E+02  0.80677399163E+02 0.  0.
         66    2    3    3    0    0  0.20301593340E+02  0.30230203143E+01  0.30285481506E+02  0.36640193021E+02  0.20000026593E+01 0.  0.
        -13    1    3    3    0    0 -0.20301593340E+02 -0.30230203143E+01 -0.39560830557E+02  0.44568641693E+02  0.10566000000E+00 0.  1.
         13    1    4    4    0    0  0.62479728863E+01  0.76415343129E+00  0.10378949121E+02  0.12138980375E+02  0.10566000000E+00 0. -1.
        -13    1    4    4    0    0  0.11228237920E+02  0.19953009523E+01  0.16655950592E+02  0.20186292548E+02  0.10566000000E+00 0.  1.
        -14    1    4    4    0    0  0.28253825339E+01  0.26356593070E+00  0.32505817929E+01  0.43149200983E+01  0.00000000000E+00 0.  1.
<mgrwt>
<rscale>  0 0.80677399E+02</rscale>
<asrwt>0</asrwt>
<pdfrwt beam="1">  1        2 0.55333450E-02 0.80677399E+02</pdfrwt>
<pdfrwt beam="2">  1       -1 0.69603219E-02 0.80677399E+02</pdfrwt>
<totfact> 0.13627065E+05</totfact>
</mgrwt>
</event>
<event>
 8    1  0.2603554E-016  0.7882647E+02  0.7818608E-02  0.1332415E+00
          2   -1    0    0  501    0  0.00000000000E+00  0.00000000000E+00  0.35902517328E+03  0.35902517329E+03  0.25500000000E-02 0. -1.
         -1   -1    0    0    0  501 -0.00000000000E+00 -0.00000000000E+00 -0.43267231693E+01  0.43267261048E+01  0.50400000000E-02 0.  1.
         24    2    1    2    0    0  0.00000000000E+00  0.00000000000E+00  0.35469845011E+03  0.36335189939E+03  0.78826469426E+02 0.  0.
         66    2    3    3    0    0 -0.19400860501E+02 -0.16753251503E+02  0.31531253221E+03  0.31635906466E+03  0.19999986385E+01 0.  0.
        -13    1    3    3    0    0  0.19400860501E+02  0.16753251503E+02  0.39385917896E+02  0.46992834738E+02  0.10566000000E+00 0.  1.
         13    1    4    4    0    0 -0.86164373119E+01 -0.72157508827E+01  0.13755942595E+03  0.13801781365E+03  0.10566000000E+00 0. -1.
        -13    1    4    4    0    0 -0.64624827908E+01 -0.52684909990E+01  0.94814433138E+02  0.95180400170E+02  0.10566000000E+00 0.  1.
        -14    1    4    4    0    0 -0.43219403985E+01 -0.42690096213E+01  0.82938673126E+02  0.83160850836E+02  0.00000000000E+00 0.  1.
<mgrwt>
<rscale>  0 0.78826469E+02</rscale>
<asrwt>0</asrwt>
<pdfrwt beam="1">  1        2 0.55234657E-01 0.78826469E+02</pdfrwt>
<pdfrwt beam="2">  1       -1 0.66564977E-03 0.78826469E+02</pdfrwt>
<totfact> 0.28266188E+05</totfact>
</mgrwt>
</event>
<event>
 8    1  0.2603554E-016  0.8004213E+02  0.7818608E-02  0.1328932E+00
         -1   -1    0    0    0  501 -0.00000000000E+00  0.00000000000E+00  0.18561511349E+02  0.18561512033E+02  0.50400000000E-02 0.  1.
          2   -1    0    0  501    0  0.00000000000E+00 -0.00000000000E+00 -0.86290679661E+02  0.86290679698E+02  0.25500000000E-02 0. -1.
         24    2    1    2    0    0 -0.35527136788E-14  0.35527136788E-14 -0.67729168312E+02  0.10485219173E+03  0.80042125601E+02 0.  0.
         66    2    3    3    0    0  0.31036902975E+02 -0.24576961143E+02 -0.41337978521E+02  0.57272548733E+02  0.20000012331E+01 0.  0.
        -13    1    3    3    0    0 -0.31036902975E+02  0.24576961143E+02 -0.26391189791E+02  0.47579642999E+02  0.10566000000E+00 0.  1.
         13    1    4    4    0    0  0.56775215920E+01 -0.48743948928E+01 -0.76758316782E+01  0.10720239409E+02  0.10566000000E+00 0. -1.
        -13    1    4    4    0    0  0.21535492048E+02 -0.16370784416E+02 -0.27565445440E+02  0.38621819564E+02  0.10566000000E+00 0.  1.
        -14    1    4    4    0    0  0.38238893349E+01 -0.33317818342E+01 -0.60967014027E+01  0.79304897598E+01  0.00000000000E+00 0.  1.
<mgrwt>
<rscale>  0 0.80042126E+02</rscale>
<asrwt>0</asrwt>
<pdfrwt beam="1">  1        2 0.13275489E-01 0.80042126E+02</pdfrwt>
<pdfrwt beam="2">  1       -1 0.28556172E-02 0.80042126E+02</pdfrwt>
<totfact> 0.17004333E+05</totfact>
</mgrwt>
</event>
<event>
 8    1  0.2603554E-016  0.7955450E+02  0.7818608E-02  0.1330320E+00
         -1   -1    0    0    0  501 -0.00000000000E+00  0.00000000000E+00  0.11208534885E+03  0.11208534897E+03  0.50400000000E-02 0.  1.
          2   -1    0    0  501    0  0.00000000000E+00 -0.00000000000E+00 -0.14116292979E+02  0.14116293209E+02  0.25500000000E-02 0. -1.
         24    2    1    2    0    0 -0.35527136788E-14  0.00000000000E+00  0.97969055874E+02  0.12620164218E+03  0.79554500684E+02 0.  0.
         66    2    3    3    0    0  0.16535374207E+02 -0.35643823613E+02  0.58576254061E+02  0.70562584306E+02  0.20000005512E+01 0.  0.
        -13    1    3    3    0    0 -0.16535374207E+02  0.35643823613E+02  0.39392801813E+02  0.55639057870E+02  0.10566000000E+00 0.  1.
         13    1    4    4    0    0  0.71432622469E+01 -0.13980160657E+02  0.23829463822E+02  0.28536390760E+02  0.10566000000E+00 0. -1.
        -13    1    4    4    0    0  0.44185770884E+01 -0.11605420548E+02  0.18062762543E+02  0.21919949004E+02  0.10566000000E+00 0.  1.
        -14    1    4    4    0    0  0.49735348715E+01 -0.10058242408E+02  0.16684027696E+02  0.20106244543E+02  0.00000000000E+00 0.  1.
<mgrwt>
<rscale>  0 0.79554501E+02</rscale>
<asrwt>0</asrwt>
<pdfrwt beam="1">  1        2 0.21717373E-02 0.79554501E+02</pdfrwt>
<pdfrwt beam="2">  1       -1 0.17243901E-01 0.79554501E+02</pdfrwt>
<totfact> 0.11724061E+05</totfact>
</mgrwt>
</event>
<event>
 8    1  0.2603554E-016  0.7948422E+02  0.7818608E-02  0.1330522E+00
         -1   -1    0    0    0  501 -0.00000000000E+00  0.00000000000E+00  0.57715377583E+01  0.57715399589E+01  0.50400000000E-02 0.  1.
          2   -1    0    0  501    0  0.00000000000E+00 -0.00000000000E+00 -0.27365928573E+03  0.27365928574E+03  0.25500000000E-02 0. -1.
         24    2    1    2    0    0  0.00000000000E+00  0.00000000000E+00 -0.26788774797E+03  0.27943082570E+03  0.79484217543E+02 0.  0.
         66    2    3    3    0    0  0.61810884259E+01  0.32566370601E+02 -0.21094239373E+03  0.21354031894E+03  0.19999973581E+01 0.  0.
        -13    1    3    3    0    0 -0.61810884259E+01 -0.32566370601E+02 -0.56945354238E+02  0.65890506763E+02  0.10566000000E+00 0.  1.
         13    1    4    4    0    0  0.26265462483E+01  0.17224520352E+02 -0.11206701583E+03  0.11341344738E+03  0.10566000000E+00 0. -1.
        -13    1    4    4    0    0  0.36382389735E+00  0.26990235101E+01 -0.18899473640E+02  0.19094982683E+02  0.10566000000E+00 0.  1.
        -14    1    4    4    0    0  0.31907182803E+01  0.12642826738E+02 -0.79975904264E+02  0.81031888870E+02  0.00000000000E+00 0.  1.
<mgrwt>
<rscale>  0 0.79484218E+02</rscale>
<asrwt>0</asrwt>
<pdfrwt beam="1">  1        2 0.42101419E-01 0.79484218E+02</pdfrwt>
<pdfrwt beam="2">  1       -1 0.88792927E-03 0.79484218E+02</pdfrwt>
<totfact> 0.25081905E+05</totfact>
</mgrwt>
</event>
<event>
 8    1  0.2603554E-016  0.8491490E+02  0.7818608E-02  0.1315655E+00
         -1   -1    0    0    0  501 -0.00000000000E+00  0.00000000000E+00  0.67971270397E+01  0.67971289082E+01  0.50400000000E-02 0.  1.
          2   -1    0    0  501    0  0.00000000000E+00 -0.00000000000E+00 -0.26520537014E+03  0.26520537015E+03  0.25500000000E-02 0. -1.
         24    2    1    2    0    0  0.00000000000E+00  0.00000000000E+00 -0.25840824310E+03  0.27200249906E+03  0.84914895000E+02 0.  0.
         66    2    3    3    0    0 -0.22243175417E+02 -0.33130130779E+02 -0.17550279556E+03  0.17999332119E+03  0.20000006131E+01 0.  0.
        -13    1    3    3    0    0  0.22243175417E+02  0.33130130779E+02 -0.82905447535E+02  0.92009177874E+02  0.10566000000E+00 0.  1.
         13    1    4    4    0    0 -0.68849618313E+01 -0.10041077687E+02 -0.50692559811E+02  0.52134180004E+02  0.10566000000E+00 0. -1.
        -13    1    4    4    0    0 -0.65975983354E+01 -0.10733318827E+02 -0.54994896317E+02  0.56419697108E+02  0.10566000000E+00 0.  1.
         14    1    4    4    0    0 -0.87606152499E+01 -0.12355734265E+02 -0.69815339437E+02  0.71439444073E+02  0.00000000000E+00 0. -1.
<mgrwt>
<rscale>  0 0.84914895E+02</rscale>
<asrwt>0</asrwt>
<pdfrwt beam="1">  1        2 0.40800818E-01 0.84914895E+02</pdfrwt>
<pdfrwt beam="2">  1       -1 0.10457122E-02 0.84914895E+02</pdfrwt>
<totfact> 0.20837264E+05</totfact>
</mgrwt>
</event>
<event>
 8    1  0.2603554E-016  0.7975270E+02  0.7818608E-02  0.1329755E+00
          2   -1    0    0  501    0  0.00000000000E+00  0.00000000000E+00  0.11879226573E+03  0.11879226575E+03  0.25500000000E-02 0. -1.
         -1   -1    0    0    0  501 -0.00000000000E+00 -0.00000000000E+00 -0.13385746709E+02  0.13385747658E+02  0.50400000000E-02 0.  1.
         24    2    1    2    0    0  0.17763568394E-14  0.00000000000E+00  0.10540651902E+03  0.13217801341E+03  0.79752698878E+02 0.  0.
         66    2    3    3    0    0  0.12286950982E+02  0.37253195239E+02  0.41093680358E+02  0.56845934586E+02  0.19999984037E+01 0.  0.
        -13    1    3    3    0    0 -0.12286950982E+02 -0.37253195239E+02  0.64312838660E+02  0.75332078827E+02  0.10566000000E+00 0.  1.
         13    1    4    4    0    0  0.27523780290E+01  0.67734258431E+01  0.79953885425E+01  0.10834772007E+02  0.10566000000E+00 0. -1.
        -13    1    4    4    0    0  0.60065411502E+00  0.30739928556E+01  0.34112927297E+01  0.46323103918E+01  0.10566000000E+00 0.  1.
         14    1    4    4    0    0  0.89339188376E+01  0.27405776540E+02  0.29686999086E+02  0.41378852187E+02  0.00000000000E+00 0. -1.
<mgrwt>
<rscale>  0 0.79752699E+02</rscale>
<asrwt>0</asrwt>
<pdfrwt beam="1">  1        2 0.18275733E-01 0.79752699E+02</pdfrwt>
<pdfrwt beam="2">  1       -1 0.20593458E-02 0.79752699E+02</pdfrwt>
<totfact> 0.18784673E+05</totfact>
</mgrwt>
</event>
<event>
 8    1  0.2603554E-016  0.7192239E+02  0.7818608E-02  0.1353675E+00
          2   -1    0    0  501    0  0.00000000000E+00  0.00000000000E+00  0.23550593178E+03  0.23550593180E+03  0.25500000000E-02 0. -1.
         -1   -1    0    0    0  501 -0.00000000000E+00 -0.00000000000E+00 -0.54911875816E+01  0.54911898945E+01  0.50400000000E-02 0.  1.
         24    2    1    2    0    0  0.00000000000E+00  0.35527136788E-14  0.23001474420E+03  0.24099712169E+03  0.71922389514E+02 0.  0.
         66    2    3    3    0    0 -0.20737621791E+02  0.18147353863E+02  0.19236999710E+03  0.19434400220E+03  0.19999993679E+01 0.  0.
        -13    1    3    3    0    0  0.20737621791E+02 -0.18147353863E+02  0.37644747099E+02  0.46653119488E+02  0.10566000000E+00 0.  1.
         13    1    4    4    0    0 -0.11820669526E+02  0.96784543634E+01  0.10233176170E+03  0.10346594282E+03  0.10566000000E+00 0. -1.
        -13    1    4    4    0    0 -0.35847370082E+01  0.39639101579E+01  0.38718863854E+02  0.39086116529E+02  0.10566000000E+00 0.  1.
         14    1    4    4    0    0 -0.53322152561E+01  0.45049893419E+01  0.51319371545E+02  0.51791942851E+02  0.00000000000E+00 0. -1.
<mgrwt>
<rscale>  0 0.71922390E+02</rscale>
<asrwt>0</asrwt>
<pdfrwt beam="1">  1        2 0.36231676E-01 0.71922390E+02</pdfrwt>
<pdfrwt beam="2">  1       -1 0.84479841E-03 0.71922390E+02</pdfrwt>
<totfact> 0.30864196E+05</totfact>
</mgrwt>
</event>
<event>
 8    1  0.2603554E-016  0.8007829E+02  0.7818608E-02  0.1328829E+00
         -1   -1    0    0    0  501 -0.00000000000E+00  0.00000000000E+00  0.32378696381E+02  0.32378696773E+02  0.50400000000E-02 0.  1.
          2   -1    0    0  501    0  0.00000000000E+00 -0.00000000000E+00 -0.49511967699E+02  0.49511967764E+02  0.25500000000E-02 0. -1.
         24    2    1    2    0    0  0.17763568394E-14 -0.17763568394E-14 -0.17133271318E+02  0.81890664538E+02  0.80078286397E+02 0.  0.
         66    2    3    3    0    0 -0.12625811962E+02  0.13219612569E+02 -0.44971920607E+02  0.48586447951E+02  0.19999992955E+01 0.  0.
        -13    1    3    3    0    0  0.12625811962E+02 -0.13219612569E+02  0.27838649289E+02  0.33304216587E+02  0.10566000000E+00 0.  1.
         13    1    4    4    0    0 -0.82636502172E+01  0.91350577298E+01 -0.29107766076E+02  0.31607125852E+02  0.10566000000E+00 0. -1.
        -13    1    4    4    0    0 -0.10732760418E+01  0.68746058141E+00 -0.25983961095E+01  0.28960921758E+01  0.10566000000E+00 0.  1.
        -14    1    4    4    0    0 -0.32888857025E+01  0.33970942580E+01 -0.13265758421E+02  0.14083229923E+02  0.00000000000E+00 0.  1.
<mgrwt>
<rscale>  0 0.80078286E+02</rscale>
<asrwt>0</asrwt>
<pdfrwt beam="1">  1        2 0.76172258E-02 0.80078286E+02</pdfrwt>
<pdfrwt beam="2">  1       -1 0.49813380E-02 0.80078286E+02</pdfrwt>
<totfact> 0.14871258E+05</totfact>
</mgrwt>
</event>
<event>
 8    1  0.2603554E-016  0.8018682E+02  0.7818608E-02  0.1328522E+00
          2   -1    0    0  501    0  0.00000000000E+00  0.00000000000E+00  0.11241104324E+02  0.11241104613E+02  0.25500000000E-02 0. -1.
         -1   -1    0    0    0  501 -0.00000000000E+00 -0.00000000000E+00 -0.14300030435E+03  0.14300030444E+03  0.50400000000E-02 0.  1.
         24    2    1    2    0    0  0.00000000000E+00  0.00000000000E+00 -0.13175920003E+03  0.15424140906E+03  0.80186816093E+02 0.  0.
         66    2    3    3    0    0  0.36014458130E+01  0.31341256580E+02 -0.18403867211E+02  0.36577959258E+02  0.19999998000E+01 0.  0.
        -13    1    3    3    0    0 -0.36014458130E+01 -0.31341256580E+02 -0.11335533282E+03  0.11766344980E+03  0.10566000000E+00 0.  1.
         13    1    4    4    0    0  0.21677265131E+01  0.15350860849E+02 -0.91137459813E+01  0.17983867684E+02  0.10566000000E+00 0. -1.
        -13    1    4    4    0    0  0.50983831748E+00  0.99607604605E+01 -0.51863788469E+01  0.11242169437E+02  0.10566000000E+00 0.  1.
        -14    1    4    4    0    0  0.92388098245E+00  0.60296352706E+01 -0.41037423826E+01  0.73519221371E+01  0.00000000000E+00 0.  1.
<mgrwt>
<rscale>  0 0.80186816E+02</rscale>
<asrwt>0</asrwt>
<pdfrwt beam="1">  1        2 0.17294008E-02 0.80186816E+02</pdfrwt>
<pdfrwt beam="2">  1       -1 0.22000046E-01 0.80186816E+02</pdfrwt>
<totfact> 0.10853764E+05</totfact>
</mgrwt>
</event>
<event>
 8    1  0.2603554E-016  0.8099440E+02  0.7818608E-02  0.1326253E+00
         -1   -1    0    0    0  501 -0.00000000000E+00  0.00000000000E+00  0.25897399851E+02  0.25897400342E+02  0.50400000000E-02 0.  1.
          2   -1    0    0  501    0  0.00000000000E+00 -0.00000000000E+00 -0.63327720635E+02  0.63327720686E+02  0.25500000000E-02 0. -1.
         24    2    1    2    0    0  0.35527136788E-14  0.00000000000E+00 -0.37430320783E+02  0.89225121028E+02  0.80994402946E+02 0.  0.
         66    2    3    3    0    0 -0.20131870868E+02 -0.31818568106E+02 -0.35077534268E+02  0.51498999184E+02  0.20000014317E+01 0.  0.
        -13    1    3    3    0    0  0.20131870868E+02  0.31818568106E+02 -0.23527865149E+01  0.37726121843E+02  0.10566000000E+00 0.  1.
         13    1    4    4    0    0 -0.12563783480E+02 -0.20253059298E+02 -0.22171330273E+02  0.32551714492E+02  0.10566000000E+00 0. -1.
        -13    1    4    4    0    0 -0.52127523154E+01 -0.74493486866E+01 -0.91264248342E+01  0.12882871452E+02  0.10566000000E+00 0.  1.
         14    1    4    4    0    0 -0.23553350724E+01 -0.41161601210E+01 -0.37797791611E+01  0.60644132405E+01  0.00000000000E+00 0. -1.
<mgrwt>
<rscale>  0 0.80994403E+02</rscale>
<asrwt>0</asrwt>
<pdfrwt beam="1">  1        2 0.97427262E-02 0.80994403E+02</pdfrwt>
<pdfrwt beam="2">  1       -1 0.39842154E-02 0.80994403E+02</pdfrwt>
<totfact> 0.15242862E+05</totfact>
</mgrwt>
</event>
<event>
 8    1  0.2603554E-016  0.8117268E+02  0.7818608E-02  0.1325756E+00
         -1   -1    0    0    0  501 -0.00000000000E+00  0.00000000000E+00  0.11055850001E+02  0.11055851150E+02  0.50400000000E-02 0.  1.
          2   -1    0    0  501    0  0.00000000000E+00 -0.00000000000E+00 -0.14899360274E+03  0.14899360276E+03  0.25500000000E-02 0. -1.
         24    2    1    2    0    0 -0.35527136788E-14  0.17763568394E-14 -0.13793775274E+03  0.16004945391E+03  0.81172680545E+02 0.  0.
         66    2    3    3    0    0 -0.17692969291E+02  0.12398402220E+02 -0.13669778131E+03  0.13840897718E+03  0.20000022449E+01 0.  0.
        -13    1    3    3    0    0  0.17692969291E+02 -0.12398402220E+02 -0.12399714269E+01  0.21640476730E+02  0.10566000000E+00 0.  1.
         13    1    4    4    0    0 -0.18521943493E+01  0.94756969476E+00 -0.15566005500E+02  0.15704782822E+02  0.10566000000E+00 0. -1.
        -13    1    4    4    0    0 -0.77823762773E+00  0.43761949313E+00 -0.69328801598E+01  0.69909338412E+01  0.10566000000E+00 0.  1.
         14    1    4    4    0    0 -0.15062537314E+02  0.11013213032E+02 -0.11419889565E+03  0.11571326052E+03  0.00000000000E+00 0. -1.
<mgrwt>
<rscale>  0 0.81172681E+02</rscale>
<asrwt>0</asrwt>
<pdfrwt beam="1">  1        2 0.22922091E-01 0.81172681E+02</pdfrwt>
<pdfrwt beam="2">  1       -1 0.17009002E-02 0.81172681E+02</pdfrwt>
<totfact> 0.19228917E+05</totfact>
</mgrwt>
</event>
<event>
 8    1  0.2603554E-016  0.7984142E+02  0.7818608E-02  0.1329502E+00
         -1   -1    0    0    0  501 -0.00000000000E+00  0.00000000000E+00  0.28053170014E+03  0.28053170019E+03  0.50400000000E-02 0.  1.
          2   -1    0    0  501    0  0.00000000000E+00 -0.00000000000E+00 -0.56808666608E+01  0.56808672331E+01  0.25500000000E-02 0. -1.
         24    2    1    2    0    0 -0.71054273576E-14  0.00000000000E+00  0.27485083348E+03  0.28621256742E+03  0.79841424612E+02 0.  0.
         66    2    3    3    0    0 -0.31758969027E+02  0.19750079471E+02  0.87715380157E+02  0.95376546691E+02  0.19999974773E+01 0.  0.
        -13    1    3    3    0    0  0.31758969027E+02 -0.19750079471E+02  0.18713545332E+03  0.19083602073E+03  0.10566000000E+00 0.  1.
         13    1    4    4    0    0 -0.12374775226E+02  0.72713700401E+01  0.33253038553E+02  0.36218553549E+02  0.10566000000E+00 0. -1.
        -13    1    4    4    0    0 -0.53981630121E+01  0.33124925342E+01  0.13421116915E+02  0.14840832658E+02  0.10566000000E+00 0.  1.
        -14    1    4    4    0    0 -0.13986030790E+02  0.91662168967E+01  0.41041224688E+02  0.44317160484E+02  0.00000000000E+00 0.  1.
<mgrwt>
<rscale>  0 0.79841425E+02</rscale>
<asrwt>0</asrwt>
<pdfrwt beam="1">  1        2 0.87397954E-03 0.79841425E+02</pdfrwt>
<pdfrwt beam="2">  1       -1 0.43158723E-01 0.79841425E+02</pdfrwt>
<totfact> 0.89206981E+04</totfact>
</mgrwt>
</event>
<event>
 8    1  0.2603554E-016  0.8482012E+02  0.7818608E-02  0.1315904E+00
         -1   -1    0    0    0  501 -0.00000000000E+00  0.00000000000E+00  0.10488632458E+02  0.10488633669E+02  0.50400000000E-02 0.  1.
          2   -1    0    0  501    0  0.00000000000E+00 -0.00000000000E+00 -0.17148214233E+03  0.17148214235E+03  0.25500000000E-02 0. -1.
         24    2    1    2    0    0 -0.44408920985E-15  0.71054273576E-14 -0.16099350987E+03  0.18197077601E+03  0.84820122043E+02 0.  0.
         66    2    3    3    0    0 -0.29629040222E+01  0.41545479033E+02 -0.63675614268E+02  0.76114318505E+02  0.20000001482E+01 0.  0.
        -13    1    3    3    0    0  0.29629040222E+01 -0.41545479033E+02 -0.97317895600E+02  0.10585645751E+03  0.10566000000E+00 0.  1.
         13    1    4    4    0    0 -0.15643706398E+01  0.21361409444E+02 -0.32148872051E+02  0.38630534647E+02  0.10566000000E+00 0. -1.
        -13    1    4    4    0    0 -0.25160213324E+00  0.10527234151E+02 -0.17222856744E+02  0.20187221724E+02  0.10566000000E+00 0.  1.
        -14    1    4    4    0    0 -0.11469312492E+01  0.96568354386E+01 -0.14303885474E+02  0.17296562133E+02  0.00000000000E+00 0.  1.
<mgrwt>
<rscale>  0 0.84820122E+02</rscale>
<asrwt>0</asrwt>
<pdfrwt beam="1">  1        2 0.26381866E-01 0.84820122E+02</pdfrwt>
<pdfrwt beam="2">  1       -1 0.16136360E-02 0.84820122E+02</pdfrwt>
<totfact> 0.17919057E+05</totfact>
</mgrwt>
</event>
<event>
 8    1  0.2603554E-016  0.7882428E+02  0.7818608E-02  0.1332421E+00
          2   -1    0    0  501    0  0.00000000000E+00  0.00000000000E+00  0.35229715998E+02  0.35229716090E+02  0.25500000000E-02 0. -1.
         -1   -1    0    0    0  501 -0.00000000000E+00 -0.00000000000E+00 -0.44091095219E+02  0.44091095507E+02  0.50400000000E-02 0.  1.
         24    2    1    2    0    0  0.00000000000E+00  0.00000000000E+00 -0.88613792209E+01  0.79320811597E+02  0.78824279957E+02 0.  0.
         66    2    3    3    0    0 -0.35071122591E+02  0.24869683970E+01  0.13430564090E+02  0.37690167208E+02  0.20000002101E+01 0.  0.
        -13    1    3    3    0    0  0.35071122591E+02 -0.24869683970E+01 -0.22291943311E+02  0.41630644388E+02  0.10566000000E+00 0.  1.
         13    1    4    4    0    0 -0.16642865007E+02  0.14888247147E+01  0.60451148498E+01  0.17769528195E+02  0.10566000000E+00 0. -1.
        -13    1    4    4    0    0 -0.81644731990E+01  0.10556281462E+01  0.30830980733E+01  0.87914521648E+01  0.10566000000E+00 0.  1.
        -14    1    4    4    0    0 -0.10263784384E+02 -0.57484463870E-01  0.43023511666E+01  0.11129186849E+02  0.00000000000E+00 0.  1.
<mgrwt>
<rscale>  0 0.78824280E+02</rscale>
<asrwt>0</asrwt>
<pdfrwt beam="1">  1        2 0.54199563E-02 0.78824280E+02</pdfrwt>
<pdfrwt beam="2">  1       -1 0.67832454E-02 0.78824280E+02</pdfrwt>
<totfact> 0.14475404E+05</totfact>
</mgrwt>
</event>
<event>
 8    1  0.2603554E-016  0.8151408E+02  0.7818608E-02  0.1324809E+00
         -1   -1    0    0    0  501 -0.00000000000E+00  0.00000000000E+00  0.25237033728E+02  0.25237034232E+02  0.50400000000E-02 0.  1.
          2   -1    0    0  501    0  0.00000000000E+00 -0.00000000000E+00 -0.65821378664E+02  0.65821378714E+02  0.25500000000E-02 0. -1.
         24    2    1    2    0    0  0.71054273576E-14  0.00000000000E+00 -0.40584344936E+02  0.91058412945E+02  0.81514081693E+02 0.  0.
         66    2    3    3    0    0 -0.40702041813E+02 -0.14915420776E+01 -0.20863441006E+02  0.45805721077E+02  0.20000018192E+01 0.  0.
        -13    1    3    3    0    0  0.40702041813E+02  0.14915420776E+01 -0.19720903930E+02  0.45252691869E+02  0.10566000000E+00 0.  1.
         13    1    4    4    0    0 -0.13935040729E+02  0.30252631710E+00 -0.69959755518E+01  0.15595887928E+02  0.10566000000E+00 0. -1.
        -13    1    4    4    0    0 -0.40453166494E+01 -0.52901849252E+00 -0.20195654230E+01  0.45534883213E+01  0.10566000000E+00 0.  1.
         14    1    4    4    0    0 -0.22721684434E+02 -0.12650499022E+01 -0.11847900031E+02  0.25656344828E+02  0.00000000000E+00 0. -1.
<mgrwt>
<rscale>  0 0.81514082E+02</rscale>
<asrwt>0</asrwt>
<pdfrwt beam="1">  1        2 0.10126366E-01 0.81514082E+02</pdfrwt>
<pdfrwt beam="2">  1       -1 0.38826206E-02 0.81514082E+02</pdfrwt>
<totfact> 0.15118626E+05</totfact>
</mgrwt>
</event>
<event>
 8    1  0.2603554E-016  0.7979828E+02  0.7818608E-02  0.1329625E+00
         -1   -1    0    0    0  501 -0.00000000000E+00  0.00000000000E+00  0.17714330637E+01  0.17714402335E+01  0.50400000000E-02 0.  1.
          2   -1    0    0  501    0  0.00000000000E+00 -0.00000000000E+00 -0.89867242555E+03  0.89867242556E+03  0.25500000000E-02 0. -1.
         24    2    1    2    0    0  0.00000000000E+00  0.00000000000E+00 -0.89690099249E+03  0.90044386579E+03  0.79798277618E+02 0.  0.
         66    2    3    3    0    0 -0.92546467308E+01  0.16046619775E+02 -0.84716913274E+03  0.84737399175E+03  0.19999844351E+01 0.  0.
        -13    1    3    3    0    0  0.92546467308E+01 -0.16046619775E+02 -0.49731859753E+02  0.53069874042E+02  0.10566000000E+00 0.  1.
         13    1    4    4    0    0 -0.13404337188E+01  0.21101944490E+01 -0.13720460334E+03  0.13722741717E+03  0.10566000000E+00 0. -1.
        -13    1    4    4    0    0 -0.30615592550E+01  0.41931109131E+01 -0.22581961452E+03  0.22587931466E+03  0.10566000000E+00 0.  1.
         14    1    4    4    0    0 -0.48526537570E+01  0.97433144125E+01 -0.48414491488E+03  0.48426725992E+03  0.00000000000E+00 0. -1.
<mgrwt>
<rscale>  0 0.79798278E+02</rscale>
<asrwt>0</asrwt>
<pdfrwt beam="1">  1        2 0.13825693E+00 0.79798278E+02</pdfrwt>
<pdfrwt beam="2">  1       -1 0.27252943E-03 0.79798278E+02</pdfrwt>
<totfact> 0.35170647E+05</totfact>
</mgrwt>
</event>
<event>
 8    1  0.2603554E-016  0.8058451E+02  0.7818608E-02  0.1327401E+00
          2   -1    0    0  501    0  0.00000000000E+00  0.00000000000E+00  0.34809077678E+02  0.34809077771E+02  0.25500000000E-02 0. -1.
         -1   -1    0    0    0  501 -0.00000000000E+00 -0.00000000000E+00 -0.46639147337E+02  0.46639147610E+02  0.50400000000E-02 0.  1.
         24    2    1    2    0    0  0.44408920985E-15  0.00000000000E+00 -0.11830069660E+02  0.81448225381E+02  0.80584507627E+02 0.  0.
         66    2    3    3    0    0  0.35924863833E+01  0.35884318766E+02  0.12186182135E+02  0.38119461193E+02  0.19999987257E+01 0.  0.
        -13    1    3    3    0    0 -0.35924863833E+01 -0.35884318766E+02 -0.24016251794E+02  0.43328764188E+02  0.10566000000E+00 0.  1.
         13    1    4    4    0    0  0.90315597835E+00  0.11346193507E+02  0.45445664188E+01  0.12256265573E+02  0.10566000000E+00 0. -1.
        -13    1    4    4    0    0  0.16045123691E+01  0.98698925852E+01  0.31437699733E+01  0.10482542309E+02  0.10566000000E+00 0.  1.
         14    1    4    4    0    0  0.10848180359E+01  0.14668232674E+02  0.44978457424E+01  0.15380653311E+02  0.00000000000E+00 0. -1.
<mgrwt>
<rscale>  0 0.80584508E+02</rscale>
<asrwt>0</asrwt>
<pdfrwt beam="1">  1        2 0.53552428E-02 0.80584508E+02</pdfrwt>
<pdfrwt beam="2">  1       -1 0.71752535E-02 0.80584508E+02</pdfrwt>
<totfact> 0.13580754E+05</totfact>
</mgrwt>
</event>
<event>
 8    1  0.2603554E-016  0.7978954E+02  0.7818608E-02  0.1329650E+00
         -1   -1    0    0    0  501 -0.00000000000E+00  0.00000000000E+00  0.33790792654E+02  0.33790793030E+02  0.50400000000E-02 0.  1.
          2   -1    0    0  501    0  0.00000000000E+00 -0.00000000000E+00 -0.47101375420E+02  0.47101375489E+02  0.25500000000E-02 0. -1.
         24    2    1    2    0    0  0.00000000000E+00  0.00000000000E+00 -0.13310582766E+02  0.80892168519E+02  0.79789543890E+02 0.  0.
         66    2    3    3    0    0  0.18076905622E+02  0.11937215265E+02 -0.40593129697E+02  0.46055117033E+02  0.20000002753E+01 0.  0.
        -13    1    3    3    0    0 -0.18076905622E+02 -0.11937215265E+02  0.27282546932E+02  0.34837051486E+02  0.10566000000E+00 0.  1.
         13    1    4    4    0    0  0.60805840778E+01  0.36182842486E+01 -0.12259822203E+02  0.14155560325E+02  0.10566000000E+00 0. -1.
        -13    1    4    4    0    0  0.34502524255E+01  0.20681929176E+01 -0.67349432589E+01  0.78455266541E+01  0.10566000000E+00 0.  1.
         14    1    4    4    0    0  0.85460691189E+01  0.62507380989E+01 -0.21598364235E+02  0.24054030053E+02  0.00000000000E+00 0. -1.
<mgrwt>
<rscale>  0 0.79789544E+02</rscale>
<asrwt>0</asrwt>
<pdfrwt beam="1">  1        2 0.72463654E-02 0.79789544E+02</pdfrwt>
<pdfrwt beam="2">  1       -1 0.51985836E-02 0.79789544E+02</pdfrwt>
<totfact> 0.14858731E+05</totfact>
</mgrwt>
</event>
<event>
 8    1  0.2603554E-016  0.8450417E+02  0.7818608E-02  0.1316734E+00
          2   -1    0    0  501    0  0.00000000000E+00  0.00000000000E+00  0.23161404768E+02  0.23161404909E+02  0.25500000000E-02 0. -1.
         -1   -1    0    0    0  501 -0.00000000000E+00 -0.00000000000E+00 -0.77078167157E+02  0.77078167322E+02  0.50400000000E-02 0.  1.
         24    2    1    2    0    0  0.00000000000E+00  0.00000000000E+00 -0.53916762388E+02  0.10023957223E+03  0.84504168977E+02 0.  0.
         66    2    3    3    0    0  0.29949720072E+02 -0.15955388144E+02  0.28396776051E+01  0.34111932109E+02  0.20000000241E+01 0.  0.
        -13    1    3    3    0    0 -0.29949720072E+02  0.15955388144E+02 -0.56756439993E+02  0.66127640121E+02  0.10566000000E+00 0.  1.
         13    1    4    4    0    0  0.17169740214E+02 -0.98347121526E+01  0.11283691611E+01  0.19819332056E+02  0.10566000000E+00 0. -1.
        -13    1    4    4    0    0  0.47365672871E+01 -0.18979532209E+01  0.71619788563E+00  0.51537752707E+01  0.10566000000E+00 0.  1.
         14    1    4    4    0    0  0.80434125714E+01 -0.42227227700E+01  0.99511055836E+00  0.91388247827E+01  0.00000000000E+00 0. -1.
<mgrwt>
<rscale>  0 0.84504169E+02</rscale>
<asrwt>0</asrwt>
<pdfrwt beam="1">  1        2 0.35632931E-02 0.84504169E+02</pdfrwt>
<pdfrwt beam="2">  1       -1 0.11858179E-01 0.84504169E+02</pdfrwt>
<totfact> 0.10931857E+05</totfact>
</mgrwt>
</event>
<event>
 8    1  0.2603554E-016  0.8096428E+02  0.7818608E-02  0.1326337E+00
         -1   -1    0    0    0  501 -0.00000000000E+00  0.00000000000E+00  0.93307915057E+02  0.93307915193E+02  0.50400000000E-02 0.  1.
          2   -1    0    0  501    0  0.00000000000E+00 -0.00000000000E+00 -0.17563393895E+02  0.17563394080E+02  0.25500000000E-02 0. -1.
         24    2    1    2    0    0  0.00000000000E+00  0.00000000000E+00  0.75744521162E+02  0.11087130927E+03  0.80964280605E+02 0.  0.
         66    2    3    3    0    0  0.23887387909E+02  0.25900800628E+02  0.10667599586E+02  0.36868095423E+02  0.20000012317E+01 0.  0.
        -13    1    3    3    0    0 -0.23887387909E+02 -0.25900800628E+02  0.65076921576E+02  0.74003213850E+02  0.10566000000E+00 0.  1.
         13    1    4    4    0    0  0.58489838757E+01  0.69170014944E+01  0.23510991607E+01  0.93591855068E+01  0.10566000000E+00 0. -1.
        -13    1    4    4    0    0  0.14795273820E+02  0.16138494227E+02  0.66237583885E+01  0.22874362560E+02  0.10566000000E+00 0.  1.
        -14    1    4    4    0    0  0.32431302131E+01  0.28453049069E+01  0.16927420371E+01  0.46345473562E+01  0.00000000000E+00 0.  1.
<mgrwt>
<rscale>  0 0.80964281E+02</rscale>
<asrwt>0</asrwt>
<pdfrwt beam="1">  1        2 0.27020606E-02 0.80964281E+02</pdfrwt>
<pdfrwt beam="2">  1       -1 0.14355064E-01 0.80964281E+02</pdfrwt>
<totfact> 0.11675548E+05</totfact>
</mgrwt>
</event>
<event>
 8    1  0.2603554E-016  0.8029369E+02  0.7818608E-02  0.1328220E+00
          2   -1    0    0  501    0  0.00000000000E+00  0.00000000000E+00  0.84482040230E+01  0.84482044078E+01  0.25500000000E-02 0. -1.
         -1   -1    0    0    0  501 -0.00000000000E+00 -0.00000000000E+00 -0.19078244212E+03  0.19078244218E+03  0.50400000000E-02 0.  1.
         24    2    1    2    0    0  0.00000000000E+00  0.00000000000E+00 -0.18233423809E+03  0.19923064659E+03  0.80293686924E+02 0.  0.
         66    2    3    3    0    0  0.26778234532E+02 -0.54507860384E+01 -0.18332358369E+02  0.32967564007E+02  0.20000000287E+01 0.  0.
        -13    1    3    3    0    0 -0.26778234532E+02  0.54507860384E+01 -0.16400187972E+03  0.16626308258E+03  0.10566000000E+00 0.  1.
         13    1    4    4    0    0  0.10488260226E+02 -0.22714926583E+01 -0.71779945000E+01  0.12911159923E+02  0.10566000000E+00 0. -1.
        -13    1    4    4    0    0  0.10814639051E+02 -0.17793542407E+01 -0.81295384228E+01  0.13646357694E+02  0.10566000000E+00 0.  1.
         14    1    4    4    0    0  0.54753352541E+01 -0.13999391394E+01 -0.30248254459E+01  0.64100463896E+01  0.00000000000E+00 0. -1.
<mgrwt>
<rscale>  0 0.80293687E+02</rscale>
<asrwt>0</asrwt>
<pdfrwt beam="1">  1        2 0.12997239E-02 0.80293687E+02</pdfrwt>
<pdfrwt beam="2">  1       -1 0.29351142E-01 0.80293687E+02</pdfrwt>
<totfact> 0.10007775E+05</totfact>
</mgrwt>
</event>
<event>
 8    1  0.2603554E-016  0.7543541E+02  0.7818608E-02  0.1342528E+00
         -1   -1    0    0    0  501 -0.00000000000E+00  0.00000000000E+00  0.98653075783E+01  0.98653088657E+01  0.50400000000E-02 0.  1.
          2   -1    0    0  501    0  0.00000000000E+00 -0.00000000000E+00 -0.14420486538E+03  0.14420486540E+03  0.25500000000E-02 0. -1.
         24    2    1    2    0    0  0.17763568394E-14  0.00000000000E+00 -0.13433955780E+03  0.15407017427E+03  0.75435414817E+02 0.  0.
         66    2    3    3    0    0 -0.14799753882E+02  0.16847866922E+02 -0.12909004674E+03  0.13103863361E+03  0.19999986772E+01 0.  0.
        -13    1    3    3    0    0  0.14799753882E+02 -0.16847866922E+02 -0.52495110574E+01  0.23031540660E+02  0.10566000000E+00 0.  1.
         13    1    4    4    0    0 -0.20403146208E+01  0.16659529876E+01 -0.15289630642E+02  0.15515226467E+02  0.10566000000E+00 0. -1.
        -13    1    4    4    0    0 -0.23804736402E+01  0.32651903751E+01 -0.25957122142E+02  0.26269972913E+02  0.10566000000E+00 0.  1.
        -14    1    4    4    0    0 -0.10378965621E+02  0.11916723559E+02 -0.87843293958E+02  0.89253434226E+02  0.00000000000E+00 0.  1.
<mgrwt>
<rscale>  0 0.75435415E+02</rscale>
<asrwt>0</asrwt>
<pdfrwt beam="1">  1        2 0.22185362E-01 0.75435415E+02</pdfrwt>
<pdfrwt beam="2">  1       -1 0.15177398E-02 0.75435415E+02</pdfrwt>
<totfact> 0.23106888E+05</totfact>
</mgrwt>
</event>
<event>
 8    1  0.2603554E-016  0.8075215E+02  0.7818608E-02  0.1326930E+00
          2   -1    0    0  501    0  0.00000000000E+00  0.00000000000E+00  0.58012785946E+02  0.58012786002E+02  0.25500000000E-02 0. -1.
         -1   -1    0    0    0  501 -0.00000000000E+00 -0.00000000000E+00 -0.28101176648E+02  0.28101177100E+02  0.50400000000E-02 0.  1.
         24    2    1    2    0    0  0.00000000000E+00  0.00000000000E+00  0.29911609298E+02  0.86113963102E+02  0.80752153348E+02 0.  0.
         66    2    3    3    0    0 -0.11027998655E+02 -0.71639129141E+01  0.55646117076E+02  0.57213885988E+02  0.20000004078E+01 0.  0.
        -13    1    3    3    0    0  0.11027998655E+02  0.71639129141E+01 -0.25734507778E+02  0.28900077114E+02  0.10566000000E+00 0.  1.
         13    1    4    4    0    0 -0.89337183133E+00 -0.12001526850E+01  0.65178804831E+01  0.66882291920E+01  0.10566000000E+00 0.  1.
        -13    1    4    4    0    0 -0.78139373323E+01 -0.45633876654E+01  0.35942806827E+02  0.37064520100E+02  0.10566000000E+00 0.  1.
         14    1    4    4    0    0 -0.23206894914E+01 -0.14003725637E+01  0.13185429766E+02  0.13461136696E+02  0.00000000000E+00 0. -1.
<mgrwt>
<rscale>  0 0.80752153E+02</rscale>
<asrwt>0</asrwt>
<pdfrwt beam="1">  1        2 0.89250439E-02 0.80752153E+02</pdfrwt>
<pdfrwt beam="2">  1       -1 0.43232580E-02 0.80752153E+02</pdfrwt>
<totfact> 0.15057208E+05</totfact>
</mgrwt>
</event>
<event>
 8    1  0.2603554E-016  0.8809338E+02  0.7818608E-02  0.1307536E+00
         -1   -1    0    0    0  501 -0.00000000000E+00  0.00000000000E+00  0.13151856096E+02  0.13151857061E+02  0.50400000000E-02 0.  1.
          2   -1    0    0  501    0  0.00000000000E+00 -0.00000000000E+00 -0.14751611321E+03  0.14751611323E+03  0.25500000000E-02 0. -1.
         24    2    1    2    0    0  0.00000000000E+00  0.00000000000E+00 -0.13436425712E+03  0.16066797030E+03  0.88093377098E+02 0.  0.
         66    2    3    3    0    0 -0.38511452777E+02  0.76763947857E+01 -0.10351269883E+03  0.11072911924E+03  0.19999992549E+01 0.  0.
        -13    1    3    3    0    0  0.38511452777E+02 -0.76763947857E+01 -0.30851558288E+02  0.49938851055E+02  0.10566000000E+00 0.  1.
         13    1    4    4    0    0 -0.27349291659E+02  0.52667442523E+01 -0.72467849975E+02  0.77635834467E+02  0.10566000000E+00 0. -1.
        -13    1    4    4    0    0 -0.50381476972E+01  0.75662188517E+00 -0.14884924294E+02  0.15733008110E+02  0.10566000000E+00 0.  1.
         14    1    4    4    0    0 -0.61240134205E+01  0.16530286483E+01 -0.16159924560E+02  0.17360276665E+02  0.00000000000E+00 0. -1.
<mgrwt>
<rscale>  0 0.88093377E+02</rscale>
<asrwt>0</asrwt>
<pdfrwt beam="1">  1        2 0.22694786E-01 0.88093377E+02</pdfrwt>
<pdfrwt beam="2">  1       -1 0.20233627E-02 0.88093377E+02</pdfrwt>
<totfact> 0.15405215E+05</totfact>
</mgrwt>
</event>
<event>
 8    1  0.2603554E-016  0.7953743E+02  0.7818608E-02  0.1330369E+00
          2   -1    0    0  501    0  0.00000000000E+00  0.00000000000E+00  0.29718326887E+03  0.29718326888E+03  0.25500000000E-02 0. -1.
         -1   -1    0    0    0  501 -0.00000000000E+00 -0.00000000000E+00 -0.53218015951E+01  0.53218039817E+01  0.50400000000E-02 0.  1.
         24    2    1    2    0    0 -0.17763568394E-14 -0.35527136788E-14  0.29186146727E+03  0.30250507286E+03  0.79537431613E+02 0.  0.
         66    2    3    3    0    0 -0.15110618957E+02 -0.27512797078E+02  0.23873768408E+03  0.24080067826E+03  0.20000104160E+01 0.  0.
        -13    1    3    3    0    0  0.15110618957E+02  0.27512797078E+02  0.53123783187E+02  0.61704394596E+02  0.10566000000E+00 0.  1.
         13    1    4    4    0    0 -0.18878966688E+01 -0.27554157343E+01  0.28118237380E+02  0.28316124507E+02  0.10566000000E+00 0. -1.
        -13    1    4    4    0    0 -0.37568102075E+01 -0.66091169394E+01  0.60674240603E+02  0.61148742313E+02  0.10566000000E+00 0.  1.
        -14    1    4    4    0    0 -0.94659120804E+01 -0.18148264405E+02  0.14994520610E+03  0.15133581144E+03  0.00000000000E+00 0.  1.
<mgrwt>
<rscale>  0 0.79537432E+02</rscale>
<asrwt>0</asrwt>
<pdfrwt beam="1">  1        2 0.45720498E-01 0.79537432E+02</pdfrwt>
<pdfrwt beam="2">  1       -1 0.81873898E-03 0.79537432E+02</pdfrwt>
<totfact> 0.25796723E+05</totfact>
</mgrwt>
</event>
<event>
 8    1  0.2603554E-016  0.8239657E+02  0.7818608E-02  0.1322385E+00
         -1   -1    0    0    0  501 -0.00000000000E+00  0.00000000000E+00  0.74876853458E+01  0.74876870420E+01  0.50400000000E-02 0.  1.
          2   -1    0    0  501    0  0.00000000000E+00 -0.00000000000E+00 -0.22667868558E+03  0.22667868559E+03  0.25500000000E-02 0. -1.
         24    2    1    2    0    0  0.00000000000E+00  0.00000000000E+00 -0.21919100023E+03  0.23416637263E+03  0.82396574504E+02 0.  0.
         66    2    3    3    0    0 -0.25858180275E+02  0.15787789022E+01 -0.20060898834E+03  0.20228471082E+03  0.19999999188E+01 0.  0.
        -13    1    3    3    0    0  0.25858180275E+02 -0.15787789022E+01 -0.18582011893E+02  0.31881661813E+02  0.10566000000E+00 0.  1.
         13    1    4    4    0    0 -0.15122390202E+02  0.21790057708E+00 -0.12204567549E+03  0.12297923498E+03  0.10566000000E+00 0. -1.
        -13    1    4    4    0    0 -0.57296894147E+01  0.80382847766E+00 -0.41627347453E+02  0.42027642106E+02  0.10566000000E+00 0. -1.
         14    1    4    4    0    0 -0.50061006574E+01  0.55704984751E+00 -0.36935965391E+02  0.37277833732E+02  0.00000000000E+00 0. -1.
<mgrwt>
<rscale>  0 0.82396575E+02</rscale>
<asrwt>0</asrwt>
<pdfrwt beam="1">  1        2 0.34873639E-01 0.82396575E+02</pdfrwt>
<pdfrwt beam="2">  1       -1 0.11519519E-02 0.82396575E+02</pdfrwt>
<totfact> 0.21323591E+05</totfact>
</mgrwt>
</event>
<event>
 8    1  0.2603554E-016  0.8024492E+02  0.7818608E-02  0.1328358E+00
         -1   -1    0    0    0  501 -0.00000000000E+00  0.00000000000E+00  0.50566228562E+01  0.50566253680E+01  0.50400000000E-02 0.  1.
          2   -1    0    0  501    0  0.00000000000E+00 -0.00000000000E+00 -0.31835701904E+03  0.31835701905E+03  0.25500000000E-02 0. -1.
         24    2    1    2    0    0  0.22204460493E-15  0.00000000000E+00 -0.31330039618E+03  0.32341364442E+03  0.80244919758E+02 0.  0.
         66    2    3    3    0    0 -0.16334568371E+01  0.39927647661E+02 -0.17006661075E+03  0.17470986611E+03  0.19999989405E+01 0.  0.
        -13    1    3    3    0    0  0.16334568371E+01 -0.39927647661E+02 -0.14323378543E+03  0.14870377831E+03  0.10566000000E+00 0.  1.
         13    1    4    4    0    0 -0.17650960342E+01  0.23335617725E+02 -0.99446248222E+02  0.10216278221E+03  0.10566000000E+00 0. -1.
        -13    1    4    4    0    0 -0.64050793718E-01  0.60258051168E+00 -0.28778676691E+01  0.29428714097E+01  0.10566000000E+00 0.  1.
        -14    1    4    4    0    0  0.19568999077E+00  0.15989449424E+02 -0.67742494857E+02  0.69604212494E+02  0.00000000000E+00 0.  1.
<mgrwt>
<rscale>  0 0.80244920E+02</rscale>
<asrwt>0</asrwt>
<pdfrwt beam="1">  1        2 0.48977987E-01 0.80244920E+02</pdfrwt>
<pdfrwt beam="2">  1       -1 0.77794243E-03 0.80244920E+02</pdfrwt>
<totfact> 0.25840031E+05</totfact>
</mgrwt>
</event>
<event>
 8    1  0.2603554E-016  0.7967597E+02  0.7818608E-02  0.1329974E+00
         -1   -1    0    0    0  501 -0.00000000000E+00  0.00000000000E+00  0.63499930584E+02  0.63499930784E+02  0.50400000000E-02 0.  1.
          2   -1    0    0  501    0  0.00000000000E+00 -0.00000000000E+00 -0.24993176147E+02  0.24993176277E+02  0.25500000000E-02 0. -1.
         24    2    1    2    0    0  0.00000000000E+00 -0.35527136788E-14  0.38506754437E+02  0.88493107061E+02  0.79675967895E+02 0.  0.
         66    2    3    3    0    0 -0.83491822067E+01  0.24828628309E+02 -0.14033852671E+02  0.29784537103E+02  0.20000006036E+01 0.  0.
        -13    1    3    3    0    0  0.83491822067E+01 -0.24828628309E+02  0.52540607109E+02  0.58708569959E+02  0.10566000000E+00 0.  1.
         13    1    4    4    0    0 -0.72511011988E+00  0.13511450607E+01 -0.72108977158E+00  0.16977962644E+01  0.10566000000E+00 0. -1.
        -13    1    4    4    0    0 -0.14748666537E+01  0.64833809823E+01 -0.32473708057E+01  0.74004082180E+01  0.10566000000E+00 0.  1.
        -14    1    4    4    0    0 -0.61492054331E+01  0.16994102266E+02 -0.10065392094E+02  0.20686332620E+02  0.00000000000E+00 0.  1.
<mgrwt>
<rscale>  0 0.79675968E+02</rscale>
<asrwt>0</asrwt>
<pdfrwt beam="1">  1        2 0.38451040E-02 0.79675968E+02</pdfrwt>
<pdfrwt beam="2">  1       -1 0.97692201E-02 0.79675968E+02</pdfrwt>
<totfact> 0.13129661E+05</totfact>
</mgrwt>
</event>
<event>
 8    1  0.2603554E-016  0.8882667E+02  0.7818608E-02  0.1305718E+00
          2   -1    0    0  501    0  0.00000000000E+00  0.00000000000E+00  0.50246224524E+03  0.50246224524E+03  0.25500000000E-02 0. -1.
         -1   -1    0    0    0  501 -0.00000000000E+00 -0.00000000000E+00 -0.39257549073E+01  0.39257581425E+01  0.50400000000E-02 0.  1.
         24    2    1    2    0    0  0.00000000000E+00  0.00000000000E+00  0.49853649033E+03  0.50638800338E+03  0.88826672700E+02 0.  0.
         66    2    3    3    0    0 -0.17544661082E+02 -0.12107671036E+02  0.47137128565E+03  0.47185728750E+03  0.19999997112E+01 0.  0.
        -13    1    3    3    0    0  0.17544661082E+02  0.12107671036E+02  0.27165204675E+02  0.34530715884E+02  0.10566000000E+00 0.  1.
         13    1    4    4    0    0 -0.72285242178E+01 -0.46080047975E+01  0.17756450856E+03  0.17777134509E+03  0.10566000000E+00 0.  1.
        -13    1    4    4    0    0 -0.97463541056E+01 -0.71895066227E+01  0.28365701505E+03  0.28391546942E+03  0.10566000000E+00 0. -1.
         14    1    4    4    0    0 -0.56978275811E+00 -0.31015961540E+00  0.10149762043E+02  0.10170472993E+02  0.00000000000E+00 0. -1.
<mgrwt>
<rscale>  0 0.88826673E+02</rscale>
<asrwt>0</asrwt>
<pdfrwt beam="1">  1        2 0.77301840E-01 0.88826673E+02</pdfrwt>
<pdfrwt beam="2">  1       -1 0.60396289E-03 0.88826673E+02</pdfrwt>
<totfact> 0.23185925E+05</totfact>
</mgrwt>
</event>
<event>
 8    1  0.2603554E-016  0.8449444E+02  0.7818608E-02  0.1316760E+00
         -1   -1    0    0    0  501 -0.00000000000E+00  0.00000000000E+00  0.22658542324E+02  0.22658542885E+02  0.50400000000E-02 0.  1.
          2   -1    0    0  501    0  0.00000000000E+00 -0.00000000000E+00 -0.78770618397E+02  0.78770618438E+02  0.25500000000E-02 0. -1.
         24    2    1    2    0    0  0.00000000000E+00  0.35527136788E-14 -0.56112076072E+02  0.10142916132E+03  0.84494435826E+02 0.  0.
         66    2    3    3    0    0 -0.33919029913E+02  0.20869467529E+02 -0.11232062132E+02  0.41426977359E+02  0.19999920428E+01 0.  0.
        -13    1    3    3    0    0  0.33919029913E+02 -0.20869467529E+02 -0.44880013940E+02  0.60002183964E+02  0.10566000000E+00 0.  1.
         13    1    4    4    0    0 -0.91367812588E+01  0.55546516946E+01 -0.31502466605E+01  0.11147652007E+02  0.10566000000E+00 0. -1.
        -13    1    4    4    0    0 -0.68694805857E+00  0.34354055830E+00 -0.47603365460E+00  0.90977460191E+00  0.10566000000E+00 0.  1.
         14    1    4    4    0    0 -0.24095300595E+02  0.14971275276E+02 -0.76057818169E+01  0.29369550749E+02  0.00000000000E+00 0. -1.
<mgrwt>
<rscale>  0 0.84494436E+02</rscale>
<asrwt>0</asrwt>
<pdfrwt beam="1">  1        2 0.12118557E-01 0.84494436E+02</pdfrwt>
<pdfrwt beam="2">  1       -1 0.34859297E-02 0.84494436E+02</pdfrwt>
<totfact> 0.14342818E+05</totfact>
</mgrwt>
</event>
<event>
 8    1  0.2603554E-016  0.7785626E+02  0.7818608E-02  0.1335248E+00
         -1   -1    0    0    0  501 -0.00000000000E+00  0.00000000000E+00  0.18781824026E+03  0.18781824033E+03  0.50400000000E-02 0.  1.
          2   -1    0    0  501    0  0.00000000000E+00 -0.00000000000E+00 -0.80684342784E+01  0.80684346814E+01  0.25500000000E-02 0. -1.
         24    2    1    2    0    0 -0.22204460493E-15 -0.71054273576E-14  0.17974980598E+03  0.19588667501E+03  0.77856256625E+02 0.  0.
         66    2    3    3    0    0 -0.13801326184E+01 -0.37654221126E+02  0.65586049643E+02  0.75665547249E+02  0.19999995109E+01 0.  0.
        -13    1    3    3    0    0  0.13801326184E+01  0.37654221126E+02  0.11416375634E+03  0.12022112776E+03  0.10566000000E+00 0.  1.
         13    1    4    4    0    0 -0.12978539404E+01 -0.27303456648E+02  0.46748630722E+02  0.54153566902E+02  0.10566000000E+00 0. -1.
        -13    1    4    4    0    0  0.41483248616E-01 -0.18842309071E+01  0.28069820362E+01  0.33826556370E+01  0.10566000000E+00 0.  1.
        -14    1    4    4    0    0 -0.12376192663E+00 -0.84665335702E+01  0.16030436885E+02  0.18129324710E+02  0.00000000000E+00 0.  1.
<mgrwt>
<rscale>  0 0.77856257E+02</rscale>
<asrwt>0</asrwt>
<pdfrwt beam="1">  1        2 0.12412977E-02 0.77856257E+02</pdfrwt>
<pdfrwt beam="2">  1       -1 0.28895112E-01 0.77856257E+02</pdfrwt>
<totfact> 0.10872802E+05</totfact>
</mgrwt>
</event>
<event>
 8    1  0.2603554E-016  0.7111768E+02  0.7818608E-02  0.1356333E+00
         -1   -1    0    0    0  501 -0.00000000000E+00  0.00000000000E+00  0.53830629980E+01  0.53830653574E+01  0.50400000000E-02 0.  1.
          2   -1    0    0  501    0  0.00000000000E+00 -0.00000000000E+00 -0.23489059813E+03  0.23489059815E+03  0.25500000000E-02 0. -1.
         24    2    1    2    0    0  0.00000000000E+00  0.35527136788E-14 -0.22950753513E+03  0.24027366350E+03  0.71117681978E+02 0.  0.
         66    2    3    3    0    0  0.24470506746E+02 -0.21763229976E+02 -0.16141203211E+03  0.16471274387E+03  0.20000011440E+01 0.  0.
        -13    1    3    3    0    0 -0.24470506746E+02  0.21763229976E+02 -0.68095503028E+02  0.75560919635E+02  0.10566000000E+00 0.  1.
         13    1    4    4    0    0  0.10109862354E+02 -0.95034207251E+01 -0.72272635697E+02  0.73592590367E+02  0.10566000000E+00 0. -1.
        -13    1    4    4    0    0  0.10305990894E+02 -0.84284980499E+01 -0.63584937342E+02  0.64963901118E+02  0.10566000000E+00 0. -1.
        -14    1    4    4    0    0  0.40546534980E+01 -0.38313112012E+01 -0.25554459067E+02  0.26156252382E+02  0.00000000000E+00 0.  1.
<mgrwt>
<rscale>  0 0.71117682E+02</rscale>
<asrwt>0</asrwt>
<pdfrwt beam="1">  1        2 0.36137007E-01 0.71117682E+02</pdfrwt>
<pdfrwt beam="2">  1       -1 0.82816391E-03 0.71117682E+02</pdfrwt>
<totfact> 0.31750324E+05</totfact>
</mgrwt>
</event>
<event>
 8    1  0.2603554E-016  0.7975887E+02  0.7818608E-02  0.1329737E+00
          2   -1    0    0  501    0  0.00000000000E+00  0.00000000000E+00  0.20354157950E+03  0.20354157952E+03  0.25500000000E-02 0. -1.
         -1   -1    0    0    0  501 -0.00000000000E+00 -0.00000000000E+00 -0.78134859726E+01  0.78134875980E+01  0.50400000000E-02 0.  1.
         24    2    1    2    0    0  0.17763568394E-14  0.00000000000E+00  0.19572809353E+03  0.21135506712E+03  0.79758872854E+02 0.  0.
         66    2    3    3    0    0 -0.13821095039E+02 -0.26823395980E+01  0.19672701572E+03  0.19724030097E+03  0.19999996709E+01 0.  0.
        -13    1    3    3    0    0  0.13821095039E+02  0.26823395980E+01 -0.99892219017E+00  0.14114766147E+02  0.10566000000E+00 0.  1.
         13    1    4    4    0    0 -0.10454769427E+02 -0.15844876659E+01  0.14376095062E+03  0.14414934926E+03  0.10566000000E+00 0. -1.
        -13    1    4    4    0    0 -0.20743372233E+01 -0.51683301245E+00  0.26125875231E+02  0.26213403287E+02  0.10566000000E+00 0.  1.
        -14    1    4    4    0    0 -0.12919883891E+01 -0.58101891966E+00  0.26840189871E+02  0.26877548424E+02  0.00000000000E+00 0.  1.
<mgrwt>
<rscale>  0 0.79758873E+02</rscale>
<asrwt>0</asrwt>
<pdfrwt beam="1">  1        2 0.31314087E-01 0.79758873E+02</pdfrwt>
<pdfrwt beam="2">  1       -1 0.12020750E-02 0.79758873E+02</pdfrwt>
<totfact> 0.22371053E+05</totfact>
</mgrwt>
</event>
<event>
 8    1  0.2603554E-016  0.8073888E+02  0.7818608E-02  0.1326968E+00
         -1   -1    0    0    0  501 -0.00000000000E+00  0.00000000000E+00  0.15195788092E+02  0.15195788928E+02  0.50400000000E-02 0.  1.
          2   -1    0    0  501    0  0.00000000000E+00 -0.00000000000E+00 -0.10724626347E+03  0.10724626350E+03  0.25500000000E-02 0. -1.
         24    2    1    2    0    0  0.35527136788E-14 -0.17763568394E-14 -0.92050475375E+02  0.12244205243E+03  0.80738876543E+02 0.  0.
         66    2    3    3    0    0  0.19352701158E+02 -0.13711476408E+02 -0.95547598739E+02  0.98467635576E+02  0.20000009638E+01 0.  0.
        -13    1    3    3    0    0 -0.19352701158E+02  0.13711476408E+02  0.34971233639E+01  0.23974416849E+02  0.10566000000E+00 0.  1.
         13    1    4    4    0    0  0.43730080663E+01 -0.25883918640E+01 -0.20398407027E+02  0.21022110866E+02  0.10566000000E+00 0. -1.
        -13    1    4    4    0    0  0.13530214196E+02 -0.10465446440E+02 -0.69725727948E+02  0.71793318403E+02  0.10566000000E+00 0.  1.
        -14    1    4    4    0    0  0.14494788961E+01 -0.65763810417E+00 -0.54234637632E+01  0.56522063070E+01  0.00000000000E+00 0.  1.
<mgrwt>
<rscale>  0 0.80738877E+02</rscale>
<asrwt>0</asrwt>
<pdfrwt beam="1">  1        2 0.16499425E-01 0.80738877E+02</pdfrwt>
<pdfrwt beam="2">  1       -1 0.23378137E-02 0.80738877E+02</pdfrwt>
<totfact> 0.17641675E+05</totfact>
</mgrwt>
</event>
<event>
 8    1  0.2603554E-016  0.8045850E+02  0.7818608E-02  0.1327755E+00
         -1   -1    0    0    0  501 -0.00000000000E+00  0.00000000000E+00  0.12453776132E+02  0.12453777152E+02  0.50400000000E-02 0.  1.
          2   -1    0    0  501    0  0.00000000000E+00 -0.00000000000E+00 -0.12995193714E+03  0.12995193716E+03  0.25500000000E-02 0. -1.
         24    2    1    2    0    0  0.35527136788E-14  0.00000000000E+00 -0.11749816101E+03  0.14240571432E+03  0.80458496317E+02 0.  0.
         66    2    3    3    0    0 -0.24055889220E+02  0.71231318602E+00 -0.11578668411E+03  0.11827827116E+03  0.20000035598E+01 0.  0.
        -13    1    3    3    0    0  0.24055889220E+02 -0.71231318602E+00 -0.17114768982E+01  0.24127443160E+02  0.10566000000E+00 0.  1.
         13    1    4    4    0    0 -0.35199001926E+01 -0.24780881972E+00 -0.16587857023E+02  0.16959341710E+02  0.10566000000E+00 0.  1.
        -13    1    4    4    0    0 -0.71346995229E+01  0.10701845385E+01 -0.35274063885E+02  0.36004443881E+02  0.10566000000E+00 0.  1.
         14    1    4    4    0    0 -0.13401289505E+02 -0.11006253279E+00 -0.63924763202E+02  0.65314485565E+02  0.00000000000E+00 0. -1.
<mgrwt>
<rscale>  0 0.80458496E+02</rscale>
<asrwt>0</asrwt>
<pdfrwt beam="1">  1        2 0.19992605E-01 0.80458496E+02</pdfrwt>
<pdfrwt beam="2">  1       -1 0.19159657E-02 0.80458496E+02</pdfrwt>
<totfact> 0.18855265E+05</totfact>
</mgrwt>
</event>
<event>
 8    1  0.2603554E-016  0.7902133E+02  0.7818608E-02  0.1331852E+00
          2   -1    0    0  501    0  0.00000000000E+00  0.00000000000E+00  0.71086869489E+02  0.71086869535E+02  0.25500000000E-02 0. -1.
         -1   -1    0    0    0  501 -0.00000000000E+00 -0.00000000000E+00 -0.21960353466E+02  0.21960354045E+02  0.50400000000E-02 0.  1.
         24    2    1    2    0    0  0.00000000000E+00  0.00000000000E+00  0.49126516023E+02  0.93047223580E+02  0.79021334077E+02 0.  0.
         66    2    3    3    0    0 -0.10324372619E+02  0.65043025442E+01  0.68796812827E+02  0.69899213688E+02  0.19999993823E+01 0.  0.
        -13    1    3    3    0    0  0.10324372619E+02 -0.65043025442E+01 -0.19670296804E+02  0.23148009892E+02  0.10566000000E+00 0.  1.
         13    1    4    4    0    0 -0.20448414499E+01  0.18333066560E+01  0.15274878059E+02  0.15520162808E+02  0.10566000000E+00 0. -1.
        -13    1    4    4    0    0 -0.49454058063E+01  0.30796679533E+01  0.28908095699E+02  0.29489499051E+02  0.10566000000E+00 0.  1.
        -14    1    4    4    0    0 -0.33341253630E+01  0.15913279349E+01  0.24613839069E+02  0.24889551829E+02  0.00000000000E+00 0.  1.
<mgrwt>
<rscale>  0 0.79021334E+02</rscale>
<asrwt>0</asrwt>
<pdfrwt beam="1">  1        2 0.10936441E-01 0.79021334E+02</pdfrwt>
<pdfrwt beam="2">  1       -1 0.33785160E-02 0.79021334E+02</pdfrwt>
<totfact> 0.16755941E+05</totfact>
</mgrwt>
</event>
<event>
 8    1  0.2603554E-016  0.8526071E+02  0.7818608E-02  0.1314752E+00
         -1   -1    0    0    0  501 -0.00000000000E+00  0.00000000000E+00  0.10357558909E+02  0.10357560136E+02  0.50400000000E-02 0.  1.
          2   -1    0    0  501    0  0.00000000000E+00 -0.00000000000E+00 -0.17546093412E+03  0.17546093414E+03  0.25500000000E-02 0. -1.
         24    2    1    2    0    0  0.71054273576E-14  0.71054273576E-14 -0.16510337521E+03  0.18581849427E+03  0.85260707881E+02 0.  0.
         66    2    3    3    0    0 -0.27209853441E+02 -0.20395511524E+02 -0.13854428019E+03  0.14267049656E+03  0.20000000596E+01 0.  0.
        -13    1    3    3    0    0  0.27209853441E+02  0.20395511524E+02 -0.26559095024E+02  0.43147997719E+02  0.10566000000E+00 0.  1.
         13    1    4    4    0    0 -0.87207155322E+01 -0.56082830558E+01 -0.43208267850E+02  0.44435000763E+02  0.10566000000E+00 0. -1.
        -13    1    4    4    0    0 -0.55243689369E+00 -0.44731528480E+00 -0.33604858874E+01  0.34364672151E+01  0.10566000000E+00 0.  1.
        -14    1    4    4    0    0 -0.17936701015E+02 -0.14339913184E+02 -0.91975526450E+02  0.94799028577E+02  0.00000000000E+00 0.  1.
<mgrwt>
<rscale>  0 0.85260708E+02</rscale>
<asrwt>0</asrwt>
<pdfrwt beam="1">  1        2 0.26993988E-01 0.85260708E+02</pdfrwt>
<pdfrwt beam="2">  1       -1 0.15934708E-02 0.85260708E+02</pdfrwt>
<totfact> 0.17811251E+05</totfact>
</mgrwt>
</event>
<event>
 8    1  0.2603554E-016  0.7912635E+02  0.7818608E-02  0.1331549E+00
         -1   -1    0    0    0  501 -0.00000000000E+00  0.00000000000E+00  0.22589306321E+01  0.22589362546E+01  0.50400000000E-02 0.  1.
          2   -1    0    0  501    0  0.00000000000E+00 -0.00000000000E+00 -0.69291315551E+03  0.69291315551E+03  0.25500000000E-02 0. -1.
         24    2    1    2    0    0  0.00000000000E+00 -0.35527136788E-14 -0.69065422487E+03  0.69517209177E+03  0.79126347275E+02 0.  0.
         66    2    3    3    0    0  0.13905413024E+02 -0.24595463779E+02 -0.58853554077E+03  0.58921675138E+03  0.20000006215E+01 0.  0.
        -13    1    3    3    0    0 -0.13905413024E+02  0.24595463779E+02 -0.10211868410E+03  0.10595534039E+03  0.10566000000E+00 0.  1.
         13    1    4    4    0    0  0.45632943090E+01 -0.81967211713E+01 -0.19273353521E+03  0.19296174920E+03  0.10566000000E+00 0. -1.
        -13    1    4    4    0    0  0.66062563481E+00 -0.94388818113E+00 -0.32883764336E+02  0.32904110261E+02  0.10566000000E+00 0.  1.
        -14    1    4    4    0    0  0.86814930805E+01 -0.15454854427E+02 -0.36291824122E+03  0.36335089192E+03  0.00000000000E+00 0.  1.
<mgrwt>
<rscale>  0 0.79126347E+02</rscale>
<asrwt>0</asrwt>
<pdfrwt beam="1">  1        2 0.10660185E+00 0.79126347E+02</pdfrwt>
<pdfrwt beam="2">  1       -1 0.34752877E-03 0.79126347E+02</pdfrwt>
<totfact> 0.34339126E+05</totfact>
</mgrwt>
</event>
<event>
 8    1  0.2603554E-016  0.7419507E+02  0.7818608E-02  0.1346382E+00
         -1   -1    0    0    0  501 -0.00000000000E+00  0.00000000000E+00  0.21759874904E+01  0.21759933272E+01  0.50400000000E-02 0.  1.
          2   -1    0    0  501    0  0.00000000000E+00 -0.00000000000E+00 -0.63246010275E+03  0.63246010276E+03  0.25500000000E-02 0. -1.
         24    2    1    2    0    0  0.17763568394E-14  0.35527136788E-14 -0.63028411526E+03  0.63463609609E+03  0.74195070606E+02 0.  0.
         66    2    3    3    0    0 -0.15558944282E+02 -0.30543259634E+02 -0.43611001708E+03  0.43745961923E+03  0.20000006686E+01 0.  0.
        -13    1    3    3    0    0  0.15558944282E+02  0.30543259634E+02 -0.19417409819E+03  0.19717647686E+03  0.10566000000E+00 0.  1.
         13    1    4    4    0    0 -0.31179676971E+01 -0.63704560942E+01 -0.93049044693E+02  0.93319024404E+02  0.10566000000E+00 0. -1.
        -13    1    4    4    0    0 -0.88252262993E+01 -0.18609313784E+02 -0.26272523703E+03  0.26353131221E+03  0.10566000000E+00 0.  1.
        -14    1    4    4    0    0 -0.36157502860E+01 -0.55634897561E+01 -0.80335735353E+02  0.80609282612E+02  0.00000000000E+00 0.  1.
<mgrwt>
<rscale>  0 0.74195071E+02</rscale>
<asrwt>0</asrwt>
<pdfrwt beam="1">  1        2 0.97301408E-01 0.74195071E+02</pdfrwt>
<pdfrwt beam="2">  1       -1 0.33476826E-03 0.74195071E+02</pdfrwt>
<totfact> 0.39657578E+05</totfact>
</mgrwt>
</event>
<event>
 8    1  0.2603554E-016  0.7619949E+02  0.7818608E-02  0.1340196E+00
         -1   -1    0    0    0  501 -0.00000000000E+00  0.00000000000E+00  0.34123292999E+01  0.34123330219E+01  0.50400000000E-02 0.  1.
          2   -1    0    0  501    0  0.00000000000E+00 -0.00000000000E+00 -0.42539559316E+03  0.42539559317E+03  0.25500000000E-02 0. -1.
         24    2    1    2    0    0  0.00000000000E+00  0.71054273576E-14 -0.42198326386E+03  0.42880792619E+03  0.76199492026E+02 0.  0.
         66    2    3    3    0    0  0.80686369384E+01  0.35624363836E+02 -0.27158572785E+03  0.27403832903E+03  0.20000022467E+01 0.  0.
        -13    1    3    3    0    0 -0.80686369384E+01 -0.35624363836E+02 -0.15039753602E+03  0.15476959716E+03  0.10566000000E+00 0.  1.
         13    1    4    4    0    0  0.38812313695E+01  0.17730721831E+02 -0.13947424782E+03  0.14065034455E+03  0.10566000000E+00 0. -1.
        -13    1    4    4    0    0  0.27280512314E+01  0.92896089838E+01 -0.69755306058E+02  0.70424093788E+02  0.10566000000E+00 0.  1.
        -14    1    4    4    0    0  0.14593543375E+01  0.86040330209E+01 -0.62356173969E+02  0.62963890694E+02  0.00000000000E+00 0.  1.
<mgrwt>
<rscale>  0 0.76199492E+02</rscale>
<asrwt>0</asrwt>
<pdfrwt beam="1">  1        2 0.65445434E-01 0.76199492E+02</pdfrwt>
<pdfrwt beam="2">  1       -1 0.52497436E-03 0.76199492E+02</pdfrwt>
<totfact> 0.32762701E+05</totfact>
</mgrwt>
</event>
<event>
 8    1  0.2603554E-016  0.8077557E+02  0.7818608E-02  0.1326865E+00
         -1   -1    0    0    0  501 -0.00000000000E+00  0.00000000000E+00  0.42066889081E+02  0.42066889383E+02  0.50400000000E-02 0.  1.
          2   -1    0    0  501    0  0.00000000000E+00 -0.00000000000E+00 -0.38775701574E+02  0.38775701658E+02  0.25500000000E-02 0. -1.
         24    2    1    2    0    0  0.00000000000E+00  0.00000000000E+00  0.32911875065E+01  0.80842591041E+02  0.80775569395E+02 0.  0.
         66    2    3    3    0    0 -0.21643973448E+02  0.28145365558E+02 -0.17566854512E+02  0.39663806820E+02  0.20000012476E+01 0.  0.
        -13    1    3    3    0    0  0.21643973448E+02 -0.28145365558E+02  0.20858042018E+02  0.41178784221E+02  0.10566000000E+00 0.  1.
         13    1    4    4    0    0 -0.47926443053E+01  0.55068480115E+01 -0.33016253796E+01  0.80129088751E+01  0.10566000000E+00 0.  1.
        -13    1    4    4    0    0 -0.55086671825E+01  0.82066536559E+01 -0.54616464781E+01  0.11293153884E+02  0.10566000000E+00 0. -1.
        -14    1    4    4    0    0 -0.11342661961E+02  0.14431863891E+02 -0.88035826539E+01  0.20357744061E+02  0.00000000000E+00 0.  1.
<mgrwt>
<rscale>  0 0.80775569E+02</rscale>
<asrwt>0</asrwt>
<pdfrwt beam="1">  1        2 0.59654926E-02 0.80775569E+02</pdfrwt>
<pdfrwt beam="2">  1       -1 0.64718291E-02 0.80775569E+02</pdfrwt>
<totfact> 0.13791107E+05</totfact>
</mgrwt>
</event>
<event>
 8    1  0.2603554E-016  0.8175011E+02  0.7818608E-02  0.1324157E+00
         -1   -1    0    0    0  501 -0.00000000000E+00  0.00000000000E+00  0.25746387267E+02  0.25746387760E+02  0.50400000000E-02 0.  1.
          2   -1    0    0  501    0  0.00000000000E+00 -0.00000000000E+00 -0.64893372863E+02  0.64893372913E+02  0.25500000000E-02 0. -1.
         24    2    1    2    0    0  0.35527136788E-14 -0.88817841970E-15 -0.39146985596E+02  0.90639760674E+02  0.81750105405E+02 0.  0.
         66    2    3    3    0    0 -0.20030026573E+02  0.76599134805E+01 -0.58135104989E+02  0.61996505252E+02  0.19999980762E+01 0.  0.
        -13    1    3    3    0    0  0.20030026573E+02 -0.76599134805E+01  0.18988119393E+02  0.28643255422E+02  0.10566000000E+00 0.  1.
         13    1    4    4    0    0 -0.59183935684E+01  0.20724024216E+01 -0.15537325550E+02  0.16755353876E+02  0.10566000000E+00 0. -1.
        -13    1    4    4    0    0 -0.11731010825E+01  0.19166038489E+00 -0.26909929411E+01  0.29437233052E+01  0.10566000000E+00 0. -1.
         14    1    4    4    0    0 -0.12938531922E+02  0.53958506740E+01 -0.39906786498E+02  0.42297428071E+02  0.00000000000E+00 0. -1.
<mgrwt>
<rscale>  0 0.81750105E+02</rscale>
<asrwt>0</asrwt>
<pdfrwt beam="1">  1        2 0.99835958E-02 0.81750105E+02</pdfrwt>
<pdfrwt beam="2">  1       -1 0.39609827E-02 0.81750105E+02</pdfrwt>
<totfact> 0.14949173E+05</totfact>
</mgrwt>
</event>
<event>
 8    1  0.2603554E-016  0.7974758E+02  0.7818608E-02  0.1329769E+00
         -1   -1    0    0    0  501 -0.00000000000E+00  0.00000000000E+00  0.88174840080E+01  0.88174854484E+01  0.50400000000E-02 0.  1.
          2   -1    0    0  501    0  0.00000000000E+00 -0.00000000000E+00 -0.18031435729E+03  0.18031435731E+03  0.25500000000E-02 0. -1.
         24    2    1    2    0    0  0.00000000000E+00 -0.71054273576E-14 -0.17149687328E+03  0.18913184276E+03  0.79747579267E+02 0.  0.
         66    2    3    3    0    0  0.24409370163E+01 -0.33550500053E+02 -0.35140273575E+02  0.48687093211E+02  0.19999977641E+01 0.  0.
        -13    1    3    3    0    0 -0.24409370163E+01  0.33550500053E+02 -0.13635659971E+03  0.14044474955E+03  0.10566000000E+00 0.  1.
         13    1    4    4    0    0  0.53758986808E+00 -0.95396180075E+01 -0.98867685370E+01  0.13749642568E+02  0.10566000000E+00 0. -1.
        -13    1    4    4    0    0  0.53006889934E+00 -0.59532082245E+01 -0.52726112723E+01  0.79707750480E+01  0.10566000000E+00 0. -1.
        -14    1    4    4    0    0  0.13732782489E+01 -0.18057673821E+02 -0.19980893766E+02  0.26966675595E+02  0.00000000000E+00 0.  1.
<mgrwt>
<rscale>  0 0.79747579E+02</rscale>
<asrwt>0</asrwt>
<pdfrwt beam="1">  1        2 0.27740668E-01 0.79747579E+02</pdfrwt>
<pdfrwt beam="2">  1       -1 0.13565363E-02 0.79747579E+02</pdfrwt>
<totfact> 0.21465600E+05</totfact>
</mgrwt>
</event>
<event>
 8    1  0.2603554E-016  0.7934632E+02  0.7818608E-02  0.1330917E+00
          2   -1    0    0  501    0  0.00000000000E+00  0.00000000000E+00  0.61090568088E+03  0.61090568089E+03  0.25500000000E-02 0. -1.
         -1   -1    0    0    0  501 -0.00000000000E+00 -0.00000000000E+00 -0.25764336243E+01  0.25764385539E+01  0.50400000000E-02 0.  1.
         24    2    1    2    0    0  0.00000000000E+00  0.00000000000E+00  0.60832924726E+03  0.61348211944E+03  0.79346315636E+02 0.  0.
         66    2    3    3    0    0  0.13732342494E+02 -0.90754580944E+01  0.58323646376E+03  0.58347211914E+03  0.19999982980E+01 0.  0.
        -13    1    3    3    0    0 -0.13732342494E+02  0.90754580944E+01  0.25092783503E+02  0.30010000299E+02  0.10566000000E+00 0.  1.
         13    1    4    4    0    0  0.33874208585E+01 -0.30755287750E+01  0.15702980723E+03  0.15709648316E+03  0.10566000000E+00 0. -1.
        -13    1    4    4    0    0  0.68819440955E+00 -0.64486854420E+00  0.39175184520E+02  0.39186677751E+02  0.10566000000E+00 0.  1.
         14    1    4    4    0    0  0.96567272256E+01 -0.53550607753E+01  0.38703147200E+03  0.38718895823E+03  0.00000000000E+00 0. -1.
<mgrwt>
<rscale>  0 0.79346316E+02</rscale>
<asrwt>0</asrwt>
<pdfrwt beam="1">  1        2 0.93985515E-01 0.79346316E+02</pdfrwt>
<pdfrwt beam="2">  1       -1 0.39637468E-03 0.79346316E+02</pdfrwt>
<totfact> 0.33020844E+05</totfact>
</mgrwt>
</event>
<event>
 8    1  0.2603554E-016  0.8054878E+02  0.7818608E-02  0.1327501E+00
         -1   -1    0    0    0  501 -0.00000000000E+00  0.00000000000E+00  0.21785416857E+01  0.21785475156E+01  0.50400000000E-02 0.  1.
          2   -1    0    0  501    0  0.00000000000E+00 -0.00000000000E+00 -0.74454600045E+03  0.74454600045E+03  0.25500000000E-02 0. -1.
         24    2    1    2    0    0  0.00000000000E+00  0.00000000000E+00 -0.74236745876E+03  0.74672454797E+03  0.80548784651E+02 0.  0.
         66    2    3    3    0    0  0.18893636003E+02 -0.20675407021E+01 -0.70032105525E+03  0.70058177586E+03  0.20000064833E+01 0.  0.
        -13    1    3    3    0    0 -0.18893636003E+02  0.20675407021E+01 -0.42046403505E+02  0.46142772107E+02  0.10566000000E+00 0.  1.
         13    1    4    4    0    0  0.15900292378E+02 -0.18036547359E+01 -0.57753000823E+03  0.57775167160E+03  0.10566000000E+00 0. -1.
        -13    1    4    4    0    0  0.18659189922E+01 -0.38995362974E+00 -0.65461663020E+02  0.65489496920E+02  0.10566000000E+00 0.  1.
        -14    1    4    4    0    0  0.11274246333E+01  0.12606766352E+00 -0.57329384005E+02  0.57340607337E+02  0.00000000000E+00 0.  1.
<mgrwt>
<rscale>  0 0.80548785E+02</rscale>
<asrwt>0</asrwt>
<pdfrwt beam="1">  1        2 0.11454534E+00 0.80548785E+02</pdfrwt>
<pdfrwt beam="2">  1       -1 0.33516130E-03 0.80548785E+02</pdfrwt>
<totfact> 0.33305290E+05</totfact>
</mgrwt>
</event>
<event>
 8    1  0.2603554E-016  0.7873844E+02  0.7818608E-02  0.1332670E+00
         -1   -1    0    0    0  501 -0.00000000000E+00  0.00000000000E+00  0.34420859627E+02  0.34420859996E+02  0.50400000000E-02 0.  1.
          2   -1    0    0  501    0  0.00000000000E+00 -0.00000000000E+00 -0.45028955932E+02  0.45028956005E+02  0.25500000000E-02 0. -1.
         24    2    1    2    0    0  0.55511151231E-16  0.00000000000E+00 -0.10608096305E+02  0.79449816000E+02  0.78738437597E+02 0.  0.
         66    2    3    3    0    0  0.22126653884E+00 -0.33069186344E+02  0.16199668588E+02  0.36878846232E+02  0.19999981778E+01 0.  0.
        -13    1    3    3    0    0 -0.22126653884E+00  0.33069186344E+02 -0.26807764894E+02  0.42570969768E+02  0.10566000000E+00 0.  1.
         13    1    4    4    0    0 -0.49579028246E+00 -0.11883895172E+02  0.64890259776E+01  0.13549590202E+02  0.10566000000E+00 0. -1.
        -13    1    4    4    0    0  0.88435830605E-01 -0.28443282875E+01  0.10320888936E+01  0.30289265133E+01  0.10566000000E+00 0.  1.
         14    1    4    4    0    0  0.62862099069E+00 -0.18340962885E+02  0.86785537170E+01  0.20300329517E+02  0.00000000000E+00 0. -1.
<mgrwt>
<rscale>  0 0.78738438E+02</rscale>
<asrwt>0</asrwt>
<pdfrwt beam="1">  1        2 0.69275316E-02 0.78738438E+02</pdfrwt>
<pdfrwt beam="2">  1       -1 0.52955170E-02 0.78738438E+02</pdfrwt>
<totfact> 0.15263427E+05</totfact>
</mgrwt>
</event>
<event>
 8    1  0.2603554E-016  0.7917528E+02  0.7818608E-02  0.1331408E+00
          2   -1    0    0  501    0  0.00000000000E+00  0.00000000000E+00  0.29640759997E+03  0.29640759998E+03  0.25500000000E-02 0. -1.
         -1   -1    0    0    0  501 -0.00000000000E+00 -0.00000000000E+00 -0.52872496454E+01  0.52872520476E+01  0.50400000000E-02 0.  1.
         24    2    1    2    0    0  0.00000000000E+00 -0.17763568394E-14  0.29112035033E+03  0.30169485203E+03  0.79175282554E+02 0.  0.
         66    2    3    3    0    0  0.38001243659E+02 -0.10092774246E+02  0.16235716138E+03  0.16706228315E+03  0.19999970991E+01 0.  0.
        -13    1    3    3    0    0 -0.38001243659E+02  0.10092774246E+02  0.12876318895E+03  0.13463256889E+03  0.10566000000E+00 0.  1.
         13    1    4    4    0    0  0.56632628853E+01 -0.11525694839E+01  0.24905406210E+02  0.25567389101E+02  0.10566000000E+00 0. -1.
        -13    1    4    4    0    0  0.20271001372E+01 -0.22062811442E+00  0.86327577534E+01  0.88709346856E+01  0.10566000000E+00 0.  1.
         14    1    4    4    0    0  0.30310880636E+02 -0.87195766477E+01  0.12881899741E+03  0.13262395936E+03  0.00000000000E+00 0. -1.
<mgrwt>
<rscale>  0 0.79175283E+02</rscale>
<asrwt>0</asrwt>
<pdfrwt beam="1">  1        2 0.45601173E-01 0.79175283E+02</pdfrwt>
<pdfrwt beam="2">  1       -1 0.81342314E-03 0.79175283E+02</pdfrwt>
<totfact> 0.26082346E+05</totfact>
</mgrwt>
</event>
<event>
 8    1  0.2603554E-016  0.8027840E+02  0.7818608E-02  0.1328263E+00
          2   -1    0    0  501    0  0.00000000000E+00  0.00000000000E+00  0.28317483752E+02  0.28317483867E+02  0.25500000000E-02 0. -1.
         -1   -1    0    0    0  501 -0.00000000000E+00 -0.00000000000E+00 -0.56896138351E+02  0.56896138574E+02  0.50400000000E-02 0.  1.
         24    2    1    2    0    0  0.00000000000E+00  0.00000000000E+00 -0.28578654599E+02  0.85213622441E+02  0.80278402768E+02 0.  0.
         66    2    3    3    0    0  0.10719983032E+02  0.36258625815E+02 -0.75001417835E-01  0.37863063935E+02  0.20000007963E+01 0.  0.
        -13    1    3    3    0    0 -0.10719983032E+02 -0.36258625815E+02 -0.28503653181E+02  0.47350558506E+02  0.10566000000E+00 0.  1.
         13    1    4    4    0    0  0.23692952307E+01  0.89475515221E+01 -0.35741958731E+00  0.92634308400E+01  0.10566000000E+00 0. -1.
        -13    1    4    4    0    0  0.35418055166E+01  0.11803913708E+02 -0.61070639153E+00  0.12339404016E+02  0.10566000000E+00 0.  1.
         14    1    4    4    0    0  0.48088822845E+01  0.15507160585E+02  0.89312456101E+00  0.16260229079E+02  0.00000000000E+00 0. -1.
<mgrwt>
<rscale>  0 0.80278403E+02</rscale>
<asrwt>0</asrwt>
<pdfrwt beam="1">  1        2 0.43565360E-02 0.80278403E+02</pdfrwt>
<pdfrwt beam="2">  1       -1 0.87532521E-02 0.80278403E+02</pdfrwt>
<totfact> 0.13173689E+05</totfact>
</mgrwt>
</event>
<event>
 8    1  0.2603554E-016  0.7442744E+02  0.7818608E-02  0.1345653E+00
          2   -1    0    0  501    0  0.00000000000E+00  0.00000000000E+00  0.32551851453E+03  0.32551851454E+03  0.25500000000E-02 0. -1.
         -1   -1    0    0    0  501 -0.00000000000E+00 -0.00000000000E+00 -0.42543214060E+01  0.42543243914E+01  0.50400000000E-02 0.  1.
         24    2    1    2    0    0  0.71054273576E-14 -0.11102230246E-15  0.32126419312E+03  0.32977283893E+03  0.74427437905E+02 0.  0.
         66    2    3    3    0    0 -0.34029932274E+02  0.79923839990E+00  0.22708863210E+03  0.22963432221E+03  0.20000089707E+01 0.  0.
        -13    1    3    3    0    0  0.34029932274E+02 -0.79923839990E+00  0.94175561019E+02  0.10013851672E+03  0.10566000000E+00 0.  1.
         13    1    4    4    0    0 -0.27263932505E+02  0.10361235546E+01  0.18617564805E+03  0.18816423320E+03  0.10566000000E+00 0. -1.
        -13    1    4    4    0    0 -0.31046429649E+01 -0.57443267861E-01  0.18275568554E+02  0.18537790528E+02  0.10566000000E+00 0. -1.
        -14    1    4    4    0    0 -0.36613568043E+01 -0.17944188683E+00  0.22637415503E+02  0.22932298482E+02  0.00000000000E+00 0.  1.
<mgrwt>
<rscale>  0 0.74427438E+02</rscale>
<asrwt>0</asrwt>
<pdfrwt beam="1">  1        2 0.50079782E-01 0.74427438E+02</pdfrwt>
<pdfrwt beam="2">  1       -1 0.65451108E-03 0.74427438E+02</pdfrwt>
<totfact> 0.31700230E+05</totfact>
</mgrwt>
</event>
<event>
 8    1  0.2603554E-016  0.8166815E+02  0.7818608E-02  0.1324383E+00
         -1   -1    0    0    0  501 -0.00000000000E+00  0.00000000000E+00  0.10428824791E+01  0.10428946576E+01  0.50400000000E-02 0.  1.
          2   -1    0    0  501    0  0.00000000000E+00 -0.00000000000E+00 -0.15988491706E+04  0.15988491706E+04  0.25500000000E-02 0. -1.
         24    2    1    2    0    0  0.00000000000E+00  0.00000000000E+00 -0.15978062881E+04  0.15998920653E+04  0.81668146312E+02 0.  0.
         66    2    3    3    0    0 -0.15690847577E+02  0.14717420520E+02 -0.14787419774E+04  0.14788998076E+04  0.20000006355E+01 0.  0.
        -13    1    3    3    0    0  0.15690847577E+02 -0.14717420520E+02 -0.11906431075E+03  0.12099225770E+03  0.10566000000E+00 0.  1.
         13    1    4    4    0    0 -0.59768821836E+01  0.53444722312E+01 -0.57369095917E+03  0.57374699503E+03  0.10566000000E+00 0. -1.
        -13    1    4    4    0    0 -0.72010241645E+00  0.51034433349E+00 -0.41776763349E+02  0.41786219245E+02  0.10566000000E+00 0.  1.
         14    1    4    4    0    0 -0.89938629768E+01  0.88626039555E+01 -0.86327425488E+03  0.86336659331E+03  0.00000000000E+00 0. -1.
<mgrwt>
<rscale>  0 0.81668146E+02</rscale>
<asrwt>0</asrwt>
<pdfrwt beam="1">  1        2 0.24597483E+00 0.81668146E+02</pdfrwt>
<pdfrwt beam="2">  1       -1 0.16044568E-03 0.81668146E+02</pdfrwt>
<totfact> 0.30670034E+05</totfact>
</mgrwt>
</event>
<event>
 8    1  0.2603554E-016  0.7870040E+02  0.7818608E-02  0.1332780E+00
         -1   -1    0    0    0  501 -0.00000000000E+00  0.00000000000E+00  0.44367454399E+01  0.44367483025E+01  0.50400000000E-02 0.  1.
          2   -1    0    0  501    0  0.00000000000E+00 -0.00000000000E+00 -0.34900307675E+03  0.34900307676E+03  0.25500000000E-02 0. -1.
         24    2    1    2    0    0  0.00000000000E+00 -0.17763568394E-14 -0.34456633131E+03  0.35343982506E+03  0.78700401950E+02 0.  0.
         66    2    3    3    0    0  0.89221566932E+01 -0.15561091898E+02 -0.32955700831E+03  0.33005086608E+03  0.20000034376E+01 0.  0.
        -13    1    3    3    0    0 -0.89221566932E+01  0.15561091898E+02 -0.15009322994E+02  0.23388958974E+02  0.10566000000E+00 0.  1.
         13    1    4    4    0    0  0.73448257116E+00 -0.15541925117E+01 -0.23965858371E+02  0.24027661362E+02  0.10566000000E+00 0. -1.
        -13    1    4    4    0    0  0.43285931871E+00 -0.12467226922E+01 -0.25032189938E+02  0.25067177380E+02  0.10566000000E+00 0.  1.
         14    1    4    4    0    0  0.77548148033E+01 -0.12760176694E+02 -0.28055896000E+03  0.28095602734E+03  0.00000000000E+00 0. -1.
<mgrwt>
<rscale>  0 0.78700402E+02</rscale>
<asrwt>0</asrwt>
<pdfrwt beam="1">  1        2 0.53692759E-01 0.78700402E+02</pdfrwt>
<pdfrwt beam="2">  1       -1 0.68257672E-03 0.78700402E+02</pdfrwt>
<totfact> 0.28100010E+05</totfact>
</mgrwt>
</event>
<event>
 8    1  0.2603554E-016  0.8369859E+02  0.7818608E-02  0.1318871E+00
         -1   -1    0    0    0  501 -0.00000000000E+00  0.00000000000E+00  0.77779920475E+02  0.77779920639E+02  0.50400000000E-02 0.  1.
          2   -1    0    0  501    0  0.00000000000E+00 -0.00000000000E+00 -0.22516909115E+02  0.22516909259E+02  0.25500000000E-02 0. -1.
         24    2    1    2    0    0  0.11102230246E-15  0.00000000000E+00  0.55263011360E+02  0.10029682990E+03  0.83698588178E+02 0.  0.
         66    2    3    3    0    0 -0.82993330928E+00  0.13332845182E+02 -0.19847337273E+02  0.24007714122E+02  0.19999976491E+01 0.  0.
        -13    1    3    3    0    0  0.82993330928E+00 -0.13332845182E+02  0.75110348634E+02  0.76289115776E+02  0.10566000000E+00 0.  1.
         13    1    4    4    0    0 -0.12503320092E+00  0.16626572754E+01 -0.23002250663E+01  0.28429319211E+01  0.10566000000E+00 0. -1.
        -13    1    4    4    0    0 -0.28472976622E+00  0.10646496486E+02 -0.16514958723E+02  0.19651564419E+02  0.10566000000E+00 0.  1.
        -14    1    4    4    0    0 -0.42017034215E+00  0.10236914209E+01 -0.10321534837E+01  0.15132177819E+01  0.00000000000E+00 0.  1.
<mgrwt>
<rscale>  0 0.83698588E+02</rscale>
<asrwt>0</asrwt>
<pdfrwt beam="1">  1        2 0.34641399E-02 0.83698588E+02</pdfrwt>
<pdfrwt beam="2">  1       -1 0.11966142E-01 0.83698588E+02</pdfrwt>
<totfact> 0.11171387E+05</totfact>
</mgrwt>
</event>
<event>
 8    1  0.2603554E-016  0.8106044E+02  0.7818608E-02  0.1326069E+00
         -1   -1    0    0    0  501 -0.00000000000E+00  0.00000000000E+00  0.59790479777E+01  0.59790501019E+01  0.50400000000E-02 0.  1.
          2   -1    0    0  501    0  0.00000000000E+00 -0.00000000000E+00 -0.27474250537E+03  0.27474250538E+03  0.25500000000E-02 0. -1.
         24    2    1    2    0    0 -0.17763568394E-14  0.00000000000E+00 -0.26876345739E+03  0.28072155548E+03  0.81060444631E+02 0.  0.
         66    2    3    3    0    0 -0.12297780404E+02 -0.72637184399E+01 -0.26572843274E+03  0.26611951634E+03  0.20000001347E+01 0.  0.
        -13    1    3    3    0    0  0.12297780404E+02  0.72637184399E+01 -0.30350246470E+01  0.14602039141E+02  0.10566000000E+00 0.  1.
         13    1    4    4    0    0 -0.92666144647E+01 -0.52189694101E+01 -0.20937896090E+03  0.20964891657E+03  0.10566000000E+00 0. -1.
        -13    1    4    4    0    0 -0.10946906015E+01 -0.54182132407E+00 -0.21613501064E+02  0.21648244967E+02  0.10566000000E+00 0. -1.
         14    1    4    4    0    0 -0.19364753380E+01 -0.15029277058E+01 -0.34735970780E+02  0.34822354810E+02  0.00000000000E+00 0. -1.
<mgrwt>
<rscale>  0 0.81060445E+02</rscale>
<asrwt>0</asrwt>
<pdfrwt beam="1">  1        2 0.42268068E-01 0.81060445E+02</pdfrwt>
<pdfrwt beam="2">  1       -1 0.91985392E-03 0.81060445E+02</pdfrwt>
<totfact> 0.23855428E+05</totfact>
</mgrwt>
</event>
<event>
 8    1  0.2603554E-016  0.8320033E+02  0.7818608E-02  0.1320207E+00
          2   -1    0    0  501    0  0.00000000000E+00  0.00000000000E+00  0.78197959151E+03  0.78197959152E+03  0.25500000000E-02 0. -1.
         -1   -1    0    0    0  501 -0.00000000000E+00 -0.00000000000E+00 -0.22130646170E+01  0.22130703560E+01  0.50400000000E-02 0.  1.
         24    2    1    2    0    0  0.00000000000E+00  0.00000000000E+00  0.77976652690E+03  0.78419266187E+03  0.83200327332E+02 0.  0.
         66    2    3    3    0    0 -0.35825551949E+02 -0.24130839157E+01  0.58765300366E+03  0.58875236377E+03  0.19999984490E+01 0.  0.
        -13    1    3    3    0    0  0.35825551949E+02  0.24130839157E+01  0.19211352324E+03  0.19544029810E+03  0.10566000000E+00 0.  1.
         13    1    4    4    0    0 -0.41813415481E+01 -0.64535781168E+00  0.67326914656E+02  0.67459800659E+02  0.10566000000E+00 0. -1.
        -13    1    4    4    0    0 -0.56033655176E+00  0.78028517752E-01  0.11773613494E+02  0.11787671706E+02  0.10566000000E+00 0. -1.
         14    1    4    4    0    0 -0.31083873849E+02 -0.18457546218E+01  0.50855247551E+03  0.50950489141E+03  0.00000000000E+00 0. -1.
<mgrwt>
<rscale>  0 0.83200327E+02</rscale>
<asrwt>0</asrwt>
<pdfrwt beam="1">  1        2 0.12030468E+00 0.83200327E+02</pdfrwt>
<pdfrwt beam="2">  1       -1 0.34047157E-03 0.83200327E+02</pdfrwt>
<totfact> 0.30904450E+05</totfact>
</mgrwt>
</event>
<event>
 8    1  0.2603554E-016  0.8010978E+02  0.7818608E-02  0.1328740E+00
          2   -1    0    0  501    0  0.00000000000E+00  0.00000000000E+00  0.34135453245E+03  0.34135453246E+03  0.25500000000E-02 0. -1.
         -1   -1    0    0    0  501 -0.00000000000E+00 -0.00000000000E+00 -0.47000807004E+01  0.47000834026E+01  0.50400000000E-02 0.  1.
         24    2    1    2    0    0  0.35527136788E-14  0.00000000000E+00  0.33665445175E+03  0.34605461587E+03  0.80109782653E+02 0.  0.
         66    2    3    3    0    0 -0.30638095092E+02  0.24511969956E+02  0.20268067261E+03  0.20645334723E+03  0.19999979801E+01 0.  0.
        -13    1    3    3    0    0  0.30638095092E+02 -0.24511969956E+02  0.13397377914E+03  0.13960126863E+03  0.10566000000E+00 0.  1.
         13    1    4    4    0    0 -0.25092512843E+02  0.19906389156E+02  0.16344287271E+03  0.16655174071E+03  0.10566000000E+00 0. -1.
        -13    1    4    4    0    0 -0.22525792428E+01  0.17595680069E+01  0.13676630207E+02  0.13972529143E+02  0.10566000000E+00 0.  1.
         14    1    4    4    0    0 -0.32930030062E+01  0.28460127933E+01  0.25561169691E+02  0.25929077377E+02  0.00000000000E+00 0. -1.
<mgrwt>
<rscale>  0 0.80109783E+02</rscale>
<asrwt>0</asrwt>
<pdfrwt beam="1">  1        2 0.52516083E-01 0.80109783E+02</pdfrwt>
<pdfrwt beam="2">  1       -1 0.72308953E-03 0.80109783E+02</pdfrwt>
<totfact> 0.26613860E+05</totfact>
</mgrwt>
</event>
<event>
 8    1  0.2603554E-016  0.7894684E+02  0.7818608E-02  0.1332067E+00
         -1   -1    0    0    0  501 -0.00000000000E+00  0.00000000000E+00  0.82577475145E+01  0.82577490525E+01  0.50400000000E-02 0.  1.
          2   -1    0    0  501    0  0.00000000000E+00 -0.00000000000E+00 -0.18868957175E+03  0.18868957176E+03  0.25500000000E-02 0. -1.
         24    2    1    2    0    0  0.00000000000E+00  0.00000000000E+00 -0.18043182423E+03  0.19694732082E+03  0.78946842755E+02 0.  0.
         66    2    3    3    0    0  0.15460500066E+02 -0.10069071504E+02 -0.17725664857E+03  0.17822551087E+03  0.19999994478E+01 0.  0.
        -13    1    3    3    0    0 -0.15460500066E+02  0.10069071504E+02 -0.31751756601E+01  0.18721809949E+02  0.10566000000E+00 0.  1.
         13    1    4    4    0    0  0.73377883643E+01 -0.56663460855E+01 -0.89920212417E+02  0.90396937898E+02  0.10566000000E+00 0. -1.
        -13    1    4    4    0    0  0.52234678668E+01 -0.28986053624E+01 -0.60419194242E+02  0.60713892368E+02  0.10566000000E+00 0.  1.
        -14    1    4    4    0    0  0.28992438351E+01 -0.15041200560E+01 -0.26917241913E+02  0.27114680603E+02  0.00000000000E+00 0.  1.
<mgrwt>
<rscale>  0 0.78946843E+02</rscale>
<asrwt>0</asrwt>
<pdfrwt beam="1">  1        2 0.29029162E-01 0.78946843E+02</pdfrwt>
<pdfrwt beam="2">  1       -1 0.12704230E-02 0.78946843E+02</pdfrwt>
<totfact> 0.22389240E+05</totfact>
</mgrwt>
</event>
<event>
 8    1  0.2603554E-016  0.8272012E+02  0.7818608E-02  0.1321505E+00
         -1   -1    0    0    0  501 -0.00000000000E+00  0.00000000000E+00  0.41382261990E+02  0.41382262297E+02  0.50400000000E-02 0.  1.
          2   -1    0    0  501    0  0.00000000000E+00 -0.00000000000E+00 -0.41337873986E+02  0.41337874065E+02  0.25500000000E-02 0. -1.
         24    2    1    2    0    0  0.00000000000E+00  0.00000000000E+00  0.44388004210E-01  0.82720136362E+02  0.82720124453E+02 0.  0.
         66    2    3    3    0    0 -0.30885545471E+02 -0.82156565216E+01 -0.26192979709E+02  0.41370111457E+02  0.20000012067E+01 0.  0.
        -13    1    3    3    0    0  0.30885545471E+02  0.82156565216E+01  0.26237367713E+02  0.41350024905E+02  0.10566000000E+00 0.  1.
         13    1    4    4    0    0 -0.20216134892E+02 -0.53997508107E+01 -0.16238965800E+02  0.26487064637E+02  0.10566000000E+00 0. -1.
        -13    1    4    4    0    0 -0.91599339435E+01 -0.26763016384E+01 -0.84312350340E+01  0.12734357799E+02  0.10566000000E+00 0.  1.
        -14    1    4    4    0    0 -0.15094766349E+01 -0.13960407250E+00 -0.15227788743E+01  0.21486890209E+01  0.00000000000E+00 0.  1.
<mgrwt>
<rscale>  0 0.82720124E+02</rscale>
<asrwt>0</asrwt>
<pdfrwt beam="1">  1        2 0.63596729E-02 0.82720124E+02</pdfrwt>
<pdfrwt beam="2">  1       -1 0.63665019E-02 0.82720124E+02</pdfrwt>
<totfact> 0.13083720E+05</totfact>
</mgrwt>
</event>
<event>
 8    1  0.2603554E-016  0.7812731E+02  0.7818608E-02  0.1334451E+00
         -1   -1    0    0    0  501 -0.00000000000E+00  0.00000000000E+00  0.12463083694E+02  0.12463084713E+02  0.50400000000E-02 0.  1.
          2   -1    0    0  501    0  0.00000000000E+00 -0.00000000000E+00 -0.12243913940E+03  0.12243913943E+03  0.25500000000E-02 0. -1.
         24    2    1    2    0    0  0.17763568394E-14  0.00000000000E+00 -0.10997605571E+03  0.13490222414E+03  0.78127314361E+02 0.  0.
         66    2    3    3    0    0 -0.12663713079E+02 -0.34531713374E+02 -0.77613725117E+02  0.85910995714E+02  0.20000001550E+01 0.  0.
        -13    1    3    3    0    0  0.12663713079E+02  0.34531713374E+02 -0.32362330592E+02  0.48991228428E+02  0.10566000000E+00 0.  1.
         13    1    4    4    0    0 -0.11484689697E+02 -0.30821709722E+02 -0.68734470240E+02  0.76199176182E+02  0.10566000000E+00 0. -1.
        -13    1    4    4    0    0 -0.31943442387E+00 -0.10091548126E+01 -0.30463731998E+01  0.32267608364E+01  0.10566000000E+00 0.  1.
        -14    1    4    4    0    0 -0.85958895809E+00 -0.27008488389E+01 -0.58328816769E+01  0.64850586955E+01  0.00000000000E+00 0.  1.
<mgrwt>
<rscale>  0 0.78127314E+02</rscale>
<asrwt>0</asrwt>
<pdfrwt beam="1">  1        2 0.18836790E-01 0.78127314E+02</pdfrwt>
<pdfrwt beam="2">  1       -1 0.19173977E-02 0.78127314E+02</pdfrwt>
<totfact> 0.20023274E+05</totfact>
</mgrwt>
</event>
<event>
 8    1  0.2603554E-016  0.8226975E+02  0.7818608E-02  0.1322731E+00
          2   -1    0    0  501    0  0.00000000000E+00  0.00000000000E+00  0.44784145185E+03  0.44784145186E+03  0.25500000000E-02 0. -1.
         -1   -1    0    0    0  501 -0.00000000000E+00 -0.00000000000E+00 -0.37782949453E+01  0.37782983068E+01  0.50400000000E-02 0.  1.
         24    2    1    2    0    0  0.00000000000E+00  0.00000000000E+00  0.44406315691E+03  0.45161975017E+03  0.82269747892E+02 0.  0.
         66    2    3    3    0    0 -0.18374256750E+02 -0.43886983033E+01  0.42260050833E+03  0.42302726109E+03  0.19999990222E+01 0.  0.
        -13    1    3    3    0    0  0.18374256750E+02  0.43886983033E+01  0.21462648577E+02  0.28592489082E+02  0.10566000000E+00 0.  1.
         13    1    4    4    0    0 -0.22799646227E+01 -0.44956812792E+00  0.49617335762E+02  0.49671838323E+02  0.10566000000E+00 0. -1.
        -13    1    4    4    0    0 -0.12683979148E+02 -0.25777248689E+01  0.27761435163E+03  0.27791593583E+03  0.10566000000E+00 0.  1.
        -14    1    4    4    0    0 -0.34103129792E+01 -0.13614053064E+01  0.95368820941E+02  0.95439486937E+02  0.00000000000E+00 0.  1.
<mgrwt>
<rscale>  0 0.82269748E+02</rscale>
<asrwt>0</asrwt>
<pdfrwt beam="1">  1        2 0.68898715E-01 0.82269748E+02</pdfrwt>
<pdfrwt beam="2">  1       -1 0.58127615E-03 0.82269748E+02</pdfrwt>
<totfact> 0.27300793E+05</totfact>
</mgrwt>
</event>
<event>
 8    1  0.2603554E-016  0.8024229E+02  0.7818608E-02  0.1328365E+00
         -1   -1    0    0    0  501 -0.00000000000E+00  0.00000000000E+00  0.12844260537E+01  0.12844359419E+01  0.50400000000E-02 0.  1.
          2   -1    0    0  501    0  0.00000000000E+00 -0.00000000000E+00 -0.12532446331E+04  0.12532446331E+04  0.25500000000E-02 0. -1.
         24    2    1    2    0    0  0.00000000000E+00  0.00000000000E+00 -0.12519602071E+04  0.12545290691E+04  0.80242289664E+02 0.  0.
         66    2    3    3    0    0 -0.13532284366E+02  0.19457123890E+02 -0.11320097704E+04  0.11322596092E+04  0.20000005615E+01 0.  0.
        -13    1    3    3    0    0  0.13532284366E+02 -0.19457123890E+02 -0.11995043673E+03  0.12226945991E+03  0.10566000000E+00 0.  1.
         13    1    4    4    0    0 -0.38916598452E+01  0.64529651723E+01 -0.35597811053E+03  0.35605787748E+03  0.10566000000E+00 0. -1.
        -13    1    4    4    0    0 -0.64057891601E+01  0.96882963511E+01 -0.55723267963E+03  0.55735371859E+03  0.10566000000E+00 0.  1.
        -14    1    4    4    0    0 -0.32348353607E+01  0.33158623666E+01 -0.21879898019E+03  0.21884801309E+03  0.00000000000E+00 0.  1.
<mgrwt>
<rscale>  0 0.80242290E+02</rscale>
<asrwt>0</asrwt>
<pdfrwt beam="1">  1        2 0.19280589E+00 0.80242290E+02</pdfrwt>
<pdfrwt beam="2">  1       -1 0.19760577E-03 0.80242290E+02</pdfrwt>
<totfact> 0.34565434E+05</totfact>
</mgrwt>
</event>
<event>
 8    1  0.2603554E-016  0.8005296E+02  0.7818608E-02  0.1328901E+00
          2   -1    0    0  501    0  0.00000000000E+00  0.00000000000E+00  0.69956617250E+03  0.69956617251E+03  0.25500000000E-02 0. -1.
         -1   -1    0    0    0  501 -0.00000000000E+00 -0.00000000000E+00 -0.22901578753E+01  0.22901634211E+01  0.50400000000E-02 0.  1.
         24    2    1    2    0    0  0.14210854715E-13 -0.22204460493E-15  0.69727601463E+03  0.70185633593E+03  0.80052955649E+02 0.  0.
         66    2    3    3    0    0 -0.35360454761E+02  0.10438557795E+01  0.51256437287E+03  0.51378759009E+03  0.20000002540E+01 0.  0.
        -13    1    3    3    0    0  0.35360454761E+02 -0.10438557795E+01  0.18471164176E+03  0.18806874583E+03  0.10566000000E+00 0.  1.
         13    1    4    4    0    0 -0.23044948528E+02  0.11808533650E+01  0.34281350826E+03  0.34358925577E+03  0.10566000000E+00 0. -1.
        -13    1    4    4    0    0 -0.20107653782E+01  0.14185539101E+00  0.25807091597E+02  0.25885912019E+02  0.10566000000E+00 0. -1.
        -14    1    4    4    0    0 -0.10304740854E+02 -0.27885297650E+00  0.14394377301E+03  0.14431242231E+03  0.00000000000E+00 0.  1.
<mgrwt>
<rscale>  0 0.80052956E+02</rscale>
<asrwt>0</asrwt>
<pdfrwt beam="1">  1        2 0.10762575E+00 0.80052956E+02</pdfrwt>
<pdfrwt beam="2">  1       -1 0.35233179E-03 0.80052956E+02</pdfrwt>
<totfact> 0.33389484E+05</totfact>
</mgrwt>
</event>
<event>
 8    1  0.2603554E-016  0.8007319E+02  0.7818608E-02  0.1328844E+00
         -1   -1    0    0    0  501 -0.00000000000E+00  0.00000000000E+00  0.18938006486E+03  0.18938006493E+03  0.50400000000E-02 0.  1.
          2   -1    0    0  501    0  0.00000000000E+00 -0.00000000000E+00 -0.84640851172E+01  0.84640855013E+01  0.25500000000E-02 0. -1.
         24    2    1    2    0    0  0.00000000000E+00  0.35527136788E-14  0.18091597974E+03  0.19784415043E+03  0.80073192345E+02 0.  0.
         66    2    3    3    0    0  0.31974420253E+02  0.13870730675E+02  0.41960647561E+02  0.54584399536E+02  0.20000022555E+01 0.  0.
        -13    1    3    3    0    0 -0.31974420253E+02 -0.13870730675E+02  0.13895533218E+03  0.14325975089E+03  0.10566000000E+00 0.  1.
         13    1    4    4    0    0  0.78902160436E+00  0.39441509378E+00  0.69330095942E+00  0.11269199680E+01  0.10566000000E+00 0. -1.
        -13    1    4    4    0    0  0.55929584468E+01  0.26839015002E+01  0.77327346245E+01  0.99141747140E+01  0.10566000000E+00 0.  1.
         14    1    4    4    0    0  0.25592440201E+02  0.10792414081E+02  0.33534611977E+02  0.43543304854E+02  0.00000000000E+00 0. -1.
<mgrwt>
<rscale>  0 0.80073192E+02</rscale>
<asrwt>0</asrwt>
<pdfrwt beam="1">  1        2 0.13021669E-02 0.80073192E+02</pdfrwt>
<pdfrwt beam="2">  1       -1 0.29135395E-01 0.80073192E+02</pdfrwt>
<totfact> 0.10099812E+05</totfact>
</mgrwt>
</event>
<event>
 8    1  0.2603554E-016  0.8646012E+02  0.7818608E-02  0.1311658E+00
         -1   -1    0    0    0  501 -0.00000000000E+00  0.00000000000E+00  0.41579943386E+01  0.41579973931E+01  0.50400000000E-02 0.  1.
          2   -1    0    0  501    0  0.00000000000E+00 -0.00000000000E+00 -0.44945644809E+03  0.44945644809E+03  0.25500000000E-02 0. -1.
         24    2    1    2    0    0  0.00000000000E+00 -0.71054273576E-14 -0.44529845375E+03  0.45361444549E+03  0.86460119385E+02 0.  0.
         66    2    3    3    0    0  0.96227793736E+01 -0.40462890248E+02 -0.28417461271E+03  0.28720907692E+03  0.19999978298E+01 0.  0.
        -13    1    3    3    0    0 -0.96227793736E+01  0.40462890248E+02 -0.16112384104E+03  0.16640536856E+03  0.10566000000E+00 0.  1.
         13    1    4    4    0    0  0.20040700013E+01 -0.76483259033E+01 -0.58085084854E+02  0.58620827632E+02  0.10566000000E+00 0. -1.
        -13    1    4    4    0    0  0.52932000874E+00 -0.23667262418E+01 -0.18237091746E+02  0.18397941519E+02  0.10566000000E+00 0.  1.
         14    1    4    4    0    0  0.70893893636E+01 -0.30447838103E+02 -0.20785243611E+03  0.21019030777E+03  0.00000000000E+00 0. -1.
<mgrwt>
<rscale>  0 0.86460119E+02</rscale>
<asrwt>0</asrwt>
<pdfrwt beam="1">  1        2 0.69147108E-01 0.86460119E+02</pdfrwt>
<pdfrwt beam="2">  1       -1 0.63969203E-03 0.86460119E+02</pdfrwt>
<totfact> 0.23995062E+05</totfact>
</mgrwt>
</event>
<event>
 8    1  0.2603554E-016  0.7985823E+02  0.7818608E-02  0.1329454E+00
         -1   -1    0    0    0  501 -0.00000000000E+00  0.00000000000E+00  0.43511616383E+01  0.43511645573E+01  0.50400000000E-02 0.  1.
          2   -1    0    0  501    0  0.00000000000E+00 -0.00000000000E+00 -0.36641559945E+03  0.36641559946E+03  0.25500000000E-02 0. -1.
         24    2    1    2    0    0  0.00000000000E+00  0.00000000000E+00 -0.36206443781E+03  0.37076676401E+03  0.79858225444E+02 0.  0.
         66    2    3    3    0    0 -0.19482915602E+02  0.15509162957E+01 -0.34266860393E+03  0.34323135268E+03  0.19999990953E+01 0.  0.
        -13    1    3    3    0    0  0.19482915602E+02 -0.15509162957E+01 -0.19395833874E+02  0.27535411336E+02  0.10566000000E+00 0.  1.
         13    1    4    4    0    0 -0.62230445051E+01  0.61029846176E+00 -0.97569029760E+02  0.97769246082E+02  0.10566000000E+00 0. -1.
        -13    1    4    4    0    0 -0.30693848550E+01 -0.50161834063E-01 -0.63236833117E+02  0.63311388125E+02  0.10566000000E+00 0.  1.
         14    1    4    4    0    0 -0.10190486242E+02  0.99077966801E+00 -0.18186274106E+03  0.18215071847E+03  0.00000000000E+00 0. -1.
<mgrwt>
<rscale>  0 0.79858225E+02</rscale>
<asrwt>0</asrwt>
<pdfrwt beam="1">  1        2 0.56371606E-01 0.79858225E+02</pdfrwt>
<pdfrwt beam="2">  1       -1 0.66941000E-03 0.79858225E+02</pdfrwt>
<totfact> 0.27519970E+05</totfact>
</mgrwt>
</event>
<event>
 8    1  0.2603554E-016  0.8205012E+02  0.7818608E-02  0.1323332E+00
          2   -1    0    0  501    0  0.00000000000E+00  0.00000000000E+00  0.56829741530E+02  0.56829741587E+02  0.25500000000E-02 0. -1.
         -1   -1    0    0    0  501 -0.00000000000E+00 -0.00000000000E+00 -0.29615749776E+02  0.29615750205E+02  0.50400000000E-02 0.  1.
         24    2    1    2    0    0 -0.35527136788E-14 -0.71054273576E-14  0.27213991753E+02  0.86445491792E+02  0.82050117026E+02 0.  0.
         66    2    3    3    0    0  0.23463868441E+02  0.27339881881E+02  0.34234575848E+02  0.49739606316E+02  0.19999973732E+01 0.  0.
        -13    1    3    3    0    0 -0.23463868441E+02 -0.27339881881E+02 -0.70205840949E+01  0.36705885476E+02  0.10566000000E+00 0.  1.
         13    1    4    4    0    0  0.17698783237E+01  0.16251294523E+01  0.19075031496E+01  0.30697308219E+01  0.10566000000E+00 0. -1.
        -13    1    4    4    0    0  0.90246436298E+00  0.84097348307E+00  0.10649714372E+01  0.16330972179E+01  0.10566000000E+00 0. -1.
         14    1    4    4    0    0  0.20791525754E+02  0.24873778946E+02  0.31262101261E+02  0.45036778276E+02  0.00000000000E+00 0. -1.
<mgrwt>
<rscale>  0 0.82050117E+02</rscale>
<asrwt>0</asrwt>
<pdfrwt beam="1">  1        2 0.87430371E-02 0.82050117E+02</pdfrwt>
<pdfrwt beam="2">  1       -1 0.45562693E-02 0.82050117E+02</pdfrwt>
<totfact> 0.14347446E+05</totfact>
</mgrwt>
</event>
<event>
 8    1  0.2603554E-016  0.7728439E+02  0.7818608E-02  0.1336939E+00
          2   -1    0    0  501    0  0.00000000000E+00  0.00000000000E+00  0.12891053800E+03  0.12891053802E+03  0.25500000000E-02 0. -1.
         -1   -1    0    0    0  501 -0.00000000000E+00 -0.00000000000E+00 -0.11583374108E+02  0.11583375204E+02  0.50400000000E-02 0.  1.
         24    2    1    2    0    0 -0.44408920985E-15  0.00000000000E+00  0.11732716389E+03  0.14049391323E+03  0.77284385665E+02 0.  0.
         66    2    3    3    0    0  0.29241632964E+01 -0.34015757220E+02  0.91504915688E+02  0.97687113108E+02  0.20000005045E+01 0.  0.
        -13    1    3    3    0    0 -0.29241632964E+01  0.34015757220E+02  0.25822248202E+02  0.42806800120E+02  0.10566000000E+00 0.  1.
         13    1    4    4    0    0  0.11736448386E+01 -0.23918007084E+02  0.64135085450E+02  0.68459979950E+02  0.10566000000E+00 0. -1.
        -13    1    4    4    0    0  0.10465540712E+01 -0.65515956480E+01  0.17450754866E+02  0.18669726575E+02  0.10566000000E+00 0.  1.
         14    1    4    4    0    0  0.70396438667E+00 -0.35461544886E+01  0.99190753727E+01  0.10557406583E+02  0.00000000000E+00 0. -1.
<mgrwt>
<rscale>  0 0.77284386E+02</rscale>
<asrwt>0</asrwt>
<pdfrwt beam="1">  1        2 0.19832392E-01 0.77284386E+02</pdfrwt>
<pdfrwt beam="2">  1       -1 0.17820575E-02 0.77284386E+02</pdfrwt>
<totfact> 0.20932260E+05</totfact>
</mgrwt>
</event>
<event>
 8    1  0.2603554E-016  0.8278352E+02  0.7818608E-02  0.1321333E+00
          2   -1    0    0  501    0  0.00000000000E+00  0.00000000000E+00  0.64470599997E+03  0.64470599997E+03  0.25500000000E-02 0. -1.
         -1   -1    0    0    0  501 -0.00000000000E+00 -0.00000000000E+00 -0.26574532497E+01  0.26574580290E+01  0.50400000000E-02 0.  1.
         24    2    1    2    0    0 -0.44408920985E-15  0.00000000000E+00  0.64204854672E+03  0.64736345800E+03  0.82783515347E+02 0.  0.
         66    2    3    3    0    0  0.35464043671E+01  0.37205508310E+02  0.45987942556E+03  0.46139994894E+03  0.20000005160E+01 0.  0.
        -13    1    3    3    0    0 -0.35464043671E+01 -0.37205508310E+02  0.18216912116E+03  0.18596350906E+03  0.10566000000E+00 0.  1.
         13    1    4    4    0    0  0.87772893811E+00  0.82480913653E+01  0.99946247656E+02  0.10028990480E+03  0.10566000000E+00 0. -1.
        -13    1    4    4    0    0  0.25263710803E+01  0.18852893085E+02  0.23257089350E+03  0.23334747866E+03  0.10566000000E+00 0.  1.
        -14    1    4    4    0    0  0.14230434867E+00  0.10104523860E+02  0.12736228440E+03  0.12776256549E+03  0.00000000000E+00 0.  1.
<mgrwt>
<rscale>  0 0.82783515E+02</rscale>
<asrwt>0</asrwt>
<pdfrwt beam="1">  1        2 0.99185648E-01 0.82783515E+02</pdfrwt>
<pdfrwt beam="2">  1       -1 0.40883888E-03 0.82783515E+02</pdfrwt>
<totfact> 0.29993453E+05</totfact>
</mgrwt>
</event>
<event>
 8    1  0.2603554E-016  0.7918416E+02  0.7818608E-02  0.1331383E+00
          2   -1    0    0  501    0  0.00000000000E+00  0.00000000000E+00  0.66049384166E+03  0.66049384167E+03  0.25500000000E-02 0. -1.
         -1   -1    0    0    0  501 -0.00000000000E+00 -0.00000000000E+00 -0.23732714229E+01  0.23732767745E+01  0.50400000000E-02 0.  1.
         24    2    1    2    0    0  0.00000000000E+00  0.00000000000E+00  0.65812057024E+03  0.66286711844E+03  0.79184163436E+02 0.  0.
         66    2    3    3    0    0  0.12075774333E+02  0.35043243473E+02  0.44516619356E+03  0.44671108464E+03  0.20000026984E+01 0.  0.
        -13    1    3    3    0    0 -0.12075774333E+02 -0.35043243473E+02  0.21295437668E+03  0.21615603380E+03  0.10566000000E+00 0.  1.
         13    1    4    4    0    0  0.32661770470E+01  0.86162051414E+01  0.11435516885E+03  0.11472585894E+03  0.10566000000E+00 0. -1.
        -13    1    4    4    0    0  0.81718483478E+01  0.23046698657E+02  0.29192142812E+03  0.29294378434E+03  0.10566000000E+00 0.  1.
        -14    1    4    4    0    0  0.63774893868E+00  0.33803396744E+01  0.38889596598E+02  0.39041441362E+02  0.00000000000E+00 0.  1.
<mgrwt>
<rscale>  0 0.79184163E+02</rscale>
<asrwt>0</asrwt>
<pdfrwt beam="1">  1        2 0.10161435E+00 0.79184163E+02</pdfrwt>
<pdfrwt beam="2">  1       -1 0.36511942E-03 0.79184163E+02</pdfrwt>
<totfact> 0.33880817E+05</totfact>
</mgrwt>
</event>
<event>
 8    1  0.2603554E-016  0.7785757E+02  0.7818608E-02  0.1335244E+00
         -1   -1    0    0    0  501 -0.00000000000E+00  0.00000000000E+00  0.11184843194E+01  0.11184956747E+01  0.50400000000E-02 0.  1.
          2   -1    0    0  501    0  0.00000000000E+00 -0.00000000000E+00 -0.13549071728E+04  0.13549071728E+04  0.25500000000E-02 0. -1.
         24    2    1    2    0    0  0.00000000000E+00  0.17763568394E-14 -0.13537886885E+04  0.13560256685E+04  0.77857565532E+02 0.  0.
         66    2    3    3    0    0 -0.13769947116E+02 -0.13970225097E+02 -0.12624664670E+04  0.12626204334E+04  0.19999998392E+01 0.  0.
        -13    1    3    3    0    0  0.13769947116E+02  0.13970225097E+02 -0.91322221492E+02  0.93405235052E+02  0.10566000000E+00 0.  1.
         13    1    4    4    0    0 -0.85013865357E+01 -0.93376930355E+01 -0.83114562604E+03  0.83124155872E+03  0.10566000000E+00 0. -1.
        -13    1    4    4    0    0 -0.33950123032E+01 -0.27852730838E+01 -0.24366885561E+03  0.24370844510E+03  0.10566000000E+00 0.  1.
         14    1    4    4    0    0 -0.18735482772E+01 -0.18472589772E+01 -0.18765198532E+03  0.18767042959E+03  0.00000000000E+00 0. -1.
<mgrwt>
<rscale>  0 0.77857566E+02</rscale>
<asrwt>0</asrwt>
<pdfrwt beam="1">  1        2 0.20844594E+00 0.77857566E+02</pdfrwt>
<pdfrwt beam="2">  1       -1 0.17207647E-03 0.77857566E+02</pdfrwt>
<totfact> 0.36809480E+05</totfact>
</mgrwt>
</event>
<event>
 8    1  0.2965607E-016  0.7408707E+02  0.7818608E-02  0.1346722E+00
          2   -1    0    0  501    0  0.00000000000E+00  0.00000000000E+00  0.11975756379E+04  0.11975756379E+04  0.25500000000E-02 0. -1.
         -1   -1    0    0    0  501 -0.00000000000E+00 -0.00000000000E+00 -0.11458290097E+01  0.11458400940E+01  0.50400000000E-02 0.  1.
         24    2    1    2    0    0  0.17763568394E-14  0.00000000000E+00  0.11964298089E+04  0.11987214780E+04  0.74087071811E+02 0.  0.
         66    2    3    3    0    0  0.12451370868E+02  0.13578478803E+02  0.11181244881E+04  0.11182780435E+04  0.20000001146E+01 0.  0.
        -13    1    3    3    0    0 -0.12451370868E+02 -0.13578478803E+02  0.78305320866E+02  0.80443434555E+02  0.10566000000E+00 0.  1.
         13    1    4    4    0    0  0.63300973586E+01  0.72405840681E+01  0.58424667905E+03  0.58432584175E+03  0.10566000000E+00 0. -1.
        -13    1    4    4    0    0  0.29078712900E+01  0.26700722074E+01  0.27651260168E+03  0.27654080178E+03  0.10566000000E+00 0.  1.
        -14    1    4    4    0    0  0.32134022190E+01  0.36678225276E+01  0.25736520734E+03  0.25741139995E+03  0.00000000000E+00 0.  1.
<mgrwt>
<rscale>  0 0.74087072E+02</rscale>
<asrwt>0</asrwt>
<pdfrwt beam="1">  1        2 0.18424277E+00 0.74087072E+02</pdfrwt>
<pdfrwt beam="2">  1       -1 0.17628190E-03 0.74087072E+02</pdfrwt>
<totfact> 0.42744409E+05</totfact>
</mgrwt>
</event>
<event>
 8    1  0.2603554E-016  0.8037631E+02  0.7818608E-02  0.1327987E+00
          2   -1    0    0  501    0  0.00000000000E+00  0.00000000000E+00  0.97566050141E+02  0.97566050174E+02  0.25500000000E-02 0. -1.
         -1   -1    0    0    0  501 -0.00000000000E+00 -0.00000000000E+00 -0.16553789695E+02  0.16553790462E+02  0.50400000000E-02 0.  1.
         24    2    1    2    0    0  0.00000000000E+00  0.00000000000E+00  0.81012260446E+02  0.11411984064E+03  0.80376312955E+02 0.  0.
         66    2    3    3    0    0  0.26758841928E+02  0.29682318682E+02  0.46211710984E+02  0.61127717914E+02  0.20000004075E+01 0.  0.
        -13    1    3    3    0    0 -0.26758841928E+02 -0.29682318682E+02  0.34800549461E+02  0.52992122722E+02  0.10566000000E+00 0.  1.
         13    1    4    4    0    0  0.20356012804E+02  0.21998741654E+02  0.35462334661E+02  0.46431672760E+02  0.10566000000E+00 0. -1.
        -13    1    4    4    0    0  0.26542408370E+01  0.36268608691E+01  0.49746715651E+01  0.67050455182E+01  0.10566000000E+00 0.  1.
         14    1    4    4    0    0  0.37485882878E+01  0.40567161590E+01  0.57747047579E+01  0.79909996363E+01  0.00000000000E+00 0. -1.
<mgrwt>
<rscale>  0 0.80376313E+02</rscale>
<asrwt>0</asrwt>
<pdfrwt beam="1">  1        2 0.15010162E-01 0.80376313E+02</pdfrwt>
<pdfrwt beam="2">  1       -1 0.25467369E-02 0.80376313E+02</pdfrwt>
<totfact> 0.17384446E+05</totfact>
</mgrwt>
</event>
<event>
 8    1  0.2603554E-016  0.8014773E+02  0.7818608E-02  0.1328633E+00
         -1   -1    0    0    0  501 -0.00000000000E+00  0.00000000000E+00  0.38688310243E+01  0.38688343072E+01  0.50400000000E-02 0.  1.
          2   -1    0    0  501    0  0.00000000000E+00 -0.00000000000E+00 -0.41509021127E+03  0.41509021128E+03  0.25500000000E-02 0. -1.
         24    2    1    2    0    0  0.00000000000E+00  0.00000000000E+00 -0.41122138024E+03  0.41895904558E+03  0.80147728017E+02 0.  0.
         66    2    3    3    0    0 -0.35065022021E+02  0.18752518446E+02 -0.23064205049E+03  0.23405334470E+03  0.19999994683E+01 0.  0.
        -13    1    3    3    0    0  0.35065022021E+02 -0.18752518446E+02 -0.18057932976E+03  0.18490570088E+03  0.10566000000E+00 0.  1.
         13    1    4    4    0    0 -0.95058981748E+01  0.53990475319E+01 -0.65962990296E+02  0.66862837715E+02  0.10566000000E+00 0. -1.
        -13    1    4    4    0    0 -0.74815068267E+01  0.35430697651E+01 -0.50346468841E+02  0.51022586925E+02  0.10566000000E+00 0.  1.
         14    1    4    4    0    0 -0.18077617019E+02  0.98104011490E+01 -0.11433259135E+03  0.11616792006E+03  0.00000000000E+00 0. -1.
<mgrwt>
<rscale>  0 0.80147728E+02</rscale>
<asrwt>0</asrwt>
<pdfrwt beam="1">  1        2 0.63859997E-01 0.80147728E+02</pdfrwt>
<pdfrwt beam="2">  1       -1 0.59520536E-03 0.80147728E+02</pdfrwt>
<totfact> 0.28482171E+05</totfact>
</mgrwt>
</event>
<event>
 8    1  0.2603554E-016  0.8152941E+02  0.7818608E-02  0.1324766E+00
          2   -1    0    0  501    0  0.00000000000E+00  0.00000000000E+00  0.25592009395E+03  0.25592009397E+03  0.25500000000E-02 0. -1.
         -1   -1    0    0    0  501 -0.00000000000E+00 -0.00000000000E+00 -0.64932801491E+01  0.64932821050E+01  0.50400000000E-02 0.  1.
         24    2    1    2    0    0 -0.17763568394E-14 -0.17763568394E-14  0.24942681380E+03  0.26241337607E+03  0.81529408783E+02 0.  0.
         66    2    3    3    0    0  0.14212930516E+02  0.11875552259E+02  0.24158167089E+03  0.24229886472E+03  0.20000006232E+01 0.  0.
        -13    1    3    3    0    0 -0.14212930516E+02 -0.11875552259E+02  0.78451429167E+01  0.20114511347E+02  0.10566000000E+00 0.  1.
         13    1    4    4    0    0  0.71313154715E+01  0.68631492293E+01  0.13276731271E+03  0.13313575390E+03  0.10566000000E+00 0. -1.
        -13    1    4    4    0    0  0.29550119829E+01  0.25853345912E+01  0.50643191959E+02  0.50795276420E+02  0.10566000000E+00 0.  1.
         14    1    4    4    0    0  0.41266030611E+01  0.24270684390E+01  0.58171166222E+02  0.58367834410E+02  0.00000000000E+00 0. -1.
<mgrwt>
<rscale>  0 0.81529409E+02</rscale>
<asrwt>0</asrwt>
<pdfrwt beam="1">  1        2 0.39372319E-01 0.81529409E+02</pdfrwt>
<pdfrwt beam="2">  1       -1 0.99896640E-03 0.81529409E+02</pdfrwt>
<totfact> 0.22899852E+05</totfact>
</mgrwt>
</event>
<event>
 8    1  0.2603554E-016  0.7898388E+02  0.7818608E-02  0.1331960E+00
         -1   -1    0    0    0  501 -0.00000000000E+00  0.00000000000E+00  0.17299076988E+03  0.17299076996E+03  0.50400000000E-02 0.  1.
          2   -1    0    0  501    0  0.00000000000E+00 -0.00000000000E+00 -0.90155861505E+01  0.90155865111E+01  0.25500000000E-02 0. -1.
         24    2    1    2    0    0  0.00000000000E+00  0.88817841970E-15  0.16397518373E+03  0.18200635647E+03  0.78983877561E+02 0.  0.
         66    2    3    3    0    0 -0.36565992992E+02  0.64386341530E+01  0.11287701811E+03  0.11884338039E+03  0.19999978333E+01 0.  0.
        -13    1    3    3    0    0  0.36565992992E+02 -0.64386341530E+01  0.51098165624E+02  0.63162976081E+02  0.10566000000E+00 0.  1.
         13    1    4    4    0    0 -0.15147304558E+02  0.33888524150E+01  0.48600956807E+02  0.51019499435E+02  0.10566000000E+00 0. -1.
        -13    1    4    4    0    0 -0.23015325867E+01  0.52899303675E+00  0.67245995103E+01  0.71279933004E+01  0.10566000000E+00 0.  1.
        -14    1    4    4    0    0 -0.19117155847E+02  0.25207887013E+01  0.57551461793E+02  0.60695887652E+02  0.00000000000E+00 0.  1.
<mgrwt>
<rscale>  0 0.78983878E+02</rscale>
<asrwt>0</asrwt>
<pdfrwt beam="1">  1        2 0.13870133E-02 0.78983878E+02</pdfrwt>
<pdfrwt beam="2">  1       -1 0.26613964E-01 0.78983878E+02</pdfrwt>
<totfact> 0.10729406E+05</totfact>
</mgrwt>
</event>
<event>
 8    1  0.2603554E-016  0.8193226E+02  0.7818608E-02  0.1323656E+00
          2   -1    0    0  501    0  0.00000000000E+00  0.00000000000E+00  0.41429645567E+02  0.41429645645E+02  0.25500000000E-02 0. -1.
         -1   -1    0    0    0  501 -0.00000000000E+00 -0.00000000000E+00 -0.40507802133E+02  0.40507802446E+02  0.50400000000E-02 0.  1.
         24    2    1    2    0    0 -0.35527136788E-14 -0.35527136788E-14  0.92184343356E+00  0.81937448091E+02  0.81932262293E+02 0.  0.
         66    2    3    3    0    0 -0.27966682346E+02 -0.28795865267E+02 -0.75942337494E+01  0.40902439714E+02  0.20000026092E+01 0.  0.
        -13    1    3    3    0    0  0.27966682346E+02  0.28795865267E+02  0.85160771830E+01  0.41035008377E+02  0.10566000000E+00 0.  1.
         13    1    4    4    0    0 -0.12512519896E+02 -0.13182719923E+02 -0.30730506952E+01  0.18433720822E+02  0.10566000000E+00 0. -1.
        -13    1    4    4    0    0 -0.16810845111E+01 -0.19674726561E+01 -0.15292988563E+00  0.25945221855E+01  0.10566000000E+00 0.  1.
         14    1    4    4    0    0 -0.13773077939E+02 -0.13645672688E+02 -0.43682531685E+01  0.19874196707E+02  0.00000000000E+00 0. -1.
<mgrwt>
<rscale>  0 0.81932262E+02</rscale>
<asrwt>0</asrwt>
<pdfrwt beam="1">  1        2 0.63737917E-02 0.81932262E+02</pdfrwt>
<pdfrwt beam="2">  1       -1 0.62319696E-02 0.81932262E+02</pdfrwt>
<totfact> 0.13441828E+05</totfact>
</mgrwt>
</event>
<event>
 8    1  0.2603554E-016  0.8210961E+02  0.7818608E-02  0.1323169E+00
         -1   -1    0    0    0  501 -0.00000000000E+00  0.00000000000E+00  0.35088234753E+01  0.35088270950E+01  0.50400000000E-02 0.  1.
          2   -1    0    0  501    0  0.00000000000E+00 -0.00000000000E+00 -0.48035937847E+03  0.48035937848E+03  0.25500000000E-02 0. -1.
         24    2    1    2    0    0  0.88817841970E-15  0.71054273576E-14 -0.47685055500E+03  0.48386820557E+03  0.82109613106E+02 0.  0.
         66    2    3    3    0    0  0.49245093586E+01 -0.37707506780E+02 -0.32936093124E+03  0.33155501790E+03  0.20000015031E+01 0.  0.
        -13    1    3    3    0    0 -0.49245093586E+01  0.37707506780E+02 -0.14748962376E+03  0.15231318768E+03  0.10566000000E+00 0.  1.
         13    1    4    4    0    0  0.97736959288E+00 -0.44138535277E+01 -0.41944229299E+02  0.42187283508E+02  0.10566000000E+00 0. -1.
        -13    1    4    4    0    0  0.26600350002E+01 -0.18439808621E+02 -0.16222334331E+03  0.16328970148E+03  0.10566000000E+00 0.  1.
         14    1    4    4    0    0  0.12871047655E+01 -0.14853844632E+02 -0.12519335863E+03  0.12607803292E+03  0.00000000000E+00 0. -1.
<mgrwt>
<rscale>  0 0.82109613E+02</rscale>
<asrwt>0</asrwt>
<pdfrwt beam="1">  1        2 0.73901391E-01 0.82109613E+02</pdfrwt>
<pdfrwt beam="2">  1       -1 0.53981966E-03 0.82109613E+02</pdfrwt>
<totfact> 0.28085966E+05</totfact>
</mgrwt>
</event>
<event>
 8    1  0.2603554E-016  0.8039712E+02  0.7818608E-02  0.1327928E+00
          2   -1    0    0  501    0  0.00000000000E+00  0.00000000000E+00  0.90051014127E+03  0.90051014128E+03  0.25500000000E-02 0. -1.
         -1   -1    0    0    0  501 -0.00000000000E+00 -0.00000000000E+00 -0.17944505693E+01  0.17944576471E+01  0.50400000000E-02 0.  1.
         24    2    1    2    0    0  0.00000000000E+00  0.00000000000E+00  0.89871569071E+03  0.90230459893E+03  0.80397117621E+02 0.  0.
         66    2    3    3    0    0 -0.27836899779E+02  0.86039600551E+01  0.76005026119E+03  0.76061114945E+03  0.20000031291E+01 0.  0.
        -13    1    3    3    0    0  0.27836899779E+02 -0.86039600551E+01  0.13866542952E+03  0.14169344948E+03  0.10566000000E+00 0.  1.
         13    1    4    4    0    0 -0.63629037054E+01  0.24184008387E+01  0.17079647405E+03  0.17093209739E+03  0.10566000000E+00 0. -1.
        -13    1    4    4    0    0 -0.29228992387E+01  0.11792319556E+01  0.92754828183E+02  0.92808422264E+02  0.10566000000E+00 0.  1.
        -14    1    4    4    0    0 -0.18551096835E+02  0.50063272608E+01  0.49649895896E+03  0.49687062980E+03  0.00000000000E+00 0.  1.
<mgrwt>
<rscale>  0 0.80397118E+02</rscale>
<asrwt>0</asrwt>
<pdfrwt beam="1">  1        2 0.13854036E+00 0.80397118E+02</pdfrwt>
<pdfrwt beam="2">  1       -1 0.27606919E-03 0.80397118E+02</pdfrwt>
<totfact> 0.34502155E+05</totfact>
</mgrwt>
</event>
<event>
 8    1  0.2603554E-016  0.7960216E+02  0.7818608E-02  0.1330184E+00
         -1   -1    0    0    0  501 -0.00000000000E+00  0.00000000000E+00  0.21212595544E+02  0.21212596143E+02  0.50400000000E-02 0.  1.
          2   -1    0    0  501    0  0.00000000000E+00 -0.00000000000E+00 -0.74678552218E+02  0.74678552261E+02  0.25500000000E-02 0. -1.
         24    2    1    2    0    0  0.00000000000E+00  0.00000000000E+00 -0.53465956673E+02  0.95891148404E+02  0.79602159639E+02 0.  0.
         66    2    3    3    0    0 -0.20820499453E+02 -0.49354759331E+01 -0.67141193535E+02  0.70496751632E+02  0.20000003127E+01 0.  0.
        -13    1    3    3    0    0  0.20820499453E+02  0.49354759331E+01  0.13675236862E+02  0.25394396772E+02  0.10566000000E+00 0.  1.
         13    1    4    4    0    0 -0.62067848898E+01 -0.11129065544E+01 -0.18787961885E+02  0.19818209189E+02  0.10566000000E+00 0. -1.
        -13    1    4    4    0    0 -0.27877426095E+01 -0.68840161757E+00 -0.11205477937E+02  0.11568029456E+02  0.10566000000E+00 0.  1.
         14    1    4    4    0    0 -0.11825971953E+02 -0.31341677611E+01 -0.37147753713E+02  0.39110512987E+02  0.00000000000E+00 0. -1.
<mgrwt>
<rscale>  0 0.79602160E+02</rscale>
<asrwt>0</asrwt>
<pdfrwt beam="1">  1        2 0.11489008E-01 0.79602160E+02</pdfrwt>
<pdfrwt beam="2">  1       -1 0.32634763E-02 0.79602160E+02</pdfrwt>
<totfact> 0.16629202E+05</totfact>
</mgrwt>
</event>
<event>
 8    1  0.2603554E-016  0.8257935E+02  0.7818608E-02  0.1321887E+00
         -1   -1    0    0    0  501 -0.00000000000E+00  0.00000000000E+00  0.32637141755E+01  0.32637180670E+01  0.50400000000E-02 0.  1.
          2   -1    0    0  501    0  0.00000000000E+00 -0.00000000000E+00 -0.52236076370E+03  0.52236076370E+03  0.25500000000E-02 0. -1.
         24    2    1    2    0    0 -0.35527136788E-14  0.00000000000E+00 -0.51909704952E+03  0.52562448177E+03  0.82579349805E+02 0.  0.
         66    2    3    3    0    0  0.23728417665E+02  0.26470832995E+02 -0.39307724548E+03  0.39468653853E+03  0.19999953007E+01 0.  0.
        -13    1    3    3    0    0 -0.23728417665E+02 -0.26470832995E+02 -0.12601980404E+03  0.13093794324E+03  0.10566000000E+00 0.  1.
         13    1    4    4    0    0  0.17112719065E+02  0.19476743980E+02 -0.28192861130E+03  0.28311824693E+03  0.10566000000E+00 0. -1.
        -13    1    4    4    0    0  0.18779395147E+01  0.16410540538E+01 -0.25521233486E+02  0.25643015383E+02  0.10566000000E+00 0.  1.
         14    1    4    4    0    0  0.47377590856E+01  0.53530349611E+01 -0.85627400692E+02  0.85925276221E+02  0.00000000000E+00 0. -1.
<mgrwt>
<rscale>  0 0.82579350E+02</rscale>
<asrwt>0</asrwt>
<pdfrwt beam="1">  1        2 0.80363128E-01 0.82579350E+02</pdfrwt>
<pdfrwt beam="2">  1       -1 0.50211059E-03 0.82579350E+02</pdfrwt>
<totfact> 0.28419946E+05</totfact>
</mgrwt>
</event>
<event>
 8    1  0.2603554E-016  0.8131859E+02  0.7818608E-02  0.1325351E+00
          2   -1    0    0  501    0  0.00000000000E+00  0.00000000000E+00  0.21378930104E+02  0.21378930257E+02  0.25500000000E-02 0. -1.
         -1   -1    0    0    0  501 -0.00000000000E+00 -0.00000000000E+00 -0.77327457750E+02  0.77327457914E+02  0.50400000000E-02 0.  1.
         24    2    1    2    0    0 -0.71054273576E-14 -0.17763568394E-14 -0.55948527646E+02  0.98706388171E+02  0.81318591478E+02 0.  0.
         66    2    3    3    0    0  0.36051018824E+02  0.79670468921E+01 -0.48591242293E+02  0.61059467895E+02  0.19999994069E+01 0.  0.
        -13    1    3    3    0    0 -0.36051018824E+02 -0.79670468921E+01 -0.73572853527E+01  0.37646920276E+02  0.10566000000E+00 0.  1.
         13    1    4    4    0    0  0.14839242373E+02  0.27292610815E+01 -0.20841962283E+02  0.25730342713E+02  0.10566000000E+00 0. -1.
        -13    1    4    4    0    0  0.45155406889E+01  0.13261718148E+01 -0.55385640075E+01  0.72688165953E+01  0.10566000000E+00 0.  1.
        -14    1    4    4    0    0  0.16696235763E+02  0.39116139958E+01 -0.22210716002E+02  0.28060308587E+02  0.00000000000E+00 0.  1.
<mgrwt>
<rscale>  0 0.81318591E+02</rscale>
<asrwt>0</asrwt>
<pdfrwt beam="1">  1        2 0.32890662E-02 0.81318591E+02</pdfrwt>
<pdfrwt beam="2">  1       -1 0.11896532E-01 0.81318591E+02</pdfrwt>
<totfact> 0.12007814E+05</totfact>
</mgrwt>
</event>
<event>
 8    1  0.2603554E-016  0.8032623E+02  0.7818608E-02  0.1328128E+00
         -1   -1    0    0    0  501 -0.00000000000E+00  0.00000000000E+00  0.93277822014E+01  0.93277835630E+01  0.50400000000E-02 0.  1.
          2   -1    0    0  501    0  0.00000000000E+00 -0.00000000000E+00 -0.17293238327E+03  0.17293238329E+03  0.25500000000E-02 0. -1.
         24    2    1    2    0    0 -0.35527136788E-14  0.00000000000E+00 -0.16360460107E+03  0.18226016685E+03  0.80326228157E+02 0.  0.
         66    2    3    3    0    0  0.18983891110E+02  0.21278881538E+01 -0.16195063186E+03  0.16308563145E+03  0.19999991682E+01 0.  0.
        -13    1    3    3    0    0 -0.18983891110E+02 -0.21278881538E+01 -0.16539692105E+01  0.19174535401E+02  0.10566000000E+00 0.  1.
         13    1    4    4    0    0  0.16710186299E+02  0.15394932636E+01 -0.14417221185E+03  0.14514557589E+03  0.10566000000E+00 0. -1.
        -13    1    4    4    0    0  0.19734315093E+01  0.47401349908E+00 -0.16356936152E+02  0.16482707455E+02  0.10566000000E+00 0.  1.
         14    1    4    4    0    0  0.30027330174E+00  0.11438139112E+00 -0.14214838522E+01  0.14573481054E+01  0.00000000000E+00 0. -1.
<mgrwt>
<rscale>  0 0.80326228E+02</rscale>
<asrwt>0</asrwt>
<pdfrwt beam="1">  1        2 0.26604980E-01 0.80326228E+02</pdfrwt>
<pdfrwt beam="2">  1       -1 0.14350436E-02 0.80326228E+02</pdfrwt>
<totfact> 0.20764128E+05</totfact>
</mgrwt>
</event>
<event>
 8    1  0.2603554E-016  0.7696527E+02  0.7818608E-02  0.1337891E+00
          2   -1    0    0  501    0  0.00000000000E+00  0.00000000000E+00  0.80380801569E+03  0.80380801569E+03  0.25500000000E-02 0. -1.
         -1   -1    0    0    0  501 -0.00000000000E+00 -0.00000000000E+00 -0.18423684282E+01  0.18423753219E+01  0.50400000000E-02 0.  1.
         24    2    1    2    0    0 -0.17763568394E-14  0.88817841970E-15  0.80196564726E+03  0.80565039102E+03  0.76965272403E+02 0.  0.
         66    2    3    3    0    0 -0.12217927030E+02  0.79616049617E+01  0.77373923729E+03  0.77387923620E+03  0.20000007512E+01 0.  0.
        -13    1    3    3    0    0  0.12217927030E+02 -0.79616049617E+01  0.28226409970E+02  0.31771154815E+02  0.10566000000E+00 0.  1.
         13    1    4    4    0    0 -0.14090156269E+01  0.81265344815E+00  0.81422755184E+02  0.81439068981E+02  0.10566000000E+00 0. -1.
        -13    1    4    4    0    0 -0.53059574868E+01  0.24261203555E+01  0.31036709384E+03  0.31042194405E+03  0.10566000000E+00 0.  1.
        -14    1    4    4    0    0 -0.55029539161E+01  0.47228311580E+01  0.38194938827E+03  0.38201822317E+03  0.00000000000E+00 0.  1.
<mgrwt>
<rscale>  0 0.76965272E+02</rscale>
<asrwt>0</asrwt>
<pdfrwt beam="1">  1        2 0.12366263E+00 0.76965272E+02</pdfrwt>
<pdfrwt beam="2">  1       -1 0.28344216E-03 0.76965272E+02</pdfrwt>
<totfact> 0.38020632E+05</totfact>
</mgrwt>
</event>
<event>
 8    1  0.2603554E-016  0.8097346E+02  0.7818608E-02  0.1326311E+00
          2   -1    0    0  501    0  0.00000000000E+00  0.00000000000E+00  0.36017254132E+02  0.36017254223E+02  0.25500000000E-02 0. -1.
         -1   -1    0    0    0  501 -0.00000000000E+00 -0.00000000000E+00 -0.45510829271E+02  0.45510829550E+02  0.50400000000E-02 0.  1.
         24    2    1    2    0    0 -0.35527136788E-14  0.71054273576E-14 -0.94935751388E+01  0.81528083773E+02  0.80973455371E+02 0.  0.
         66    2    3    3    0    0  0.16865803932E+02 -0.33802912925E+02  0.98436654229E+01  0.39089512861E+02  0.20000005647E+01 0.  0.
        -13    1    3    3    0    0 -0.16865803932E+02  0.33802912925E+02 -0.19337240562E+02  0.42438570912E+02  0.10566000000E+00 0.  1.
         13    1    4    4    0    0  0.19478545081E+01 -0.42287877968E+01  0.10746921656E+01  0.47794257711E+01  0.10566000000E+00 0.  1.
        -13    1    4    4    0    0  0.51426405410E+01 -0.10634253188E+02  0.39757861692E+01  0.12464033548E+02  0.10566000000E+00 0. -1.
         14    1    4    4    0    0  0.97753088826E+01 -0.18939871940E+02  0.47931870881E+01  0.21846053541E+02  0.00000000000E+00 0. -1.
<mgrwt>
<rscale>  0 0.80973455E+02</rscale>
<asrwt>0</asrwt>
<pdfrwt beam="1">  1        2 0.55411160E-02 0.80973455E+02</pdfrwt>
<pdfrwt beam="2">  1       -1 0.70016661E-02 0.80973455E+02</pdfrwt>
<totfact> 0.13492727E+05</totfact>
</mgrwt>
</event>
<event>
 8    1  0.2603554E-016  0.8048577E+02  0.7818608E-02  0.1327679E+00
         -1   -1    0    0    0  501 -0.00000000000E+00  0.00000000000E+00  0.47543346120E+01  0.47543372834E+01  0.50400000000E-02 0.  1.
          2   -1    0    0  501    0  0.00000000000E+00 -0.00000000000E+00 -0.34063424182E+03  0.34063424183E+03  0.25500000000E-02 0. -1.
         24    2    1    2    0    0  0.00000000000E+00  0.00000000000E+00 -0.33587990720E+03  0.34538857911E+03  0.80485765919E+02 0.  0.
         66    2    3    3    0    0  0.20441262856E+02  0.17323246376E+02 -0.29674979058E+03  0.29796371977E+03  0.19999996041E+01 0.  0.
        -13    1    3    3    0    0 -0.20441262856E+02 -0.17323246376E+02 -0.39130116624E+02  0.47424859338E+02  0.10566000000E+00 0.  1.
         13    1    4    4    0    0  0.90241428189E+01  0.82436021735E+01 -0.13805513891E+03  0.13859518272E+03  0.10566000000E+00 0. -1.
        -13    1    4    4    0    0  0.23904203740E+00  0.12906743523E+00 -0.20360169318E+01  0.20567762350E+01  0.10566000000E+00 0. -1.
         14    1    4    4    0    0  0.11178078000E+02  0.89505767674E+01 -0.15665863474E+03  0.15731176081E+03  0.00000000000E+00 0. -1.
<mgrwt>
<rscale>  0 0.80485766E+02</rscale>
<asrwt>0</asrwt>
<pdfrwt beam="1">  1        2 0.52405249E-01 0.80485766E+02</pdfrwt>
<pdfrwt beam="2">  1       -1 0.73143657E-03 0.80485766E+02</pdfrwt>
<totfact> 0.26269665E+05</totfact>
</mgrwt>
</event>
<event>
 8    1  0.2603554E-016  0.8039705E+02  0.7818608E-02  0.1327928E+00
          2   -1    0    0  501    0  0.00000000000E+00  0.00000000000E+00  0.78633833194E+01  0.78633837328E+01  0.25500000000E-02 0. -1.
         -1   -1    0    0    0  501 -0.00000000000E+00 -0.00000000000E+00 -0.20549952159E+03  0.20549952165E+03  0.50400000000E-02 0.  1.
         24    2    1    2    0    0  0.00000000000E+00  0.00000000000E+00 -0.19763613827E+03  0.21336290538E+03  0.80397053699E+02 0.  0.
         66    2    3    3    0    0 -0.34016575933E+02 -0.17684583226E+02 -0.67027738204E+02  0.77243703014E+02  0.20000111021E+01 0.  0.
        -13    1    3    3    0    0  0.34016575933E+02  0.17684583226E+02 -0.13060840006E+03  0.13611920237E+03  0.10566000000E+00 0.  1.
         13    1    4    4    0    0 -0.15379180918E+02 -0.79742541691E+01 -0.30870680270E+02  0.35399406770E+02  0.10566000000E+00 0. -1.
        -13    1    4    4    0    0 -0.18238047849E+02 -0.92870145410E+01 -0.35381946319E+02  0.40875032940E+02  0.10566000000E+00 0.  1.
        -14    1    4    4    0    0 -0.39934716669E+00 -0.42331451572E+00 -0.77511161473E+00  0.96926330481E+00  0.00000000000E+00 0.  1.
<mgrwt>
<rscale>  0 0.80397054E+02</rscale>
<asrwt>0</asrwt>
<pdfrwt beam="1">  1        2 0.12097515E-02 0.80397054E+02</pdfrwt>
<pdfrwt beam="2">  1       -1 0.31615307E-01 0.80397054E+02</pdfrwt>
<totfact> 0.97544636E+04</totfact>
</mgrwt>
</event>
<event>
 8    1  0.2603554E-016  0.8084383E+02  0.7818608E-02  0.1326674E+00
          2   -1    0    0  501    0  0.00000000000E+00  0.00000000000E+00  0.74739410937E+01  0.74739415287E+01  0.25500000000E-02 0. -1.
         -1   -1    0    0    0  501 -0.00000000000E+00 -0.00000000000E+00 -0.21861705659E+03  0.21861705664E+03  0.50400000000E-02 0.  1.
         24    2    1    2    0    0 -0.11102230246E-15  0.71054273576E-14 -0.21114311549E+03  0.22609099817E+03  0.80843826202E+02 0.  0.
         66    2    3    3    0    0  0.75802648989E+00 -0.31773232085E+02 -0.35898487296E+02  0.47987646837E+02  0.19999943882E+01 0.  0.
        -13    1    3    3    0    0 -0.75802648989E+00  0.31773232085E+02 -0.17524462820E+03  0.17810335134E+03  0.10566000000E+00 0.  1.
         13    1    4    4    0    0  0.81818926204E+00 -0.99664422120E+01 -0.12055215982E+02  0.15663294686E+02  0.10566000000E+00 0. -1.
        -13    1    4    4    0    0  0.18666495993E+00 -0.14920706691E+01 -0.17624647923E+01  0.23191733158E+01  0.10566000000E+00 0.  1.
         14    1    4    4    0    0 -0.24682773208E+00 -0.20314719204E+02 -0.22080806522E+02  0.30005178835E+02  0.00000000000E+00 0. -1.
<mgrwt>
<rscale>  0 0.80843826E+02</rscale>
<asrwt>0</asrwt>
<pdfrwt beam="1">  1        2 0.11498373E-02 0.80843826E+02</pdfrwt>
<pdfrwt beam="2">  1       -1 0.33633389E-01 0.80843826E+02</pdfrwt>
<totfact> 0.94321328E+04</totfact>
</mgrwt>
</event>
<event>
 8    1  0.2603554E-016  0.8009715E+02  0.7818608E-02  0.1328776E+00
         -1   -1    0    0    0  501 -0.00000000000E+00  0.00000000000E+00  0.13902883746E+02  0.13902884659E+02  0.50400000000E-02 0.  1.
          2   -1    0    0  501    0  0.00000000000E+00 -0.00000000000E+00 -0.11536370318E+03  0.11536370321E+03  0.25500000000E-02 0. -1.
         24    2    1    2    0    0  0.00000000000E+00  0.00000000000E+00 -0.10146081943E+03  0.12926658786E+03  0.80097146382E+02 0.  0.
         66    2    3    3    0    0 -0.79860300862E+01 -0.26415143385E+02 -0.97546076015E+02  0.10139414885E+03  0.19999996294E+01 0.  0.
        -13    1    3    3    0    0  0.79860300862E+01  0.26415143385E+02 -0.39147434164E+01  0.27872439015E+02  0.10566000000E+00 0.  1.
         13    1    4    4    0    0 -0.54285199812E+01 -0.15953140335E+02 -0.56836937811E+02  0.59282545319E+02  0.10566000000E+00 0. -1.
        -13    1    4    4    0    0 -0.46730972134E+00 -0.25069854883E+01 -0.95880236738E+01  0.99219310932E+01  0.10566000000E+00 0.  1.
        -14    1    4    4    0    0 -0.20902003836E+01 -0.79550175616E+01 -0.31121114531E+02  0.32189672438E+02  0.00000000000E+00 0.  1.
<mgrwt>
<rscale>  0 0.80097146E+02</rscale>
<asrwt>0</asrwt>
<pdfrwt beam="1">  1        2 0.17748261E-01 0.80097146E+02</pdfrwt>
<pdfrwt beam="2">  1       -1 0.21389054E-02 0.80097146E+02</pdfrwt>
<totfact> 0.18409396E+05</totfact>
</mgrwt>
</event>
<event>
 8    1  0.2603554E-016  0.8105588E+02  0.7818608E-02  0.1326081E+00
          2   -1    0    0  501    0  0.00000000000E+00  0.00000000000E+00  0.32875928280E+03  0.32875928281E+03  0.25500000000E-02 0. -1.
         -1   -1    0    0    0  501 -0.00000000000E+00 -0.00000000000E+00 -0.49960971669E+01  0.49960997090E+01  0.50400000000E-02 0.  1.
         24    2    1    2    0    0  0.00000000000E+00  0.17763568394E-14  0.32376318564E+03  0.33375538252E+03  0.81055875723E+02 0.  0.
         66    2    3    3    0    0  0.13288553574E+02  0.97392459130E+01  0.31433484831E+03  0.31477267261E+03  0.19999974451E+01 0.  0.
        -13    1    3    3    0    0 -0.13288553574E+02 -0.97392459130E+01  0.94283373267E+01  0.18982709918E+02  0.10566000000E+00 0.  1.
         13    1    4    4    0    0  0.31966251676E+01  0.28253875137E+01  0.72051202934E+02  0.72177477341E+02  0.10566000000E+00 0. -1.
        -13    1    4    4    0    0  0.14480866894E+01  0.10407292017E+01  0.28062396828E+02  0.28119198995E+02  0.10566000000E+00 0.  1.
         14    1    4    4    0    0  0.86438417166E+01  0.58731291976E+01  0.21422124855E+03  0.21447599627E+03  0.00000000000E+00 0. -1.
<mgrwt>
<rscale>  0 0.81055876E+02</rscale>
<asrwt>0</asrwt>
<pdfrwt beam="1">  1        2 0.50578365E-01 0.81055876E+02</pdfrwt>
<pdfrwt beam="2">  1       -1 0.76863032E-03 0.81055876E+02</pdfrwt>
<totfact> 0.25461402E+05</totfact>
</mgrwt>
</event>
<event>
 8    1  0.2603554E-016  0.8111496E+02  0.7818608E-02  0.1325917E+00
         -1   -1    0    0    0  501 -0.00000000000E+00  0.00000000000E+00  0.68666554919E+01  0.68666573415E+01  0.50400000000E-02 0.  1.
          2   -1    0    0  501    0  0.00000000000E+00 -0.00000000000E+00 -0.23955021038E+03  0.23955021039E+03  0.25500000000E-02 0. -1.
         24    2    1    2    0    0  0.35527136788E-14 -0.17763568394E-14 -0.23268355489E+03  0.24641686773E+03  0.81114955397E+02 0.  0.
         66    2    3    3    0    0  0.21253426200E+02 -0.72908214247E+01 -0.21889445846E+03  0.22005373919E+03  0.19999961029E+01 0.  0.
        -13    1    3    3    0    0 -0.21253426200E+02  0.72908214247E+01 -0.13789096425E+02  0.26363128542E+02  0.10566000000E+00 0.  1.
         13    1    4    4    0    0  0.91111549093E+00 -0.22352919765E+00 -0.10872846104E+02  0.10913754770E+02  0.10566000000E+00 0.  1.
        -13    1    4    4    0    0  0.75575574152E+01 -0.30328719414E+01 -0.71882087194E+02  0.72341969904E+02  0.10566000000E+00 0. -1.
         14    1    4    4    0    0  0.12784753294E+02 -0.40344202856E+01 -0.13613952516E+03  0.13679801452E+03  0.00000000000E+00 0. -1.
<mgrwt>
<rscale>  0 0.81114955E+02</rscale>
<asrwt>0</asrwt>
<pdfrwt beam="1">  1        2 0.36853872E-01 0.81114955E+02</pdfrwt>
<pdfrwt beam="2">  1       -1 0.10564089E-02 0.81114955E+02</pdfrwt>
<totfact> 0.22665718E+05</totfact>
</mgrwt>
</event>
<event>
 8    1  0.2603554E-016  0.8125492E+02  0.7818608E-02  0.1325527E+00
          2   -1    0    0  501    0  0.00000000000E+00  0.00000000000E+00  0.35484229990E+03  0.35484229991E+03  0.25500000000E-02 0. -1.
         -1   -1    0    0    0  501 -0.00000000000E+00 -0.00000000000E+00 -0.46516157773E+01  0.46516185077E+01  0.50400000000E-02 0.  1.
         24    2    1    2    0    0  0.00000000000E+00  0.00000000000E+00  0.35019068413E+03  0.35949391842E+03  0.81254920666E+02 0.  0.
         66    2    3    3    0    0  0.32492043671E+01  0.39870471545E+02  0.20597248220E+03  0.20983058704E+03  0.20000004728E+01 0.  0.
        -13    1    3    3    0    0 -0.32492043671E+01 -0.39870471545E+02  0.14421820192E+03  0.14966333138E+03  0.10566000000E+00 0.  1.
         13    1    4    4    0    0  0.12411062656E+01  0.16613682538E+02  0.86376490865E+02  0.87968540572E+02  0.10566000000E+00 0. -1.
        -13    1    4    4    0    0  0.15727357876E+00  0.70119386623E+01  0.33279267478E+02  0.34010481130E+02  0.10566000000E+00 0.  1.
         14    1    4    4    0    0  0.18508245227E+01  0.16244850345E+02  0.86316723862E+02  0.87851565338E+02  0.00000000000E+00 0. -1.
<mgrwt>
<rscale>  0 0.81254921E+02</rscale>
<asrwt>0</asrwt>
<pdfrwt beam="1">  1        2 0.54591119E-01 0.81254921E+02</pdfrwt>
<pdfrwt beam="2">  1       -1 0.71563347E-03 0.81254921E+02</pdfrwt>
<totfact> 0.26000599E+05</totfact>
</mgrwt>
</event>
<event>
 8    1  0.2603554E-016  0.7972048E+02  0.7818608E-02  0.1329847E+00
         -1   -1    0    0    0  501 -0.00000000000E+00  0.00000000000E+00  0.70592145982E+01  0.70592163973E+01  0.50400000000E-02 0.  1.
          2   -1    0    0  501    0  0.00000000000E+00 -0.00000000000E+00 -0.22507298895E+03  0.22507298896E+03  0.25500000000E-02 0. -1.
         24    2    1    2    0    0 -0.35527136788E-14 -0.71054273576E-14 -0.21801377435E+03  0.23213220536E+03  0.79720480173E+02 0.  0.
         66    2    3    3    0    0 -0.20396935699E+02 -0.34201359378E+02 -0.10606916739E+03  0.11331564860E+03  0.19999943110E+01 0.  0.
        -13    1    3    3    0    0  0.20396935699E+02  0.34201359378E+02 -0.11194460696E+03  0.11881655676E+03  0.10566000000E+00 0.  1.
         13    1    4    4    0    0 -0.74429903834E+01 -0.12893845713E+02 -0.41681737501E+02  0.44260905642E+02  0.10566000000E+00 0. -1.
        -13    1    4    4    0    0 -0.40466052180E+01 -0.65301690867E+01 -0.21098389768E+02  0.22453759973E+02  0.10566000000E+00 0.  1.
        -14    1    4    4    0    0 -0.89073400975E+01 -0.14777344579E+02 -0.43289040120E+02  0.46600982983E+02  0.00000000000E+00 0.  1.
<mgrwt>
<rscale>  0 0.79720480E+02</rscale>
<asrwt>0</asrwt>
<pdfrwt beam="1">  1        2 0.34626608E-01 0.79720480E+02</pdfrwt>
<pdfrwt beam="2">  1       -1 0.10860333E-02 0.79720480E+02</pdfrwt>
<totfact> 0.23204597E+05</totfact>
</mgrwt>
</event>
<event>
 8    1  0.2603554E-016  0.8261013E+02  0.7818608E-02  0.1321803E+00
         -1   -1    0    0    0  501 -0.00000000000E+00  0.00000000000E+00  0.15575132036E+02  0.15575132852E+02  0.50400000000E-02 0.  1.
          2   -1    0    0  501    0  0.00000000000E+00 -0.00000000000E+00 -0.10954054203E+03  0.10954054206E+03  0.25500000000E-02 0. -1.
         24    2    1    2    0    0 -0.35527136788E-14 -0.35527136788E-14 -0.93965409996E+02  0.12511567491E+03  0.82610131542E+02 0.  0.
         66    2    3    3    0    0 -0.26577152919E+02  0.21245006210E+02 -0.82412914600E+02  0.89182867341E+02  0.19999970396E+01 0.  0.
        -13    1    3    3    0    0  0.26577152919E+02 -0.21245006210E+02 -0.11552495397E+02  0.35932807573E+02  0.10566000000E+00 0.  1.
         13    1    4    4    0    0 -0.66035032255E+01  0.58441015443E+01 -0.21467979939E+02  0.23208729056E+02  0.10566000000E+00 0. -1.
        -13    1    4    4    0    0 -0.85353664269E+01  0.74130153509E+01 -0.28090801764E+02  0.30280514930E+02  0.10566000000E+00 0.  1.
        -14    1    4    4    0    0 -0.11438283267E+02  0.79878893145E+01 -0.32854132896E+02  0.35693623354E+02  0.00000000000E+00 0.  1.
<mgrwt>
<rscale>  0 0.82610132E+02</rscale>
<asrwt>0</asrwt>
<pdfrwt beam="1">  1        2 0.16852391E-01 0.82610132E+02</pdfrwt>
<pdfrwt beam="2">  1       -1 0.23961743E-02 0.82610132E+02</pdfrwt>
<totfact> 0.16693108E+05</totfact>
</mgrwt>
</event>
<event>
 8    1  0.2603554E-016  0.7932096E+02  0.7818608E-02  0.1330990E+00
          2   -1    0    0  501    0  0.00000000000E+00  0.00000000000E+00  0.46272674271E+03  0.46272674271E+03  0.25500000000E-02 0. -1.
         -1   -1    0    0    0  501 -0.00000000000E+00 -0.00000000000E+00 -0.33993125983E+01  0.33993163345E+01  0.50400000000E-02 0.  1.
         24    2    1    2    0    0  0.00000000000E+00  0.00000000000E+00  0.45932743011E+03  0.46612605905E+03  0.79320961125E+02 0.  0.
         66    2    3    3    0    0 -0.21333525591E+02 -0.25926039893E+02  0.35358786907E+03  0.35518398051E+03  0.19999989204E+01 0.  0.
        -13    1    3    3    0    0  0.21333525591E+02  0.25926039893E+02  0.10573956104E+03  0.11094207854E+03  0.10566000000E+00 0.  1.
         13    1    4    4    0    0 -0.11548260567E+02 -0.15469410114E+02  0.20054038994E+03  0.20146742698E+03  0.10566000000E+00 0. -1.
        -13    1    4    4    0    0 -0.37082164802E+01 -0.37134152906E+01  0.56038948788E+02  0.56284236406E+02  0.10566000000E+00 0.  1.
         14    1    4    4    0    0 -0.60770485437E+01 -0.67432144885E+01  0.97008530346E+02  0.97432317126E+02  0.00000000000E+00 0. -1.
<mgrwt>
<rscale>  0 0.79320961E+02</rscale>
<asrwt>0</asrwt>
<pdfrwt beam="1">  1        2 0.71188656E-01 0.79320961E+02</pdfrwt>
<pdfrwt beam="2">  1       -1 0.52297200E-03 0.79320961E+02</pdfrwt>
<totfact> 0.30360764E+05</totfact>
</mgrwt>
</event>
<event>
 8    1  0.2603554E-016  0.7856827E+02  0.7818608E-02  0.1333164E+00
          2   -1    0    0  501    0  0.00000000000E+00  0.00000000000E+00  0.21722476882E+02  0.21722477032E+02  0.25500000000E-02 0. -1.
         -1   -1    0    0    0  501 -0.00000000000E+00 -0.00000000000E+00 -0.71043606366E+02  0.71043606545E+02  0.50400000000E-02 0.  1.
         24    2    1    2    0    0 -0.35527136788E-14  0.00000000000E+00 -0.49321129484E+02  0.92766083577E+02  0.78568266167E+02 0.  0.
         66    2    3    3    0    0  0.28182251775E+02  0.18889441249E+02 -0.13537941442E+01  0.34012983834E+02  0.20000012243E+01 0.  0.
        -13    1    3    3    0    0 -0.28182251775E+02 -0.18889441249E+02 -0.47967335340E+02  0.58753099743E+02  0.10566000000E+00 0.  1.
         13    1    4    4    0    0  0.14120839043E+02  0.86447984046E+01 -0.18467369511E+00  0.16558257854E+02  0.10566000000E+00 0. -1.
        -13    1    4    4    0    0  0.39004129895E+01  0.24272351880E+01 -0.33692559768E+00  0.46075345946E+01  0.10566000000E+00 0.  1.
         14    1    4    4    0    0  0.10160999742E+02  0.78174076563E+01 -0.83219485144E+00  0.12847191385E+02  0.00000000000E+00 0. -1.
<mgrwt>
<rscale>  0 0.78568266E+02</rscale>
<asrwt>0</asrwt>
<pdfrwt beam="1">  1        2 0.33419196E-02 0.78568266E+02</pdfrwt>
<pdfrwt beam="2">  1       -1 0.10929786E-01 0.78568266E+02</pdfrwt>
<totfact> 0.13290615E+05</totfact>
</mgrwt>
</event>
<event>
 8    1  0.2603554E-016  0.8506592E+02  0.7818608E-02  0.1315260E+00
         -1   -1    0    0    0  501 -0.00000000000E+00  0.00000000000E+00  0.53053308929E+02  0.53053309168E+02  0.50400000000E-02 0.  1.
          2   -1    0    0  501    0  0.00000000000E+00 -0.00000000000E+00 -0.34098773586E+02  0.34098773681E+02  0.25500000000E-02 0. -1.
         24    2    1    2    0    0 -0.17763568394E-14 -0.35527136788E-14  0.18954535343E+02  0.87152082849E+02  0.85065922289E+02 0.  0.
         66    2    3    3    0    0 -0.91207320895E+01 -0.27719371194E+02 -0.22186679210E+02  0.36712396171E+02  0.20000012498E+01 0.  0.
        -13    1    3    3    0    0  0.91207320895E+01  0.27719371194E+02  0.41141214553E+02  0.50439686678E+02  0.10566000000E+00 0.  1.
         13    1    4    4    0    0 -0.70750006792E+00 -0.21020170302E+01 -0.23055147651E+01  0.32008739915E+01  0.10566000000E+00 0. -1.
        -13    1    4    4    0    0 -0.29444517404E+01 -0.10186151967E+02 -0.80010316483E+01  0.13283642551E+02  0.10566000000E+00 0.  1.
         14    1    4    4    0    0 -0.54687802811E+01 -0.15431202197E+02 -0.11880132797E+02  0.20227879629E+02  0.00000000000E+00 0. -1.
<mgrwt>
<rscale>  0 0.85065922E+02</rscale>
<asrwt>0</asrwt>
<pdfrwt beam="1">  1        2 0.52459652E-02 0.85065922E+02</pdfrwt>
<pdfrwt beam="2">  1       -1 0.81620475E-02 0.85065922E+02</pdfrwt>
<totfact> 0.11622329E+05</totfact>
</mgrwt>
</event>
<event>
 8    1  0.2603554E-016  0.8076591E+02  0.7818608E-02  0.1326892E+00
          2   -1    0    0  501    0  0.00000000000E+00  0.00000000000E+00  0.39238107205E+01  0.39238115491E+01  0.25500000000E-02 0. -1.
         -1   -1    0    0    0  501 -0.00000000000E+00 -0.00000000000E+00 -0.41561197390E+03  0.41561197393E+03  0.50400000000E-02 0.  1.
         24    2    1    2    0    0  0.71054273576E-14  0.35527136788E-14 -0.41168816318E+03  0.41953578548E+03  0.80765906148E+02 0.  0.
         66    2    3    3    0    0 -0.36812531388E+02 -0.16043053754E+02 -0.18503948959E+03  0.18935721470E+03  0.20000028448E+01 0.  0.
        -13    1    3    3    0    0  0.36812531388E+02  0.16043053754E+02 -0.22664867359E+03  0.23017857078E+03  0.10566000000E+00 0.  1.
         13    1    4    4    0    0 -0.86672386608E+01 -0.31000390137E+01 -0.41020418609E+02  0.42040660970E+02  0.10566000000E+00 0. -1.
        -13    1    4    4    0    0 -0.65336185955E+01 -0.25709528073E+01 -0.33117806788E+02  0.33854073031E+02  0.10566000000E+00 0.  1.
         14    1    4    4    0    0 -0.21611674131E+02 -0.10372061933E+02 -0.11090126419E+03  0.11346248070E+03  0.00000000000E+00 0. -1.
<mgrwt>
<rscale>  0 0.80765906E+02</rscale>
<asrwt>0</asrwt>
<pdfrwt beam="1">  1        2 0.60366358E-03 0.80765906E+02</pdfrwt>
<pdfrwt beam="2">  1       -1 0.63940269E-01 0.80765906E+02</pdfrwt>
<totfact> 0.72495859E+04</totfact>
</mgrwt>
</event>
<event>
 8    1  0.2603554E-016  0.8000744E+02  0.7818608E-02  0.1329030E+00
         -1   -1    0    0    0  501 -0.00000000000E+00  0.00000000000E+00  0.26469612511E+01  0.26469660494E+01  0.50400000000E-02 0.  1.
          2   -1    0    0  501    0  0.00000000000E+00 -0.00000000000E+00 -0.60457858192E+03  0.60457858192E+03  0.25500000000E-02 0. -1.
         24    2    1    2    0    0  0.00000000000E+00  0.00000000000E+00 -0.60193162067E+03  0.60722554797E+03  0.80007438105E+02 0.  0.
         66    2    3    3    0    0  0.24552647770E+02 -0.18242381913E+02 -0.49652887589E+03  0.49747416174E+03  0.19999978965E+01 0.  0.
        -13    1    3    3    0    0 -0.24552647770E+02  0.18242381913E+02 -0.10540274477E+03  0.10975138623E+03  0.10566000000E+00 0.  1.
         13    1    4    4    0    0  0.98651522179E+01 -0.67813867239E+01 -0.19367492761E+03  0.19404457525E+03  0.10566000000E+00 0. -1.
        -13    1    4    4    0    0  0.28044834089E+00 -0.56135234466E-01 -0.55096156148E+01  0.55180459127E+01  0.10566000000E+00 0.  1.
        -14    1    4    4    0    0  0.14407047211E+02 -0.11404859955E+02 -0.29734433266E+03  0.29791154057E+03  0.00000000000E+00 0.  1.
<mgrwt>
<rscale>  0 0.80007438E+02</rscale>
<asrwt>0</asrwt>
<pdfrwt beam="1">  1        2 0.93011980E-01 0.80007438E+02</pdfrwt>
<pdfrwt beam="2">  1       -1 0.40722566E-03 0.80007438E+02</pdfrwt>
<totfact> 0.32223579E+05</totfact>
</mgrwt>
</event>
<event>
 8    1  0.2603554E-016  0.8025645E+02  0.7818608E-02  0.1328325E+00
          2   -1    0    0  501    0  0.00000000000E+00  0.00000000000E+00  0.73097217415E+02  0.73097217459E+02  0.25500000000E-02 0. -1.
         -1   -1    0    0    0  501 -0.00000000000E+00 -0.00000000000E+00 -0.22029216284E+02  0.22029216860E+02  0.50400000000E-02 0.  1.
         24    2    1    2    0    0  0.00000000000E+00 -0.35527136788E-14  0.51068001131E+02  0.95126434319E+02  0.80256450001E+02 0.  0.
         66    2    3    3    0    0 -0.11606647890E+02  0.23382942460E+02  0.61633648763E+02  0.66964041892E+02  0.19999933150E+01 0.  0.
        -13    1    3    3    0    0  0.11606647890E+02 -0.23382942460E+02 -0.10565647632E+02  0.28162392428E+02  0.10566000000E+00 0.  1.
         13    1    4    4    0    0 -0.12625641206E+01  0.33652397205E+01  0.82298919636E+01  0.89811576260E+01  0.10566000000E+00 0. -1.
        -13    1    4    4    0    0 -0.38781512880E+01  0.85933471541E+01  0.20894877666E+02  0.22923628627E+02  0.10566000000E+00 0.  1.
         14    1    4    4    0    0 -0.64659324809E+01  0.11424355586E+02  0.32508879134E+02  0.35059255639E+02  0.00000000000E+00 0. -1.
<mgrwt>
<rscale>  0 0.80256450E+02</rscale>
<asrwt>0</asrwt>
<pdfrwt beam="1">  1        2 0.11245726E-01 0.80256450E+02</pdfrwt>
<pdfrwt beam="2">  1       -1 0.33891102E-02 0.80256450E+02</pdfrwt>
<totfact> 0.16178925E+05</totfact>
</mgrwt>
</event>
<event>
 8    1  0.2603554E-016  0.7955284E+02  0.7818608E-02  0.1330325E+00
          2   -1    0    0  501    0  0.00000000000E+00  0.00000000000E+00  0.29308717719E+03  0.29308717721E+03  0.25500000000E-02 0. -1.
         -1   -1    0    0    0  501 -0.00000000000E+00 -0.00000000000E+00 -0.53982690343E+01  0.53982713870E+01  0.50400000000E-02 0.  1.
         24    2    1    2    0    0  0.44408920985E-15  0.00000000000E+00  0.28768890816E+03  0.29848544859E+03  0.79552844972E+02 0.  0.
         66    2    3    3    0    0  0.19355222690E+01 -0.38191716779E+02  0.18465907323E+03  0.18858771647E+03  0.19999995788E+01 0.  0.
        -13    1    3    3    0    0 -0.19355222690E+01  0.38191716779E+02  0.10302983493E+03  0.10989773212E+03  0.10566000000E+00 0.  1.
         13    1    4    4    0    0  0.12436620318E+01 -0.15460177886E+02  0.76977325311E+02  0.78524413857E+02  0.10566000000E+00 0. -1.
        -13    1    4    4    0    0  0.89716332604E+00 -0.10549556833E+02  0.50347747808E+02  0.51449051738E+02  0.10566000000E+00 0.  1.
        -14    1    4    4    0    0 -0.20530308882E+00 -0.12181982060E+02  0.57334000115E+02  0.58614250873E+02  0.00000000000E+00 0.  1.
<mgrwt>
<rscale>  0 0.79552845E+02</rscale>
<asrwt>0</asrwt>
<pdfrwt beam="1">  1        2 0.45090354E-01 0.79552845E+02</pdfrwt>
<pdfrwt beam="2">  1       -1 0.83050276E-03 0.79552845E+02</pdfrwt>
<totfact> 0.25654412E+05</totfact>
</mgrwt>
</event>
<event>
 8    1  0.2603554E-016  0.8025194E+02  0.7818608E-02  0.1328338E+00
          2   -1    0    0  501    0  0.00000000000E+00  0.00000000000E+00  0.40863964702E+03  0.40863964703E+03  0.25500000000E-02 0. -1.
         -1   -1    0    0    0  501 -0.00000000000E+00 -0.00000000000E+00 -0.39401284935E+01  0.39401317169E+01  0.50400000000E-02 0.  1.
         24    2    1    2    0    0  0.00000000000E+00  0.00000000000E+00  0.40469951853E+03  0.41257977875E+03  0.80251937881E+02 0.  0.
         66    2    3    3    0    0  0.34571797974E+02  0.73754356621E+01  0.29981392720E+03  0.30189732893E+03  0.20000005324E+01 0.  0.
        -13    1    3    3    0    0 -0.34571797974E+02 -0.73754356621E+01  0.10488559132E+03  0.11068244982E+03  0.10566000000E+00 0.  1.
         13    1    4    4    0    0  0.19793236586E+02  0.40293320806E+01  0.16323638933E+03  0.16448142052E+03  0.10566000000E+00 0. -1.
        -13    1    4    4    0    0  0.78772577259E+01  0.16370418173E+01  0.72745335177E+02  0.73188974916E+02  0.10566000000E+00 0.  1.
         14    1    4    4    0    0  0.69013036614E+01  0.17090617642E+01  0.63832202697E+02  0.64226933490E+02  0.00000000000E+00 0. -1.
<mgrwt>
<rscale>  0 0.80251938E+02</rscale>
<asrwt>0</asrwt>
<pdfrwt beam="1">  1        2 0.62867656E-01 0.80251938E+02</pdfrwt>
<pdfrwt beam="2">  1       -1 0.60617370E-03 0.80251938E+02</pdfrwt>
<totfact> 0.28231982E+05</totfact>
</mgrwt>
</event>
<event>
 8    1  0.2603554E-016  0.7832326E+02  0.7818608E-02  0.1333878E+00
          2   -1    0    0  501    0  0.00000000000E+00  0.00000000000E+00  0.11160583029E+04  0.11160583029E+04  0.25500000000E-02 0. -1.
         -1   -1    0    0    0  501 -0.00000000000E+00 -0.00000000000E+00 -0.13741470332E+01  0.13741562759E+01  0.50400000000E-02 0.  1.
         24    2    1    2    0    0  0.00000000000E+00  0.35527136788E-14  0.11146841559E+04  0.11174324592E+04  0.78323262739E+02 0.  0.
         66    2    3    3    0    0  0.45078776289E+01  0.21778915946E+02  0.10171320120E+04  0.10173771041E+04  0.19999992888E+01 0.  0.
        -13    1    3    3    0    0 -0.45078776289E+01 -0.21778915946E+02  0.97552143898E+02  0.10005535510E+03  0.10566000000E+00 0.  1.
         13    1    4    4    0    0  0.21325714330E+01  0.76390119193E+01  0.33528893358E+03  0.33538274033E+03  0.10566000000E+00 0.  1.
        -13    1    4    4    0    0  0.12360594701E+01  0.58724205324E+01  0.26923699893E+03  0.26930389140E+03  0.10566000000E+00 0. -1.
        -14    1    4    4    0    0  0.11392467259E+01  0.82674834945E+01  0.41260607948E+03  0.41269047238E+03  0.00000000000E+00 0.  1.
<mgrwt>
<rscale>  0 0.78323263E+02</rscale>
<asrwt>0</asrwt>
<pdfrwt beam="1">  1        2 0.17170132E+00 0.78323263E+02</pdfrwt>
<pdfrwt beam="2">  1       -1 0.21140789E-03 0.78323263E+02</pdfrwt>
<totfact> 0.37222086E+05</totfact>
</mgrwt>
</event>
<event>
 8    1  0.2603554E-016  0.7955698E+02  0.7818608E-02  0.1330313E+00
          2   -1    0    0  501    0  0.00000000000E+00  0.00000000000E+00  0.21374526742E+03  0.21374526743E+03  0.25500000000E-02 0. -1.
         -1   -1    0    0    0  501 -0.00000000000E+00 -0.00000000000E+00 -0.74028674953E+01  0.74028692110E+01  0.50400000000E-02 0.  1.
         24    2    1    2    0    0  0.00000000000E+00  0.00000000000E+00  0.20634239992E+03  0.22114813664E+03  0.79556975403E+02 0.  0.
         66    2    3    3    0    0 -0.32426338395E+02  0.22383011233E+01  0.16685813253E+03  0.17000621696E+03  0.19999998200E+01 0.  0.
        -13    1    3    3    0    0  0.32426338395E+02 -0.22383011233E+01  0.39484267391E+02  0.51141919684E+02  0.10566000000E+00 0.  1.
         13    1    4    4    0    0 -0.27918336722E+02  0.17642682261E+01  0.14182248179E+03  0.14455508872E+03  0.10566000000E+00 0. -1.
        -13    1    4    4    0    0 -0.37481483591E+01  0.30025456931E+00  0.21854889948E+02  0.22176251884E+02  0.10566000000E+00 0.  1.
         14    1    4    4    0    0 -0.75985331311E+00  0.17377832784E+00  0.31807607885E+01  0.32748763578E+01  0.00000000000E+00 0. -1.
<mgrwt>
<rscale>  0 0.79556975E+02</rscale>
<asrwt>0</asrwt>
<pdfrwt beam="1">  1        2 0.32883886E-01 0.79556975E+02</pdfrwt>
<pdfrwt beam="2">  1       -1 0.11389029E-02 0.79556975E+02</pdfrwt>
<totfact> 0.22909542E+05</totfact>
</mgrwt>
</event>
<event>
 8    1  0.3180413E-016  0.7757458E+02  0.7818608E-02  0.1336079E+00
          2   -1    0    0  501    0  0.00000000000E+00  0.00000000000E+00  0.85275884080E+03  0.85275884081E+03  0.25500000000E-02 0. -1.
         -1   -1    0    0    0  501 -0.00000000000E+00 -0.00000000000E+00 -0.17642161784E+01  0.17642233775E+01  0.50400000000E-02 0.  1.
         24    2    1    2    0    0  0.00000000000E+00 -0.11102230246E-15  0.85099462462E+03  0.85452306418E+03  0.77574584000E+02 0.  0.
         66    2    3    3    0    0  0.15031371989E+02 -0.72086308628E+00  0.81926374136E+03  0.81940438106E+03  0.20000022735E+01 0.  0.
        -13    1    3    3    0    0 -0.15031371989E+02  0.72086308628E+00  0.31730883269E+02  0.35118683126E+02  0.10566000000E+00 0.  1.
         13    1    4    4    0    0  0.75899849039E+01 -0.39550630196E-01  0.43009336408E+03  0.43016034501E+03  0.10566000000E+00 0. -1.
        -13    1    4    4    0    0  0.66313397936E+01 -0.71279507227E+00  0.36241651282E+03  0.36247789267E+03  0.10566000000E+00 0.  1.
        -14    1    4    4    0    0  0.81004729194E+00  0.31482616182E-01  0.26753864460E+02  0.26766143378E+02  0.00000000000E+00 0.  1.
<mgrwt>
<rscale>  0 0.77574584E+02</rscale>
<asrwt>0</asrwt>
<pdfrwt beam="1">  1        2 0.13119337E+00 0.77574584E+02</pdfrwt>
<pdfrwt beam="2">  1       -1 0.27141905E-03 0.77574584E+02</pdfrwt>
<totfact> 0.37595717E+05</totfact>
</mgrwt>
</event>
<event>
 8    1  0.2603554E-016  0.7882258E+02  0.7818608E-02  0.1332426E+00
         -1   -1    0    0    0  501 -0.00000000000E+00  0.00000000000E+00  0.36445936185E+03  0.36445936188E+03  0.50400000000E-02 0.  1.
          2   -1    0    0  501    0  0.00000000000E+00 -0.00000000000E+00 -0.42617911719E+01  0.42617919348E+01  0.25500000000E-02 0. -1.
         24    2    1    2    0    0  0.55511151231E-16  0.71054273576E-14  0.36019757067E+03  0.36872115381E+03  0.78822581482E+02 0.  0.
         66    2    3    3    0    0 -0.44226499268E+00  0.36780225665E+02  0.24608168318E+03  0.24882358278E+03  0.19999877675E+01 0.  0.
        -13    1    3    3    0    0  0.44226499268E+00 -0.36780225665E+02  0.11411588749E+03  0.11989757104E+03  0.10566000000E+00 0.  1.
         13    1    4    4    0    0  0.37807924146E+00  0.22057255971E+02  0.15143368676E+03  0.15303214739E+03  0.10566000000E+00 0. -1.
        -13    1    4    4    0    0 -0.84819852680E+00  0.12281065152E+02  0.79763847223E+02  0.80708280182E+02  0.10566000000E+00 0.  1.
         14    1    4    4    0    0  0.27854292656E-01  0.24419045425E+01  0.14884149200E+02  0.15083155209E+02  0.00000000000E+00 0. -1.
<mgrwt>
<rscale>  0 0.78822581E+02</rscale>
<asrwt>0</asrwt>
<pdfrwt beam="1">  1        2 0.65566028E-03 0.78822581E+02</pdfrwt>
<pdfrwt beam="2">  1       -1 0.56070668E-01 0.78822581E+02</pdfrwt>
<totfact> 0.82446848E+04</totfact>
</mgrwt>
</event>
<event>
 8    1  0.2603554E-016  0.8115837E+02  0.7818608E-02  0.1325796E+00
          2   -1    0    0  501    0  0.00000000000E+00  0.00000000000E+00  0.31272644393E+03  0.31272644394E+03  0.25500000000E-02 0. -1.
         -1   -1    0    0    0  501 -0.00000000000E+00 -0.00000000000E+00 -0.52655274995E+01  0.52655299115E+01  0.50400000000E-02 0.  1.
         24    2    1    2    0    0  0.00000000000E+00 -0.35527136788E-14  0.30746091643E+03  0.31799197385E+03  0.81158365569E+02 0.  0.
         66    2    3    3    0    0  0.17249846312E+02 -0.17028250438E+02  0.28121799575E+03  0.28226774453E+03  0.19999892593E+01 0.  0.
        -13    1    3    3    0    0 -0.17249846312E+02  0.17028250438E+02  0.26242920677E+02  0.35724229319E+02  0.10566000000E+00 0.  1.
         13    1    4    4    0    0  0.11374831849E+02 -0.10978914700E+02  0.17682785784E+03  0.17753316829E+03  0.10566000000E+00 0. -1.
        -13    1    4    4    0    0  0.58639649012E+01 -0.58552176605E+01  0.10249071137E+03  0.10282522423E+03  0.10566000000E+00 0.  1.
        -14    1    4    4    0    0  0.11049561505E-01 -0.19411807750E+00  0.18994265422E+01  0.19093520131E+01  0.00000000000E+00 0.  1.
<mgrwt>
<rscale>  0 0.81158366E+02</rscale>
<asrwt>0</asrwt>
<pdfrwt beam="1">  1        2 0.48111784E-01 0.81158366E+02</pdfrwt>
<pdfrwt beam="2">  1       -1 0.81008096E-03 0.81158366E+02</pdfrwt>
<totfact> 0.24923094E+05</totfact>
</mgrwt>
</event>
<event>
 8    1  0.2603554E-016  0.8070486E+02  0.7818608E-02  0.1327063E+00
         -1   -1    0    0    0  501 -0.00000000000E+00  0.00000000000E+00  0.27543965952E+01  0.27544012063E+01  0.50400000000E-02 0.  1.
          2   -1    0    0  501    0  0.00000000000E+00 -0.00000000000E+00 -0.59117021299E+03  0.59117021300E+03  0.25500000000E-02 0. -1.
         24    2    1    2    0    0  0.17763568394E-14 -0.35527136788E-14 -0.58841581640E+03  0.59392461420E+03  0.80704859650E+02 0.  0.
         66    2    3    3    0    0  0.12418844357E+02  0.26772708890E+02 -0.49664048210E+03  0.49752062681E+03  0.20000005304E+01 0.  0.
        -13    1    3    3    0    0 -0.12418844357E+02 -0.26772708890E+02 -0.91775334292E+02  0.96403987391E+02  0.10566000000E+00 0.  1.
         13    1    4    4    0    0  0.80668671773E+01  0.17275583446E+02 -0.31306296969E+03  0.31364303641E+03  0.10566000000E+00 0. -1.
        -13    1    4    4    0    0  0.13399289363E+00  0.12614466745E+00 -0.51694686414E+01  0.51738222469E+01  0.10566000000E+00 0. -1.
        -14    1    4    4    0    0  0.42179842858E+01  0.93709807773E+01 -0.17840804377E+03  0.17870376816E+03  0.00000000000E+00 0.  1.
<mgrwt>
<rscale>  0 0.80704860E+02</rscale>
<asrwt>0</asrwt>
<pdfrwt beam="1">  1        2 0.90949163E-01 0.80704860E+02</pdfrwt>
<pdfrwt beam="2">  1       -1 0.42375415E-03 0.80704860E+02</pdfrwt>
<totfact> 0.31306875E+05</totfact>
</mgrwt>
</event>
<event>
 8    1  0.2603554E-016  0.7928801E+02  0.7818608E-02  0.1331084E+00
          2   -1    0    0  501    0  0.00000000000E+00  0.00000000000E+00  0.39550252349E+03  0.39550252350E+03  0.25500000000E-02 0. -1.
         -1   -1    0    0    0  501 -0.00000000000E+00 -0.00000000000E+00 -0.39737960796E+01  0.39737992758E+01  0.50400000000E-02 0.  1.
         24    2    1    2    0    0 -0.35527136788E-14  0.00000000000E+00  0.39152872741E+03  0.39947632278E+03  0.79288007098E+02 0.  0.
         66    2    3    3    0    0 -0.28210459602E+02  0.24067498097E+01  0.33551566743E+03  0.33671410063E+03  0.19999997662E+01 0.  0.
        -13    1    3    3    0    0  0.28210459602E+02 -0.24067498097E+01  0.56013059982E+02  0.62762222142E+02  0.10566000000E+00 0.  1.
         13    1    4    4    0    0 -0.52051635376E+01  0.84561084570E+00  0.66447031325E+02  0.66656041895E+02  0.10566000000E+00 0. -1.
        -13    1    4    4    0    0 -0.11882407497E+01 -0.19093468486E+00  0.13658432155E+02  0.13711757914E+02  0.10566000000E+00 0.  1.
         14    1    4    4    0    0 -0.21817055315E+02  0.17520736488E+01  0.25541020395E+03  0.25634630082E+03  0.00000000000E+00 0. -1.
<mgrwt>
<rscale>  0 0.79288007E+02</rscale>
<asrwt>0</asrwt>
<pdfrwt beam="1">  1        2 0.60846528E-01 0.79288007E+02</pdfrwt>
<pdfrwt beam="2">  1       -1 0.61135364E-03 0.79288007E+02</pdfrwt>
<totfact> 0.28806705E+05</totfact>
</mgrwt>
</event>
<event>
 8    1  0.2603554E-016  0.8067217E+02  0.7818608E-02  0.1327155E+00
         -1   -1    0    0    0  501 -0.00000000000E+00  0.00000000000E+00  0.22607536616E+01  0.22607592796E+01  0.50400000000E-02 0.  1.
          2   -1    0    0  501    0  0.00000000000E+00 -0.00000000000E+00 -0.71967045068E+03  0.71967045068E+03  0.25500000000E-02 0. -1.
         24    2    1    2    0    0 -0.17763568394E-14  0.00000000000E+00 -0.71740969701E+03  0.72193120996E+03  0.80672167097E+02 0.  0.
         66    2    3    3    0    0 -0.95536774889E+01 -0.22690933191E+02 -0.64456917639E+03  0.64504230432E+03  0.19999997997E+01 0.  0.
        -13    1    3    3    0    0  0.95536774889E+01  0.22690933191E+02 -0.72840520623E+02  0.76888905645E+02  0.10566000000E+00 0.  1.
         13    1    4    4    0    0 -0.47489840387E+01 -0.11213325604E+02 -0.32998508854E+03  0.33020972327E+03  0.10566000000E+00 0. -1.
        -13    1    4    4    0    0 -0.40816940381E+01 -0.88331808485E+01 -0.25451987618E+03  0.25470583787E+03  0.10566000000E+00 0.  1.
        -14    1    4    4    0    0 -0.72299941217E+00 -0.26444267390E+01 -0.60064211673E+02  0.60126743175E+02  0.00000000000E+00 0.  1.
<mgrwt>
<rscale>  0 0.80672167E+02</rscale>
<asrwt>0</asrwt>
<pdfrwt beam="1">  1        2 0.11071835E+00 0.80672167E+02</pdfrwt>
<pdfrwt beam="2">  1       -1 0.34780926E-03 0.80672167E+02</pdfrwt>
<totfact> 0.32935254E+05</totfact>
</mgrwt>
</event>
<event>
 8    1  0.2603554E-016  0.8268304E+02  0.7818608E-02  0.1321605E+00
          2   -1    0    0  501    0  0.00000000000E+00  0.00000000000E+00  0.45406493458E+02  0.45406493530E+02  0.25500000000E-02 0. -1.
         -1   -1    0    0    0  501 -0.00000000000E+00 -0.00000000000E+00 -0.37640457282E+02  0.37640457619E+02  0.50400000000E-02 0.  1.
         24    2    1    2    0    0  0.00000000000E+00  0.17763568394E-14  0.77660361766E+01  0.83046951149E+02  0.82683038026E+02 0.  0.
         66    2    3    3    0    0 -0.37325052407E+02  0.91502330785E+01  0.19125394380E+02  0.42972863694E+02  0.20000003255E+01 0.  0.
        -13    1    3    3    0    0  0.37325052407E+02 -0.91502330785E+01 -0.11359358203E+02  0.40074087455E+02  0.10566000000E+00 0.  1.
         13    1    4    4    0    0 -0.13732566730E+02  0.31043504614E+01  0.78575990747E+01  0.16123690894E+02  0.10566000000E+00 0. -1.
        -13    1    4    4    0    0 -0.38404506639E+01  0.12788291007E+01  0.17426462869E+01  0.44082247319E+01  0.10566000000E+00 0.  1.
         14    1    4    4    0    0 -0.19752035012E+02  0.47670535165E+01  0.95251490184E+01  0.22440948068E+02  0.00000000000E+00 0. -1.
<mgrwt>
<rscale>  0 0.82683038E+02</rscale>
<asrwt>0</asrwt>
<pdfrwt beam="1">  1        2 0.69856144E-02 0.82683038E+02</pdfrwt>
<pdfrwt beam="2">  1       -1 0.57908396E-02 0.82683038E+02</pdfrwt>
<totfact> 0.13364867E+05</totfact>
</mgrwt>
</event>
<event>
 8    1  0.2603554E-016  0.7885730E+02  0.7818608E-02  0.1332326E+00
          2   -1    0    0  501    0  0.00000000000E+00  0.00000000000E+00  0.34329824689E+02  0.34329824783E+02  0.25500000000E-02 0. -1.
         -1   -1    0    0    0  501 -0.00000000000E+00 -0.00000000000E+00 -0.45284772670E+02  0.45284772951E+02  0.50400000000E-02 0.  1.
         24    2    1    2    0    0  0.00000000000E+00  0.00000000000E+00 -0.10954947982E+02  0.79614597734E+02  0.78857296981E+02 0.  0.
         66    2    3    3    0    0 -0.14888044078E+02  0.20797195342E+02  0.24780790180E+02  0.35668820502E+02  0.20000008792E+01 0.  0.
        -13    1    3    3    0    0  0.14888044078E+02 -0.20797195342E+02 -0.35735738161E+02  0.43945777232E+02  0.10566000000E+00 0.  1.
         13    1    4    4    0    0 -0.88831684768E+01  0.12712563810E+02  0.13841048889E+02  0.20787153706E+02  0.10566000000E+00 0. -1.
        -13    1    4    4    0    0 -0.34024181224E+01  0.49924701894E+01  0.67790788387E+01  0.90812048545E+01  0.10566000000E+00 0.  1.
         14    1    4    4    0    0 -0.26024574789E+01  0.30921613430E+01  0.41606624522E+01  0.58004619422E+01  0.00000000000E+00 0. -1.
<mgrwt>
<rscale>  0 0.78857297E+02</rscale>
<asrwt>0</asrwt>
<pdfrwt beam="1">  1        2 0.52815115E-02 0.78857297E+02</pdfrwt>
<pdfrwt beam="2">  1       -1 0.69668881E-02 0.78857297E+02</pdfrwt>
<totfact> 0.14384472E+05</totfact>
</mgrwt>
</event>
<event>
 8    1  0.2603554E-016  0.8088516E+02  0.7818608E-02  0.1326558E+00
          2   -1    0    0  501    0  0.00000000000E+00  0.00000000000E+00  0.36000168265E+03  0.36000168266E+03  0.25500000000E-02 0. -1.
         -1   -1    0    0    0  501 -0.00000000000E+00 -0.00000000000E+00 -0.45433173815E+01  0.45433201770E+01  0.50400000000E-02 0.  1.
         24    2    1    2    0    0  0.00000000000E+00  0.00000000000E+00  0.35545836527E+03  0.36454500283E+03  0.80885163370E+02 0.  0.
         66    2    3    3    0    0 -0.16663572043E+02 -0.23551898692E+02  0.30541123290E+03  0.30677742380E+03  0.20000017289E+01 0.  0.
        -13    1    3    3    0    0  0.16663572043E+02  0.23551898692E+02  0.50047132365E+02  0.57767579032E+02  0.10566000000E+00 0.  1.
         13    1    4    4    0    0 -0.34202111022E+01 -0.52743772482E+01  0.72078289411E+02  0.72351972107E+02  0.10566000000E+00 0. -1.
        -13    1    4    4    0    0 -0.86500239292E+01 -0.12834162508E+02  0.16231424094E+03  0.16305049101E+03  0.10566000000E+00 0.  1.
        -14    1    4    4    0    0 -0.45933370120E+01 -0.54433589350E+01  0.71018702549E+02  0.71374960688E+02  0.00000000000E+00 0.  1.
<mgrwt>
<rscale>  0 0.80885163E+02</rscale>
<asrwt>0</asrwt>
<pdfrwt beam="1">  1        2 0.55384880E-01 0.80885163E+02</pdfrwt>
<pdfrwt beam="2">  1       -1 0.69897206E-03 0.80885163E+02</pdfrwt>
<totfact> 0.26448766E+05</totfact>
</mgrwt>
</event>
<event>
 8    1  0.2603554E-016  0.8068627E+02  0.7818608E-02  0.1327115E+00
         -1   -1    0    0    0  501 -0.00000000000E+00  0.00000000000E+00  0.39134793848E+01  0.39134826302E+01  0.50400000000E-02 0.  1.
          2   -1    0    0  501    0  0.00000000000E+00 -0.00000000000E+00 -0.41588773022E+03  0.41588773023E+03  0.25500000000E-02 0. -1.
         24    2    1    2    0    0  0.00000000000E+00  0.00000000000E+00 -0.41197425084E+03  0.41980121286E+03  0.80686274954E+02 0.  0.
         66    2    3    3    0    0  0.33706225072E+02  0.96331073162E+01 -0.30973529426E+03  0.31171919876E+03  0.20000005488E+01 0.  0.
        -13    1    3    3    0    0 -0.33706225072E+02 -0.96331073162E+01 -0.10223895658E+03  0.10808201410E+03  0.10566000000E+00 0.  1.
         13    1    4    4    0    0  0.13713672403E+02  0.35041390759E+01 -0.12086758151E+03  0.12169357923E+03  0.10566000000E+00 0. -1.
        -13    1    4    4    0    0  0.73636749038E+01  0.25994925251E+01 -0.66230320602E+02  0.66689186534E+02  0.10566000000E+00 0.  1.
        -14    1    4    4    0    0  0.12628877765E+02  0.35294757152E+01 -0.12263739214E+03  0.12333643300E+03  0.00000000000E+00 0.  1.
<mgrwt>
<rscale>  0 0.80686275E+02</rscale>
<asrwt>0</asrwt>
<pdfrwt beam="1">  1        2 0.63982693E-01 0.80686275E+02</pdfrwt>
<pdfrwt beam="2">  1       -1 0.60207433E-03 0.80686275E+02</pdfrwt>
<totfact> 0.28006781E+05</totfact>
</mgrwt>
</event>
<event>
 8    1  0.2603554E-016  0.7725027E+02  0.7818608E-02  0.1337041E+00
          2   -1    0    0  501    0  0.00000000000E+00  0.00000000000E+00  0.73328770127E+03  0.73328770127E+03  0.25500000000E-02 0. -1.
         -1   -1    0    0    0  501 -0.00000000000E+00 -0.00000000000E+00 -0.20345338970E+01  0.20345401396E+01  0.50400000000E-02 0.  1.
         24    2    1    2    0    0 -0.35527136788E-14  0.35527136788E-14  0.73125316737E+03  0.73532224141E+03  0.77250268122E+02 0.  0.
         66    2    3    3    0    0 -0.23132553232E+02  0.13784047095E+02  0.62910757729E+03  0.62968679418E+03  0.19999992443E+01 0.  0.
        -13    1    3    3    0    0  0.23132553232E+02 -0.13784047095E+02  0.10214559008E+03  0.10563544723E+03  0.10566000000E+00 0.  1.
         13    1    4    4    0    0 -0.11002140408E+02  0.68220080415E+01  0.29277438921E+03  0.29306047333E+03  0.10566000000E+00 0. -1.
        -13    1    4    4    0    0 -0.95440554764E+01  0.48558481744E+01  0.25486650588E+03  0.25509138606E+03  0.10566000000E+00 0.  1.
        -14    1    4    4    0    0 -0.25863573476E+01  0.21061908788E+01  0.81466682193E+02  0.81534934794E+02  0.00000000000E+00 0.  1.
<mgrwt>
<rscale>  0 0.77250268E+02</rscale>
<asrwt>0</asrwt>
<pdfrwt beam="1">  1        2 0.11281332E+00 0.77250268E+02</pdfrwt>
<pdfrwt beam="2">  1       -1 0.31300618E-03 0.77250268E+02</pdfrwt>
<totfact> 0.37005251E+05</totfact>
</mgrwt>
</event>
<event>
 8    1  0.2603554E-016  0.8014806E+02  0.7818608E-02  0.1328632E+00
          2   -1    0    0  501    0  0.00000000000E+00  0.00000000000E+00  0.25908024328E+02  0.25908024454E+02  0.25500000000E-02 0. -1.
         -1   -1    0    0    0  501 -0.00000000000E+00 -0.00000000000E+00 -0.61985737459E+02  0.61985737664E+02  0.50400000000E-02 0.  1.
         24    2    1    2    0    0  0.17763568394E-14 -0.35527136788E-14 -0.36077713131E+02  0.87893762118E+02  0.80148063198E+02 0.  0.
         66    2    3    3    0    0  0.10732297843E+02 -0.29893352552E+02  0.87028084894E+01  0.32992933122E+02  0.20000041610E+01 0.  0.
        -13    1    3    3    0    0 -0.10732297843E+02  0.29893352552E+02 -0.44780521620E+02  0.54900828995E+02  0.10566000000E+00 0.  1.
         13    1    4    4    0    0  0.68899017074E+01 -0.21558111562E+02  0.63831645793E+01  0.23515502838E+02  0.10566000000E+00 0. -1.
        -13    1    4    4    0    0  0.34761021819E+01 -0.76362975979E+01  0.22371081433E+01  0.86840165974E+01  0.10566000000E+00 0.  1.
         14    1    4    4    0    0  0.36629395367E+00 -0.69894339147E+00  0.82535766837E-01  0.79341368641E+00  0.00000000000E+00 0. -1.
<mgrwt>
<rscale>  0 0.80148063E+02</rscale>
<asrwt>0</asrwt>
<pdfrwt beam="1">  1        2 0.39858499E-02 0.80148063E+02</pdfrwt>
<pdfrwt beam="2">  1       -1 0.95362673E-02 0.80148063E+02</pdfrwt>
<totfact> 0.13003899E+05</totfact>
</mgrwt>
</event>
<event>
 8    1  0.2603554E-016  0.7994064E+02  0.7818608E-02  0.1329220E+00
         -1   -1    0    0    0  501 -0.00000000000E+00  0.00000000000E+00  0.10525485789E+02  0.10525486996E+02  0.50400000000E-02 0.  1.
          2   -1    0    0  501    0  0.00000000000E+00 -0.00000000000E+00 -0.15178646047E+03  0.15178646049E+03  0.25500000000E-02 0. -1.
         24    2    1    2    0    0  0.00000000000E+00  0.00000000000E+00 -0.14126097468E+03  0.16231194749E+03  0.79940636283E+02 0.  0.
         66    2    3    3    0    0 -0.10629288861E+02  0.21426345453E+02 -0.13563332900E+03  0.13774058975E+03  0.20000171575E+01 0.  0.
        -13    1    3    3    0    0  0.10629288861E+02 -0.21426345453E+02 -0.56276456860E+01  0.24571357739E+02  0.10566000000E+00 0.  1.
         13    1    4    4    0    0 -0.42411645480E+01  0.10057121989E+02 -0.60749740891E+02  0.61722567686E+02  0.10566000000E+00 0. -1.
        -13    1    4    4    0    0 -0.98509093672E+00  0.15134314042E+01 -0.12462777895E+02  0.12593366336E+02  0.10566000000E+00 0.  1.
         14    1    4    4    0    0 -0.54030333765E+01  0.98557920597E+01 -0.62420810212E+02  0.63424655729E+02  0.00000000000E+00 0. -1.
<mgrwt>
<rscale>  0 0.79940636E+02</rscale>
<asrwt>0</asrwt>
<pdfrwt beam="1">  1        2 0.23351762E-01 0.79940636E+02</pdfrwt>
<pdfrwt beam="2">  1       -1 0.16193057E-02 0.79940636E+02</pdfrwt>
<totfact> 0.20146333E+05</totfact>
</mgrwt>
</event>
<event>
 8    1  0.2603554E-016  0.8259373E+02  0.7818608E-02  0.1321848E+00
          2   -1    0    0  501    0  0.00000000000E+00  0.00000000000E+00  0.53576226719E+02  0.53576226780E+02  0.25500000000E-02 0. -1.
         -1   -1    0    0    0  501 -0.00000000000E+00 -0.00000000000E+00 -0.31831861943E+02  0.31831862342E+02  0.50400000000E-02 0.  1.
         24    2    1    2    0    0  0.00000000000E+00  0.71054273576E-14  0.21744364776E+02  0.85408089122E+02  0.82593730318E+02 0.  0.
         66    2    3    3    0    0  0.23241699782E+02 -0.33670252812E+02  0.52560306621E+01  0.41297559097E+02  0.19999989619E+01 0.  0.
        -13    1    3    3    0    0 -0.23241699782E+02  0.33670252812E+02  0.16488334114E+02  0.44110530025E+02  0.10566000000E+00 0.  1.
         13    1    4    4    0    0  0.13113239379E+02 -0.19171253165E+02  0.36563513694E+01  0.23513274214E+02  0.10566000000E+00 0. -1.
        -13    1    4    4    0    0  0.49848437203E+01 -0.63289218397E+01  0.81338514329E+00  0.80979428249E+01  0.10566000000E+00 0.  1.
        -14    1    4    4    0    0  0.51436166825E+01 -0.81700778080E+01  0.78629414933E+00  0.96863420575E+01  0.00000000000E+00 0.  1.
<mgrwt>
<rscale>  0 0.82593730E+02</rscale>
<asrwt>0</asrwt>
<pdfrwt beam="1">  1        2 0.82424964E-02 0.82593730E+02</pdfrwt>
<pdfrwt beam="2">  1       -1 0.48972096E-02 0.82593730E+02</pdfrwt>
<totfact> 0.13902504E+05</totfact>
</mgrwt>
</event>
<event>
 8    1  0.2603554E-016  0.7925115E+02  0.7818608E-02  0.1331190E+00
          2   -1    0    0  501    0  0.00000000000E+00  0.00000000000E+00  0.17936086634E+03  0.17936086636E+03  0.25500000000E-02 0. -1.
         -1   -1    0    0    0  501 -0.00000000000E+00 -0.00000000000E+00 -0.87543411077E+01  0.87543425585E+01  0.50400000000E-02 0.  1.
         24    2    1    2    0    0 -0.35527136788E-14  0.00000000000E+00  0.17060652523E+03  0.18811520892E+03  0.79251153770E+02 0.  0.
         66    2    3    3    0    0  0.14893571615E+02  0.57706269816E+01  0.17136983700E+03  0.17212419831E+03  0.19999999764E+01 0.  0.
        -13    1    3    3    0    0 -0.14893571615E+02 -0.57706269816E+01 -0.76331176911E+00  0.15991010603E+02  0.10566000000E+00 0.  1.
         13    1    4    4    0    0  0.82764492706E+00  0.18569210703E+00  0.57377001996E+01  0.58010210567E+01  0.10566000000E+00 0. -1.
        -13    1    4    4    0    0  0.46243538200E+01  0.18541072683E+01  0.51665337688E+02  0.51905111930E+02  0.10566000000E+00 0.  1.
         14    1    4    4    0    0  0.94415728681E+01  0.37308276063E+01  0.11396679911E+03  0.11441806533E+03  0.00000000000E+00 0. -1.
<mgrwt>
<rscale>  0 0.79251154E+02</rscale>
<asrwt>0</asrwt>
<pdfrwt beam="1">  1        2 0.27593977E-01 0.79251154E+02</pdfrwt>
<pdfrwt beam="2">  1       -1 0.13468220E-02 0.79251154E+02</pdfrwt>
<totfact> 0.21783465E+05</totfact>
</mgrwt>
</event>
<event>
 8    1  0.2603554E-016  0.7899957E+02  0.7818608E-02  0.1331915E+00
          2   -1    0    0  501    0  0.00000000000E+00  0.00000000000E+00  0.14023782343E+02  0.14023782575E+02  0.25500000000E-02 0. -1.
         -1   -1    0    0    0  501 -0.00000000000E+00 -0.00000000000E+00 -0.11125623195E+03  0.11125623206E+03  0.50400000000E-02 0.  1.
         24    2    1    2    0    0 -0.35527136788E-14 -0.71054273576E-14 -0.97232449607E+02  0.12528001464E+03  0.78999574755E+02 0.  0.
         66    2    3    3    0    0  0.26701457051E+02  0.28698357347E+02 -0.41265982519E+02  0.56951249647E+02  0.20000000105E+01 0.  0.
        -13    1    3    3    0    0 -0.26701457051E+02 -0.28698357347E+02 -0.55966467088E+02  0.68328764993E+02  0.10566000000E+00 0.  1.
         13    1    4    4    0    0  0.29934109628E+01  0.36832605107E+01 -0.50197796947E+01  0.69091438978E+01  0.10566000000E+00 0. -1.
        -13    1    4    4    0    0  0.36273182912E+01  0.39658582952E+01 -0.48530233063E+01  0.72421315406E+01  0.10566000000E+00 0. -1.
         14    1    4    4    0    0  0.20080727797E+02  0.21049238541E+02 -0.31393179518E+02  0.42799974209E+02  0.00000000000E+00 0. -1.
<mgrwt>
<rscale>  0 0.78999575E+02</rscale>
<asrwt>0</asrwt>
<pdfrwt beam="1">  1        2 0.21575051E-02 0.78999575E+02</pdfrwt>
<pdfrwt beam="2">  1       -1 0.17116343E-01 0.78999575E+02</pdfrwt>
<totfact> 0.11950974E+05</totfact>
</mgrwt>
</event>
<event>
 8    1  0.2603554E-016  0.8004343E+02  0.7818608E-02  0.1328928E+00
          2   -1    0    0  501    0  0.00000000000E+00  0.00000000000E+00  0.21015118635E+02  0.21015118790E+02  0.25500000000E-02 0. -1.
         -1   -1    0    0    0  501 -0.00000000000E+00 -0.00000000000E+00 -0.76218354077E+02  0.76218354243E+02  0.50400000000E-02 0.  1.
         24    2    1    2    0    0  0.00000000000E+00  0.00000000000E+00 -0.55203235442E+02  0.97233473033E+02  0.80043432428E+02 0.  0.
         66    2    3    3    0    0  0.25703806848E+02 -0.24907954866E+02 -0.59347281994E+01  0.36336109609E+02  0.19999901655E+01 0.  0.
        -13    1    3    3    0    0 -0.25703806848E+02  0.24907954866E+02 -0.49268507242E+02  0.60897363424E+02  0.10566000000E+00 0.  1.
         13    1    4    4    0    0  0.87404339076E+01 -0.74147869402E+01 -0.19529543778E+01  0.11627529622E+02  0.10566000000E+00 0. -1.
        -13    1    4    4    0    0  0.13198649917E+02 -0.13085684958E+02 -0.31962540053E+01  0.18859128138E+02  0.10566000000E+00 0.  1.
        -14    1    4    4    0    0  0.37647230236E+01 -0.44074829677E+01 -0.78551981629E+00  0.58494518493E+01  0.00000000000E+00 0.  1.
<mgrwt>
<rscale>  0 0.80043432E+02</rscale>
<asrwt>0</asrwt>
<pdfrwt beam="1">  1        2 0.32330952E-02 0.80043432E+02</pdfrwt>
<pdfrwt beam="2">  1       -1 0.11725901E-01 0.80043432E+02</pdfrwt>
<totfact> 0.12520720E+05</totfact>
</mgrwt>
</event>
<event>
 8    1  0.2603554E-016  0.7890653E+02  0.7818608E-02  0.1332183E+00
          2   -1    0    0  501    0  0.00000000000E+00  0.00000000000E+00  0.34673396307E+02  0.34673396400E+02  0.25500000000E-02 0. -1.
         -1   -1    0    0    0  501 -0.00000000000E+00 -0.00000000000E+00 -0.44892062529E+02  0.44892062812E+02  0.50400000000E-02 0.  1.
         24    2    1    2    0    0  0.00000000000E+00 -0.17763568394E-14 -0.10218666223E+02  0.79565459213E+02  0.78906534333E+02 0.  0.
         66    2    3    3    0    0  0.16182093525E+00  0.10516982390E+02  0.33203688471E+02  0.34887218919E+02  0.20000027976E+01 0.  0.
        -13    1    3    3    0    0 -0.16182093525E+00 -0.10516982390E+02 -0.43422354694E+02  0.44678240294E+02  0.10566000000E+00 0.  1.
         13    1    4    4    0    0  0.42935186877E-01  0.65702367408E+01  0.21279340514E+02  0.22270863275E+02  0.10566000000E+00 0. -1.
        -13    1    4    4    0    0  0.13857695950E+00  0.21410434991E+01  0.46657384265E+01  0.51364919876E+01  0.10566000000E+00 0.  1.
        -14    1    4    4    0    0 -0.19691211127E-01  0.18057021502E+01  0.72586095301E+01  0.74798636558E+01  0.00000000000E+00 0.  1.
<mgrwt>
<rscale>  0 0.78906534E+02</rscale>
<asrwt>0</asrwt>
<pdfrwt beam="1">  1        2 0.53343687E-02 0.78906534E+02</pdfrwt>
<pdfrwt beam="2">  1       -1 0.69064712E-02 0.78906534E+02</pdfrwt>
<totfact> 0.14387963E+05</totfact>
</mgrwt>
</event>
<event>
 8    1  0.2603554E-016  0.8022007E+02  0.7818608E-02  0.1328428E+00
          2   -1    0    0  501    0  0.00000000000E+00  0.00000000000E+00  0.88726889844E+03  0.88726889844E+03  0.25500000000E-02 0. -1.
         -1   -1    0    0    0  501 -0.00000000000E+00 -0.00000000000E+00 -0.18132177591E+01  0.18132247637E+01  0.50400000000E-02 0.  1.
         24    2    1    2    0    0  0.00000000000E+00  0.00000000000E+00  0.88545568068E+03  0.88908212321E+03  0.80220068292E+02 0.  0.
         66    2    3    3    0    0  0.53811289842E+00  0.32335766502E+02  0.70548982904E+03  0.70623352387E+03  0.19999976156E+01 0.  0.
        -13    1    3    3    0    0 -0.53811289842E+00 -0.32335766502E+02  0.17996585164E+03  0.18284859934E+03  0.10566000000E+00 0.  1.
         13    1    4    4    0    0  0.14718705837E+00  0.69138607486E+00  0.13790453337E+02  0.13808962525E+02  0.10566000000E+00 0. -1.
        -13    1    4    4    0    0  0.61947956272E+00  0.14194639899E+02  0.29759110249E+03  0.29793010423E+03  0.10566000000E+00 0.  1.
         14    1    4    4    0    0 -0.22855372266E+00  0.17449740528E+02  0.39410827321E+03  0.39449445712E+03  0.00000000000E+00 0. -1.
<mgrwt>
<rscale>  0 0.80220068E+02</rscale>
<asrwt>0</asrwt>
<pdfrwt beam="1">  1        2 0.13650303E+00 0.80220068E+02</pdfrwt>
<pdfrwt beam="2">  1       -1 0.27895687E-03 0.80220068E+02</pdfrwt>
<totfact> 0.34641748E+05</totfact>
</mgrwt>
</event>
<event>
 8    1  0.2603554E-016  0.7773659E+02  0.7818608E-02  0.1335600E+00
         -1   -1    0    0    0  501 -0.00000000000E+00  0.00000000000E+00  0.19567121817E+02  0.19567122466E+02  0.50400000000E-02 0.  1.
          2   -1    0    0  501    0  0.00000000000E+00 -0.00000000000E+00 -0.77208304495E+02  0.77208304537E+02  0.25500000000E-02 0. -1.
         24    2    1    2    0    0  0.00000000000E+00  0.35527136788E-14 -0.57641182678E+02  0.96775427003E+02  0.77736589397E+02 0.  0.
         66    2    3    3    0    0  0.12683025056E+02  0.30057796409E+02 -0.55083680708E+02  0.64051090036E+02  0.20000012243E+01 0.  0.
        -13    1    3    3    0    0 -0.12683025056E+02 -0.30057796409E+02 -0.25575019693E+01  0.32724336967E+02  0.10566000000E+00 0.  1.
         13    1    4    4    0    0  0.44165333856E+01  0.97539810736E+01 -0.18371282070E+02  0.21264079638E+02  0.10566000000E+00 0. -1.
        -13    1    4    4    0    0  0.37197691026E+01  0.84071426772E+01 -0.14041226152E+02  0.16783442021E+02  0.10566000000E+00 0.  1.
        -14    1    4    4    0    0  0.45467225673E+01  0.11896672659E+02 -0.22671172487E+02  0.26003568378E+02  0.00000000000E+00 0.  1.
<mgrwt>
<rscale>  0 0.77736589E+02</rscale>
<asrwt>0</asrwt>
<pdfrwt beam="1">  1        2 0.11878201E-01 0.77736589E+02</pdfrwt>
<pdfrwt beam="2">  1       -1 0.30103265E-02 0.77736589E+02</pdfrwt>
<totfact> 0.17874958E+05</totfact>
</mgrwt>
</event>
<event>
 8    1  0.2603554E-016  0.7754858E+02  0.7818608E-02  0.1336156E+00
          2   -1    0    0  501    0  0.00000000000E+00  0.00000000000E+00  0.14017918920E+02  0.14017919152E+02  0.25500000000E-02 0. -1.
         -1   -1    0    0    0  501 -0.00000000000E+00 -0.00000000000E+00 -0.10725168443E+03  0.10725168455E+03  0.50400000000E-02 0.  1.
         24    2    1    2    0    0  0.00000000000E+00  0.00000000000E+00 -0.93233765509E+02  0.12126960370E+03  0.77548576716E+02 0.  0.
         66    2    3    3    0    0  0.31452076810E+01  0.18673917644E+02  0.62173522605E+01  0.20031549979E+02  0.19999984734E+01 0.  0.
        -13    1    3    3    0    0 -0.31452076810E+01 -0.18673917644E+02 -0.99451117770E+02  0.10123805372E+03  0.10566000000E+00 0.  1.
         13    1    4    4    0    0  0.15170376116E+01  0.75830130190E+01  0.23199768712E+01  0.80744626001E+01  0.10566000000E+00 0. -1.
        -13    1    4    4    0    0  0.12498582962E+01  0.79289056784E+01  0.34646834458E+01  0.87432766416E+01  0.10566000000E+00 0.  1.
        -14    1    4    4    0    0  0.37831177326E+00  0.31619989471E+01  0.43269194349E+00  0.32138107376E+01  0.00000000000E+00 0.  1.
<mgrwt>
<rscale>  0 0.77548577E+02</rscale>
<asrwt>0</asrwt>
<pdfrwt beam="1">  1        2 0.21566030E-02 0.77548577E+02</pdfrwt>
<pdfrwt beam="2">  1       -1 0.16500259E-01 0.77548577E+02</pdfrwt>
<totfact> 0.12618928E+05</totfact>
</mgrwt>
</event>
<event>
 8    1  0.2603554E-016  0.7937003E+02  0.7818608E-02  0.1330849E+00
         -1   -1    0    0    0  501 -0.00000000000E+00  0.00000000000E+00  0.10290865945E+02  0.10290867179E+02  0.50400000000E-02 0.  1.
          2   -1    0    0  501    0  0.00000000000E+00 -0.00000000000E+00 -0.15303863884E+03  0.15303863886E+03  0.25500000000E-02 0. -1.
         24    2    1    2    0    0  0.00000000000E+00 -0.35527136788E-14 -0.14274777289E+03  0.16332950604E+03  0.79370025054E+02 0.  0.
         66    2    3    3    0    0  0.24639250290E+02 -0.22176690998E+02 -0.11622092697E+03  0.12087266916E+03  0.20000019618E+01 0.  0.
        -13    1    3    3    0    0 -0.24639250290E+02  0.22176690998E+02 -0.26526845930E+02  0.42456836876E+02  0.10566000000E+00 0.  1.
         13    1    4    4    0    0  0.10638255192E+02 -0.88334677133E+01 -0.47031627293E+02  0.49022318950E+02  0.10566000000E+00 0. -1.
        -13    1    4    4    0    0  0.27678755026E+01 -0.31976957030E+01 -0.14391218564E+02  0.15000157612E+02  0.10566000000E+00 0.  1.
        -14    1    4    4    0    0  0.11233119596E+02 -0.10145527582E+02 -0.54798081109E+02  0.56850192603E+02  0.00000000000E+00 0.  1.
<mgrwt>
<rscale>  0 0.79370025E+02</rscale>
<asrwt>0</asrwt>
<pdfrwt beam="1">  1        2 0.23544404E-01 0.79370025E+02</pdfrwt>
<pdfrwt beam="2">  1       -1 0.15832104E-02 0.79370025E+02</pdfrwt>
<totfact> 0.20587273E+05</totfact>
</mgrwt>
</event>
<event>
 8    1  0.2603554E-016  0.7954342E+02  0.7818608E-02  0.1330352E+00
          2   -1    0    0  501    0  0.00000000000E+00  0.00000000000E+00  0.13693920287E+03  0.13693920290E+03  0.25500000000E-02 0. -1.
         -1   -1    0    0    0  501 -0.00000000000E+00 -0.00000000000E+00 -0.11551029507E+02  0.11551030607E+02  0.50400000000E-02 0.  1.
         24    2    1    2    0    0  0.35527136788E-14  0.00000000000E+00  0.12538817337E+03  0.14849023350E+03  0.79543418495E+02 0.  0.
         66    2    3    3    0    0 -0.17710911781E+02 -0.13230146312E+02  0.12439596389E+03  0.12636086814E+03  0.19999997123E+01 0.  0.
        -13    1    3    3    0    0  0.17710911781E+02  0.13230146312E+02  0.99220947770E+00  0.22129365360E+02  0.10566000000E+00 0.  1.
         13    1    4    4    0    0 -0.12873641188E+02 -0.93464870238E+01  0.89421207612E+02  0.90825387376E+02  0.10566000000E+00 0. -1.
        -13    1    4    4    0    0 -0.33368954920E+00 -0.20639271520E+00  0.39315059878E+01  0.39524486127E+01  0.10566000000E+00 0.  1.
        -14    1    4    4    0    0 -0.45035810432E+01 -0.36772665731E+01  0.31043250290E+02  0.31583032157E+02  0.00000000000E+00 0.  1.
<mgrwt>
<rscale>  0 0.79543418E+02</rscale>
<asrwt>0</asrwt>
<pdfrwt beam="1">  1        2 0.21067569E-01 0.79543418E+02</pdfrwt>
<pdfrwt beam="2">  1       -1 0.17770816E-02 0.79543418E+02</pdfrwt>
<totfact> 0.19756676E+05</totfact>
</mgrwt>
</event>
<event>
 8    1  0.2603554E-016  0.8196072E+02  0.7818608E-02  0.1323578E+00
          2   -1    0    0  501    0  0.00000000000E+00  0.00000000000E+00  0.40169630877E+02  0.40169630958E+02  0.25500000000E-02 0. -1.
         -1   -1    0    0    0  501 -0.00000000000E+00 -0.00000000000E+00 -0.41807446485E+02  0.41807446789E+02  0.50400000000E-02 0.  1.
         24    2    1    2    0    0  0.71054273576E-14  0.00000000000E+00 -0.16378156076E+01  0.81977077747E+02  0.81960715199E+02 0.  0.
         66    2    3    3    0    0 -0.39298306635E+02  0.11529415327E+02 -0.11363102085E+01  0.41019209225E+02  0.20000005974E+01 0.  0.
        -13    1    3    3    0    0  0.39298306635E+02 -0.11529415327E+02 -0.50150539909E+00  0.40957868522E+02  0.10566000000E+00 0.  1.
         13    1    4    4    0    0 -0.18615077423E+02  0.58827081629E+01  0.26790785468E+00  0.19524607587E+02  0.10566000000E+00 0. -1.
        -13    1    4    4    0    0 -0.11471957275E+02  0.29150999870E+01 -0.97910071026E+00  0.11877432967E+02  0.10566000000E+00 0.  1.
         14    1    4    4    0    0 -0.92112719373E+01  0.27316071773E+01 -0.42511735292E+00  0.96171686705E+01  0.00000000000E+00 0. -1.
<mgrwt>
<rscale>  0 0.81960715E+02</rscale>
<asrwt>0</asrwt>
<pdfrwt beam="1">  1        2 0.61799432E-02 0.81960715E+02</pdfrwt>
<pdfrwt beam="2">  1       -1 0.64319149E-02 0.81960715E+02</pdfrwt>
<totfact> 0.13342318E+05</totfact>
</mgrwt>
</event>
<event>
 8    1  0.2603554E-016  0.8634941E+02  0.7818608E-02  0.1311941E+00
         -1   -1    0    0    0  501 -0.00000000000E+00  0.00000000000E+00  0.10477888418E+02  0.10477889630E+02  0.50400000000E-02 0.  1.
          2   -1    0    0  501    0  0.00000000000E+00 -0.00000000000E+00 -0.17790369615E+03  0.17790369616E+03  0.25500000000E-02 0. -1.
         24    2    1    2    0    0  0.00000000000E+00  0.88817841970E-15 -0.16742580773E+03  0.18838158579E+03  0.86349410960E+02 0.  0.
         66    2    3    3    0    0 -0.40686118888E+02 -0.51888456331E+01 -0.11300813699E+03  0.12023777872E+03  0.20000045034E+01 0.  0.
        -13    1    3    3    0    0  0.40686118888E+02  0.51888456331E+01 -0.54417670741E+02  0.68143807070E+02  0.10566000000E+00 0.  1.
         13    1    4    4    0    0 -0.25569187673E+01 -0.17612399848E+00 -0.80477532733E+01  0.84466768630E+01  0.10566000000E+00 0.  1.
        -13    1    4    4    0    0 -0.28740844774E+02 -0.32355599476E+01 -0.78652343715E+02  0.83801595106E+02  0.10566000000E+00 0. -1.
         14    1    4    4    0    0 -0.93883553465E+01 -0.17771616870E+01 -0.26308039999E+02  0.27989506755E+02  0.00000000000E+00 0. -1.
<mgrwt>
<rscale>  0 0.86349411E+02</rscale>
<asrwt>0</asrwt>
<pdfrwt beam="1">  1        2 0.27369797E-01 0.86349411E+02</pdfrwt>
<pdfrwt beam="2">  1       -1 0.16119831E-02 0.86349411E+02</pdfrwt>
<totfact> 0.17300524E+05</totfact>
</mgrwt>
</event>
<event>
 8    1  0.2603554E-016  0.7953574E+02  0.7818608E-02  0.1330374E+00
         -1   -1    0    0    0  501 -0.00000000000E+00  0.00000000000E+00  0.39073511309E+01  0.39073543814E+01  0.50400000000E-02 0.  1.
          2   -1    0    0  501    0  0.00000000000E+00 -0.00000000000E+00 -0.40474552030E+03  0.40474552030E+03  0.25500000000E-02 0. -1.
         24    2    1    2    0    0  0.71054273576E-14  0.00000000000E+00 -0.40083816917E+03  0.40865287469E+03  0.79535741205E+02 0.  0.
         66    2    3    3    0    0 -0.29996997182E+02  0.25677301705E+02 -0.22371478564E+03  0.22718153310E+03  0.20000007755E+01 0.  0.
        -13    1    3    3    0    0  0.29996997182E+02 -0.25677301705E+02 -0.17712338352E+03  0.18147134159E+03  0.10566000000E+00 0.  1.
         13    1    4    4    0    0 -0.17981802936E+02  0.15129615124E+02 -0.13326253333E+03  0.13531875126E+03  0.10566000000E+00 0. -1.
        -13    1    4    4    0    0 -0.30515385587E+01  0.20521282134E+01 -0.21954108222E+02  0.22260214501E+02  0.10566000000E+00 0.  1.
         14    1    4    4    0    0 -0.89636556876E+01  0.84955583681E+01 -0.68498144092E+02  0.69602567333E+02  0.00000000000E+00 0. -1.
<mgrwt>
<rscale>  0 0.79535741E+02</rscale>
<asrwt>0</asrwt>
<pdfrwt beam="1">  1        2 0.62268509E-01 0.79535741E+02</pdfrwt>
<pdfrwt beam="2">  1       -1 0.60113152E-03 0.79535741E+02</pdfrwt>
<totfact> 0.28804565E+05</totfact>
</mgrwt>
</event>
<event>
 8    1  0.2603554E-016  0.7614042E+02  0.7818608E-02  0.1340375E+00
         -1   -1    0    0    0  501 -0.00000000000E+00  0.00000000000E+00  0.59189843629E+01  0.59189865087E+01  0.50400000000E-02 0.  1.
          2   -1    0    0  501    0  0.00000000000E+00 -0.00000000000E+00 -0.24486308213E+03  0.24486308215E+03  0.25500000000E-02 0. -1.
         24    2    1    2    0    0  0.00000000000E+00  0.00000000000E+00 -0.23894409777E+03  0.25078206865E+03  0.76140423559E+02 0.  0.
         66    2    3    3    0    0  0.14516386762E+02  0.23952480229E+02 -0.20435539435E+03  0.20627548080E+03  0.19999969731E+01 0.  0.
        -13    1    3    3    0    0 -0.14516386762E+02 -0.23952480229E+02 -0.34588703423E+02  0.44506587852E+02  0.10566000000E+00 0.  1.
         13    1    4    4    0    0  0.78769024294E+00  0.21996474875E+01 -0.16870978514E+02  0.17032321774E+02  0.10566000000E+00 0. -1.
        -13    1    4    4    0    0  0.18518557857E+01  0.23919697100E+01 -0.22086658855E+02  0.22293105489E+02  0.10566000000E+00 0.  1.
         14    1    4    4    0    0  0.11876840734E+02  0.19360863031E+02 -0.16539775698E+03  0.16695005354E+03  0.00000000000E+00 0. -1.
<mgrwt>
<rscale>  0 0.76140424E+02</rscale>
<asrwt>0</asrwt>
<pdfrwt beam="1">  1        2 0.37671236E-01 0.76140424E+02</pdfrwt>
<pdfrwt beam="2">  1       -1 0.91061334E-03 0.76140424E+02</pdfrwt>
<totfact> 0.26972881E+05</totfact>
</mgrwt>
</event>
<event>
 8    1  0.2603554E-016  0.7968417E+02  0.7818608E-02  0.1329950E+00
         -1   -1    0    0    0  501 -0.00000000000E+00  0.00000000000E+00  0.22326439583E+03  0.22326439589E+03  0.50400000000E-02 0.  1.
          2   -1    0    0  501    0  0.00000000000E+00 -0.00000000000E+00 -0.71099193985E+01  0.71099198558E+01  0.25500000000E-02 0. -1.
         24    2    1    2    0    0  0.00000000000E+00  0.00000000000E+00  0.21615447643E+03  0.23037431574E+03  0.79684174542E+02 0.  0.
         66    2    3    3    0    0 -0.12045233654E+02  0.35189020777E+02  0.67051720398E+02  0.76702594669E+02  0.19999958796E+01 0.  0.
        -13    1    3    3    0    0  0.12045233654E+02 -0.35189020777E+02  0.14910275603E+03  0.15367172107E+03  0.10566000000E+00 0.  1.
         13    1    4    4    0    0 -0.54783501217E+01  0.15747649920E+02  0.29490524084E+02  0.33877765169E+02  0.10566000000E+00 0. -1.
        -13    1    4    4    0    0 -0.19684072377E+01  0.77240980437E+01  0.13887576226E+02  0.16012877790E+02  0.10566000000E+00 0.  1.
        -14    1    4    4    0    0 -0.45984762946E+01  0.11717272814E+02  0.23673620088E+02  0.26811951710E+02  0.00000000000E+00 0.  1.
<mgrwt>
<rscale>  0 0.79684175E+02</rscale>
<asrwt>0</asrwt>
<pdfrwt beam="1">  1        2 0.10938338E-02 0.79684175E+02</pdfrwt>
<pdfrwt beam="2">  1       -1 0.34348367E-01 0.79684175E+02</pdfrwt>
<totfact> 0.97199253E+04</totfact>
</mgrwt>
</event>
<event>
 8    1  0.2603554E-016  0.7982374E+02  0.7818608E-02  0.1329552E+00
         -1   -1    0    0    0  501 -0.00000000000E+00  0.00000000000E+00  0.53142772072E+01  0.53142795971E+01  0.50400000000E-02 0.  1.
          2   -1    0    0  501    0  0.00000000000E+00 -0.00000000000E+00 -0.29975042857E+03  0.29975042858E+03  0.25500000000E-02 0. -1.
         24    2    1    2    0    0  0.00000000000E+00  0.00000000000E+00 -0.29443615136E+03  0.30506470818E+03  0.79823736735E+02 0.  0.
         66    2    3    3    0    0  0.21553410632E+01  0.38524237348E+02 -0.18594372640E+03  0.18991532782E+03  0.19999988371E+01 0.  0.
        -13    1    3    3    0    0 -0.21553410632E+01 -0.38524237348E+02 -0.10849242496E+03  0.11514938036E+03  0.10566000000E+00 0.  1.
         13    1    4    4    0    0  0.16032218064E+01  0.15840331532E+02 -0.74184840261E+02  0.75874159711E+02  0.10566000000E+00 0. -1.
        -13    1    4    4    0    0 -0.70419097582E-01  0.40504445277E+01 -0.20867619568E+02  0.21257463870E+02  0.10566000000E+00 0.  1.
         14    1    4    4    0    0  0.62253835434E+00  0.18633461288E+02 -0.90891266570E+02  0.92783704239E+02  0.00000000000E+00 0. -1.
<mgrwt>
<rscale>  0 0.79823737E+02</rscale>
<asrwt>0</asrwt>
<pdfrwt beam="1">  1        2 0.46115437E-01 0.79823737E+02</pdfrwt>
<pdfrwt beam="2">  1       -1 0.81758153E-03 0.79823737E+02</pdfrwt>
<totfact> 0.25634607E+05</totfact>
</mgrwt>
</event>
<event>
 8    1  0.2603554E-016  0.8003460E+02  0.7818608E-02  0.1328953E+00
          2   -1    0    0  501    0  0.00000000000E+00  0.00000000000E+00  0.33296243822E+03  0.33296243823E+03  0.25500000000E-02 0. -1.
         -1   -1    0    0    0  501 -0.00000000000E+00 -0.00000000000E+00 -0.48095025644E+01  0.48095052052E+01  0.50400000000E-02 0.  1.
         24    2    1    2    0    0  0.17763568394E-14  0.00000000000E+00  0.32815293566E+03  0.33777194344E+03  0.80034596222E+02 0.  0.
         66    2    3    3    0    0 -0.53159601473E+01  0.14783881748E+02  0.31939001292E+03  0.31978243064E+03  0.19999996503E+01 0.  0.
        -13    1    3    3    0    0  0.53159601473E+01 -0.14783881748E+02  0.87629227350E+01  0.17989512798E+02  0.10566000000E+00 0.  1.
         13    1    4    4    0    0 -0.14649198049E+01  0.62337815356E+01  0.12974829096E+03  0.12990625925E+03  0.10566000000E+00 0. -1.
        -13    1    4    4    0    0 -0.99013173497E+00  0.17722294587E+01  0.49026183217E+02  0.49068309151E+02  0.10566000000E+00 0.  1.
        -14    1    4    4    0    0 -0.28609086074E+01  0.67778707539E+01  0.14061553874E+03  0.14080786223E+03  0.00000000000E+00 0.  1.
<mgrwt>
<rscale>  0 0.80034596E+02</rscale>
<asrwt>0</asrwt>
<pdfrwt beam="1">  1        2 0.51224991E-01 0.80034596E+02</pdfrwt>
<pdfrwt beam="2">  1       -1 0.73992367E-03 0.80034596E+02</pdfrwt>
<totfact> 0.26442098E+05</totfact>
</mgrwt>
</event>
<event>
 8    1  0.2603554E-016  0.7487597E+02  0.7818608E-02  0.1344256E+00
         -1   -1    0    0    0  501 -0.00000000000E+00  0.00000000000E+00  0.40717693144E+02  0.40717693456E+02  0.50400000000E-02 0.  1.
          2   -1    0    0  501    0  0.00000000000E+00 -0.00000000000E+00 -0.34422453336E+02  0.34422453430E+02  0.25500000000E-02 0. -1.
         24    2    1    2    0    0  0.71054273576E-14  0.00000000000E+00  0.62952398083E+01  0.75140146887E+02  0.74875974985E+02 0.  0.
         66    2    3    3    0    0  0.23430874371E+02  0.20150788616E+02 -0.18008594686E+02  0.35824148988E+02  0.20000031237E+01 0.  0.
        -13    1    3    3    0    0 -0.23430874371E+02 -0.20150788616E+02  0.24303834494E+02  0.39315997899E+02  0.10566000000E+00 0.  1.
         13    1    4    4    0    0  0.16460381618E+02  0.14142982201E+02 -0.12190585182E+02  0.24891557598E+02  0.10566000000E+00 0. -1.
        -13    1    4    4    0    0  0.17021491152E+01  0.20147979391E+01 -0.18349574954E+01  0.32148025432E+01  0.10566000000E+00 0.  1.
        -14    1    4    4    0    0  0.52683436381E+01  0.39930084757E+01 -0.39830520084E+01  0.77177888464E+01  0.00000000000E+00 0.  1.
<mgrwt>
<rscale>  0 0.74875975E+02</rscale>
<asrwt>0</asrwt>
<pdfrwt beam="1">  1        2 0.52957621E-02 0.74875975E+02</pdfrwt>
<pdfrwt beam="2">  1       -1 0.62642605E-02 0.74875975E+02</pdfrwt>
<totfact> 0.16608687E+05</totfact>
</mgrwt>
</event>
<event>
 8    1  0.2603554E-016  0.7978270E+02  0.7818608E-02  0.1329669E+00
         -1   -1    0    0    0  501 -0.00000000000E+00  0.00000000000E+00  0.59065877826E+00  0.59068028064E+00  0.50400000000E-02 0.  1.
          2   -1    0    0  501    0  0.00000000000E+00 -0.00000000000E+00 -0.26940946477E+04  0.26940946477E+04  0.25500000000E-02 0. -1.
         24    2    1    2    0    0  0.00000000000E+00  0.00000000000E+00 -0.26935039889E+04  0.26946853280E+04  0.79782695513E+02 0.  0.
         66    2    3    3    0    0  0.88867851627E+01 -0.89708225562E+01 -0.26247601184E+04  0.26247912545E+04  0.20000022133E+01 0.  0.
        -13    1    3    3    0    0 -0.88867851627E+01  0.89708225562E+01 -0.68743870489E+02  0.69894073438E+02  0.10566000000E+00 0.  1.
         13    1    4    4    0    0  0.28942153658E+01 -0.35242295724E+01 -0.92437060343E+03  0.92438185850E+03  0.10566000000E+00 0. -1.
        -13    1    4    4    0    0  0.17180907673E+01 -0.19610138208E+01 -0.43096829499E+03  0.43097619408E+03  0.10566000000E+00 0.  1.
        -14    1    4    4    0    0  0.42744790297E+01 -0.34855791630E+01 -0.12694212200E+04  0.12694332020E+04  0.00000000000E+00 0.  1.
<mgrwt>
<rscale>  0 0.79782696E+02</rscale>
<asrwt>0</asrwt>
<pdfrwt beam="1">  1        2 0.41446626E+00 0.79782696E+02</pdfrwt>
<pdfrwt beam="2">  1       -1 0.90874393E-04 0.79782696E+02</pdfrwt>
<totfact> 0.18487605E+05</totfact>
</mgrwt>
</event>
<event>
 8    1  0.2603554E-016  0.7750819E+02  0.7818608E-02  0.1336275E+00
         -1   -1    0    0    0  501 -0.00000000000E+00  0.00000000000E+00  0.11117017873E+03  0.11117017884E+03  0.50400000000E-02 0.  1.
          2   -1    0    0  501    0  0.00000000000E+00 -0.00000000000E+00 -0.13509737452E+02  0.13509737693E+02  0.25500000000E-02 0. -1.
         24    2    1    2    0    0  0.00000000000E+00  0.00000000000E+00  0.97660441276E+02  0.12467991653E+03  0.77508191806E+02 0.  0.
         66    2    3    3    0    0 -0.21225545736E+02  0.24731365387E+02  0.15208190010E+02  0.36020178612E+02  0.19999995335E+01 0.  0.
        -13    1    3    3    0    0  0.21225545736E+02 -0.24731365387E+02  0.82452251266E+02  0.88659737923E+02  0.10566000000E+00 0.  1.
         13    1    4    4    0    0 -0.23484776556E+01  0.32858513386E+01  0.18248226648E+01  0.44332051736E+01  0.10566000000E+00 0.  1.
        -13    1    4    4    0    0 -0.49862783623E+01  0.67098787798E+01  0.38343173160E+01  0.91977496411E+01  0.10566000000E+00 0. -1.
         14    1    4    4    0    0 -0.13890789719E+02  0.14735635269E+02  0.95490500294E+01  0.22389223797E+02  0.00000000000E+00 0. -1.
<mgrwt>
<rscale>  0 0.77508192E+02</rscale>
<asrwt>0</asrwt>
<pdfrwt beam="1">  1        2 0.20784212E-02 0.77508192E+02</pdfrwt>
<pdfrwt beam="2">  1       -1 0.17103105E-01 0.77508192E+02</pdfrwt>
<totfact> 0.12536996E+05</totfact>
</mgrwt>
</event>
<event>
 8    1  0.2603554E-016  0.7933459E+02  0.7818608E-02  0.1330950E+00
          2   -1    0    0  501    0  0.00000000000E+00  0.00000000000E+00  0.77659102624E+03  0.77659102624E+03  0.25500000000E-02 0. -1.
         -1   -1    0    0    0  501 -0.00000000000E+00 -0.00000000000E+00 -0.20261526550E+01  0.20261589234E+01  0.50400000000E-02 0.  1.
         24    2    1    2    0    0  0.00000000000E+00  0.00000000000E+00  0.77456487358E+03  0.77861718517E+03  0.79334593000E+02 0.  0.
         66    2    3    3    0    0 -0.22689476478E+02  0.12222700395E+02  0.68314712490E+03  0.68363601500E+03  0.19999994521E+01 0.  0.
        -13    1    3    3    0    0  0.22689476478E+02 -0.12222700395E+02  0.91417748687E+02  0.94981170170E+02  0.10566000000E+00 0.  1.
         13    1    4    4    0    0 -0.14336430545E+01  0.48104392552E+00  0.45431448085E+02  0.45456730798E+02  0.10566000000E+00 0. -1.
        -13    1    4    4    0    0 -0.80335569517E+01  0.50478600779E+01  0.25899136207E+03  0.25916511286E+03  0.10566000000E+00 0. -1.
         14    1    4    4    0    0 -0.13222276471E+02  0.66937963920E+01  0.37872431474E+03  0.37901417134E+03  0.00000000000E+00 0. -1.
<mgrwt>
<rscale>  0 0.79334593E+02</rscale>
<asrwt>0</asrwt>
<pdfrwt beam="1">  1        2 0.11947548E+00 0.79334593E+02</pdfrwt>
<pdfrwt beam="2">  1       -1 0.31171644E-03 0.79334593E+02</pdfrwt>
<totfact> 0.34932609E+05</totfact>
</mgrwt>
</event>
<event>
 8    1  0.2603554E-016  0.7965008E+02  0.7818608E-02  0.1330047E+00
          2   -1    0    0  501    0  0.00000000000E+00  0.00000000000E+00  0.20342557038E+02  0.20342557198E+02  0.25500000000E-02 0. -1.
         -1   -1    0    0    0  501 -0.00000000000E+00 -0.00000000000E+00 -0.77966285865E+02  0.77966286028E+02  0.50400000000E-02 0.  1.
         24    2    1    2    0    0  0.00000000000E+00  0.35527136788E-14 -0.57623728827E+02  0.98308843226E+02  0.79650075534E+02 0.  0.
         66    2    3    3    0    0  0.26730312246E+02  0.22346698425E+02 -0.52576055147E+02  0.63104089330E+02  0.19999980210E+01 0.  0.
        -13    1    3    3    0    0 -0.26730312246E+02 -0.22346698425E+02 -0.50476736800E+01  0.35204753896E+02  0.10566000000E+00 0.  1.
         13    1    4    4    0    0  0.24850220922E+02  0.20940729965E+02 -0.48973880243E+02  0.58774992653E+02  0.10566000000E+00 0. -1.
        -13    1    4    4    0    0  0.13416537078E+01  0.72745059350E+00 -0.24332934870E+01  0.28742477741E+01  0.10566000000E+00 0.  1.
         14    1    4    4    0    0  0.53843761698E+00  0.67851786627E+00 -0.11688814173E+01  0.14548489028E+01  0.00000000000E+00 0. -1.
<mgrwt>
<rscale>  0 0.79650076E+02</rscale>
<asrwt>0</asrwt>
<pdfrwt beam="1">  1        2 0.31296242E-02 0.79650076E+02</pdfrwt>
<pdfrwt beam="2">  1       -1 0.11994813E-01 0.79650076E+02</pdfrwt>
<totfact> 0.12615994E+05</totfact>
</mgrwt>
</event>
<event>
 8    1  0.2603554E-016  0.7447099E+02  0.7818608E-02  0.1345517E+00
          2   -1    0    0  501    0  0.00000000000E+00  0.00000000000E+00  0.25326559417E+03  0.25326559419E+03  0.25500000000E-02 0. -1.
         -1   -1    0    0    0  501 -0.00000000000E+00 -0.00000000000E+00 -0.54744186026E+01  0.54744209226E+01  0.50400000000E-02 0.  1.
         24    2    1    2    0    0  0.00000000000E+00  0.00000000000E+00  0.24779117557E+03  0.25874001511E+03  0.74470992526E+02 0.  0.
         66    2    3    3    0    0 -0.11435813512E+00  0.10076469752E+02  0.24842978851E+03  0.24864212865E+03  0.19999998872E+01 0.  0.
        -13    1    3    3    0    0  0.11435813512E+00 -0.10076469752E+02 -0.63861293859E+00  0.10097886460E+02  0.10566000000E+00 0.  1.
         13    1    4    4    0    0 -0.80893019322E-01  0.43638624813E+01  0.11703276922E+03  0.11711417538E+03  0.10566000000E+00 0. -1.
        -13    1    4    4    0    0  0.26354100335E+00  0.19319832525E+01  0.32844055431E+02  0.32902053953E+02  0.10566000000E+00 0.  1.
        -14    1    4    4    0    0 -0.29700611914E+00  0.37806240182E+01  0.98552963856E+02  0.98625899313E+02  0.00000000000E+00 0.  1.
<mgrwt>
<rscale>  0 0.74470993E+02</rscale>
<asrwt>0</asrwt>
<pdfrwt beam="1">  1        2 0.38963941E-01 0.74470993E+02</pdfrwt>
<pdfrwt beam="2">  1       -1 0.84221835E-03 0.74470993E+02</pdfrwt>
<totfact> 0.28924946E+05</totfact>
</mgrwt>
</event>
<event>
 8    1  0.2603554E-016  0.8130227E+02  0.7818608E-02  0.1325396E+00
          2   -1    0    0  501    0  0.00000000000E+00  0.00000000000E+00  0.22895032903E+02  0.22895033045E+02  0.25500000000E-02 0. -1.
         -1   -1    0    0    0  501 -0.00000000000E+00 -0.00000000000E+00 -0.72177874976E+02  0.72177875152E+02  0.50400000000E-02 0.  1.
         24    2    1    2    0    0  0.00000000000E+00  0.71054273576E-14 -0.49282842073E+02  0.95072908197E+02  0.81302271495E+02 0.  0.
         66    2    3    3    0    0  0.70627480823E+00 -0.33423725230E+02  0.23374423546E+01  0.33572427217E+02  0.20000000368E+01 0.  0.
        -13    1    3    3    0    0 -0.70627480823E+00  0.33423725230E+02 -0.51620284428E+02  0.61500480980E+02  0.10566000000E+00 0.  1.
         13    1    4    4    0    0  0.10960598808E+00 -0.15217060091E+02  0.21871041625E+00  0.15219393207E+02  0.10566000000E+00 0. -1.
        -13    1    4    4    0    0  0.73001512303E+00 -0.16273541409E+02  0.19843279551E+01  0.16410660972E+02  0.10566000000E+00 0.  1.
        -14    1    4    4    0    0 -0.13334630288E+00 -0.19331237293E+01  0.13440398322E+00  0.19423730383E+01  0.00000000000E+00 0.  1.
<mgrwt>
<rscale>  0 0.81302271E+02</rscale>
<asrwt>0</asrwt>
<pdfrwt beam="1">  1        2 0.35223128E-02 0.81302271E+02</pdfrwt>
<pdfrwt beam="2">  1       -1 0.11104288E-01 0.81302271E+02</pdfrwt>
<totfact> 0.12182424E+05</totfact>
</mgrwt>
</event>
<event>
 8    1  0.2603554E-016  0.8305304E+02  0.7818608E-02  0.1320604E+00
         -1   -1    0    0    0  501 -0.00000000000E+00  0.00000000000E+00  0.28135703473E+02  0.28135703924E+02  0.50400000000E-02 0.  1.
          2   -1    0    0  501    0  0.00000000000E+00 -0.00000000000E+00 -0.61290511004E+02  0.61290511057E+02  0.25500000000E-02 0. -1.
         24    2    1    2    0    0  0.00000000000E+00 -0.71054273576E-14 -0.33154807531E+02  0.89426214981E+02  0.83053035245E+02 0.  0.
         66    2    3    3    0    0  0.45066624373E+01 -0.38981259528E+02 -0.31136803361E+02  0.50133313516E+02  0.19999999462E+01 0.  0.
        -13    1    3    3    0    0 -0.45066624373E+01  0.38981259528E+02 -0.20180041697E+01  0.39292901466E+02  0.10566000000E+00 0.  1.
         13    1    4    4    0    0  0.21917426354E+01 -0.15588012731E+02 -0.11676753590E+02  0.19599684056E+02  0.10566000000E+00 0. -1.
        -13    1    4    4    0    0  0.81696975942E-01 -0.30136056541E+01 -0.21946029472E+01  0.37304074262E+01  0.10566000000E+00 0. -1.
         14    1    4    4    0    0  0.22332228259E+01 -0.20379641143E+02 -0.17265446824E+02  0.26803222033E+02  0.00000000000E+00 0. -1.
<mgrwt>
<rscale>  0 0.83053035E+02</rscale>
<asrwt>0</asrwt>
<pdfrwt beam="1">  1        2 0.94293094E-02 0.83053035E+02</pdfrwt>
<pdfrwt beam="2">  1       -1 0.43285698E-02 0.83053035E+02</pdfrwt>
<totfact> 0.14125027E+05</totfact>
</mgrwt>
</event>
<event>
 8    1  0.2603554E-016  0.7938376E+02  0.7818608E-02  0.1330809E+00
          2   -1    0    0  501    0  0.00000000000E+00  0.00000000000E+00  0.33665590707E+03  0.33665590708E+03  0.25500000000E-02 0. -1.
         -1   -1    0    0    0  501 -0.00000000000E+00 -0.00000000000E+00 -0.46796893737E+01  0.46796920877E+01  0.50400000000E-02 0.  1.
         24    2    1    2    0    0 -0.35527136788E-14  0.00000000000E+00  0.33197621770E+03  0.34133559917E+03  0.79383764984E+02 0.  0.
         66    2    3    3    0    0  0.23085611773E+02  0.89844299404E+01  0.29930250273E+03  0.30033257165E+03  0.19999994715E+01 0.  0.
        -13    1    3    3    0    0 -0.23085611773E+02 -0.89844299404E+01  0.32673714966E+02  0.41003027523E+02  0.10566000000E+00 0.  1.
         13    1    4    4    0    0  0.19032616853E+01  0.89807765504E+00  0.20606167046E+02  0.20713624330E+02  0.10566000000E+00 0.  1.
        -13    1    4    4    0    0  0.77901655560E+01  0.26106201015E+01  0.10515994928E+03  0.10548046319E+03  0.10566000000E+00 0. -1.
         14    1    4    4    0    0  0.13392184532E+02  0.54757321839E+01  0.17353638640E+03  0.17413848413E+03  0.00000000000E+00 0. -1.
<mgrwt>
<rscale>  0 0.79383765E+02</rscale>
<asrwt>0</asrwt>
<pdfrwt beam="1">  1        2 0.51793223E-01 0.79383765E+02</pdfrwt>
<pdfrwt beam="2">  1       -1 0.71995233E-03 0.79383765E+02</pdfrwt>
<totfact> 0.27120401E+05</totfact>
</mgrwt>
</event>
<event>
 8    1  0.2603554E-016  0.7687071E+02  0.7818608E-02  0.1338174E+00
         -1   -1    0    0    0  501 -0.00000000000E+00  0.00000000000E+00  0.18051016227E+03  0.18051016234E+03  0.50400000000E-02 0.  1.
          2   -1    0    0  501    0  0.00000000000E+00 -0.00000000000E+00 -0.81838963051E+01  0.81838967024E+01  0.25500000000E-02 0. -1.
         24    2    1    2    0    0  0.35527136788E-14  0.00000000000E+00  0.17232626596E+03  0.18869405904E+03  0.76870709484E+02 0.  0.
         66    2    3    3    0    0  0.24386935085E+02 -0.87650978746E+01  0.16630746246E+02  0.30856625054E+02  0.20000113600E+01 0.  0.
        -13    1    3    3    0    0 -0.24386935085E+02  0.87650978746E+01  0.15569551971E+03  0.15783743398E+03  0.10566000000E+00 0.  1.
         13    1    4    4    0    0  0.61928763086E+01 -0.26581978765E+01  0.49856606313E+01  0.83836572503E+01  0.10566000000E+00 0. -1.
        -13    1    4    4    0    0  0.12383076861E+02 -0.40002564004E+01  0.73455081091E+01  0.14943570431E+02  0.10566000000E+00 0.  1.
        -14    1    4    4    0    0  0.58109819152E+01 -0.21066435977E+01  0.42995775058E+01  0.75293973726E+01  0.00000000000E+00 0.  1.
<mgrwt>
<rscale>  0 0.76870709E+02</rscale>
<asrwt>0</asrwt>
<pdfrwt beam="1">  1        2 0.12590610E-02 0.76870709E+02</pdfrwt>
<pdfrwt beam="2">  1       -1 0.27770794E-01 0.76870709E+02</pdfrwt>
<totfact> 0.11357937E+05</totfact>
</mgrwt>
</event>
<event>
 8    1  0.2603554E-016  0.7815149E+02  0.7818608E-02  0.1334381E+00
         -1   -1    0    0    0  501 -0.00000000000E+00  0.00000000000E+00  0.49118510480E+02  0.49118510739E+02  0.50400000000E-02 0.  1.
          2   -1    0    0  501    0  0.00000000000E+00 -0.00000000000E+00 -0.31086322286E+02  0.31086322390E+02  0.25500000000E-02 0. -1.
         24    2    1    2    0    0  0.00000000000E+00  0.00000000000E+00  0.18032188195E+02  0.80204833129E+02  0.78151490365E+02 0.  0.
         66    2    3    3    0    0  0.35333845578E+02  0.33391479321E+01  0.25737283455E+02  0.43886652981E+02  0.19999994898E+01 0.  0.
        -13    1    3    3    0    0 -0.35333845578E+02 -0.33391479321E+01 -0.77050952608E+01  0.36318180148E+02  0.10566000000E+00 0.  1.
         13    1    4    4    0    0  0.18682772196E+02  0.19169782948E+01  0.13625434667E+02  0.23203112218E+02  0.10566000000E+00 0. -1.
        -13    1    4    4    0    0  0.11469276061E+02  0.14175050245E+01  0.78065104155E+01  0.13946554512E+02  0.10566000000E+00 0.  1.
        -14    1    4    4    0    0  0.51817973212E+01  0.46646127803E-02  0.43053383729E+01  0.67369862507E+01  0.00000000000E+00 0.  1.
<mgrwt>
<rscale>  0 0.78151490E+02</rscale>
<asrwt>0</asrwt>
<pdfrwt beam="1">  1        2 0.47825112E-02 0.78151490E+02</pdfrwt>
<pdfrwt beam="2">  1       -1 0.75566939E-02 0.78151490E+02</pdfrwt>
<totfact> 0.14464156E+05</totfact>
</mgrwt>
</event>
<event>
 8    1  0.2603554E-016  0.8110436E+02  0.7818608E-02  0.1325946E+00
          2   -1    0    0  501    0  0.00000000000E+00  0.00000000000E+00  0.54566059244E+02  0.54566059304E+02  0.25500000000E-02 0. -1.
         -1   -1    0    0    0  501 -0.00000000000E+00 -0.00000000000E+00 -0.30137401728E+02  0.30137402149E+02  0.50400000000E-02 0.  1.
         24    2    1    2    0    0  0.00000000000E+00  0.00000000000E+00  0.24428657517E+02  0.84703461453E+02  0.81104359156E+02 0.  0.
         66    2    3    3    0    0 -0.25065207955E+02 -0.24780623369E+02  0.33112662260E+02  0.48402400218E+02  0.20000001359E+01 0.  0.
        -13    1    3    3    0    0  0.25065207955E+02  0.24780623369E+02 -0.86840047433E+01  0.36301061235E+02  0.10566000000E+00 0.  1.
         13    1    4    4    0    0 -0.13111783971E+02 -0.11905421908E+02  0.15783515857E+02  0.23723163502E+02  0.10566000000E+00 0. -1.
        -13    1    4    4    0    0 -0.69294170186E+01 -0.76770649745E+01  0.10154283793E+02  0.14493957024E+02  0.10566000000E+00 0.  1.
         14    1    4    4    0    0 -0.50240069645E+01 -0.51981364872E+01  0.71748626095E+01  0.10185279691E+02  0.00000000000E+00 0. -1.
<mgrwt>
<rscale>  0 0.81104359E+02</rscale>
<asrwt>0</asrwt>
<pdfrwt beam="1">  1        2 0.83947782E-02 0.81104359E+02</pdfrwt>
<pdfrwt beam="2">  1       -1 0.46365235E-02 0.81104359E+02</pdfrwt>
<totfact> 0.14673678E+05</totfact>
</mgrwt>
</event>
<event>
 8    1  0.2603554E-016  0.8448728E+02  0.7818608E-02  0.1316779E+00
          2   -1    0    0  501    0  0.00000000000E+00  0.00000000000E+00  0.20079339273E+03  0.20079339275E+03  0.25500000000E-02 0. -1.
         -1   -1    0    0    0  501 -0.00000000000E+00 -0.00000000000E+00 -0.88873684765E+01  0.88873699056E+01  0.50400000000E-02 0.  1.
         24    2    1    2    0    0 -0.35527136788E-14  0.00000000000E+00  0.19190602426E+03  0.20968076265E+03  0.84487277631E+02 0.  0.
         66    2    3    3    0    0  0.19546163564E+02  0.56344717400E+01  0.18782395140E+03  0.18893288891E+03  0.20000032496E+01 0.  0.
        -13    1    3    3    0    0 -0.19546163564E+02 -0.56344717400E+01  0.40820728581E+01  0.20747873740E+02  0.10566000000E+00 0.  1.
         13    1    4    4    0    0  0.97337440397E+00  0.49065468357E+00  0.10178343243E+02  0.10237091138E+02  0.10566000000E+00 0. -1.
        -13    1    4    4    0    0  0.11110631277E+02  0.23019897324E+01  0.10745768740E+03  0.10805512959E+03  0.10566000000E+00 0.  1.
        -14    1    4    4    0    0  0.74621578834E+01  0.28418273241E+01  0.70187920753E+02  0.70640668190E+02  0.00000000000E+00 0.  1.
<mgrwt>
<rscale>  0 0.84487278E+02</rscale>
<asrwt>0</asrwt>
<pdfrwt beam="1">  1        2 0.30891291E-01 0.84487278E+02</pdfrwt>
<pdfrwt beam="2">  1       -1 0.13672876E-02 0.84487278E+02</pdfrwt>
<totfact> 0.19118850E+05</totfact>
</mgrwt>
</event>
<event>
 8    1  0.2603554E-016  0.8079051E+02  0.7818608E-02  0.1326823E+00
          2   -1    0    0  501    0  0.00000000000E+00  0.00000000000E+00  0.17225257011E+03  0.17225257013E+03  0.25500000000E-02 0. -1.
         -1   -1    0    0    0  501 -0.00000000000E+00 -0.00000000000E+00 -0.94731616533E+01  0.94731629940E+01  0.50400000000E-02 0.  1.
         24    2    1    2    0    0  0.00000000000E+00  0.17763568394E-14  0.16277940846E+03  0.18172573312E+03  0.80790508487E+02 0.  0.
         66    2    3    3    0    0  0.32535281520E+02  0.10612415811E+02  0.12960924438E+03  0.13406611854E+03  0.19999999286E+01 0.  0.
        -13    1    3    3    0    0 -0.32535281520E+02 -0.10612415811E+02  0.33170164076E+02  0.47659614579E+02  0.10566000000E+00 0.  1.
         13    1    4    4    0    0  0.10542972788E+02  0.38497348557E+01  0.39571199647E+02  0.41132295575E+02  0.10566000000E+00 0. -1.
        -13    1    4    4    0    0  0.58105852429E+01  0.16715587383E+01  0.22631093576E+02  0.23425084204E+02  0.10566000000E+00 0.  1.
         14    1    4    4    0    0  0.16181723489E+02  0.50911222169E+01  0.67406951157E+02  0.69508738765E+02  0.00000000000E+00 0. -1.
<mgrwt>
<rscale>  0 0.80790508E+02</rscale>
<asrwt>0</asrwt>
<pdfrwt beam="1">  1        2 0.26500394E-01 0.80790508E+02</pdfrwt>
<pdfrwt beam="2">  1       -1 0.14574097E-02 0.80790508E+02</pdfrwt>
<totfact> 0.20422663E+05</totfact>
</mgrwt>
</event>
<event>
 8    1  0.2603554E-016  0.8022683E+02  0.7818608E-02  0.1328409E+00
         -1   -1    0    0    0  501 -0.00000000000E+00  0.00000000000E+00  0.13434481309E+02  0.13434482254E+02  0.50400000000E-02 0.  1.
          2   -1    0    0  501    0  0.00000000000E+00 -0.00000000000E+00 -0.11977283634E+03  0.11977283636E+03  0.25500000000E-02 0. -1.
         24    2    1    2    0    0  0.00000000000E+00  0.00000000000E+00 -0.10633835503E+03  0.13320731862E+03  0.80226828327E+02 0.  0.
         66    2    3    3    0    0  0.18627369649E+02 -0.17318731253E+02 -0.10465162144E+03  0.10771666177E+03  0.20000001062E+01 0.  0.
        -13    1    3    3    0    0 -0.18627369649E+02  0.17318731253E+02 -0.16867335863E+01  0.25490656847E+02  0.10566000000E+00 0.  1.
         13    1    4    4    0    0  0.90660373092E+01 -0.89354468052E+01 -0.54767805205E+02  0.56227741313E+02  0.10566000000E+00 0.  1.
        -13    1    4    4    0    0  0.58013720835E+01 -0.50397523235E+01 -0.32081069926E+02  0.32988804664E+02  0.10566000000E+00 0. -1.
         14    1    4    4    0    0  0.37599602568E+01 -0.33435321248E+01 -0.17802746310E+02  0.18500115793E+02  0.00000000000E+00 0. -1.
<mgrwt>
<rscale>  0 0.80226828E+02</rscale>
<asrwt>0</asrwt>
<pdfrwt beam="1">  1        2 0.18426590E-01 0.80226828E+02</pdfrwt>
<pdfrwt beam="2">  1       -1 0.20668434E-02 0.80226828E+02</pdfrwt>
<totfact> 0.18535451E+05</totfact>
</mgrwt>
</event>
<event>
 8    1  0.2603554E-016  0.8089675E+02  0.7818608E-02  0.1326526E+00
         -1   -1    0    0    0  501 -0.00000000000E+00  0.00000000000E+00  0.65578737765E+01  0.65578757133E+01  0.50400000000E-02 0.  1.
          2   -1    0    0  501    0  0.00000000000E+00 -0.00000000000E+00 -0.24948190291E+03  0.24948190293E+03  0.25500000000E-02 0. -1.
         24    2    1    2    0    0  0.71054273576E-14  0.00000000000E+00 -0.24292402914E+03  0.25603977864E+03  0.80896750947E+02 0.  0.
         66    2    3    3    0    0  0.32264057978E+02 -0.11888254336E+02 -0.18880786637E+03  0.19192370994E+03  0.20000017857E+01 0.  0.
        -13    1    3    3    0    0 -0.32264057978E+02  0.11888254336E+02 -0.54116162768E+02  0.64116068697E+02  0.10566000000E+00 0.  1.
         13    1    4    4    0    0  0.13260532029E+02 -0.55993222352E+01 -0.82011406200E+02  0.83265094909E+02  0.10566000000E+00 0. -1.
        -13    1    4    4    0    0  0.12398618439E+02 -0.37616889124E+01 -0.69658826779E+02  0.70853647435E+02  0.10566000000E+00 0.  1.
         14    1    4    4    0    0  0.66049075094E+01 -0.25272431879E+01 -0.37137633389E+02  0.37804967598E+02  0.00000000000E+00 0. -1.
<mgrwt>
<rscale>  0 0.80896751E+02</rscale>
<asrwt>0</asrwt>
<pdfrwt beam="1">  1        2 0.38381824E-01 0.80896751E+02</pdfrwt>
<pdfrwt beam="2">  1       -1 0.10089040E-02 0.80896751E+02</pdfrwt>
<totfact> 0.23161424E+05</totfact>
</mgrwt>
</event>
<event>
 8    1  0.2603554E-016  0.7762217E+02  0.7818608E-02  0.1335938E+00
          2   -1    0    0  501    0  0.00000000000E+00  0.00000000000E+00  0.14744126359E+03  0.14744126362E+03  0.25500000000E-02 0. -1.
         -1   -1    0    0    0  501 -0.00000000000E+00 -0.00000000000E+00 -0.10216273513E+02  0.10216274757E+02  0.50400000000E-02 0.  1.
         24    2    1    2    0    0  0.00000000000E+00 -0.55511151231E-16  0.13722499008E+03  0.15765753837E+03  0.77622171466E+02 0.  0.
         66    2    3    3    0    0 -0.26085512355E+02 -0.30143270803E+00  0.12695231800E+03  0.12962035285E+03  0.20000025492E+01 0.  0.
        -13    1    3    3    0    0  0.26085512355E+02  0.30143270803E+00  0.10272672080E+02  0.28037185525E+02  0.10566000000E+00 0.  1.
         13    1    4    4    0    0 -0.22054438694E+02  0.12706448496E+00  0.10502673546E+03  0.10731747638E+03  0.10566000000E+00 0. -1.
        -13    1    4    4    0    0 -0.15690752245E+01 -0.22273868789E+00  0.98386685774E+01  0.99660510231E+01  0.10566000000E+00 0.  1.
        -14    1    4    4    0    0 -0.24619984359E+01 -0.20575850511E+00  0.12086913966E+02  0.12336825446E+02  0.00000000000E+00 0.  1.
<mgrwt>
<rscale>  0 0.77622171E+02</rscale>
<asrwt>0</asrwt>
<pdfrwt beam="1">  1        2 0.22683272E-01 0.77622171E+02</pdfrwt>
<pdfrwt beam="2">  1       -1 0.15717344E-02 0.77622171E+02</pdfrwt>
<totfact> 0.21577779E+05</totfact>
</mgrwt>
</event>
<event>
 8    1  0.2603554E-016  0.7979609E+02  0.7818608E-02  0.1329631E+00
          2   -1    0    0  501    0  0.00000000000E+00  0.00000000000E+00  0.51457652046E+03  0.51457652047E+03  0.25500000000E-02 0. -1.
         -1   -1    0    0    0  501 -0.00000000000E+00 -0.00000000000E+00 -0.30935206788E+01  0.30935247845E+01  0.50400000000E-02 0.  1.
         24    2    1    2    0    0  0.17763568394E-14  0.17763568394E-14  0.51148299978E+03  0.51767004525E+03  0.79796094421E+02 0.  0.
         66    2    3    3    0    0  0.89259000035E+01  0.13054296992E+02  0.49335892070E+03  0.49361636014E+03  0.20000008179E+01 0.  0.
        -13    1    3    3    0    0 -0.89259000035E+01 -0.13054296992E+02  0.18124079082E+02  0.24053685111E+02  0.10566000000E+00 0.  1.
         13    1    4    4    0    0  0.51149841622E+00  0.56390811501E+00  0.31519101475E+02  0.31528471971E+02  0.10566000000E+00 0. -1.
        -13    1    4    4    0    0  0.60253644629E+01  0.84676289442E+01  0.29751637513E+03  0.29769785084E+03  0.10566000000E+00 0.  1.
        -14    1    4    4    0    0  0.23890371244E+01  0.40227599324E+01  0.16432344409E+03  0.16439003733E+03  0.00000000000E+00 0.  1.
<mgrwt>
<rscale>  0 0.79796094E+02</rscale>
<asrwt>0</asrwt>
<pdfrwt beam="1">  1        2 0.79165607E-01 0.79796094E+02</pdfrwt>
<pdfrwt beam="2">  1       -1 0.47592665E-03 0.79796094E+02</pdfrwt>
<totfact> 0.30934077E+05</totfact>
</mgrwt>
</event>
<event>
 8    1  0.2603554E-016  0.7883624E+02  0.7818608E-02  0.1332387E+00
         -1   -1    0    0    0  501 -0.00000000000E+00  0.00000000000E+00  0.26000185169E+02  0.26000185657E+02  0.50400000000E-02 0.  1.
          2   -1    0    0  501    0  0.00000000000E+00 -0.00000000000E+00 -0.59760660961E+02  0.59760661015E+02  0.25500000000E-02 0. -1.
         24    2    1    2    0    0  0.00000000000E+00  0.35527136788E-14 -0.33760475792E+02  0.85760846672E+02  0.78836242277E+02 0.  0.
         66    2    3    3    0    0  0.10931342815E+02  0.21226530286E+02 -0.50975634940E+02  0.56325617570E+02  0.19999983467E+01 0.  0.
        -13    1    3    3    0    0 -0.10931342815E+02 -0.21226530286E+02  0.17215159149E+02  0.29435229102E+02  0.10566000000E+00 0.  1.
         13    1    4    4    0    0  0.33612954448E+01  0.62126878283E+01 -0.17090088053E+02  0.18492649102E+02  0.10566000000E+00 0. -1.
        -13    1    4    4    0    0  0.97147020179E+00  0.16152908395E+01 -0.35998440286E+01  0.40648443900E+01  0.10566000000E+00 0.  1.
        -14    1    4    4    0    0  0.65985771683E+01  0.13398551619E+02 -0.30285702859E+02  0.33768124079E+02  0.00000000000E+00 0.  1.
<mgrwt>
<rscale>  0 0.78836242E+02</rscale>
<asrwt>0</asrwt>
<pdfrwt beam="1">  1        2 0.91939478E-02 0.78836242E+02</pdfrwt>
<pdfrwt beam="2">  1       -1 0.40000286E-02 0.78836242E+02</pdfrwt>
<totfact> 0.16183842E+05</totfact>
</mgrwt>
</event>
<event>
 8    1  0.2603554E-016  0.7920507E+02  0.7818608E-02  0.1331323E+00
         -1   -1    0    0    0  501 -0.00000000000E+00  0.00000000000E+00  0.34442827524E+01  0.34442864399E+01  0.50400000000E-02 0.  1.
          2   -1    0    0  501    0  0.00000000000E+00 -0.00000000000E+00 -0.45535165978E+03  0.45535165979E+03  0.25500000000E-02 0. -1.
         24    2    1    2    0    0  0.00000000000E+00  0.00000000000E+00 -0.45190737703E+03  0.45879594623E+03  0.79205068413E+02 0.  0.
         66    2    3    3    0    0  0.30336420118E+02  0.25410431720E+02 -0.22258660140E+03  0.22608578804E+03  0.20000010548E+01 0.  0.
        -13    1    3    3    0    0 -0.30336420118E+02 -0.25410431720E+02 -0.22932077563E+03  0.23271015819E+03  0.10566000000E+00 0.  1.
         13    1    4    4    0    0  0.16293523416E+02  0.14176578018E+02 -0.12032429311E+03  0.12224729423E+03  0.10566000000E+00 0. -1.
        -13    1    4    4    0    0  0.60537227457E+01  0.45723328309E+01 -0.46330928807E+02  0.46948055495E+02  0.10566000000E+00 0.  1.
        -14    1    4    4    0    0  0.79891739568E+01  0.66615208710E+01 -0.55931379484E+02  0.56890438316E+02  0.00000000000E+00 0.  1.
<mgrwt>
<rscale>  0 0.79205068E+02</rscale>
<asrwt>0</asrwt>
<pdfrwt beam="1">  1        2 0.70054054E-01 0.79205068E+02</pdfrwt>
<pdfrwt beam="2">  1       -1 0.52989030E-03 0.79205068E+02</pdfrwt>
<totfact> 0.30314284E+05</totfact>
</mgrwt>
</event>
<event>
 8    1  0.2603554E-016  0.8300768E+02  0.7818608E-02  0.1320726E+00
          2   -1    0    0  501    0  0.00000000000E+00  0.00000000000E+00  0.14762777614E+03  0.14762777616E+03  0.25500000000E-02 0. -1.
         -1   -1    0    0    0  501 -0.00000000000E+00 -0.00000000000E+00 -0.11668323437E+02  0.11668324525E+02  0.50400000000E-02 0.  1.
         24    2    1    2    0    0  0.00000000000E+00  0.00000000000E+00  0.13595945270E+03  0.15929610069E+03  0.83007679854E+02 0.  0.
         66    2    3    3    0    0 -0.27116609871E+02  0.30318945335E+02  0.83611278968E+02  0.93002123325E+02  0.19999987726E+01 0.  0.
        -13    1    3    3    0    0  0.27116609871E+02 -0.30318945335E+02  0.52348173736E+02  0.66293977363E+02  0.10566000000E+00 0.  1.
         13    1    4    4    0    0 -0.10086615098E+02  0.11200398584E+02  0.31435492560E+02  0.34862445254E+02  0.10566000000E+00 0. -1.
        -13    1    4    4    0    0 -0.15827655168E+02  0.17990854689E+02  0.47959194930E+02  0.53612321932E+02  0.10566000000E+00 0.  1.
        -14    1    4    4    0    0 -0.12023396044E+01  0.11276920620E+01  0.42165914776E+01  0.45273561380E+01  0.00000000000E+00 0.  1.
<mgrwt>
<rscale>  0 0.83007680E+02</rscale>
<asrwt>0</asrwt>
<pdfrwt beam="1">  1        2 0.22711966E-01 0.83007680E+02</pdfrwt>
<pdfrwt beam="2">  1       -1 0.17951267E-02 0.83007680E+02</pdfrwt>
<totfact> 0.18064480E+05</totfact>
</mgrwt>
</event>
<event>
 8    1  0.2603554E-016  0.8021484E+02  0.7818608E-02  0.1328443E+00
          2   -1    0    0  501    0  0.00000000000E+00  0.00000000000E+00  0.45756588116E+03  0.45756588116E+03  0.25500000000E-02 0. -1.
         -1   -1    0    0    0  501 -0.00000000000E+00 -0.00000000000E+00 -0.35155688272E+01  0.35155724399E+01  0.50400000000E-02 0.  1.
         24    2    1    2    0    0  0.00000000000E+00  0.35527136788E-14  0.45405031233E+03  0.46108145360E+03  0.80214841088E+02 0.  0.
         66    2    3    3    0    0  0.34497733634E+02  0.17800143016E+02  0.28454934184E+03  0.28719203794E+03  0.19999999879E+01 0.  0.
        -13    1    3    3    0    0 -0.34497733634E+02 -0.17800143016E+02  0.16950097049E+03  0.17388941566E+03  0.10566000000E+00 0.  1.
         13    1    4    4    0    0  0.98530412187E+01  0.52758570818E+01  0.78908948170E+02  0.79696614448E+02  0.10566000000E+00 0. -1.
        -13    1    4    4    0    0  0.48792625669E+01  0.28345871082E+01  0.45771149067E+02  0.46117798497E+02  0.10566000000E+00 0.  1.
        -14    1    4    4    0    0  0.19765429849E+02  0.96896988264E+01  0.15986924460E+03  0.16137762499E+03  0.00000000000E+00 0.  1.
<mgrwt>
<rscale>  0 0.80214841E+02</rscale>
<asrwt>0</asrwt>
<pdfrwt beam="1">  1        2 0.70394753E-01 0.80214841E+02</pdfrwt>
<pdfrwt beam="2">  1       -1 0.54085701E-03 0.80214841E+02</pdfrwt>
<totfact> 0.29376745E+05</totfact>
</mgrwt>
</event>
<event>
 8    1  0.2603554E-016  0.7911058E+02  0.7818608E-02  0.1331595E+00
         -1   -1    0    0    0  501 -0.00000000000E+00  0.00000000000E+00  0.41312245743E+01  0.41312276487E+01  0.50400000000E-02 0.  1.
          2   -1    0    0  501    0  0.00000000000E+00 -0.00000000000E+00 -0.37873038371E+03  0.37873038371E+03  0.25500000000E-02 0. -1.
         24    2    1    2    0    0  0.00000000000E+00  0.00000000000E+00 -0.37459915913E+03  0.38286161136E+03  0.79110577254E+02 0.  0.
         66    2    3    3    0    0  0.18045949902E+02  0.31014336844E+02 -0.26768452377E+03  0.27008618933E+03  0.19999998508E+01 0.  0.
        -13    1    3    3    0    0 -0.18045949902E+02 -0.31014336844E+02 -0.10691463536E+03  0.11277542204E+03  0.10566000000E+00 0.  1.
         13    1    4    4    0    0  0.70923375163E+01  0.12831974140E+02 -0.10603968948E+03  0.10704852975E+03  0.10566000000E+00 0. -1.
        -13    1    4    4    0    0  0.57042208874E+01  0.10682407232E+02 -0.91440337658E+02  0.92238812195E+02  0.10566000000E+00 0.  1.
         14    1    4    4    0    0  0.52493914979E+01  0.74999554727E+01 -0.70204496637E+02  0.70798847386E+02  0.00000000000E+00 0. -1.
<mgrwt>
<rscale>  0 0.79110577E+02</rscale>
<asrwt>0</asrwt>
<pdfrwt beam="1">  1        2 0.58266186E-01 0.79110577E+02</pdfrwt>
<pdfrwt beam="2">  1       -1 0.63557355E-03 0.79110577E+02</pdfrwt>
<totfact> 0.28536865E+05</totfact>
</mgrwt>
</event>
<event>
 8    1  0.2603554E-016  0.8087281E+02  0.7818608E-02  0.1326593E+00
         -1   -1    0    0    0  501 -0.00000000000E+00  0.00000000000E+00  0.42574684262E+02  0.42574684561E+02  0.50400000000E-02 0.  1.
          2   -1    0    0  501    0  0.00000000000E+00 -0.00000000000E+00 -0.38405518136E+02  0.38405518220E+02  0.25500000000E-02 0. -1.
         24    2    1    2    0    0  0.00000000000E+00  0.00000000000E+00  0.41691661264E+01  0.80980202781E+02  0.80872809375E+02 0.  0.
         66    2    3    3    0    0 -0.30273243527E+02  0.59680721483E+01 -0.24044981079E+02  0.39169481365E+02  0.19999991203E+01 0.  0.
        -13    1    3    3    0    0  0.30273243527E+02 -0.59680721483E+01  0.28214147205E+02  0.41810721416E+02  0.10566000000E+00 0.  1.
         13    1    4    4    0    0 -0.17518316320E+02  0.27730632719E+01 -0.14288309615E+02  0.22776045360E+02  0.10566000000E+00 0. -1.
        -13    1    4    4    0    0 -0.90447520258E+00  0.28550460617E+00 -0.93649573384E+00  0.13370776220E+01  0.10566000000E+00 0. -1.
         14    1    4    4    0    0 -0.11850452005E+02  0.29095042703E+01 -0.88201757306E+01  0.15056358382E+02  0.00000000000E+00 0. -1.
<mgrwt>
<rscale>  0 0.80872809E+02</rscale>
<asrwt>0</asrwt>
<pdfrwt beam="1">  1        2 0.59085413E-02 0.80872809E+02</pdfrwt>
<pdfrwt beam="2">  1       -1 0.65499515E-02 0.80872809E+02</pdfrwt>
<totfact> 0.13718110E+05</totfact>
</mgrwt>
</event>
<event>
 8    1  0.2603554E-016  0.7870077E+02  0.7818608E-02  0.1332779E+00
          2   -1    0    0  501    0  0.00000000000E+00  0.00000000000E+00  0.52915608633E+02  0.52915608695E+02  0.25500000000E-02 0. -1.
         -1   -1    0    0    0  501 -0.00000000000E+00 -0.00000000000E+00 -0.29262682570E+02  0.29262683004E+02  0.50400000000E-02 0.  1.
         24    2    1    2    0    0  0.35527136788E-14  0.00000000000E+00  0.23652926063E+02  0.82178291699E+02  0.78700766929E+02 0.  0.
         66    2    3    3    0    0  0.27408801285E+02 -0.21132748365E+02 -0.76620993179E+01  0.35504129468E+02  0.20000005035E+01 0.  0.
        -13    1    3    3    0    0 -0.27408801285E+02  0.21132748365E+02  0.31315025381E+02  0.46674162231E+02  0.10566000000E+00 0.  1.
         13    1    4    4    0    0  0.30192517055E+01 -0.19027263977E+01 -0.75379654359E+00  0.36490576688E+01  0.10566000000E+00 0. -1.
        -13    1    4    4    0    0  0.18899488436E+01 -0.20316265358E+01 -0.57934742584E+00  0.28365860621E+01  0.10566000000E+00 0.  1.
         14    1    4    4    0    0  0.22499600736E+02 -0.17198395431E+02 -0.63289553484E+01  0.29018485737E+02  0.00000000000E+00 0. -1.
<mgrwt>
<rscale>  0 0.78700767E+02</rscale>
<asrwt>0</asrwt>
<pdfrwt beam="1">  1        2 0.81408627E-02 0.78700767E+02</pdfrwt>
<pdfrwt beam="2">  1       -1 0.45019513E-02 0.78700767E+02</pdfrwt>
<totfact> 0.15821854E+05</totfact>
</mgrwt>
</event>
<event>
 8    1  0.2603554E-016  0.8635717E+02  0.7818608E-02  0.1311921E+00
         -1   -1    0    0    0  501 -0.00000000000E+00  0.00000000000E+00  0.10630802270E+01  0.10630921741E+01  0.50400000000E-02 0.  1.
          2   -1    0    0  501    0  0.00000000000E+00 -0.00000000000E+00 -0.17537524826E+04  0.17537524826E+04  0.25500000000E-02 0. -1.
         24    2    1    2    0    0  0.00000000000E+00  0.00000000000E+00 -0.17526894024E+04  0.17548155748E+04  0.86357166960E+02 0.  0.
         66    2    3    3    0    0  0.51522732999E+01 -0.19105431168E+02 -0.16561285377E+04  0.16562479575E+04  0.19999994866E+01 0.  0.
        -13    1    3    3    0    0 -0.51522732999E+01  0.19105431168E+02 -0.96560864675E+02  0.98567617254E+02  0.10566000000E+00 0.  1.
         13    1    4    4    0    0  0.29445768662E+01 -0.10934265282E+02 -0.88264516292E+03  0.88271780512E+03  0.10566000000E+00 0. -1.
        -13    1    4    4    0    0  0.36111880274E-01 -0.62842369683E+00 -0.73517750922E+02  0.73520521524E+02  0.10566000000E+00 0.  1.
        -14    1    4    4    0    0  0.21715845534E+01 -0.75427421897E+01 -0.69996562384E+03  0.70000963086E+03  0.00000000000E+00 0.  1.
<mgrwt>
<rscale>  0 0.86357167E+02</rscale>
<asrwt>0</asrwt>
<pdfrwt beam="1">  1        2 0.26980576E+00 0.86357167E+02</pdfrwt>
<pdfrwt beam="2">  1       -1 0.16355313E-03 0.86357167E+02</pdfrwt>
<totfact> 0.25176104E+05</totfact>
</mgrwt>
</event>
<event>
 8    1  0.2603554E-016  0.8132908E+02  0.7818608E-02  0.1325321E+00
          2   -1    0    0  501    0  0.00000000000E+00  0.00000000000E+00  0.40343553256E+03  0.40343553256E+03  0.25500000000E-02 0. -1.
         -1   -1    0    0    0  501 -0.00000000000E+00 -0.00000000000E+00 -0.40988059894E+01  0.40988090880E+01  0.50400000000E-02 0.  1.
         24    2    1    2    0    0  0.00000000000E+00 -0.22204460493E-15  0.39933672657E+03  0.40753434165E+03  0.81329075003E+02 0.  0.
         66    2    3    3    0    0 -0.40490695828E+02  0.11295856805E+01  0.21627710914E+03  0.22004672311E+03  0.19999995884E+01 0.  0.
        -13    1    3    3    0    0  0.40490695828E+02 -0.11295856805E+01  0.18305961742E+03  0.18748761854E+03  0.10566000000E+00 0.  1.
         13    1    4    4    0    0 -0.25144990238E+01 -0.13590780815E+00  0.12301184164E+02  0.12556730153E+02  0.10566000000E+00 0. -1.
        -13    1    4    4    0    0 -0.11385660506E+02  0.23522643433E+00  0.64716152546E+02  0.65710578760E+02  0.10566000000E+00 0.  1.
        -14    1    4    4    0    0 -0.26590536298E+02  0.10302670544E+01  0.13925977243E+03  0.14177941419E+03  0.00000000000E+00 0.  1.
<mgrwt>
<rscale>  0 0.81329075E+02</rscale>
<asrwt>0</asrwt>
<pdfrwt beam="1">  1        2 0.62067013E-01 0.81329075E+02</pdfrwt>
<pdfrwt beam="2">  1       -1 0.63058570E-03 0.81329075E+02</pdfrwt>
<totfact> 0.27143438E+05</totfact>
</mgrwt>
</event>
<event>
 8    1  0.2603554E-016  0.8244219E+02  0.7818608E-02  0.1322260E+00
          2   -1    0    0  501    0  0.00000000000E+00  0.00000000000E+00  0.12970963396E+03  0.12970963399E+03  0.25500000000E-02 0. -1.
         -1   -1    0    0    0  501 -0.00000000000E+00 -0.00000000000E+00 -0.13099865259E+02  0.13099866228E+02  0.50400000000E-02 0.  1.
         24    2    1    2    0    0  0.17763568394E-14 -0.88817841970E-15  0.11660976870E+03  0.14280950022E+03  0.82442193050E+02 0.  0.
         66    2    3    3    0    0 -0.11510296580E+02 -0.58501902858E+01  0.12610619572E+03  0.12678124567E+03  0.19999998640E+01 0.  0.
        -13    1    3    3    0    0  0.11510296580E+02  0.58501902858E+01 -0.94964270190E+01  0.16028254549E+02  0.10566000000E+00 0.  1.
         13    1    4    4    0    0 -0.28490619353E+01 -0.84713939012E+00  0.26270815707E+02  0.26438640680E+02  0.10566000000E+00 0. -1.
        -13    1    4    4    0    0 -0.24883151944E+00 -0.34200120823E+00  0.31379112378E+01  0.31680487565E+01  0.10566000000E+00 0.  1.
        -14    1    4    4    0    0 -0.84124031247E+01 -0.46610496874E+01  0.96697468779E+02  0.97174556231E+02  0.00000000000E+00 0.  1.
<mgrwt>
<rscale>  0 0.82442193E+02</rscale>
<asrwt>0</asrwt>
<pdfrwt beam="1">  1        2 0.19955328E-01 0.82442193E+02</pdfrwt>
<pdfrwt beam="2">  1       -1 0.20153640E-02 0.82442193E+02</pdfrwt>
<totfact> 0.17659201E+05</totfact>
</mgrwt>
</event>
<event>
 8    1  0.2603554E-016  0.8049802E+02  0.7818608E-02  0.1327644E+00
         -1   -1    0    0    0  501 -0.00000000000E+00  0.00000000000E+00  0.23732773715E+02  0.23732774251E+02  0.50400000000E-02 0.  1.
          2   -1    0    0  501    0  0.00000000000E+00 -0.00000000000E+00 -0.68259313473E+02  0.68259313520E+02  0.25500000000E-02 0. -1.
         24    2    1    2    0    0  0.35527136788E-14  0.00000000000E+00 -0.44526539757E+02  0.91992087771E+02  0.80498021526E+02 0.  0.
         66    2    3    3    0    0  0.23344623171E+02 -0.49165141720E+01 -0.59286943422E+02  0.63938135768E+02  0.20000006348E+01 0.  0.
        -13    1    3    3    0    0 -0.23344623171E+02  0.49165141720E+01  0.14760403665E+02  0.28053952003E+02  0.10566000000E+00 0.  1.
         13    1    4    4    0    0  0.11032673832E+02 -0.14648187422E+01 -0.27275106245E+02  0.29458583988E+02  0.10566000000E+00 0. -1.
        -13    1    4    4    0    0  0.10436396595E+01 -0.47788538425E+00 -0.26867988597E+01  0.29236296495E+01  0.10566000000E+00 0.  1.
        -14    1    4    4    0    0  0.11268309679E+02 -0.29738100456E+01 -0.29325038317E+02  0.31555922131E+02  0.00000000000E+00 0.  1.
<mgrwt>
<rscale>  0 0.80498022E+02</rscale>
<asrwt>0</asrwt>
<pdfrwt beam="1">  1        2 0.10501433E-01 0.80498022E+02</pdfrwt>
<pdfrwt beam="2">  1       -1 0.36511960E-02 0.80498022E+02</pdfrwt>
<totfact> 0.15780322E+05</totfact>
</mgrwt>
</event>
<event>
 8    1  0.2603554E-016  0.7832072E+02  0.7818608E-02  0.1333886E+00
          2   -1    0    0  501    0  0.00000000000E+00  0.00000000000E+00  0.48613119066E+03  0.48613119067E+03  0.25500000000E-02 0. -1.
         -1   -1    0    0    0  501 -0.00000000000E+00 -0.00000000000E+00 -0.31545653778E+01  0.31545694040E+01  0.50400000000E-02 0.  1.
         24    2    1    2    0    0  0.00000000000E+00 -0.35527136788E-14  0.48297662528E+03  0.48928576007E+03  0.78320715261E+02 0.  0.
         66    2    3    3    0    0 -0.77667100844E+01  0.28320575486E+02  0.40324792384E+03  0.40432074504E+03  0.20000018074E+01 0.  0.
        -13    1    3    3    0    0  0.77667100844E+01 -0.28320575486E+02  0.79728701439E+02  0.84965015027E+02  0.10566000000E+00 0.  1.
         13    1    4    4    0    0 -0.46310191251E+01  0.14076747382E+02  0.20102326518E+03  0.20156876112E+03  0.10566000000E+00 0. -1.
        -13    1    4    4    0    0 -0.19172493197E+01  0.85125047381E+01  0.12703038263E+03  0.12732976029E+03  0.10566000000E+00 0.  1.
         14    1    4    4    0    0 -0.12184416396E+01  0.57313233662E+01  0.75194276041E+02  0.75422223627E+02  0.00000000000E+00 0. -1.
<mgrwt>
<rscale>  0 0.78320715E+02</rscale>
<asrwt>0</asrwt>
<pdfrwt beam="1">  1        2 0.74789352E-01 0.78320715E+02</pdfrwt>
<pdfrwt beam="2">  1       -1 0.48531846E-03 0.78320715E+02</pdfrwt>
<totfact> 0.31891589E+05</totfact>
</mgrwt>
</event>
<event>
 8    1  0.2603554E-016  0.7977048E+02  0.7818608E-02  0.1329704E+00
          2   -1    0    0  501    0  0.00000000000E+00  0.00000000000E+00  0.18109252793E+02  0.18109252973E+02  0.25500000000E-02 0. -1.
         -1   -1    0    0    0  501 -0.00000000000E+00 -0.00000000000E+00 -0.87846380731E+02  0.87846380875E+02  0.50400000000E-02 0.  1.
         24    2    1    2    0    0  0.00000000000E+00  0.00000000000E+00 -0.69737127937E+02  0.10595563385E+03  0.79770479071E+02 0.  0.
         66    2    3    3    0    0 -0.33287901712E+02 -0.25538339761E+01 -0.59654978820E+01  0.33973424711E+02  0.19999883174E+01 0.  0.
        -13    1    3    3    0    0  0.33287901712E+02  0.25538339761E+01 -0.63771630055E+02  0.71982209137E+02  0.10566000000E+00 0.  1.
         13    1    4    4    0    0 -0.10569793187E+02 -0.94556068678E+00 -0.23351960699E+01  0.10866412368E+02  0.10566000000E+00 0. -1.
        -13    1    4    4    0    0 -0.12890178956E+02 -0.15257540224E+01 -0.24240080711E+01  0.13204984590E+02  0.10566000000E+00 0.  1.
         14    1    4    4    0    0 -0.98279295686E+01 -0.82519266908E-01 -0.12062937409E+01  0.99020277531E+01  0.00000000000E+00 0. -1.
<mgrwt>
<rscale>  0 0.79770479E+02</rscale>
<asrwt>0</asrwt>
<pdfrwt beam="1">  1        2 0.27860390E-02 0.79770479E+02</pdfrwt>
<pdfrwt beam="2">  1       -1 0.13514828E-01 0.79770479E+02</pdfrwt>
<totfact> 0.12267551E+05</totfact>
</mgrwt>
</event>
<event>
 8    1  0.2603554E-016  0.7975733E+02  0.7818608E-02  0.1329742E+00
         -1   -1    0    0    0  501 -0.00000000000E+00  0.00000000000E+00  0.16336224872E+02  0.16336225650E+02  0.50400000000E-02 0.  1.
          2   -1    0    0  501    0  0.00000000000E+00 -0.00000000000E+00 -0.97348553267E+02  0.97348553301E+02  0.25500000000E-02 0. -1.
         24    2    1    2    0    0  0.71054273576E-14  0.00000000000E+00 -0.81012328395E+02  0.11368477895E+03  0.79757329525E+02 0.  0.
         66    2    3    3    0    0 -0.38830526193E+02 -0.73082480050E+01 -0.47949406663E+02  0.62164023804E+02  0.20000007204E+01 0.  0.
        -13    1    3    3    0    0  0.38830526193E+02  0.73082480050E+01 -0.33062921732E+02  0.51520755146E+02  0.10566000000E+00 0.  1.
         13    1    4    4    0    0 -0.16299400920E+02 -0.37513818702E+01 -0.20783349981E+02  0.26677746096E+02  0.10566000000E+00 0. -1.
        -13    1    4    4    0    0 -0.17242455645E+02 -0.31197350417E+01 -0.20644363134E+02  0.27078329281E+02  0.10566000000E+00 0. -1.
         14    1    4    4    0    0 -0.52886696281E+01 -0.43713109315E+00 -0.65216935477E+01  0.84079484274E+01  0.00000000000E+00 0. -1.
<mgrwt>
<rscale>  0 0.79757330E+02</rscale>
<asrwt>0</asrwt>
<pdfrwt beam="1">  1        2 0.14976700E-01 0.79757330E+02</pdfrwt>
<pdfrwt beam="2">  1       -1 0.25132655E-02 0.79757330E+02</pdfrwt>
<totfact> 0.17737535E+05</totfact>
</mgrwt>
</event>
<event>
 8    1  0.2603554E-016  0.7799759E+02  0.7818608E-02  0.1334832E+00
          2   -1    0    0  501    0  0.00000000000E+00  0.00000000000E+00  0.28966563840E+03  0.28966563841E+03  0.25500000000E-02 0. -1.
         -1   -1    0    0    0  501 -0.00000000000E+00 -0.00000000000E+00 -0.52505558256E+01  0.52505582445E+01  0.50400000000E-02 0.  1.
         24    2    1    2    0    0  0.00000000000E+00  0.71054273576E-14  0.28441508257E+03  0.29491619665E+03  0.77997588771E+02 0.  0.
         66    2    3    3    0    0 -0.17240869316E+01 -0.36263526849E+02  0.19589172504E+03  0.19923750599E+03  0.19999991166E+01 0.  0.
        -13    1    3    3    0    0  0.17240869316E+01  0.36263526849E+02  0.88523357527E+02  0.95678690664E+02  0.10566000000E+00 0.  1.
         13    1    4    4    0    0 -0.47348809811E+00 -0.13666585530E+02  0.76428248721E+02  0.77642051219E+02  0.10566000000E+00 0. -1.
        -13    1    4    4    0    0  0.30742755346E-01 -0.85004989517E+00  0.58286084572E+01  0.58912961668E+01  0.10566000000E+00 0.  1.
        -14    1    4    4    0    0 -0.12813415888E+01 -0.21746891424E+02  0.11363486787E+03  0.11570415860E+03  0.00000000000E+00 0.  1.
<mgrwt>
<rscale>  0 0.77997589E+02</rscale>
<asrwt>0</asrwt>
<pdfrwt beam="1">  1        2 0.44563949E-01 0.77997589E+02</pdfrwt>
<pdfrwt beam="2">  1       -1 0.80777792E-03 0.77997589E+02</pdfrwt>
<totfact> 0.26901241E+05</totfact>
</mgrwt>
</event>
<event>
 8    1  0.2603554E-016  0.7982648E+02  0.7818608E-02  0.1329545E+00
          2   -1    0    0  501    0  0.00000000000E+00  0.00000000000E+00  0.73635946493E+03  0.73635946494E+03  0.25500000000E-02 0. -1.
         -1   -1    0    0    0  501 -0.00000000000E+00 -0.00000000000E+00 -0.21634332560E+01  0.21634391267E+01  0.50400000000E-02 0.  1.
         24    2    1    2    0    0  0.00000000000E+00 -0.35527136788E-14  0.73419603168E+03  0.73852290407E+03  0.79826479924E+02 0.  0.
         66    2    3    3    0    0  0.27431100639E+01  0.16909920470E+02  0.70058997917E+03  0.70080224670E+03  0.19999994445E+01 0.  0.
        -13    1    3    3    0    0 -0.27431100639E+01 -0.16909920470E+02  0.33606052504E+02  0.37720657365E+02  0.10566000000E+00 0.  1.
         13    1    4    4    0    0  0.13328082171E+01  0.52134920334E+01  0.19296621455E+03  0.19304125983E+03  0.10566000000E+00 0. -1.
        -13    1    4    4    0    0  0.11957452926E+01  0.69673005354E+01  0.30372701561E+03  0.30380928929E+03  0.10566000000E+00 0.  1.
         14    1    4    4    0    0  0.21455655427E+00  0.47291279007E+01  0.20389674902E+03  0.20395169758E+03  0.00000000000E+00 0. -1.
<mgrwt>
<rscale>  0 0.79826480E+02</rscale>
<asrwt>0</asrwt>
<pdfrwt beam="1">  1        2 0.11328614E+00 0.79826480E+02</pdfrwt>
<pdfrwt beam="2">  1       -1 0.33283613E-03 0.79826480E+02</pdfrwt>
<totfact> 0.34016404E+05</totfact>
</mgrwt>
</event>
<event>
 8    1  0.2603554E-016  0.7845447E+02  0.7818608E-02  0.1333496E+00
          2   -1    0    0  501    0  0.00000000000E+00  0.00000000000E+00  0.13421547565E+04  0.13421547565E+04  0.25500000000E-02 0. -1.
         -1   -1    0    0    0  501 -0.00000000000E+00 -0.00000000000E+00 -0.11464911081E+01  0.11465021860E+01  0.50400000000E-02 0.  1.
         24    2    1    2    0    0  0.17763568394E-14  0.00000000000E+00  0.13410082654E+04  0.13433012587E+04  0.78454469245E+02 0.  0.
         66    2    3    3    0    0  0.13439900033E+02 -0.17089905552E+02  0.12294627290E+04  0.12296565771E+04  0.19999978686E+01 0.  0.
        -13    1    3    3    0    0 -0.13439900033E+02  0.17089905552E+02  0.11154553643E+03  0.11364468155E+03  0.10566000000E+00 0.  1.
         13    1    4    4    0    0  0.49664614230E+01 -0.57845549548E+01  0.45852195415E+03  0.45858534692E+03  0.10566000000E+00 0. -1.
        -13    1    4    4    0    0  0.66885810625E+01 -0.81090910701E+01  0.58434724463E+03  0.58444179175E+03  0.10566000000E+00 0. -1.
         14    1    4    4    0    0  0.17848575473E+01 -0.31962595276E+01  0.18659353020E+03  0.18662943847E+03  0.00000000000E+00 0. -1.
<mgrwt>
<rscale>  0 0.78454469E+02</rscale>
<asrwt>0</asrwt>
<pdfrwt beam="1">  1        2 0.20648423E+00 0.78454469E+02</pdfrwt>
<pdfrwt beam="2">  1       -1 0.17638505E-03 0.78454469E+02</pdfrwt>
<totfact> 0.36168815E+05</totfact>
</mgrwt>
</event>
<event>
 8    1  0.2603554E-016  0.7928117E+02  0.7818608E-02  0.1331104E+00
          2   -1    0    0  501    0  0.00000000000E+00  0.00000000000E+00  0.48040898496E+03  0.48040898496E+03  0.25500000000E-02 0. -1.
         -1   -1    0    0    0  501 -0.00000000000E+00 -0.00000000000E+00 -0.32709110401E+01  0.32709149231E+01  0.50400000000E-02 0.  1.
         24    2    1    2    0    0  0.00000000000E+00  0.00000000000E+00  0.47713807392E+03  0.48367989989E+03  0.79281170359E+02 0.  0.
         66    2    3    3    0    0 -0.11104091491E+02  0.17560888386E+01  0.47047009112E+03  0.47060863926E+03  0.20000019172E+01 0.  0.
        -13    1    3    3    0    0  0.11104091491E+02 -0.17560888386E+01  0.66679827953E+01  0.13071260630E+02  0.10566000000E+00 0.  1.
         13    1    4    4    0    0 -0.27575676162E+01  0.17988085886E+00  0.13805461281E+03  0.13808230813E+03  0.10566000000E+00 0. -1.
        -13    1    4    4    0    0 -0.51562122856E+01  0.10682050555E+01  0.18212641789E+03  0.18220255444E+03  0.10566000000E+00 0.  1.
        -14    1    4    4    0    0 -0.31903115894E+01  0.50800292420E+00  0.15028906042E+03  0.15032377668E+03  0.00000000000E+00 0.  1.
<mgrwt>
<rscale>  0 0.79281170E+02</rscale>
<asrwt>0</asrwt>
<pdfrwt beam="1">  1        2 0.73909059E-01 0.79281170E+02</pdfrwt>
<pdfrwt beam="2">  1       -1 0.50321749E-03 0.79281170E+02</pdfrwt>
<totfact> 0.30777208E+05</totfact>
</mgrwt>
</event>
<event>
 8    1  0.2603554E-016  0.8252096E+02  0.7818608E-02  0.1322046E+00
          2   -1    0    0  501    0  0.00000000000E+00  0.00000000000E+00  0.78292546973E+03  0.78292546973E+03  0.25500000000E-02 0. -1.
         -1   -1    0    0    0  501 -0.00000000000E+00 -0.00000000000E+00 -0.21744406914E+01  0.21744465324E+01  0.50400000000E-02 0.  1.
         24    2    1    2    0    0  0.17763568394E-14  0.17763568394E-14  0.78075102903E+03  0.78509991626E+03  0.82520962045E+02 0.  0.
         66    2    3    3    0    0  0.11809426795E+02  0.86097864393E+01  0.75745669241E+03  0.75760031142E+03  0.20000003710E+01 0.  0.
        -13    1    3    3    0    0 -0.11809426795E+02 -0.86097864393E+01  0.23294336627E+02  0.27499604846E+02  0.10566000000E+00 0.  1.
         13    1    4    4    0    0  0.44641529472E+01  0.31233293020E+01  0.27141130010E+03  0.27146599940E+03  0.10566000000E+00 0. -1.
        -13    1    4    4    0    0  0.11580724742E+01  0.32986208336E+00  0.50589803281E+02  0.50604241926E+02  0.10566000000E+00 0. -1.
        -14    1    4    4    0    0  0.61872013737E+01  0.51565950540E+01  0.43545558903E+03  0.43553007009E+03  0.00000000000E+00 0.  1.
<mgrwt>
<rscale>  0 0.82520962E+02</rscale>
<asrwt>0</asrwt>
<pdfrwt beam="1">  1        2 0.12045006E+00 0.82520962E+02</pdfrwt>
<pdfrwt beam="2">  1       -1 0.33452982E-03 0.82520962E+02</pdfrwt>
<totfact> 0.31579157E+05</totfact>
</mgrwt>
</event>
<event>
 8    1  0.2603554E-016  0.8019456E+02  0.7818608E-02  0.1328500E+00
         -1   -1    0    0    0  501 -0.00000000000E+00  0.00000000000E+00  0.17110338898E+02  0.17110339640E+02  0.50400000000E-02 0.  1.
          2   -1    0    0  501    0  0.00000000000E+00 -0.00000000000E+00 -0.93966099441E+02  0.93966099476E+02  0.25500000000E-02 0. -1.
         24    2    1    2    0    0  0.00000000000E+00  0.00000000000E+00 -0.76855760543E+02  0.11107643912E+03  0.80194559654E+02 0.  0.
         66    2    3    3    0    0 -0.17063330373E+02 -0.97405876820E+01 -0.86825777047E+02  0.89043539060E+02  0.19999991834E+01 0.  0.
        -13    1    3    3    0    0  0.17063330373E+02  0.97405876820E+01  0.99700165034E+01  0.22032900057E+02  0.10566000000E+00 0.  1.
         13    1    4    4    0    0 -0.38956163275E+01 -0.29758348182E+01 -0.21972082939E+02  0.22512552325E+02  0.10566000000E+00 0. -1.
        -13    1    4    4    0    0 -0.15544573417E+01 -0.67538663877E+00 -0.89850119789E+01  0.91440739846E+01  0.10566000000E+00 0.  1.
         14    1    4    4    0    0 -0.11613256703E+02 -0.60893662251E+01 -0.55868682128E+02  0.57386912751E+02  0.00000000000E+00 0. -1.
<mgrwt>
<rscale>  0 0.80194560E+02</rscale>
<asrwt>0</asrwt>
<pdfrwt beam="1">  1        2 0.14456323E-01 0.80194560E+02</pdfrwt>
<pdfrwt beam="2">  1       -1 0.26323599E-02 0.80194560E+02</pdfrwt>
<totfact> 0.17310066E+05</totfact>
</mgrwt>
</event>
<event>
 8    1  0.2603554E-016  0.8113982E+02  0.7818608E-02  0.1325848E+00
          2   -1    0    0  501    0  0.00000000000E+00  0.00000000000E+00  0.25887412352E+02  0.25887412478E+02  0.25500000000E-02 0. -1.
         -1   -1    0    0    0  501 -0.00000000000E+00 -0.00000000000E+00 -0.63579848578E+02  0.63579848778E+02  0.50400000000E-02 0.  1.
         24    2    1    2    0    0  0.00000000000E+00  0.00000000000E+00 -0.37692436226E+02  0.89467261255E+02  0.81139824303E+02 0.  0.
         66    2    3    3    0    0  0.16588424275E+01 -0.30943787900E+02  0.99723722074E+01  0.32614689680E+02  0.20000019206E+01 0.  0.
        -13    1    3    3    0    0 -0.16588424275E+01  0.30943787900E+02 -0.47664808433E+02  0.56852571576E+02  0.10566000000E+00 0.  1.
         13    1    4    4    0    0  0.62632534041E+00 -0.33381185898E+01  0.70728012940E+00  0.34708397209E+01  0.10566000000E+00 0. -1.
        -13    1    4    4    0    0  0.10107079316E+01 -0.27179731513E+02  0.90405536755E+01  0.28661858112E+02  0.10566000000E+00 0.  1.
        -14    1    4    4    0    0  0.21809155485E-01 -0.42593779701E+00  0.22453840254E+00  0.48199184682E+00  0.00000000000E+00 0.  1.
<mgrwt>
<rscale>  0 0.81139824E+02</rscale>
<asrwt>0</asrwt>
<pdfrwt beam="1">  1        2 0.39826789E-02 0.81139824E+02</pdfrwt>
<pdfrwt beam="2">  1       -1 0.97815151E-02 0.81139824E+02</pdfrwt>
<totfact> 0.12557115E+05</totfact>
</mgrwt>
</event>
<event>
 8    1  0.2603554E-016  0.8082877E+02  0.7818608E-02  0.1326716E+00
         -1   -1    0    0    0  501 -0.00000000000E+00  0.00000000000E+00  0.36161666215E+01  0.36161701337E+01  0.50400000000E-02 0.  1.
          2   -1    0    0  501    0  0.00000000000E+00 -0.00000000000E+00 -0.45167208938E+03  0.45167208939E+03  0.25500000000E-02 0. -1.
         24    2    1    2    0    0  0.00000000000E+00  0.00000000000E+00 -0.44805592276E+03  0.45528825952E+03  0.80828765539E+02 0.  0.
         66    2    3    3    0    0  0.34345906596E+02  0.78756421793E+01 -0.33535276693E+03  0.33720490110E+03  0.19999986200E+01 0.  0.
        -13    1    3    3    0    0 -0.34345906596E+02 -0.78756421793E+01 -0.11270315583E+03  0.11808335842E+03  0.10566000000E+00 0.  1.
         13    1    4    4    0    0  0.83487371407E+01  0.27020745287E+01 -0.85180363229E+02  0.85631232985E+02  0.10566000000E+00 0. -1.
        -13    1    4    4    0    0  0.12279277975E+02  0.24278003411E+01 -0.12126804449E+03  0.12191236467E+03  0.10566000000E+00 0.  1.
         14    1    4    4    0    0  0.13717891480E+02  0.27457673094E+01 -0.12890435922E+03  0.12966130344E+03  0.00000000000E+00 0. -1.
<mgrwt>
<rscale>  0 0.80828766E+02</rscale>
<asrwt>0</asrwt>
<pdfrwt beam="1">  1        2 0.69487969E-01 0.80828766E+02</pdfrwt>
<pdfrwt beam="2">  1       -1 0.55633396E-03 0.80828766E+02</pdfrwt>
<totfact> 0.28673306E+05</totfact>
</mgrwt>
</event>
<event>
 8    1  0.2603554E-016  0.8042882E+02  0.7818608E-02  0.1327839E+00
         -1   -1    0    0    0  501 -0.00000000000E+00  0.00000000000E+00  0.47261316884E+01  0.47261343757E+01  0.50400000000E-02 0.  1.
          2   -1    0    0  501    0  0.00000000000E+00 -0.00000000000E+00 -0.34218225195E+03  0.34218225196E+03  0.25500000000E-02 0. -1.
         24    2    1    2    0    0 -0.35527136788E-14  0.00000000000E+00 -0.33745612026E+03  0.34690838633E+03  0.80428821996E+02 0.  0.
         66    2    3    3    0    0 -0.19905071430E+02  0.94136249153E+01 -0.31384698427E+03  0.31462478881E+03  0.19999992730E+01 0.  0.
        -13    1    3    3    0    0  0.19905071430E+02 -0.94136249153E+01 -0.23609135990E+02  0.32283597521E+02  0.10566000000E+00 0.  1.
         13    1    4    4    0    0 -0.11513958436E+02  0.57984929062E+01 -0.18508398019E+03  0.18553243557E+03  0.10566000000E+00 0. -1.
        -13    1    4    4    0    0 -0.36235655014E+01  0.14450445064E+01 -0.63242735404E+02  0.63363026490E+02  0.10566000000E+00 0.  1.
         14    1    4    4    0    0 -0.47675474925E+01  0.21700875026E+01 -0.65520268671E+02  0.65729326754E+02  0.00000000000E+00 0. -1.
<mgrwt>
<rscale>  0 0.80428822E+02</rscale>
<asrwt>0</asrwt>
<pdfrwt beam="1">  1        2 0.52643404E-01 0.80428822E+02</pdfrwt>
<pdfrwt beam="2">  1       -1 0.72709766E-03 0.80428822E+02</pdfrwt>
<totfact> 0.26361213E+05</totfact>
</mgrwt>
</event>
<event>
 8    1  0.2603554E-016  0.7758660E+02  0.7818608E-02  0.1336043E+00
         -1   -1    0    0    0  501 -0.00000000000E+00  0.00000000000E+00  0.14913424350E+01  0.14913509514E+01  0.50400000000E-02 0.  1.
          2   -1    0    0  501    0  0.00000000000E+00 -0.00000000000E+00 -0.10091015834E+04  0.10091015834E+04  0.25500000000E-02 0. -1.
         24    2    1    2    0    0  0.00000000000E+00  0.17763568394E-14 -0.10076102409E+04  0.10105929343E+04  0.77586604963E+02 0.  0.
         66    2    3    3    0    0  0.10794442399E+02 -0.14274381972E+02 -0.95207428901E+03  0.95224457456E+03  0.20000023781E+01 0.  0.
        -13    1    3    3    0    0 -0.10794442399E+02  0.14274381972E+02 -0.55535951910E+02  0.58348359754E+02  0.10566000000E+00 0.  1.
         13    1    4    4    0    0  0.58715589822E+01 -0.80840302743E+01 -0.55967463601E+03  0.55976382172E+03  0.10566000000E+00 0. -1.
        -13    1    4    4    0    0  0.13362260057E+01 -0.11970723941E+01 -0.74643948168E+02  0.74665578712E+02  0.10566000000E+00 0.  1.
         14    1    4    4    0    0  0.35866574113E+01 -0.49932793031E+01 -0.31775570484E+03  0.31781517413E+03  0.00000000000E+00 0. -1.
<mgrwt>
<rscale>  0 0.77586605E+02</rscale>
<asrwt>0</asrwt>
<pdfrwt beam="1">  1        2 0.15524585E+00 0.77586605E+02</pdfrwt>
<pdfrwt beam="2">  1       -1 0.22943876E-03 0.77586605E+02</pdfrwt>
<totfact> 0.38155925E+05</totfact>
</mgrwt>
</event>
<event>
 8    1  0.2603554E-016  0.7562755E+02  0.7818608E-02  0.1341939E+00
          2   -1    0    0  501    0  0.00000000000E+00  0.00000000000E+00  0.44620658772E+03  0.44620658773E+03  0.25500000000E-02 0. -1.
         -1   -1    0    0    0  501 -0.00000000000E+00 -0.00000000000E+00 -0.32045258270E+01  0.32045297904E+01  0.50400000000E-02 0.  1.
         24    2    1    2    0    0  0.00000000000E+00 -0.71054273576E-14  0.44300206190E+03  0.44941111752E+03  0.75627545954E+02 0.  0.
         66    2    3    3    0    0  0.11726494334E+02 -0.35832187424E+02  0.23671251149E+03  0.23970454611E+03  0.20000004159E+01 0.  0.
        -13    1    3    3    0    0 -0.11726494334E+02  0.35832187424E+02  0.20628955040E+03  0.20970657141E+03  0.10566000000E+00 0.  1.
         13    1    4    4    0    0  0.23968965414E+01 -0.71914920423E+01  0.47833485470E+02  0.48430529288E+02  0.10566000000E+00 0. -1.
        -13    1    4    4    0    0  0.53655912423E+01 -0.15816193716E+02  0.11009200412E+03  0.11135170447E+03  0.10566000000E+00 0.  1.
        -14    1    4    4    0    0  0.39640065502E+01 -0.12824501665E+02  0.78787021901E+02  0.79922312347E+02  0.00000000000E+00 0.  1.
<mgrwt>
<rscale>  0 0.75627546E+02</rscale>
<asrwt>0</asrwt>
<pdfrwt beam="1">  1        2 0.68647112E-01 0.75627546E+02</pdfrwt>
<pdfrwt beam="2">  1       -1 0.49300468E-03 0.75627546E+02</pdfrwt>
<totfact> 0.33954425E+05</totfact>
</mgrwt>
</event>
<event>
 8    1  0.2603554E-016  0.8415549E+02  0.7818608E-02  0.1317656E+00
         -1   -1    0    0    0  501 -0.00000000000E+00  0.00000000000E+00  0.60093360414E+02  0.60093360625E+02  0.50400000000E-02 0.  1.
          2   -1    0    0  501    0  0.00000000000E+00 -0.00000000000E+00 -0.29463098856E+02  0.29463098966E+02  0.25500000000E-02 0. -1.
         24    2    1    2    0    0 -0.35527136788E-14  0.00000000000E+00  0.30630261558E+02  0.89556459591E+02  0.84155490203E+02 0.  0.
         66    2    3    3    0    0  0.25593697077E+02  0.10007320451E+02 -0.18552368751E+02  0.33217076555E+02  0.19999989868E+01 0.  0.
        -13    1    3    3    0    0 -0.25593697077E+02 -0.10007320451E+02  0.49182630310E+02  0.56339383036E+02  0.10566000000E+00 0.  1.
         13    1    4    4    0    0  0.90582017216E+01  0.35853487906E+01 -0.56094670568E+01  0.11242020685E+02  0.10566000000E+00 0. -1.
        -13    1    4    4    0    0  0.11025513509E+02  0.43021956828E+01 -0.81421523232E+01  0.14365815129E+02  0.10566000000E+00 0. -1.
         14    1    4    4    0    0  0.55099818457E+01  0.21197759773E+01 -0.48007493716E+01  0.76092407415E+01  0.00000000000E+00 0. -1.
<mgrwt>
<rscale>  0 0.84155490E+02</rscale>
<asrwt>0</asrwt>
<pdfrwt beam="1">  1        2 0.45327845E-02 0.84155490E+02</pdfrwt>
<pdfrwt beam="2">  1       -1 0.92451324E-02 0.84155490E+02</pdfrwt>
<totfact> 0.11624336E+05</totfact>
</mgrwt>
</event>
<event>
 8    1  0.2603554E-016  0.7824079E+02  0.7818608E-02  0.1334119E+00
         -1   -1    0    0    0  501 -0.00000000000E+00  0.00000000000E+00  0.15313530794E+01  0.15313613732E+01  0.50400000000E-02 0.  1.
          2   -1    0    0  501    0  0.00000000000E+00 -0.00000000000E+00 -0.99937828709E+03  0.99937828709E+03  0.25500000000E-02 0. -1.
         24    2    1    2    0    0  0.00000000000E+00  0.00000000000E+00 -0.99784693401E+03  0.10009096485E+04  0.78240786543E+02 0.  0.
         66    2    3    3    0    0 -0.11162291368E+02  0.18078010641E+02 -0.91907260670E+03  0.91932032916E+03  0.20000017408E+01 0.  0.
        -13    1    3    3    0    0  0.11162291368E+02 -0.18078010641E+02 -0.78774327315E+02  0.81589319308E+02  0.10566000000E+00 0.  1.
         13    1    4    4    0    0 -0.58669238704E+01  0.82291170662E+01 -0.42669635045E+03  0.42681603275E+03  0.10566000000E+00 0. -1.
        -13    1    4    4    0    0 -0.33609273799E+01  0.57898723780E+01 -0.27446285321E+03  0.27454450898E+03  0.10566000000E+00 0.  1.
        -14    1    4    4    0    0 -0.19344401174E+01  0.40590211966E+01 -0.21791340304E+03  0.21795978743E+03  0.00000000000E+00 0.  1.
<mgrwt>
<rscale>  0 0.78240787E+02</rscale>
<asrwt>0</asrwt>
<pdfrwt beam="1">  1        2 0.15374998E+00 0.78240787E+02</pdfrwt>
<pdfrwt beam="2">  1       -1 0.23559422E-03 0.78240787E+02</pdfrwt>
<totfact> 0.37321394E+05</totfact>
</mgrwt>
</event>
<event>
 8    1  0.2603554E-016  0.8085684E+02  0.7818608E-02  0.1326637E+00
          2   -1    0    0  501    0  0.00000000000E+00  0.00000000000E+00  0.57615586020E+03  0.57615586021E+03  0.25500000000E-02 0. -1.
         -1   -1    0    0    0  501 -0.00000000000E+00 -0.00000000000E+00 -0.28368293380E+01  0.28368338151E+01  0.50400000000E-02 0.  1.
         24    2    1    2    0    0  0.00000000000E+00  0.88817841970E-15  0.57331903086E+03  0.57899269402E+03  0.80856840037E+02 0.  0.
         66    2    3    3    0    0 -0.31755237319E+02 -0.79945900852E+01  0.45630955422E+03  0.45748739638E+03  0.20000005082E+01 0.  0.
        -13    1    3    3    0    0  0.31755237319E+02  0.79945900852E+01  0.11700947664E+03  0.12150529765E+03  0.10566000000E+00 0.  1.
         13    1    4    4    0    0 -0.61124231290E+01 -0.13930218665E+01  0.89817369375E+02  0.90035955218E+02  0.10566000000E+00 0. -1.
        -13    1    4    4    0    0 -0.97544347643E+01 -0.31912789299E+01  0.13502698123E+03  0.13541650595E+03  0.10566000000E+00 0.  1.
        -14    1    4    4    0    0 -0.15888379426E+02 -0.34102892888E+01  0.23146520361E+03  0.23203493521E+03  0.00000000000E+00 0.  1.
<mgrwt>
<rscale>  0 0.80856840E+02</rscale>
<asrwt>0</asrwt>
<pdfrwt beam="1">  1        2 0.88639231E-01 0.80856840E+02</pdfrwt>
<pdfrwt beam="2">  1       -1 0.43643628E-03 0.80856840E+02</pdfrwt>
<totfact> 0.30925486E+05</totfact>
</mgrwt>
</event>
<event>
 8    1  0.2603554E-016  0.7833158E+02  0.7818608E-02  0.1333854E+00
          2   -1    0    0  501    0  0.00000000000E+00  0.00000000000E+00  0.93691597959E+03  0.93691597959E+03  0.25500000000E-02 0. -1.
         -1   -1    0    0    0  501 -0.00000000000E+00 -0.00000000000E+00 -0.16372390117E+01  0.16372467691E+01  0.50400000000E-02 0.  1.
         24    2    1    2    0    0  0.44408920985E-15  0.00000000000E+00  0.93527874058E+03  0.93855322636E+03  0.78331578165E+02 0.  0.
         66    2    3    3    0    0  0.38674685976E+01 -0.22117365773E+02  0.85207524152E+03  0.85237336444E+03  0.20000016035E+01 0.  0.
        -13    1    3    3    0    0 -0.38674685976E+01  0.22117365773E+02  0.83203499052E+02  0.86179861920E+02  0.10566000000E+00 0.  1.
         13    1    4    4    0    0  0.18453298362E+01 -0.86248617341E+01  0.31091510572E+03  0.31104020256E+03  0.10566000000E+00 0. -1.
        -13    1    4    4    0    0 -0.11322442096E+00 -0.90941319889E+00  0.35672479024E+02  0.35684405220E+02  0.10566000000E+00 0.  1.
        -14    1    4    4    0    0  0.21353631824E+01 -0.12583090840E+02  0.50548765678E+03  0.50564875666E+03  0.00000000000E+00 0.  1.
<mgrwt>
<rscale>  0 0.78331578E+02</rscale>
<asrwt>0</asrwt>
<pdfrwt beam="1">  1        2 0.14414132E+00 0.78331578E+02</pdfrwt>
<pdfrwt beam="2">  1       -1 0.25188282E-03 0.78331578E+02</pdfrwt>
<totfact> 0.37055550E+05</totfact>
</mgrwt>
</event>
<event>
 8    1  0.2603554E-016  0.8036359E+02  0.7818608E-02  0.1328023E+00
          2   -1    0    0  501    0  0.00000000000E+00  0.00000000000E+00  0.40582246965E+02  0.40582247046E+02  0.25500000000E-02 0. -1.
         -1   -1    0    0    0  501 -0.00000000000E+00 -0.00000000000E+00 -0.39785298957E+02  0.39785299276E+02  0.50400000000E-02 0.  1.
         24    2    1    2    0    0 -0.71054273576E-14 -0.35527136788E-14  0.79694800849E+00  0.80367546322E+02  0.80363594840E+02 0.  0.
         66    2    3    3    0    0 -0.33616855520E+02 -0.20333516764E+02  0.87073774928E+01  0.40290982875E+02  0.19999998091E+01 0.  0.
        -13    1    3    3    0    0  0.33616855520E+02  0.20333516764E+02 -0.79104294843E+01  0.40076563446E+02  0.10566000000E+00 0.  1.
         13    1    4    4    0    0 -0.36643016259E+01 -0.17487944501E+01  0.65626693746E+00  0.41142725679E+01  0.10566000000E+00 0.  1.
        -13    1    4    4    0    0 -0.40744527726E+01 -0.26396813559E+01  0.71968224266E+00  0.49089906929E+01  0.10566000000E+00 0.  1.
         14    1    4    4    0    0 -0.25878101121E+02 -0.15945040958E+02  0.73314283127E+01  0.31267719615E+02  0.00000000000E+00 0. -1.
<mgrwt>
<rscale>  0 0.80363595E+02</rscale>
<asrwt>0</asrwt>
<pdfrwt beam="1">  1        2 0.62434226E-02 0.80363595E+02</pdfrwt>
<pdfrwt beam="2">  1       -1 0.61208153E-02 0.80363595E+02</pdfrwt>
<totfact> 0.14119654E+05</totfact>
</mgrwt>
</event>
<event>
 8    1  0.2603554E-016  0.7910723E+02  0.7818608E-02  0.1331604E+00
         -1   -1    0    0    0  501 -0.00000000000E+00  0.00000000000E+00  0.22871048561E+03  0.22871048567E+03  0.50400000000E-02 0.  1.
          2   -1    0    0  501    0  0.00000000000E+00 -0.00000000000E+00 -0.68404760062E+01  0.68404764815E+01  0.25500000000E-02 0. -1.
         24    2    1    2    0    0  0.00000000000E+00  0.71054273576E-14  0.22187000961E+03  0.23555096215E+03  0.79107234858E+02 0.  0.
         66    2    3    3    0    0 -0.25312000006E+02 -0.23982956316E+02  0.55570521933E+02  0.65635070302E+02  0.20000019204E+01 0.  0.
        -13    1    3    3    0    0  0.25312000006E+02  0.23982956316E+02  0.16629948767E+03  0.16991589185E+03  0.10566000000E+00 0.  1.
         13    1    4    4    0    0 -0.11103655440E+02 -0.10472507433E+02  0.23055088732E+02  0.27649825615E+02  0.10566000000E+00 0.  1.
        -13    1    4    4    0    0 -0.60393201655E+01 -0.50288877831E+01  0.12758936160E+02  0.14985483521E+02  0.10566000000E+00 0. -1.
        -14    1    4    4    0    0 -0.81690244007E+01 -0.84815610994E+01  0.19756497041E+02  0.22999761166E+02  0.00000000000E+00 0.  1.
<mgrwt>
<rscale>  0 0.79107235E+02</rscale>
<asrwt>0</asrwt>
<pdfrwt beam="1">  1        2 0.10523809E-02 0.79107235E+02</pdfrwt>
<pdfrwt beam="2">  1       -1 0.35186230E-01 0.79107235E+02</pdfrwt>
<totfact> 0.98238621E+04</totfact>
</mgrwt>
</event>
<event>
 8    1  0.2603554E-016  0.8050582E+02  0.7818608E-02  0.1327622E+00
         -1   -1    0    0    0  501 -0.00000000000E+00  0.00000000000E+00  0.51750957551E+02  0.51750957797E+02  0.50400000000E-02 0.  1.
          2   -1    0    0  501    0  0.00000000000E+00 -0.00000000000E+00 -0.31309499314E+02  0.31309499418E+02  0.25500000000E-02 0. -1.
         24    2    1    2    0    0  0.35527136788E-14  0.35527136788E-14  0.20441458238E+02  0.83060457214E+02  0.80505815552E+02 0.  0.
         66    2    3    3    0    0 -0.29374682320E+02 -0.26333927164E+02  0.21068245466E+01  0.39557381025E+02  0.20000006404E+01 0.  0.
        -13    1    3    3    0    0  0.29374682320E+02  0.26333927164E+02  0.18334633691E+02  0.43503076189E+02  0.10566000000E+00 0.  1.
         13    1    4    4    0    0 -0.13188352764E+01 -0.12049456317E+01  0.44157273246E+00  0.18431958592E+01  0.10566000000E+00 0. -1.
        -13    1    4    4    0    0 -0.10554333592E+02 -0.88812950846E+01  0.40645490654E+00  0.13800280055E+02  0.10566000000E+00 0.  1.
         14    1    4    4    0    0 -0.17501513452E+02 -0.16247686448E+02  0.12587969076E+01  0.23913905111E+02  0.00000000000E+00 0. -1.
<mgrwt>
<rscale>  0 0.80505816E+02</rscale>
<asrwt>0</asrwt>
<pdfrwt beam="1">  1        2 0.48168460E-02 0.80505816E+02</pdfrwt>
<pdfrwt beam="2">  1       -1 0.79616859E-02 0.80505816E+02</pdfrwt>
<totfact> 0.13332140E+05</totfact>
</mgrwt>
</event>
<event>
 8    1  0.2603554E-016  0.7810629E+02  0.7818608E-02  0.1334513E+00
         -1   -1    0    0    0  501 -0.00000000000E+00  0.00000000000E+00  0.19683542837E+01  0.19683607362E+01  0.50400000000E-02 0.  1.
          2   -1    0    0  501    0  0.00000000000E+00 -0.00000000000E+00 -0.77483288064E+03  0.77483288065E+03  0.25500000000E-02 0. -1.
         24    2    1    2    0    0  0.00000000000E+00 -0.17763568394E-14 -0.77286452636E+03  0.77680124138E+03  0.78106289825E+02 0.  0.
         66    2    3    3    0    0 -0.82461396992E+01 -0.95777362258E+01 -0.75391425453E+03  0.75402283455E+03  0.19999996762E+01 0.  0.
        -13    1    3    3    0    0  0.82461396992E+01  0.95777362258E+01 -0.18950271834E+02  0.22778406831E+02  0.10566000000E+00 0.  1.
         13    1    4    4    0    0 -0.12027143440E+01 -0.16069540990E+01 -0.10285114338E+03  0.10287078148E+03  0.10566000000E+00 0.  1.
        -13    1    4    4    0    0 -0.13541614287E+01 -0.20235699685E+01 -0.18814800938E+03  0.18816379351E+03  0.10566000000E+00 0. -1.
         14    1    4    4    0    0 -0.56892639265E+01 -0.59472121583E+01 -0.46291510176E+03  0.46298825957E+03  0.00000000000E+00 0. -1.
<mgrwt>
<rscale>  0 0.78106290E+02</rscale>
<asrwt>0</asrwt>
<pdfrwt beam="1">  1        2 0.11920482E+00 0.78106290E+02</pdfrwt>
<pdfrwt beam="2">  1       -1 0.30282485E-03 0.78106290E+02</pdfrwt>
<totfact> 0.36360024E+05</totfact>
</mgrwt>
</event>
<event>
 8    1  0.2603554E-016  0.8031685E+02  0.7818608E-02  0.1328155E+00
          2   -1    0    0  501    0  0.00000000000E+00  0.00000000000E+00  0.66106630385E+02  0.66106630434E+02  0.25500000000E-02 0. -1.
         -1   -1    0    0    0  501 -0.00000000000E+00 -0.00000000000E+00 -0.24395422201E+02  0.24395422721E+02  0.50400000000E-02 0.  1.
         24    2    1    2    0    0 -0.35527136788E-14 -0.35527136788E-14  0.41711208184E+02  0.90502053156E+02  0.80316852137E+02 0.  0.
         66    2    3    3    0    0  0.29823734443E+02  0.26700090482E+02  0.17613541022E+02  0.43778839497E+02  0.19999981255E+01 0.  0.
        -13    1    3    3    0    0 -0.29823734443E+02 -0.26700090482E+02  0.24097667162E+02  0.46723213658E+02  0.10566000000E+00 0.  1.
         13    1    4    4    0    0  0.18760640875E+02  0.17706303071E+02  0.11891536152E+02  0.28405890420E+02  0.10566000000E+00 0. -1.
        -13    1    4    4    0    0  0.65837895901E+01  0.51772994368E+01  0.31167594144E+01  0.89373412215E+01  0.10566000000E+00 0.  1.
        -14    1    4    4    0    0  0.44793039777E+01  0.38164879747E+01  0.26052454556E+01  0.64356078554E+01  0.00000000000E+00 0.  1.
<mgrwt>
<rscale>  0 0.80316852E+02</rscale>
<asrwt>0</asrwt>
<pdfrwt beam="1">  1        2 0.10170251E-01 0.80316852E+02</pdfrwt>
<pdfrwt beam="2">  1       -1 0.37531420E-02 0.80316852E+02</pdfrwt>
<totfact> 0.15754931E+05</totfact>
</mgrwt>
</event>
<event>
 8    1  0.2603554E-016  0.8132772E+02  0.7818608E-02  0.1325325E+00
          2   -1    0    0  501    0  0.00000000000E+00  0.00000000000E+00  0.83752921252E+03  0.83752921253E+03  0.25500000000E-02 0. -1.
         -1   -1    0    0    0  501 -0.00000000000E+00 -0.00000000000E+00 -0.19743154649E+01  0.19743218979E+01  0.50400000000E-02 0.  1.
         24    2    1    2    0    0  0.00000000000E+00  0.00000000000E+00  0.83555489706E+03  0.83950353443E+03  0.81327721682E+02 0.  0.
         66    2    3    3    0    0 -0.31745482597E+02  0.43824874983E+01  0.67600103380E+03  0.67676316357E+03  0.20000005257E+01 0.  0.
        -13    1    3    3    0    0  0.31745482597E+02 -0.43824874983E+01  0.15955386326E+03  0.16274037086E+03  0.10566000000E+00 0.  1.
         13    1    4    4    0    0 -0.63699545209E+01  0.11474911523E+01  0.14283449323E+03  0.14298110601E+03  0.10566000000E+00 0. -1.
        -13    1    4    4    0    0 -0.86650718939E+00 -0.86890014111E-01  0.22053830882E+02  0.22071271037E+02  0.10566000000E+00 0.  1.
         14    1    4    4    0    0 -0.24509020887E+02  0.33218863601E+01  0.51111270969E+03  0.51171078651E+03  0.00000000000E+00 0. -1.
<mgrwt>
<rscale>  0 0.81327722E+02</rscale>
<asrwt>0</asrwt>
<pdfrwt beam="1">  1        2 0.12885087E+00 0.81327722E+02</pdfrwt>
<pdfrwt beam="2">  1       -1 0.30374080E-03 0.81327722E+02</pdfrwt>
<totfact> 0.33170563E+05</totfact>
</mgrwt>
</event>
<event>
 8    1  0.2603554E-016  0.7885430E+02  0.7818608E-02  0.1332335E+00
          2   -1    0    0  501    0  0.00000000000E+00  0.00000000000E+00  0.39438065807E+03  0.39438065808E+03  0.25500000000E-02 0. -1.
         -1   -1    0    0    0  501 -0.00000000000E+00 -0.00000000000E+00 -0.39416225267E+01  0.39416257490E+01  0.50400000000E-02 0.  1.
         24    2    1    2    0    0  0.00000000000E+00  0.00000000000E+00  0.39043903555E+03  0.39832228383E+03  0.78854304368E+02 0.  0.
         66    2    3    3    0    0  0.15851438637E+02  0.52903084689E+01  0.37559020521E+03  0.37596709658E+03  0.19999980382E+01 0.  0.
        -13    1    3    3    0    0 -0.15851438637E+02 -0.52903084689E+01  0.14848830340E+02  0.22355187251E+02  0.10566000000E+00 0.  1.
         13    1    4    4    0    0  0.57171871470E+01  0.24476021159E+01  0.14822470918E+03  0.14835515684E+03  0.10566000000E+00 0. -1.
        -13    1    4    4    0    0  0.91847414121E+01  0.28441814673E+01  0.21089871699E+03  0.21111780796E+03  0.10566000000E+00 0.  1.
        -14    1    4    4    0    0  0.94951007775E+00 -0.14751143280E-02  0.16466779028E+02  0.16494131778E+02  0.00000000000E+00 0.  1.
<mgrwt>
<rscale>  0 0.78854304E+02</rscale>
<asrwt>0</asrwt>
<pdfrwt beam="1">  1        2 0.60673914E-01 0.78854304E+02</pdfrwt>
<pdfrwt beam="2">  1       -1 0.60640405E-03 0.78854304E+02</pdfrwt>
<totfact> 0.29192921E+05</totfact>
</mgrwt>
</event>
<event>
 8    1  0.2603554E-016  0.8043557E+02  0.7818608E-02  0.1327820E+00
          2   -1    0    0  501    0  0.00000000000E+00  0.00000000000E+00  0.42949196826E+03  0.42949196827E+03  0.25500000000E-02 0. -1.
         -1   -1    0    0    0  501 -0.00000000000E+00 -0.00000000000E+00 -0.37660063597E+01  0.37660097322E+01  0.50400000000E-02 0.  1.
         24    2    1    2    0    0  0.17763568394E-14 -0.71054273576E-14  0.42572596190E+03  0.43325797800E+03  0.80435569647E+02 0.  0.
         66    2    3    3    0    0 -0.72844949993E+01  0.38677284203E+02  0.25690874443E+03  0.25991363786E+03  0.19999998302E+01 0.  0.
        -13    1    3    3    0    0  0.72844949993E+01 -0.38677284203E+02  0.16881721747E+03  0.17334434014E+03  0.10566000000E+00 0.  1.
         13    1    4    4    0    0 -0.48319177453E+01  0.26417737566E+02  0.16987023118E+03  0.17198008865E+03  0.10566000000E+00 0. -1.
        -13    1    4    4    0    0 -0.16406622104E+00  0.66035027857E+00  0.43788809945E+01  0.44326902683E+01  0.10566000000E+00 0. -1.
         14    1    4    4    0    0 -0.22885110330E+01  0.11599196359E+02  0.82659632258E+02  0.83500858941E+02  0.00000000000E+00 0. -1.
<mgrwt>
<rscale>  0 0.80435570E+02</rscale>
<asrwt>0</asrwt>
<pdfrwt beam="1">  1        2 0.66075659E-01 0.80435570E+02</pdfrwt>
<pdfrwt beam="2">  1       -1 0.57938611E-03 0.80435570E+02</pdfrwt>
<totfact> 0.28549659E+05</totfact>
</mgrwt>
</event>
<event>
 8    1  0.2603554E-016  0.7991850E+02  0.7818608E-02  0.1329283E+00
         -1   -1    0    0    0  501 -0.00000000000E+00  0.00000000000E+00  0.16217429402E+02  0.16217430185E+02  0.50400000000E-02 0.  1.
          2   -1    0    0  501    0  0.00000000000E+00 -0.00000000000E+00 -0.98458367487E+02  0.98458367520E+02  0.25500000000E-02 0. -1.
         24    2    1    2    0    0  0.00000000000E+00  0.17763568394E-14 -0.82240938086E+02  0.11467579771E+03  0.79918500249E+02 0.  0.
         66    2    3    3    0    0  0.37770442403E+02 -0.10749611476E+02 -0.30741698938E+02  0.49912048099E+02  0.20000064222E+01 0.  0.
        -13    1    3    3    0    0 -0.37770442403E+02  0.10749611476E+02 -0.51499239148E+02  0.64763749606E+02  0.10566000000E+00 0.  1.
         13    1    4    4    0    0  0.30137657847E+01 -0.78294284691E+00 -0.29189723012E+01  0.42693497207E+01  0.10566000000E+00 0.  1.
        -13    1    4    4    0    0  0.22462922455E+02 -0.61941373411E+01 -0.17177522538E+02  0.28948724794E+02  0.10566000000E+00 0.  1.
         14    1    4    4    0    0  0.12293754164E+02 -0.37725312876E+01 -0.10645204099E+02  0.16693973585E+02  0.00000000000E+00 0. -1.
<mgrwt>
<rscale>  0 0.79918500E+02</rscale>
<asrwt>0</asrwt>
<pdfrwt beam="1">  1        2 0.15147441E-01 0.79918500E+02</pdfrwt>
<pdfrwt beam="2">  1       -1 0.24949893E-02 0.79918500E+02</pdfrwt>
<totfact> 0.17697432E+05</totfact>
</mgrwt>
</event>
<event>
 8    1  0.2603554E-016  0.8318354E+02  0.7818608E-02  0.1320252E+00
          2   -1    0    0  501    0  0.00000000000E+00  0.00000000000E+00  0.74198293010E+03  0.74198293010E+03  0.25500000000E-02 0. -1.
         -1   -1    0    0    0  501 -0.00000000000E+00 -0.00000000000E+00 -0.23314191382E+01  0.23314245859E+01  0.50400000000E-02 0.  1.
         24    2    1    2    0    0  0.22204460493E-15  0.35527136788E-14  0.73965151096E+03  0.74431435469E+03  0.83183537613E+02 0.  0.
         66    2    3    3    0    0  0.14043261394E+01  0.25561411345E+02  0.66307439342E+03  0.66357140467E+03  0.20000033804E+01 0.  0.
        -13    1    3    3    0    0 -0.14043261394E+01 -0.25561411345E+02  0.76577117542E+02  0.80742950013E+02  0.10566000000E+00 0.  1.
         13    1    4    4    0    0  0.60224838980E+00  0.13916591033E+02  0.34488194437E+03  0.34516315117E+03  0.10566000000E+00 0. -1.
        -13    1    4    4    0    0 -0.18765816098E+00  0.26327738047E+01  0.65676104497E+02  0.65729206442E+02  0.10566000000E+00 0.  1.
         14    1    4    4    0    0  0.98973591058E+00  0.90120465072E+01  0.25251634455E+03  0.25267904706E+03  0.00000000000E+00 0. -1.
<mgrwt>
<rscale>  0 0.83183538E+02</rscale>
<asrwt>0</asrwt>
<pdfrwt beam="1">  1        2 0.11415138E+00 0.83183538E+02</pdfrwt>
<pdfrwt beam="2">  1       -1 0.35867978E-03 0.83183538E+02</pdfrwt>
<totfact> 0.30605349E+05</totfact>
</mgrwt>
</event>
<event>
 8    1  0.2603554E-016  0.7694060E+02  0.7818608E-02  0.1337965E+00
         -1   -1    0    0    0  501 -0.00000000000E+00  0.00000000000E+00  0.32822463341E+01  0.32822502036E+01  0.50400000000E-02 0.  1.
          2   -1    0    0  501    0  0.00000000000E+00 -0.00000000000E+00 -0.45089943626E+03  0.45089943626E+03  0.25500000000E-02 0. -1.
         24    2    1    2    0    0  0.00000000000E+00 -0.71054273576E-14 -0.44761718992E+03  0.45418168647E+03  0.76940597920E+02 0.  0.
         66    2    3    3    0    0  0.63825743992E+01  0.32894272008E+02 -0.33521030906E+03  0.33688680842E+03  0.20000000877E+01 0.  0.
        -13    1    3    3    0    0 -0.63825743992E+01 -0.32894272008E+02 -0.11240688086E+03  0.11729487805E+03  0.10566000000E+00 0.  1.
         13    1    4    4    0    0  0.19226775415E+01  0.10066191704E+02 -0.10336170083E+03  0.10386855764E+03  0.10566000000E+00 0. -1.
        -13    1    4    4    0    0  0.45640881019E+00  0.19053278712E+01 -0.24404990128E+02  0.24483735223E+02  0.10566000000E+00 0.  1.
        -14    1    4    4    0    0  0.40034880475E+01  0.20922752433E+02 -0.20744361811E+03  0.20853451556E+03  0.00000000000E+00 0.  1.
<mgrwt>
<rscale>  0 0.76940598E+02</rscale>
<asrwt>0</asrwt>
<pdfrwt beam="1">  1        2 0.69369095E-01 0.76940598E+02</pdfrwt>
<pdfrwt beam="2">  1       -1 0.50496163E-03 0.76940598E+02</pdfrwt>
<totfact> 0.32584109E+05</totfact>
</mgrwt>
</event>
<event>
 8    1  0.2603554E-016  0.7947060E+02  0.7818608E-02  0.1330561E+00
         -1   -1    0    0    0  501 -0.00000000000E+00  0.00000000000E+00  0.14847478091E+01  0.14847563633E+01  0.50400000000E-02 0.  1.
          2   -1    0    0  501    0  0.00000000000E+00 -0.00000000000E+00 -0.10634057892E+04  0.10634057892E+04  0.25500000000E-02 0. -1.
         24    2    1    2    0    0  0.00000000000E+00 -0.17763568394E-14 -0.10619210414E+04  0.10648905456E+04  0.79470597634E+02 0.  0.
         66    2    3    3    0    0  0.48784225234E+01  0.94920278792E+01 -0.10438259756E+04  0.10438824479E+04  0.20000005627E+01 0.  0.
        -13    1    3    3    0    0 -0.48784225234E+01 -0.94920278792E+01 -0.18095065812E+02  0.21008097733E+02  0.10566000000E+00 0.  1.
         13    1    4    4    0    0  0.76329809815E+00  0.10192972878E+01 -0.10836890335E+03  0.10837643641E+03  0.10566000000E+00 0. -1.
        -13    1    4    4    0    0  0.11201397935E+01  0.14026600650E+01 -0.13190921312E+03  0.13192146845E+03  0.10566000000E+00 0.  1.
         14    1    4    4    0    0  0.29949846317E+01  0.70700705264E+01 -0.80354785916E+03  0.80358454303E+03  0.00000000000E+00 0. -1.
<mgrwt>
<rscale>  0 0.79470598E+02</rscale>
<asrwt>0</asrwt>
<pdfrwt beam="1">  1        2 0.16360028E+00 0.79470598E+02</pdfrwt>
<pdfrwt beam="2">  1       -1 0.22842425E-03 0.79470598E+02</pdfrwt>
<totfact> 0.35886104E+05</totfact>
</mgrwt>
</event>
<event>
 8    1  0.2603554E-016  0.7998907E+02  0.7818608E-02  0.1329082E+00
          2   -1    0    0  501    0  0.00000000000E+00  0.00000000000E+00  0.26531209233E+03  0.26531209234E+03  0.25500000000E-02 0. -1.
         -1   -1    0    0    0  501 -0.00000000000E+00 -0.00000000000E+00 -0.60289852382E+01  0.60289873448E+01  0.50400000000E-02 0.  1.
         24    2    1    2    0    0 -0.17763568394E-14 -0.35527136788E-14  0.25928310709E+03  0.27134107968E+03  0.79989073644E+02 0.  0.
         66    2    3    3    0    0 -0.12162189276E+02 -0.18640451253E+02  0.24234086936E+03  0.24336902481E+03  0.20000002518E+01 0.  0.
        -13    1    3    3    0    0  0.12162189276E+02  0.18640451253E+02  0.16942237727E+02  0.27972054879E+02  0.10566000000E+00 0.  1.
         13    1    4    4    0    0 -0.41443935634E+01 -0.51360985265E+01  0.66752639704E+02  0.67078175121E+02  0.10566000000E+00 0. -1.
        -13    1    4    4    0    0 -0.35605010386E+01 -0.62935299996E+01  0.77022399973E+02  0.77361146250E+02  0.10566000000E+00 0.  1.
         14    1    4    4    0    0 -0.44572946740E+01 -0.72108227264E+01  0.98565829686E+02  0.98929703435E+02  0.00000000000E+00 0. -1.
<mgrwt>
<rscale>  0 0.79989074E+02</rscale>
<asrwt>0</asrwt>
<pdfrwt beam="1">  1        2 0.40817231E-01 0.79989074E+02</pdfrwt>
<pdfrwt beam="2">  1       -1 0.92753667E-03 0.79989074E+02</pdfrwt>
<totfact> 0.24393598E+05</totfact>
</mgrwt>
</event>
<event>
 8    1  0.2603554E-016  0.7873902E+02  0.7818608E-02  0.1332668E+00
         -1   -1    0    0    0  501 -0.00000000000E+00  0.00000000000E+00  0.20183761684E+03  0.20183761691E+03  0.50400000000E-02 0.  1.
          2   -1    0    0  501    0  0.00000000000E+00 -0.00000000000E+00 -0.76792346689E+01  0.76792350923E+01  0.25500000000E-02 0. -1.
         24    2    1    2    0    0 -0.35527136788E-14  0.00000000000E+00  0.19415838218E+03  0.20951685200E+03  0.78739024015E+02 0.  0.
         66    2    3    3    0    0  0.26052318079E+02  0.23542743283E+02  0.49917604676E+02  0.61063502100E+02  0.19999984004E+01 0.  0.
        -13    1    3    3    0    0 -0.26052318079E+02 -0.23542743283E+02  0.14424077750E+03  0.14845334990E+03  0.10566000000E+00 0.  1.
         13    1    4    4    0    0  0.14762562935E+02  0.13204916804E+02  0.28891710115E+02  0.35029204524E+02  0.10566000000E+00 0. -1.
        -13    1    4    4    0    0  0.29290000102E+01  0.32901405974E+01  0.64961702149E+01  0.78495514334E+01  0.10566000000E+00 0.  1.
        -14    1    4    4    0    0  0.83607551341E+01  0.70476858816E+01  0.14529724346E+02  0.18184746142E+02  0.00000000000E+00 0.  1.
<mgrwt>
<rscale>  0 0.78739024E+02</rscale>
<asrwt>0</asrwt>
<pdfrwt beam="1">  1        2 0.11814207E-02 0.78739024E+02</pdfrwt>
<pdfrwt beam="2">  1       -1 0.31051943E-01 0.78739024E+02</pdfrwt>
<totfact> 0.10342652E+05</totfact>
</mgrwt>
</event>
<event>
 8    1  0.2603554E-016  0.8063211E+02  0.7818608E-02  0.1327267E+00
          2   -1    0    0  501    0  0.00000000000E+00  0.00000000000E+00  0.45316753725E+02  0.45316753797E+02  0.25500000000E-02 0. -1.
         -1   -1    0    0    0  501 -0.00000000000E+00 -0.00000000000E+00 -0.35867184116E+02  0.35867184471E+02  0.50400000000E-02 0.  1.
         24    2    1    2    0    0 -0.22204460493E-15  0.17763568394E-14  0.94495696089E+01  0.81183938268E+02  0.80632111884E+02 0.  0.
         66    2    3    3    0    0 -0.10005936646E+01 -0.10265505410E+02  0.43942892055E+02  0.45181407156E+02  0.20000003672E+01 0.  0.
        -13    1    3    3    0    0  0.10005936646E+01  0.10265505410E+02 -0.34493322446E+02  0.36002531111E+02  0.10566000000E+00 0.  1.
         13    1    4    4    0    0 -0.50639335651E+00 -0.33567179801E+01  0.17534604087E+02  0.17860500955E+02  0.10566000000E+00 0. -1.
        -13    1    4    4    0    0 -0.49665047393E+00 -0.15325316343E+01  0.54559866762E+01  0.56898391497E+01  0.10566000000E+00 0.  1.
         14    1    4    4    0    0  0.24501658320E-02 -0.53762557956E+01  0.20952301291E+02  0.21631067051E+02  0.00000000000E+00 0. -1.
<mgrwt>
<rscale>  0 0.80632112E+02</rscale>
<asrwt>0</asrwt>
<pdfrwt beam="1">  1        2 0.69718082E-02 0.80632112E+02</pdfrwt>
<pdfrwt beam="2">  1       -1 0.55180284E-02 0.80632112E+02</pdfrwt>
<totfact> 0.14317496E+05</totfact>
</mgrwt>
</event>
<event>
 8    1  0.2603554E-016  0.7989266E+02  0.7818608E-02  0.1329356E+00
          2   -1    0    0  501    0  0.00000000000E+00  0.00000000000E+00  0.20743911105E+03  0.20743911107E+03  0.25500000000E-02 0. -1.
         -1   -1    0    0    0  501 -0.00000000000E+00 -0.00000000000E+00 -0.76924217983E+01  0.76924234494E+01  0.50400000000E-02 0.  1.
         24    2    1    2    0    0  0.35527136788E-14  0.00000000000E+00  0.19974668926E+03  0.21513153452E+03  0.79892660964E+02 0.  0.
         66    2    3    3    0    0  0.21972441899E+02 -0.81808771080E+01  0.18694096360E+03  0.18841613209E+03  0.20000017478E+01 0.  0.
        -13    1    3    3    0    0 -0.21972441899E+02  0.81808771080E+01  0.12805725654E+02  0.26715402426E+02  0.10566000000E+00 0.  1.
         13    1    4    4    0    0  0.12354572080E+02 -0.52449830078E+01  0.10781602070E+03  0.10864828937E+03  0.10566000000E+00 0. -1.
        -13    1    4    4    0    0  0.86380872477E+01 -0.24964654353E+01  0.68201873830E+02  0.68792119090E+02  0.10566000000E+00 0.  1.
        -14    1    4    4    0    0  0.97978257071E+00 -0.43942866496E+00  0.10923069070E+02  0.10975723637E+02  0.00000000000E+00 0.  1.
<mgrwt>
<rscale>  0 0.79892661E+02</rscale>
<asrwt>0</asrwt>
<pdfrwt beam="1">  1        2 0.31913707E-01 0.79892661E+02</pdfrwt>
<pdfrwt beam="2">  1       -1 0.11834497E-02 0.79892661E+02</pdfrwt>
<totfact> 0.22420287E+05</totfact>
</mgrwt>
</event>
<event>
 8    1  0.2603554E-016  0.7922573E+02  0.7818608E-02  0.1331263E+00
          2   -1    0    0  501    0  0.00000000000E+00  0.00000000000E+00  0.13365761769E+03  0.13365761771E+03  0.25500000000E-02 0. -1.
         -1   -1    0    0    0  501 -0.00000000000E+00 -0.00000000000E+00 -0.11740288480E+02  0.11740289562E+02  0.50400000000E-02 0.  1.
         24    2    1    2    0    0  0.00000000000E+00  0.35527136788E-14  0.12191732921E+03  0.14539790727E+03  0.79225729903E+02 0.  0.
         66    2    3    3    0    0  0.17191022724E+02 -0.30347163400E+02  0.95365475457E+02  0.10156306166E+03  0.19999987759E+01 0.  0.
        -13    1    3    3    0    0 -0.17191022724E+02  0.30347163400E+02  0.26551853750E+02  0.43834845617E+02  0.10566000000E+00 0.  1.
         13    1    4    4    0    0  0.10361051634E+01 -0.11840057018E+01  0.45893202007E+01  0.48526701260E+01  0.10566000000E+00 0.  1.
        -13    1    4    4    0    0  0.31813837177E+01 -0.66044811945E+01  0.20225714851E+02  0.21513509232E+02  0.10566000000E+00 0. -1.
        -14    1    4    4    0    0  0.12973533843E+02 -0.22558676503E+02  0.70550440406E+02  0.75196882299E+02  0.00000000000E+00 0.  1.
<mgrwt>
<rscale>  0 0.79225730E+02</rscale>
<asrwt>0</asrwt>
<pdfrwt beam="1">  1        2 0.20562711E-01 0.79225730E+02</pdfrwt>
<pdfrwt beam="2">  1       -1 0.18061983E-02 0.79225730E+02</pdfrwt>
<totfact> 0.19817489E+05</totfact>
</mgrwt>
</event>
<event>
 8    1  0.2603554E-016  0.7901288E+02  0.7818608E-02  0.1331876E+00
          2   -1    0    0  501    0  0.00000000000E+00  0.00000000000E+00  0.57449963286E+01  0.57449968945E+01  0.25500000000E-02 0. -1.
         -1   -1    0    0    0  501 -0.00000000000E+00 -0.00000000000E+00 -0.27167268651E+03  0.27167268656E+03  0.50400000000E-02 0.  1.
         24    2    1    2    0    0  0.00000000000E+00  0.00000000000E+00 -0.26592769018E+03  0.27741768345E+03  0.79012876712E+02 0.  0.
         66    2    3    3    0    0 -0.37385978194E+02 -0.12620088574E+02 -0.13772748720E+03  0.14328237412E+03  0.20000004053E+01 0.  0.
        -13    1    3    3    0    0  0.37385978194E+02  0.12620088574E+02 -0.12820020298E+03  0.13413530933E+03  0.10566000000E+00 0.  1.
         13    1    4    4    0    0 -0.28957843235E+02 -0.93974745134E+01 -0.10633238335E+03  0.11060495525E+03  0.10566000000E+00 0.  1.
        -13    1    4    4    0    0 -0.74124253247E+01 -0.26329665822E+01 -0.28041764647E+02  0.29124359062E+02  0.10566000000E+00 0. -1.
        -14    1    4    4    0    0 -0.10157096345E+01 -0.58964747876E+00 -0.33533392028E+01  0.35530598109E+01  0.00000000000E+00 0.  1.
<mgrwt>
<rscale>  0 0.79012877E+02</rscale>
<asrwt>0</asrwt>
<pdfrwt beam="1">  1        2 0.88384585E-03 0.79012877E+02</pdfrwt>
<pdfrwt beam="2">  1       -1 0.41795788E-01 0.79012877E+02</pdfrwt>
<totfact> 0.92745722E+04</totfact>
</mgrwt>
</event>
<event>
 8    1  0.2603554E-016  0.7961183E+02  0.7818608E-02  0.1330157E+00
         -1   -1    0    0    0  501 -0.00000000000E+00  0.00000000000E+00  0.20155346324E+03  0.20155346330E+03  0.50400000000E-02 0.  1.
          2   -1    0    0  501    0  0.00000000000E+00 -0.00000000000E+00 -0.78614912621E+01  0.78614916757E+01  0.25500000000E-02 0. -1.
         24    2    1    2    0    0  0.00000000000E+00 -0.17763568394E-14  0.19369197197E+03  0.20941495497E+03  0.79611829271E+02 0.  0.
         66    2    3    3    0    0  0.38897558024E+02  0.82892938094E+01  0.94593520042E+02  0.10263365160E+03  0.19999984339E+01 0.  0.
        -13    1    3    3    0    0 -0.38897558024E+02 -0.82892938094E+01  0.99098451931E+02  0.10678130338E+03  0.10566000000E+00 0.  1.
         13    1    4    4    0    0  0.24034814463E+02  0.54485755386E+01  0.59328861372E+02  0.64243943196E+02  0.10566000000E+00 0. -1.
        -13    1    4    4    0    0  0.78852033805E+01  0.15027439390E+01  0.17329718656E+02  0.19098821546E+02  0.10566000000E+00 0.  1.
        -14    1    4    4    0    0  0.69775401808E+01  0.13379743318E+01  0.17934940014E+02  0.19290886854E+02  0.00000000000E+00 0.  1.
<mgrwt>
<rscale>  0 0.79611829E+02</rscale>
<asrwt>0</asrwt>
<pdfrwt beam="1">  1        2 0.12094601E-02 0.79611829E+02</pdfrwt>
<pdfrwt beam="2">  1       -1 0.31008228E-01 0.79611829E+02</pdfrwt>
<totfact> 0.10060836E+05</totfact>
</mgrwt>
</event>
<event>
 8    1  0.2603554E-016  0.8218661E+02  0.7818608E-02  0.1322958E+00
         -1   -1    0    0    0  501 -0.00000000000E+00  0.00000000000E+00  0.71336807799E+02  0.71336807978E+02  0.50400000000E-02 0.  1.
          2   -1    0    0  501    0  0.00000000000E+00 -0.00000000000E+00 -0.23671644019E+02  0.23671644156E+02  0.25500000000E-02 0. -1.
         24    2    1    2    0    0  0.00000000000E+00  0.35527136788E-14  0.47665163781E+02  0.95008452134E+02  0.82186605591E+02 0.  0.
         66    2    3    3    0    0  0.89398543387E+01  0.28804495849E+02 -0.83774865723E+01  0.31365622221E+02  0.19999998213E+01 0.  0.
        -13    1    3    3    0    0 -0.89398543387E+01 -0.28804495849E+02  0.56042650353E+02  0.63642829913E+02  0.10566000000E+00 0.  1.
         13    1    4    4    0    0  0.31039434287E+01  0.10334379444E+02 -0.31247690142E+01  0.11234287193E+02  0.10566000000E+00 0. -1.
        -13    1    4    4    0    0  0.55664562318E+01  0.17889827097E+02 -0.47811929442E+01  0.19336553947E+02  0.10566000000E+00 0.  1.
        -14    1    4    4    0    0  0.26945467831E+00  0.58028930847E+00 -0.47152461393E+00  0.79478108101E+00  0.00000000000E+00 0.  1.
<mgrwt>
<rscale>  0 0.82186606E+02</rscale>
<asrwt>0</asrwt>
<pdfrwt beam="1">  1        2 0.36417914E-02 0.82186606E+02</pdfrwt>
<pdfrwt beam="2">  1       -1 0.10974894E-01 0.82186606E+02</pdfrwt>
<totfact> 0.11891724E+05</totfact>
</mgrwt>
</event>
<event>
 8    1  0.2603554E-016  0.7669674E+02  0.7818608E-02  0.1338696E+00
          2   -1    0    0  501    0  0.00000000000E+00  0.00000000000E+00  0.63095196253E+02  0.63095196305E+02  0.25500000000E-02 0. -1.
         -1   -1    0    0    0  501 -0.00000000000E+00 -0.00000000000E+00 -0.23307599142E+02  0.23307599686E+02  0.50400000000E-02 0.  1.
         24    2    1    2    0    0  0.00000000000E+00  0.00000000000E+00  0.39787597112E+02  0.86402795991E+02  0.76696742246E+02 0.  0.
         66    2    3    3    0    0 -0.18627334587E+02 -0.13852367182E+02  0.54257435408E+02  0.59048581421E+02  0.20000001157E+01 0.  0.
        -13    1    3    3    0    0  0.18627334587E+02  0.13852367182E+02 -0.14469838296E+02  0.27354214570E+02  0.10566000000E+00 0.  1.
         13    1    4    4    0    0 -0.65365172809E+01 -0.56375906828E+01  0.19341416500E+02  0.21180416500E+02  0.10566000000E+00 0. -1.
        -13    1    4    4    0    0 -0.22693530245E+01 -0.17074766249E+01  0.58016082607E+01  0.64602834319E+01  0.10566000000E+00 0.  1.
         14    1    4    4    0    0 -0.98214642820E+01 -0.65072998743E+01  0.29114410647E+02  0.31407881489E+02  0.00000000000E+00 0. -1.
<mgrwt>
<rscale>  0 0.76696742E+02</rscale>
<asrwt>0</asrwt>
<pdfrwt beam="1">  1        2 0.97069534E-02 0.76696742E+02</pdfrwt>
<pdfrwt beam="2">  1       -1 0.35857845E-02 0.76696742E+02</pdfrwt>
<totfact> 0.17655186E+05</totfact>
</mgrwt>
</event>
<event>
 8    1  0.2603554E-016  0.8326419E+02  0.7818608E-02  0.1320035E+00
         -1   -1    0    0    0  501 -0.00000000000E+00  0.00000000000E+00  0.38913051874E+02  0.38913052200E+02  0.50400000000E-02 0.  1.
          2   -1    0    0  501    0  0.00000000000E+00 -0.00000000000E+00 -0.44541134019E+02  0.44541134092E+02  0.25500000000E-02 0. -1.
         24    2    1    2    0    0  0.00000000000E+00  0.00000000000E+00 -0.56280821451E+01  0.83454186292E+02  0.83264193391E+02 0.  0.
         66    2    3    3    0    0 -0.29165235771E+02  0.13608947601E+02  0.23615178823E+02  0.39968626523E+02  0.20000007265E+01 0.  0.
        -13    1    3    3    0    0  0.29165235771E+02 -0.13608947601E+02 -0.29243260968E+02  0.43485559769E+02  0.10566000000E+00 0.  1.
         13    1    4    4    0    0 -0.22279556569E+01  0.11877913852E+01  0.15773944609E+01  0.29789212989E+01  0.10566000000E+00 0.  1.
        -13    1    4    4    0    0 -0.39535316588E+01  0.16186675699E+01  0.38608680740E+01  0.57591634461E+01  0.10566000000E+00 0. -1.
         14    1    4    4    0    0 -0.22983748455E+02  0.10802488646E+02  0.18176916288E+02  0.31230541778E+02  0.00000000000E+00 0. -1.
<mgrwt>
<rscale>  0 0.83264193E+02</rscale>
<asrwt>0</asrwt>
<pdfrwt beam="1">  1        2 0.68524822E-02 0.83264193E+02</pdfrwt>
<pdfrwt beam="2">  1       -1 0.59866234E-02 0.83264193E+02</pdfrwt>
<totfact> 0.13054234E+05</totfact>
</mgrwt>
</event>
<event>
 8    1  0.2603554E-016  0.7937197E+02  0.7818608E-02  0.1330843E+00
         -1   -1    0    0    0  501 -0.00000000000E+00  0.00000000000E+00  0.52046378344E+01  0.52046402747E+01  0.50400000000E-02 0.  1.
          2   -1    0    0  501    0  0.00000000000E+00 -0.00000000000E+00 -0.30261028317E+03  0.30261028318E+03  0.25500000000E-02 0. -1.
         24    2    1    2    0    0  0.00000000000E+00  0.35527136788E-14 -0.29740564534E+03  0.30781492346E+03  0.79371967497E+02 0.  0.
         66    2    3    3    0    0  0.23650203310E+02 -0.26726606663E+02 -0.21589299053E+03  0.21883196061E+03  0.20000003662E+01 0.  0.
        -13    1    3    3    0    0 -0.23650203310E+02  0.26726606663E+02 -0.81512654805E+02  0.88982962850E+02  0.10566000000E+00 0.  1.
         13    1    4    4    0    0  0.14475234201E+02 -0.16598864966E+02 -0.13616920625E+03  0.13793882201E+03  0.10566000000E+00 0. -1.
        -13    1    4    4    0    0  0.24822097651E+01 -0.32251480903E+01 -0.25709352709E+02  0.26029693165E+02  0.10566000000E+00 0.  1.
         14    1    4    4    0    0  0.66927593438E+01 -0.69025936062E+01 -0.54014431576E+02  0.54863445431E+02  0.00000000000E+00 0. -1.
<mgrwt>
<rscale>  0 0.79371967E+02</rscale>
<asrwt>0</asrwt>
<pdfrwt beam="1">  1        2 0.46555414E-01 0.79371967E+02</pdfrwt>
<pdfrwt beam="2">  1       -1 0.80071394E-03 0.79371967E+02</pdfrwt>
<totfact> 0.26108242E+05</totfact>
</mgrwt>
</event>
<event>
 8    1  0.2603554E-016  0.8063901E+02  0.7818608E-02  0.1327248E+00
         -1   -1    0    0    0  501 -0.00000000000E+00  0.00000000000E+00  0.70074926869E+02  0.70074927051E+02  0.50400000000E-02 0.  1.
          2   -1    0    0  501    0  0.00000000000E+00 -0.00000000000E+00 -0.23198916877E+02  0.23198917017E+02  0.25500000000E-02 0. -1.
         24    2    1    2    0    0  0.17763568394E-14  0.35527136788E-14  0.46876009992E+02  0.93273844068E+02  0.80639008392E+02 0.  0.
         66    2    3    3    0    0 -0.10497250296E+02 -0.28793909828E+02 -0.68071397635E+01  0.31458204957E+02  0.20000000976E+01 0.  0.
        -13    1    3    3    0    0  0.10497250296E+02  0.28793909828E+02  0.53683149756E+02  0.61815639111E+02  0.10566000000E+00 0.  1.
         13    1    4    4    0    0 -0.49843736699E+01 -0.14277113890E+02 -0.29504488502E+01  0.15407669336E+02  0.10566000000E+00 0. -1.
        -13    1    4    4    0    0 -0.24647916047E+01 -0.51907475594E+01 -0.18336277453E+01  0.60326124211E+01  0.10566000000E+00 0.  1.
        -14    1    4    4    0    0 -0.30480850218E+01 -0.93260483787E+01 -0.20230631680E+01  0.10017923200E+02  0.00000000000E+00 0.  1.
<mgrwt>
<rscale>  0 0.80639008E+02</rscale>
<asrwt>0</asrwt>
<pdfrwt beam="1">  1        2 0.35690642E-02 0.80639008E+02</pdfrwt>
<pdfrwt beam="2">  1       -1 0.10780758E-01 0.80639008E+02</pdfrwt>
<totfact> 0.12503435E+05</totfact>
</mgrwt>
</event>
<event>
 8    1  0.2603554E-016  0.8289898E+02  0.7818608E-02  0.1321020E+00
         -1   -1    0    0    0  501 -0.00000000000E+00  0.00000000000E+00  0.17538812652E+02  0.17538813377E+02  0.50400000000E-02 0.  1.
          2   -1    0    0  501    0  0.00000000000E+00 -0.00000000000E+00 -0.97957621720E+02  0.97957621753E+02  0.25500000000E-02 0. -1.
         24    2    1    2    0    0  0.00000000000E+00  0.35527136788E-14 -0.80418809068E+02  0.11549643513E+03  0.82898984770E+02 0.  0.
         66    2    3    3    0    0 -0.65710562644E+01  0.21191639405E+02 -0.88971338088E+02  0.91717846489E+02  0.20000005888E+01 0.  0.
        -13    1    3    3    0    0  0.65710562644E+01 -0.21191639405E+02  0.85525290197E+01  0.23778588641E+02  0.10566000000E+00 0.  1.
         13    1    4    4    0    0 -0.56556562555E+01  0.15937966800E+02 -0.66521390807E+02  0.68637539527E+02  0.10566000000E+00 0. -1.
        -13    1    4    4    0    0 -0.28868361222E+00  0.91889970040E+00 -0.45899704968E+01  0.46911307896E+01  0.10566000000E+00 0. -1.
        -14    1    4    4    0    0 -0.62671639663E+00  0.43347729043E+01 -0.17859976784E+02  0.18389176172E+02  0.00000000000E+00 0.  1.
<mgrwt>
<rscale>  0 0.82898985E+02</rscale>
<asrwt>0</asrwt>
<pdfrwt beam="1">  1        2 0.15070403E-01 0.82898985E+02</pdfrwt>
<pdfrwt beam="2">  1       -1 0.26982790E-02 0.82898985E+02</pdfrwt>
<totfact> 0.16017142E+05</totfact>
</mgrwt>
</event>
<event>
 8    1  0.2603554E-016  0.7883911E+02  0.7818608E-02  0.1332379E+00
          2   -1    0    0  501    0  0.00000000000E+00  0.00000000000E+00  0.95039198733E+02  0.95039198767E+02  0.25500000000E-02 0. -1.
         -1   -1    0    0    0  501 -0.00000000000E+00 -0.00000000000E+00 -0.16350110568E+02  0.16350111345E+02  0.50400000000E-02 0.  1.
         24    2    1    2    0    0  0.88817841970E-15  0.00000000000E+00  0.78689088165E+02  0.11138931011E+03  0.78839113460E+02 0.  0.
         66    2    3    3    0    0  0.69801384471E+01 -0.17570763526E+02  0.88199531513E+02  0.90225336942E+02  0.20000009087E+01 0.  0.
        -13    1    3    3    0    0 -0.69801384471E+01  0.17570763526E+02 -0.95104433479E+01  0.21163973170E+02  0.10566000000E+00 0.  1.
         13    1    4    4    0    0  0.19438376497E+01 -0.59446204061E+01  0.30782885319E+02  0.31412007405E+02  0.10566000000E+00 0. -1.
        -13    1    4    4    0    0  0.11450224397E+01 -0.39459545268E+01  0.16995645188E+02  0.17485558410E+02  0.10566000000E+00 0.  1.
         14    1    4    4    0    0  0.38912783577E+01 -0.76801885934E+01  0.40421001006E+02  0.41327771128E+02  0.00000000000E+00 0. -1.
<mgrwt>
<rscale>  0 0.78839113E+02</rscale>
<asrwt>0</asrwt>
<pdfrwt beam="1">  1        2 0.14621415E-01 0.78839113E+02</pdfrwt>
<pdfrwt beam="2">  1       -1 0.25154017E-02 0.78839113E+02</pdfrwt>
<totfact> 0.18175856E+05</totfact>
</mgrwt>
</event>
<event>
 8    1  0.2603554E-016  0.7992706E+02  0.7818608E-02  0.1329259E+00
          2   -1    0    0  501    0  0.00000000000E+00  0.00000000000E+00  0.34330310665E+03  0.34330310666E+03  0.25500000000E-02 0. -1.
         -1   -1    0    0    0  501 -0.00000000000E+00 -0.00000000000E+00 -0.46521083569E+01  0.46521110870E+01  0.50400000000E-02 0.  1.
         24    2    1    2    0    0  0.00000000000E+00  0.00000000000E+00  0.33865099829E+03  0.34795521774E+03  0.79927059948E+02 0.  0.
         66    2    3    3    0    0 -0.11573937243E+02  0.34830195502E+02  0.23798605234E+03  0.24080793104E+03  0.19999996140E+01 0.  0.
        -13    1    3    3    0    0  0.11573937243E+02 -0.34830195502E+02  0.10066494595E+03  0.10714728671E+03  0.10566000000E+00 0.  1.
         13    1    4    4    0    0 -0.26553882581E+01  0.92492940535E+01  0.60173339859E+02  0.60938021966E+02  0.10566000000E+00 0. -1.
        -13    1    4    4    0    0 -0.84074596395E+01  0.23858844620E+02  0.16804296593E+03  0.16993639812E+03  0.10566000000E+00 0.  1.
        -14    1    4    4    0    0 -0.51108934539E+00  0.17220568284E+01  0.97697465537E+01  0.99335109484E+01  0.00000000000E+00 0.  1.
<mgrwt>
<rscale>  0 0.79927060E+02</rscale>
<asrwt>0</asrwt>
<pdfrwt beam="1">  1        2 0.52815856E-01 0.79927060E+02</pdfrwt>
<pdfrwt beam="2">  1       -1 0.71570928E-03 0.79927060E+02</pdfrwt>
<totfact> 0.26828035E+05</totfact>
</mgrwt>
</event>
<event>
 8    1  0.2603554E-016  0.8039800E+02  0.7818608E-02  0.1327926E+00
         -1   -1    0    0    0  501 -0.00000000000E+00  0.00000000000E+00  0.11748296190E+02  0.11748297271E+02  0.50400000000E-02 0.  1.
          2   -1    0    0  501    0  0.00000000000E+00 -0.00000000000E+00 -0.13754843045E+03  0.13754843048E+03  0.25500000000E-02 0. -1.
         24    2    1    2    0    0  0.00000000000E+00  0.00000000000E+00 -0.12580013426E+03  0.14929672775E+03  0.80398004550E+02 0.  0.
         66    2    3    3    0    0  0.30153653886E+01 -0.27631497445E+02 -0.90751236862E+01  0.29307847689E+02  0.19999966886E+01 0.  0.
        -13    1    3    3    0    0 -0.30153653886E+01  0.27631497445E+02 -0.11672501058E+03  0.11998888006E+03  0.10566000000E+00 0.  1.
         13    1    4    4    0    0  0.19751523445E+01 -0.16805707151E+02 -0.50838963636E+01  0.17668904491E+02  0.10566000000E+00 0. -1.
        -13    1    4    4    0    0  0.23294572855E+00 -0.68962824274E+01 -0.28665174968E+01  0.74726877110E+01  0.10566000000E+00 0.  1.
        -14    1    4    4    0    0  0.80726731554E+00 -0.39295078667E+01 -0.11247098258E+01  0.41662554873E+01  0.00000000000E+00 0.  1.
<mgrwt>
<rscale>  0 0.80398005E+02</rscale>
<asrwt>0</asrwt>
<pdfrwt beam="1">  1        2 0.21161296E-01 0.80398005E+02</pdfrwt>
<pdfrwt beam="2">  1       -1 0.18074304E-02 0.80398005E+02</pdfrwt>
<totfact> 0.19230072E+05</totfact>
</mgrwt>
</event>
<event>
 8    1  0.2603554E-016  0.7888916E+02  0.7818608E-02  0.1332234E+00
         -1   -1    0    0    0  501 -0.00000000000E+00  0.00000000000E+00  0.26015693075E+02  0.26015693563E+02  0.50400000000E-02 0.  1.
          2   -1    0    0  501    0  0.00000000000E+00 -0.00000000000E+00 -0.59805245689E+02  0.59805245743E+02  0.25500000000E-02 0. -1.
         24    2    1    2    0    0  0.00000000000E+00  0.00000000000E+00 -0.33789552614E+02  0.85820939306E+02  0.78889161217E+02 0.  0.
         66    2    3    3    0    0  0.56944593918E+01  0.38930645508E+02 -0.19536347897E+02  0.43973752588E+02  0.20000000095E+01 0.  0.
        -13    1    3    3    0    0 -0.56944593918E+01 -0.38930645508E+02 -0.14253204717E+02  0.41847186718E+02  0.10566000000E+00 0.  1.
         13    1    4    4    0    0  0.74522772940E+00  0.32717099310E+01 -0.21491224327E+01  0.39861436888E+01  0.10566000000E+00 0. -1.
        -13    1    4    4    0    0  0.30806935714E+01  0.24504403718E+02 -0.11722580907E+02  0.27338371232E+02  0.10566000000E+00 0. -1.
        -14    1    4    4    0    0  0.18685380910E+01  0.11154531859E+02 -0.56646445571E+01  0.12649237667E+02  0.00000000000E+00 0.  1.
<mgrwt>
<rscale>  0 0.78889161E+02</rscale>
<asrwt>0</asrwt>
<pdfrwt beam="1">  1        2 0.92008070E-02 0.78889161E+02</pdfrwt>
<pdfrwt beam="2">  1       -1 0.40024144E-02 0.78889161E+02</pdfrwt>
<totfact> 0.16157140E+05</totfact>
</mgrwt>
</event>
<event>
 8    1  0.2603554E-016  0.8072212E+02  0.7818608E-02  0.1327015E+00
         -1   -1    0    0    0  501 -0.00000000000E+00  0.00000000000E+00  0.73067167535E+00  0.73068905751E+00  0.50400000000E-02 0.  1.
          2   -1    0    0  501    0  0.00000000000E+00 -0.00000000000E+00 -0.22294497356E+04  0.22294497356E+04  0.25500000000E-02 0. -1.
         24    2    1    2    0    0  0.17763568394E-14 -0.17763568394E-14 -0.22287190639E+04  0.22301804246E+04  0.80722119836E+02 0.  0.
         66    2    3    3    0    0 -0.11214041039E+02 -0.12693340565E+02 -0.21264386597E+04  0.21265070536E+04  0.19999989267E+01 0.  0.
        -13    1    3    3    0    0  0.11214041039E+02  0.12693340565E+02 -0.10228040417E+03  0.10367337099E+03  0.10566000000E+00 0.  1.
         13    1    4    4    0    0 -0.25403684938E+01 -0.38512689870E+01 -0.63294482179E+03  0.63296164524E+03  0.10566000000E+00 0. -1.
        -13    1    4    4    0    0 -0.39458934272E+00 -0.61153860665E+00 -0.82576714728E+02  0.82579989461E+02  0.10566000000E+00 0. -1.
         14    1    4    4    0    0 -0.82790832022E+01 -0.82305329714E+01 -0.14109171232E+04  0.14109654189E+04  0.00000000000E+00 0. -1.
<mgrwt>
<rscale>  0 0.80722120E+02</rscale>
<asrwt>0</asrwt>
<pdfrwt beam="1">  1        2 0.34298682E+00 0.80722120E+02</pdfrwt>
<pdfrwt beam="2">  1       -1 0.11241415E-03 0.80722120E+02</pdfrwt>
<totfact> 0.24132651E+05</totfact>
</mgrwt>
</event>
<event>
 8    1  0.2603554E-016  0.7867993E+02  0.7818608E-02  0.1332840E+00
          2   -1    0    0  501    0  0.00000000000E+00  0.00000000000E+00  0.20217455705E+03  0.20217455706E+03  0.25500000000E-02 0. -1.
         -1   -1    0    0    0  501 -0.00000000000E+00 -0.00000000000E+00 -0.76549330571E+01  0.76549347162E+01  0.50400000000E-02 0.  1.
         24    2    1    2    0    0  0.17763568394E-14  0.00000000000E+00  0.19451962399E+03  0.20982949178E+03  0.78679930752E+02 0.  0.
         66    2    3    3    0    0 -0.90237764172E+01  0.14191379099E+02  0.19209241096E+03  0.19283754343E+03  0.20000069584E+01 0.  0.
        -13    1    3    3    0    0  0.90237764172E+01 -0.14191379099E+02  0.24272130340E+01  0.16991948349E+02  0.10566000000E+00 0.  1.
         13    1    4    4    0    0 -0.13837904651E+00  0.11151246112E+00  0.28339620866E+01  0.28414941375E+01  0.10566000000E+00 0.  1.
        -13    1    4    4    0    0 -0.91229124684E+00  0.25162813095E+01  0.31022017631E+02  0.31137448336E+02  0.10566000000E+00 0.  1.
         14    1    4    4    0    0 -0.79731061238E+01  0.11563585328E+02  0.15823643124E+03  0.15885860096E+03  0.00000000000E+00 0. -1.
<mgrwt>
<rscale>  0 0.78679931E+02</rscale>
<asrwt>0</asrwt>
<pdfrwt beam="1">  1        2 0.31103773E-01 0.78679931E+02</pdfrwt>
<pdfrwt beam="2">  1       -1 0.11776823E-02 0.78679931E+02</pdfrwt>
<totfact> 0.23134325E+05</totfact>
</mgrwt>
</event>
<event>
 8    1  0.2603554E-016  0.7828213E+02  0.7818608E-02  0.1333998E+00
          2   -1    0    0  501    0  0.00000000000E+00  0.00000000000E+00  0.10675692372E+03  0.10675692375E+03  0.25500000000E-02 0. -1.
         -1   -1    0    0    0  501 -0.00000000000E+00 -0.00000000000E+00 -0.14350571547E+02  0.14350572432E+02  0.50400000000E-02 0.  1.
         24    2    1    2    0    0  0.00000000000E+00 -0.71054273576E-14  0.92406352174E+02  0.12110749618E+03  0.78282128929E+02 0.  0.
         66    2    3    3    0    0  0.89124537340E+01 -0.38084418776E+02  0.45608314319E+02  0.60116330461E+02  0.20000169762E+01 0.  0.
        -13    1    3    3    0    0 -0.89124537340E+01  0.38084418776E+02  0.46798037855E+02  0.60991165723E+02  0.10566000000E+00 0.  1.
         13    1    4    4    0    0  0.54485548403E+01 -0.24648142204E+02  0.29183712248E+02  0.38586498786E+02  0.10566000000E+00 0. -1.
        -13    1    4    4    0    0  0.14157950339E+00 -0.20347288724E+01  0.25366405647E+01  0.32566663523E+01  0.10566000000E+00 0.  1.
         14    1    4    4    0    0  0.33223193904E+01 -0.11401547700E+02  0.13887961507E+02  0.18273165322E+02  0.00000000000E+00 0. -1.
<mgrwt>
<rscale>  0 0.78282129E+02</rscale>
<asrwt>0</asrwt>
<pdfrwt beam="1">  1        2 0.16424142E-01 0.78282129E+02</pdfrwt>
<pdfrwt beam="2">  1       -1 0.22077803E-02 0.78282129E+02</pdfrwt>
<totfact> 0.19135222E+05</totfact>
</mgrwt>
</event>
<event>
 8    1  0.2603554E-016  0.8069863E+02  0.7818608E-02  0.1327080E+00
          2   -1    0    0  501    0  0.00000000000E+00  0.00000000000E+00  0.97697669633E+01  0.97697672961E+01  0.25500000000E-02 0. -1.
         -1   -1    0    0    0  501 -0.00000000000E+00 -0.00000000000E+00 -0.16664338575E+03  0.16664338582E+03  0.50400000000E-02 0.  1.
         24    2    1    2    0    0 -0.71054273576E-14 -0.88817841970E-15 -0.15687361878E+03  0.17641315312E+03  0.80698626526E+02 0.  0.
         66    2    3    3    0    0 -0.36445917496E+02 -0.41219092712E+01 -0.11511493580E+03  0.12083353629E+03  0.20000025051E+01 0.  0.
        -13    1    3    3    0    0  0.36445917496E+02  0.41219092712E+01 -0.41758682980E+02  0.55579616826E+02  0.10566000000E+00 0.  1.
         13    1    4    4    0    0 -0.15337578875E+02 -0.21360609222E+01 -0.47086660728E+02  0.49567820858E+02  0.10566000000E+00 0. -1.
        -13    1    4    4    0    0 -0.58033160646E+00 -0.18754863360E+00 -0.23860858483E+01  0.24650616573E+01  0.10566000000E+00 0.  1.
         14    1    4    4    0    0 -0.20528007015E+02 -0.17982997154E+01 -0.65642189225E+02  0.68800653777E+02  0.00000000000E+00 0. -1.
<mgrwt>
<rscale>  0 0.80698627E+02</rscale>
<asrwt>0</asrwt>
<pdfrwt beam="1">  1        2 0.15030412E-02 0.80698627E+02</pdfrwt>
<pdfrwt beam="2">  1       -1 0.25637442E-01 0.80698627E+02</pdfrwt>
<totfact> 0.10264855E+05</totfact>
</mgrwt>
</event>
<event>
 8    1  0.2603554E-016  0.7922275E+02  0.7818608E-02  0.1331272E+00
          2   -1    0    0  501    0  0.00000000000E+00  0.00000000000E+00  0.14494802554E+03  0.14494802557E+03  0.25500000000E-02 0. -1.
         -1   -1    0    0    0  501 -0.00000000000E+00 -0.00000000000E+00 -0.10824989906E+02  0.10824991079E+02  0.50400000000E-02 0.  1.
         24    2    1    2    0    0  0.00000000000E+00  0.00000000000E+00  0.13412303564E+03  0.15577301665E+03  0.79222749422E+02 0.  0.
         66    2    3    3    0    0  0.35281878616E+02 -0.84158140863E+01  0.98281654698E+02  0.10478034426E+03  0.20000018219E+01 0.  0.
        -13    1    3    3    0    0 -0.35281878616E+02  0.84158140863E+01  0.35841380940E+02  0.50992672387E+02  0.10566000000E+00 0.  1.
         13    1    4    4    0    0  0.16902705319E+02 -0.41336217636E+01  0.46895349986E+02  0.50019729011E+02  0.10566000000E+00 0. -1.
        -13    1    4    4    0    0  0.12601679369E+02 -0.35927417146E+01  0.35154622502E+02  0.37517579390E+02  0.10566000000E+00 0.  1.
        -14    1    4    4    0    0  0.57774939281E+01 -0.68945060814E+00  0.16231682210E+02  0.17243035858E+02  0.00000000000E+00 0.  1.
<mgrwt>
<rscale>  0 0.79222749E+02</rscale>
<asrwt>0</asrwt>
<pdfrwt beam="1">  1        2 0.22299694E-01 0.79222749E+02</pdfrwt>
<pdfrwt beam="2">  1       -1 0.16653833E-02 0.79222749E+02</pdfrwt>
<totfact> 0.20331261E+05</totfact>
</mgrwt>
</event>
<event>
 8    1  0.2603554E-016  0.7879333E+02  0.7818608E-02  0.1332511E+00
         -1   -1    0    0    0  501 -0.00000000000E+00  0.00000000000E+00  0.22942562718E+01  0.22942618077E+01  0.50400000000E-02 0.  1.
          2   -1    0    0  501    0  0.00000000000E+00 -0.00000000000E+00 -0.67651354371E+03  0.67651354372E+03  0.25500000000E-02 0. -1.
         24    2    1    2    0    0  0.00000000000E+00  0.35527136788E-14 -0.67421928744E+03  0.67880780553E+03  0.78793332742E+02 0.  0.
         66    2    3    3    0    0 -0.20233017054E+01 -0.24672488427E+02 -0.60107413199E+03  0.60158701580E+03  0.20000008043E+01 0.  0.
        -13    1    3    3    0    0  0.20233017054E+01  0.24672488427E+02 -0.73145155454E+02  0.77220789723E+02  0.10566000000E+00 0.  1.
         13    1    4    4    0    0 -0.41469033860E+00 -0.91728337524E+01 -0.20336259170E+03  0.20356981042E+03  0.10566000000E+00 0. -1.
        -13    1    4    4    0    0 -0.42152327187E-01 -0.43361563854E+00 -0.11752820191E+02  0.11761366665E+02  0.10566000000E+00 0. -1.
         14    1    4    4    0    0 -0.15664590396E+01 -0.15066039036E+02 -0.38595872009E+03  0.38625583872E+03  0.00000000000E+00 0. -1.
<mgrwt>
<rscale>  0 0.78793333E+02</rscale>
<asrwt>0</asrwt>
<pdfrwt beam="1">  1        2 0.10407885E+00 0.78793333E+02</pdfrwt>
<pdfrwt beam="2">  1       -1 0.35296347E-03 0.78793333E+02</pdfrwt>
<totfact> 0.34521010E+05</totfact>
</mgrwt>
</event>
<event>
 8    1  0.2603554E-016  0.7984913E+02  0.7818608E-02  0.1329480E+00
         -1   -1    0    0    0  501 -0.00000000000E+00  0.00000000000E+00  0.54100258516E+01  0.54100281992E+01  0.50400000000E-02 0.  1.
          2   -1    0    0  501    0  0.00000000000E+00 -0.00000000000E+00 -0.29463267185E+03  0.29463267186E+03  0.25500000000E-02 0. -1.
         24    2    1    2    0    0 -0.35527136788E-14  0.00000000000E+00 -0.28922264600E+03  0.30004270006E+03  0.79849125863E+02 0.  0.
         66    2    3    3    0    0  0.20295335993E+02 -0.32928164279E+02 -0.10792294439E+03  0.11466266437E+03  0.20000020854E+01 0.  0.
        -13    1    3    3    0    0 -0.20295335993E+02  0.32928164279E+02 -0.18129970161E+03  0.18538003569E+03  0.10566000000E+00 0.  1.
         13    1    4    4    0    0  0.77049814387E+01 -0.12099746494E+02 -0.41600351925E+02  0.44004216258E+02  0.10566000000E+00 0.  1.
        -13    1    4    4    0    0  0.55779424931E+01 -0.80785246116E+01 -0.26287101179E+02  0.28060628196E+02  0.10566000000E+00 0. -1.
        -14    1    4    4    0    0  0.70124120615E+01 -0.12749893173E+02 -0.40035491286E+02  0.42597819913E+02  0.00000000000E+00 0.  1.
<mgrwt>
<rscale>  0 0.79849126E+02</rscale>
<asrwt>0</asrwt>
<pdfrwt beam="1">  1        2 0.45328091E-01 0.79849126E+02</pdfrwt>
<pdfrwt beam="2">  1       -1 0.83231208E-03 0.79849126E+02</pdfrwt>
<totfact> 0.25454036E+05</totfact>
</mgrwt>
</event>
<event>
 8    1  0.2603554E-016  0.7948095E+02  0.7818608E-02  0.1330531E+00
          2   -1    0    0  501    0  0.00000000000E+00  0.00000000000E+00  0.20067357598E+02  0.20067357760E+02  0.25500000000E-02 0. -1.
         -1   -1    0    0    0  501 -0.00000000000E+00 -0.00000000000E+00 -0.78700223220E+02  0.78700223381E+02  0.50400000000E-02 0.  1.
         24    2    1    2    0    0 -0.35527136788E-14 -0.71054273576E-14 -0.58632865621E+02  0.98767581141E+02  0.79480954659E+02 0.  0.
         66    2    3    3    0    0  0.20491347443E+02  0.29099321766E+02 -0.74333180723E+01  0.36413185302E+02  0.19999997542E+01 0.  0.
        -13    1    3    3    0    0 -0.20491347443E+02 -0.29099321766E+02 -0.51199547549E+02  0.62354395840E+02  0.10566000000E+00 0.  1.
         13    1    4    4    0    0  0.11241527295E+02  0.16285881368E+02 -0.43779207271E+01  0.20267689108E+02  0.10566000000E+00 0. -1.
        -13    1    4    4    0    0  0.87674045513E+01  0.12233660948E+02 -0.26292536698E+01  0.15279200949E+02  0.10566000000E+00 0.  1.
        -14    1    4    4    0    0  0.48241559686E+00  0.57977944946E+00 -0.42614367549E+00  0.86629524428E+00  0.00000000000E+00 0.  1.
<mgrwt>
<rscale>  0 0.79480955E+02</rscale>
<asrwt>0</asrwt>
<pdfrwt beam="1">  1        2 0.30872858E-02 0.79480955E+02</pdfrwt>
<pdfrwt beam="2">  1       -1 0.12107727E-01 0.79480955E+02</pdfrwt>
<totfact> 0.12658427E+05</totfact>
</mgrwt>
</event>
<event>
 8    1  0.2603554E-016  0.7926044E+02  0.7818608E-02  0.1331163E+00
         -1   -1    0    0    0  501 -0.00000000000E+00  0.00000000000E+00  0.38358366860E+01  0.38358399970E+01  0.50400000000E-02 0.  1.
          2   -1    0    0  501    0  0.00000000000E+00 -0.00000000000E+00 -0.40944227403E+03  0.40944227403E+03  0.25500000000E-02 0. -1.
         24    2    1    2    0    0  0.00000000000E+00  0.00000000000E+00 -0.40560643734E+03  0.41327811403E+03  0.79260441112E+02 0.  0.
         66    2    3    3    0    0 -0.20565116582E+02  0.24633937826E+02 -0.32396323258E+03  0.32555480493E+03  0.20000083667E+01 0.  0.
        -13    1    3    3    0    0  0.20565116582E+02 -0.24633937826E+02 -0.81643204755E+02  0.87723309101E+02  0.10566000000E+00 0.  1.
         13    1    4    4    0    0 -0.94149249550E+01  0.10815410687E+02 -0.13707488383E+03  0.13782288947E+03  0.10566000000E+00 0. -1.
        -13    1    4    4    0    0 -0.10551065506E+02  0.12765308327E+02 -0.17317743036E+03  0.17396755913E+03  0.10566000000E+00 0.  1.
         14    1    4    4    0    0 -0.59912612079E+00  0.10532188126E+01 -0.13710918391E+02  0.13764356327E+02  0.00000000000E+00 0. -1.
<mgrwt>
<rscale>  0 0.79260441E+02</rscale>
<asrwt>0</asrwt>
<pdfrwt beam="1">  1        2 0.62991085E-01 0.79260441E+02</pdfrwt>
<pdfrwt beam="2">  1       -1 0.59012930E-03 0.79260441E+02</pdfrwt>
<totfact> 0.29183190E+05</totfact>
</mgrwt>
</event>
<event>
 8    1  0.2603554E-016  0.8017371E+02  0.7818608E-02  0.1328559E+00
         -1   -1    0    0    0  501 -0.00000000000E+00  0.00000000000E+00  0.19024164926E+02  0.19024165594E+02  0.50400000000E-02 0.  1.
          2   -1    0    0  501    0  0.00000000000E+00 -0.00000000000E+00 -0.84469196667E+02  0.84469196705E+02  0.25500000000E-02 0. -1.
         24    2    1    2    0    0  0.00000000000E+00  0.00000000000E+00 -0.65445031740E+02  0.10349336230E+03  0.80173710532E+02 0.  0.
         66    2    3    3    0    0 -0.11695382453E+02 -0.33333415730E+02 -0.57134771354E+02  0.67203278712E+02  0.19999992738E+01 0.  0.
        -13    1    3    3    0    0  0.11695382453E+02  0.33333415730E+02 -0.83102603867E+01  0.36290083586E+02  0.10566000000E+00 0.  1.
         13    1    4    4    0    0 -0.66571887043E+01 -0.18929425871E+02 -0.31617077793E+02  0.37447190782E+02  0.10566000000E+00 0. -1.
        -13    1    4    4    0    0 -0.38004303598E+01 -0.11125573455E+02 -0.18664631619E+02  0.22059041074E+02  0.10566000000E+00 0.  1.
        -14    1    4    4    0    0 -0.12377633889E+01 -0.32784164048E+01 -0.68530619420E+01  0.76970468565E+01  0.00000000000E+00 0.  1.
<mgrwt>
<rscale>  0 0.80173711E+02</rscale>
<asrwt>0</asrwt>
<pdfrwt beam="1">  1        2 0.12995261E-01 0.80173711E+02</pdfrwt>
<pdfrwt beam="2">  1       -1 0.29267947E-02 0.80173711E+02</pdfrwt>
<totfact> 0.16834363E+05</totfact>
</mgrwt>
</event>
<event>
 8    1  0.2603554E-016  0.8029571E+02  0.7818608E-02  0.1328214E+00
         -1   -1    0    0    0  501 -0.00000000000E+00  0.00000000000E+00  0.99227330176E+02  0.99227330304E+02  0.50400000000E-02 0.  1.
          2   -1    0    0  501    0  0.00000000000E+00 -0.00000000000E+00 -0.16244016448E+02  0.16244016648E+02  0.25500000000E-02 0. -1.
         24    2    1    2    0    0 -0.71054273576E-14  0.00000000000E+00  0.82983313728E+02  0.11547134695E+03  0.80295713519E+02 0.  0.
         66    2    3    3    0    0 -0.38852695772E+02 -0.98506849713E+01  0.44120790362E+02  0.59642368370E+02  0.19999998480E+01 0.  0.
        -13    1    3    3    0    0  0.38852695772E+02  0.98506849713E+01  0.38862523366E+02  0.55828978582E+02  0.10566000000E+00 0.  1.
         13    1    4    4    0    0 -0.12291218096E+02 -0.25926536679E+01  0.13220705917E+02  0.18237163275E+02  0.10566000000E+00 0.  1.
        -13    1    4    4    0    0 -0.10340842910E+02 -0.23295386226E+01  0.11434638345E+02  0.15592366735E+02  0.10566000000E+00 0. -1.
        -14    1    4    4    0    0 -0.16220634766E+02 -0.49284926808E+01  0.19465446100E+02  0.25812838360E+02  0.00000000000E+00 0.  1.
<mgrwt>
<rscale>  0 0.80295714E+02</rscale>
<asrwt>0</asrwt>
<pdfrwt beam="1">  1        2 0.24990795E-02 0.80295714E+02</pdfrwt>
<pdfrwt beam="2">  1       -1 0.15265743E-01 0.80295714E+02</pdfrwt>
<totfact> 0.11764042E+05</totfact>
</mgrwt>
</event>
<event>
 8    1  0.2603554E-016  0.8901137E+02  0.7818608E-02  0.1305264E+00
          2   -1    0    0  501    0  0.00000000000E+00  0.00000000000E+00  0.55836757070E+03  0.55836757071E+03  0.25500000000E-02 0. -1.
         -1   -1    0    0    0  501 -0.00000000000E+00 -0.00000000000E+00 -0.35474034386E+01  0.35474070189E+01  0.50400000000E-02 0.  1.
         24    2    1    2    0    0  0.00000000000E+00  0.00000000000E+00  0.55482016726E+03  0.56191497773E+03  0.89011371136E+02 0.  0.
         66    2    3    3    0    0 -0.15612909357E+02 -0.37153019573E+02  0.39643272749E+03  0.39848088690E+03  0.19999995912E+01 0.  0.
        -13    1    3    3    0    0  0.15612909357E+02  0.37153019573E+02  0.15838743977E+03  0.16343409083E+03  0.10566000000E+00 0.  1.
         13    1    4    4    0    0 -0.44070599240E+01 -0.11426105400E+02  0.12775628787E+03  0.12834195852E+03  0.10566000000E+00 0. -1.
        -13    1    4    4    0    0 -0.21666096605E+01 -0.52742717160E+01  0.52123134939E+02  0.52434192083E+02  0.10566000000E+00 0.  1.
         14    1    4    4    0    0 -0.90392397728E+01 -0.20452642457E+02  0.21655330467E+03  0.21770473629E+03  0.00000000000E+00 0. -1.
<mgrwt>
<rscale>  0 0.89011371E+02</rscale>
<asrwt>0</asrwt>
<pdfrwt beam="1">  1        2 0.85902745E-01 0.89011371E+02</pdfrwt>
<pdfrwt beam="2">  1       -1 0.54575439E-03 0.89011371E+02</pdfrwt>
<totfact> 0.23826015E+05</totfact>
</mgrwt>
</event>
<event>
 8    1  0.2603554E-016  0.7456006E+02  0.7818608E-02  0.1345239E+00
         -1   -1    0    0    0  501 -0.00000000000E+00  0.00000000000E+00  0.31881033386E+01  0.31881073224E+01  0.50400000000E-02 0.  1.
          2   -1    0    0  501    0  0.00000000000E+00 -0.00000000000E+00 -0.43593313354E+03  0.43593313355E+03  0.25500000000E-02 0. -1.
         24    2    1    2    0    0  0.00000000000E+00  0.00000000000E+00 -0.43274503020E+03  0.43912124087E+03  0.74560063164E+02 0.  0.
         66    2    3    3    0    0 -0.26140795955E+02  0.23633302234E+01 -0.37222330709E+03  0.37315294034E+03  0.19999992810E+01 0.  0.
        -13    1    3    3    0    0  0.26140795955E+02 -0.23633302234E+01 -0.60521723106E+02  0.65968300529E+02  0.10566000000E+00 0.  1.
         13    1    4    4    0    0 -0.27453284917E+01  0.50762163799E+00 -0.44344079545E+02  0.44432004940E+02  0.10566000000E+00 0.  1.
        -13    1    4    4    0    0 -0.38655744421E+01 -0.19139380513E+00 -0.53499184347E+02  0.53639101290E+02  0.10566000000E+00 0.  1.
         14    1    4    4    0    0 -0.19529893021E+02  0.20471023905E+01 -0.27438004320E+03  0.27508183411E+03  0.00000000000E+00 0. -1.
<mgrwt>
<rscale>  0 0.74560063E+02</rscale>
<asrwt>0</asrwt>
<pdfrwt beam="1">  1        2 0.67066589E-01 0.74560063E+02</pdfrwt>
<pdfrwt beam="2">  1       -1 0.49047809E-03 0.74560063E+02</pdfrwt>
<totfact> 0.34953233E+05</totfact>
</mgrwt>
</event>
<event>
 8    1  0.2603554E-016  0.8288876E+02  0.7818608E-02  0.1321048E+00
          2   -1    0    0  501    0  0.00000000000E+00  0.00000000000E+00  0.39202580511E+03  0.39202580512E+03  0.25500000000E-02 0. -1.
         -1   -1    0    0    0  501 -0.00000000000E+00 -0.00000000000E+00 -0.43814360805E+01  0.43814389793E+01  0.50400000000E-02 0.  1.
         24    2    1    2    0    0 -0.22204460493E-15  0.00000000000E+00  0.38764436903E+03  0.39640724410E+03  0.82888758785E+02 0.  0.
         66    2    3    3    0    0  0.18180659258E+01 -0.39924972214E+02  0.24595589004E+03  0.24918990472E+03  0.20000001982E+01 0.  0.
        -13    1    3    3    0    0 -0.18180659258E+01  0.39924972214E+02  0.14168847899E+03  0.14721733938E+03  0.10566000000E+00 0.  1.
         13    1    4    4    0    0  0.34206893537E+00 -0.16786766920E+02  0.99977824432E+02  0.10137795173E+03  0.10566000000E+00 0. -1.
        -13    1    4    4    0    0  0.19813208415E+00 -0.22101140025E+01  0.12160899539E+02  0.12362139858E+02  0.10566000000E+00 0.  1.
         14    1    4    4    0    0  0.12778649063E+01 -0.20928091292E+02  0.13381716607E+03  0.13544981313E+03  0.00000000000E+00 0. -1.
<mgrwt>
<rscale>  0 0.82888759E+02</rscale>
<asrwt>0</asrwt>
<pdfrwt beam="1">  1        2 0.60311664E-01 0.82888759E+02</pdfrwt>
<pdfrwt beam="2">  1       -1 0.67406729E-03 0.82888759E+02</pdfrwt>
<totfact> 0.25567383E+05</totfact>
</mgrwt>
</event>
<event>
 8    1  0.2603554E-016  0.8017432E+02  0.7818608E-02  0.1328557E+00
          2   -1    0    0  501    0  0.00000000000E+00  0.00000000000E+00  0.87704216869E+03  0.87704216870E+03  0.25500000000E-02 0. -1.
         -1   -1    0    0    0  501 -0.00000000000E+00 -0.00000000000E+00 -0.18322694107E+01  0.18322763424E+01  0.50400000000E-02 0.  1.
         24    2    1    2    0    0 -0.17763568394E-14  0.00000000000E+00  0.87520989928E+03  0.87887444504E+03  0.80174324700E+02 0.  0.
         66    2    3    3    0    0 -0.80646915007E+01  0.15718928504E+02  0.83203044712E+03  0.83222039682E+03  0.19999959235E+01 0.  0.
        -13    1    3    3    0    0  0.80646915007E+01 -0.15718928504E+02  0.43179452163E+02  0.46654048221E+02  0.10566000000E+00 0.  1.
         13    1    4    4    0    0 -0.28556414956E+01  0.42432554289E+01  0.21665398984E+03  0.21671437974E+03  0.10566000000E+00 0. -1.
        -13    1    4    4    0    0 -0.44410708776E+00  0.62153016783E+00  0.34451083089E+02  0.34459713012E+02  0.10566000000E+00 0.  1.
         14    1    4    4    0    0 -0.47649429174E+01  0.10854142907E+02  0.58092537418E+03  0.58104630407E+03  0.00000000000E+00 0. -1.
<mgrwt>
<rscale>  0 0.80174325E+02</rscale>
<asrwt>0</asrwt>
<pdfrwt beam="1">  1        2 0.13492966E+00 0.80174325E+02</pdfrwt>
<pdfrwt beam="2">  1       -1 0.28188794E-03 0.80174325E+02</pdfrwt>
<totfact> 0.34644241E+05</totfact>
</mgrwt>
</event>
<event>
 8    1  0.2603554E-016  0.7746955E+02  0.7818608E-02  0.1336390E+00
          2   -1    0    0  501    0  0.00000000000E+00  0.00000000000E+00  0.24020091369E+03  0.24020091370E+03  0.25500000000E-02 0. -1.
         -1   -1    0    0    0  501 -0.00000000000E+00 -0.00000000000E+00 -0.62463643292E+01  0.62463663625E+01  0.50400000000E-02 0.  1.
         24    2    1    2    0    0 -0.35527136788E-14  0.00000000000E+00  0.23395454936E+03  0.24644728006E+03  0.77469546825E+02 0.  0.
         66    2    3    3    0    0 -0.31261148800E+02  0.32968542452E+01  0.18891451180E+03  0.19152237843E+03  0.19999995710E+01 0.  0.
        -13    1    3    3    0    0  0.31261148800E+02 -0.32968542452E+01  0.45040037554E+02  0.54924901631E+02  0.10566000000E+00 0.  1.
         13    1    4    4    0    0 -0.11849496688E+02  0.13858472952E+01  0.75250989115E+02  0.76190902812E+02  0.10566000000E+00 0. -1.
        -13    1    4    4    0    0 -0.27037724543E+01  0.38524790140E+00  0.13728338173E+02  0.13997758194E+02  0.10566000000E+00 0.  1.
        -14    1    4    4    0    0 -0.16707879657E+02  0.15257590485E+01  0.99935184514E+02  0.10133371743E+03  0.00000000000E+00 0.  1.
<mgrwt>
<rscale>  0 0.77469547E+02</rscale>
<asrwt>0</asrwt>
<pdfrwt beam="1">  1        2 0.36953988E-01 0.77469547E+02</pdfrwt>
<pdfrwt beam="2">  1       -1 0.96097926E-03 0.77469547E+02</pdfrwt>
<totfact> 0.25602081E+05</totfact>
</mgrwt>
</event>
<event>
 8    1  0.2603554E-016  0.7920584E+02  0.7818608E-02  0.1331320E+00
         -1   -1    0    0    0  501 -0.00000000000E+00  0.00000000000E+00  0.68283543318E+02  0.68283543504E+02  0.50400000000E-02 0.  1.
          2   -1    0    0  501    0  0.00000000000E+00 -0.00000000000E+00 -0.22968803003E+02  0.22968803145E+02  0.25500000000E-02 0. -1.
         24    2    1    2    0    0  0.71054273576E-14  0.00000000000E+00  0.45314740315E+02  0.91252346649E+02  0.79205839931E+02 0.  0.
         66    2    3    3    0    0 -0.39385178746E+02 -0.38910996061E+01  0.22937913544E+02  0.45787343609E+02  0.19999990181E+01 0.  0.
        -13    1    3    3    0    0  0.39385178746E+02  0.38910996061E+01  0.22376826772E+02  0.45465003040E+02  0.10566000000E+00 0.  1.
         13    1    4    4    0    0 -0.28651734980E+01 -0.51799830754E+00  0.14726163979E+01  0.32645527276E+01  0.10566000000E+00 0. -1.
        -13    1    4    4    0    0 -0.71684432316E+01 -0.12271251757E+01  0.40065411259E+01  0.83039719647E+01  0.10566000000E+00 0.  1.
         14    1    4    4    0    0 -0.29351562016E+02 -0.21459761229E+01  0.17458756020E+02  0.34218818917E+02  0.00000000000E+00 0. -1.
<mgrwt>
<rscale>  0 0.79205840E+02</rscale>
<asrwt>0</asrwt>
<pdfrwt beam="1">  1        2 0.35336620E-02 0.79205840E+02</pdfrwt>
<pdfrwt beam="2">  1       -1 0.10505161E-01 0.79205840E+02</pdfrwt>
<totfact> 0.13131874E+05</totfact>
</mgrwt>
</event>
<event>
 8    1  0.2603554E-016  0.8192612E+02  0.7818608E-02  0.1323673E+00
          2   -1    0    0  501    0  0.00000000000E+00  0.00000000000E+00  0.59702336547E+03  0.59702336548E+03  0.25500000000E-02 0. -1.
         -1   -1    0    0    0  501 -0.00000000000E+00 -0.00000000000E+00 -0.28105613243E+01  0.28105658433E+01  0.50400000000E-02 0.  1.
         24    2    1    2    0    0  0.00000000000E+00 -0.35527136788E-14  0.59421280415E+03  0.59983393132E+03  0.81926116414E+02 0.  0.
         66    2    3    3    0    0  0.18941201407E+02 -0.30522904016E+02  0.44104666403E+03  0.44251166836E+03  0.20000007511E+01 0.  0.
        -13    1    3    3    0    0 -0.18941201407E+02  0.30522904016E+02  0.15316614012E+03  0.15732226296E+03  0.10566000000E+00 0.  1.
         13    1    4    4    0    0  0.42498377033E+01 -0.71111667112E+01  0.10187179180E+03  0.10220813540E+03  0.10566000000E+00 0. -1.
        -13    1    4    4    0    0  0.47632429028E+01 -0.89339948750E+01  0.12915297013E+03  0.12954924008E+03  0.10566000000E+00 0.  1.
        -14    1    4    4    0    0  0.99281208004E+01 -0.14477742430E+02  0.21002190210E+03  0.21075429288E+03  0.00000000000E+00 0.  1.
<mgrwt>
<rscale>  0 0.81926116E+02</rscale>
<asrwt>0</asrwt>
<pdfrwt beam="1">  1        2 0.91849674E-01 0.81926116E+02</pdfrwt>
<pdfrwt beam="2">  1       -1 0.43239475E-03 0.81926116E+02</pdfrwt>
<totfact> 0.30188527E+05</totfact>
</mgrwt>
</event>
<event>
 8    1  0.2656745E-016  0.7930061E+02  0.7818608E-02  0.1331048E+00
         -1   -1    0    0    0  501 -0.00000000000E+00  0.00000000000E+00  0.91025039028E+01  0.91025052981E+01  0.50400000000E-02 0.  1.
          2   -1    0    0  501    0  0.00000000000E+00 -0.00000000000E+00 -0.17271581405E+03  0.17271581407E+03  0.25500000000E-02 0. -1.
         24    2    1    2    0    0  0.00000000000E+00  0.17763568394E-14 -0.16361331015E+03  0.18181831937E+03  0.79300605294E+02 0.  0.
         66    2    3    3    0    0 -0.72530929052E+01 -0.13154399190E+02 -0.16592851440E+03  0.16661907894E+03  0.20000002033E+01 0.  0.
        -13    1    3    3    0    0  0.72530929052E+01  0.13154399190E+02  0.23152042550E+01  0.15199240426E+02  0.10566000000E+00 0.  1.
         13    1    4    4    0    0 -0.25891352794E+01 -0.50886141076E+01 -0.64714099119E+02  0.64965555518E+02  0.10566000000E+00 0. -1.
        -13    1    4    4    0    0 -0.26966693690E+01 -0.60179480491E+01 -0.71953797116E+02  0.72255434452E+02  0.10566000000E+00 0.  1.
        -14    1    4    4    0    0 -0.19672882568E+01 -0.20478370331E+01 -0.29260618166E+02  0.29398088969E+02  0.00000000000E+00 0.  1.
<mgrwt>
<rscale>  0 0.79300605E+02</rscale>
<asrwt>0</asrwt>
<pdfrwt beam="1">  1        2 0.26571661E-01 0.79300605E+02</pdfrwt>
<pdfrwt beam="2">  1       -1 0.14003855E-02 0.79300605E+02</pdfrwt>
<totfact> 0.21473106E+05</totfact>
</mgrwt>
</event>
<event>
 8    1  0.2603554E-016  0.8010597E+02  0.7818608E-02  0.1328751E+00
          2   -1    0    0  501    0  0.00000000000E+00  0.00000000000E+00  0.72604202606E+02  0.72604202651E+02  0.25500000000E-02 0. -1.
         -1   -1    0    0    0  501 -0.00000000000E+00 -0.00000000000E+00 -0.22095714183E+02  0.22095714758E+02  0.50400000000E-02 0.  1.
         24    2    1    2    0    0  0.35527136788E-14  0.00000000000E+00  0.50508488423E+02  0.94699917409E+02  0.80105973276E+02 0.  0.
         66    2    3    3    0    0 -0.19321848281E+02  0.98749426568E+01  0.65033988961E+02  0.68587666580E+02  0.19999933148E+01 0.  0.
        -13    1    3    3    0    0  0.19321848281E+02 -0.98749426568E+01 -0.14525500538E+02  0.26112250829E+02  0.10566000000E+00 0.  1.
         13    1    4    4    0    0 -0.11138238418E+02  0.60666708209E+01  0.40121756455E+02  0.42078870648E+02  0.10566000000E+00 0. -1.
        -13    1    4    4    0    0 -0.48149639129E+01  0.18205289504E+01  0.14002122031E+02  0.14918739510E+02  0.10566000000E+00 0.  1.
        -14    1    4    4    0    0 -0.33686459499E+01  0.19877428855E+01  0.10910110474E+02  0.11590056422E+02  0.00000000000E+00 0.  1.
<mgrwt>
<rscale>  0 0.80105973E+02</rscale>
<asrwt>0</asrwt>
<pdfrwt beam="1">  1        2 0.11169878E-01 0.80105973E+02</pdfrwt>
<pdfrwt beam="2">  1       -1 0.33993406E-02 0.80105973E+02</pdfrwt>
<totfact> 0.16233966E+05</totfact>
</mgrwt>
</event>
<event>
 8    1  0.2603554E-016  0.7949146E+02  0.7818608E-02  0.1330501E+00
         -1   -1    0    0    0  501 -0.00000000000E+00  0.00000000000E+00  0.92734971178E+02  0.92734971315E+02  0.50400000000E-02 0.  1.
          2   -1    0    0  501    0  0.00000000000E+00 -0.00000000000E+00 -0.17034816593E+02  0.17034816784E+02  0.25500000000E-02 0. -1.
         24    2    1    2    0    0 -0.35527136788E-14  0.17763568394E-14  0.75700154585E+02  0.10976978810E+03  0.79491464795E+02 0.  0.
         66    2    3    3    0    0 -0.14793339685E+02  0.15862969248E+02 -0.80758187500E+01  0.23231348290E+02  0.20000006229E+01 0.  0.
        -13    1    3    3    0    0  0.14793339685E+02 -0.15862969248E+02  0.83775973335E+02  0.86538439809E+02  0.10566000000E+00 0.  1.
         13    1    4    4    0    0 -0.10400262743E+02  0.11644005638E+02 -0.54055675549E+01  0.16522096025E+02  0.10566000000E+00 0. -1.
        -13    1    4    4    0    0 -0.33153129088E+01  0.36337073014E+01 -0.22768268634E+01  0.54212759602E+01  0.10566000000E+00 0.  1.
        -14    1    4    4    0    0 -0.10777640330E+01  0.58525630860E+00 -0.39342433174E+00  0.12879763050E+01  0.00000000000E+00 0.  1.
<mgrwt>
<rscale>  0 0.79491465E+02</rscale>
<asrwt>0</asrwt>
<pdfrwt beam="1">  1        2 0.26207410E-02 0.79491465E+02</pdfrwt>
<pdfrwt beam="2">  1       -1 0.14266919E-01 0.79491465E+02</pdfrwt>
<totfact> 0.12236302E+05</totfact>
</mgrwt>
</event>
<event>
 8    1  0.2603554E-016  0.8041480E+02  0.7818608E-02  0.1327878E+00
          2   -1    0    0  501    0  0.00000000000E+00  0.00000000000E+00  0.31518570250E+02  0.31518570353E+02  0.25500000000E-02 0. -1.
         -1   -1    0    0    0  501 -0.00000000000E+00 -0.00000000000E+00 -0.51291506716E+02  0.51291506964E+02  0.50400000000E-02 0.  1.
         24    2    1    2    0    0  0.35527136788E-14  0.00000000000E+00 -0.19772936466E+02  0.82810077316E+02  0.80414798941E+02 0.  0.
         66    2    3    3    0    0  0.24377486464E+02 -0.31897490081E+02 -0.11651749760E+02  0.41850627157E+02  0.20000002924E+01 0.  0.
        -13    1    3    3    0    0 -0.24377486464E+02  0.31897490081E+02 -0.81211867061E+01  0.40959450159E+02  0.10566000000E+00 0.  1.
         13    1    4    4    0    0  0.14251675507E+02 -0.17251973847E+02 -0.63059212243E+01  0.23249014235E+02  0.10566000000E+00 0. -1.
        -13    1    4    4    0    0  0.45637611335E+01 -0.60564167245E+01 -0.22882685550E+01  0.79218328839E+01  0.10566000000E+00 0.  1.
        -14    1    4    4    0    0  0.55620498242E+01 -0.85890995096E+01 -0.30575599809E+01  0.10679780038E+02  0.00000000000E+00 0.  1.
<mgrwt>
<rscale>  0 0.80414799E+02</rscale>
<asrwt>0</asrwt>
<pdfrwt beam="1">  1        2 0.48490108E-02 0.80414799E+02</pdfrwt>
<pdfrwt beam="2">  1       -1 0.78910011E-02 0.80414799E+02</pdfrwt>
<totfact> 0.13392136E+05</totfact>
</mgrwt>
</event>
<event>
 8    1  0.2603554E-016  0.8186572E+02  0.7818608E-02  0.1323839E+00
         -1   -1    0    0    0  501 -0.00000000000E+00  0.00000000000E+00  0.23369613180E+01  0.23369667527E+01  0.50400000000E-02 0.  1.
          2   -1    0    0  501    0  0.00000000000E+00 -0.00000000000E+00 -0.71695537104E+03  0.71695537104E+03  0.25500000000E-02 0. -1.
         24    2    1    2    0    0  0.00000000000E+00  0.00000000000E+00 -0.71461840972E+03  0.71929233779E+03  0.81865717490E+02 0.  0.
         66    2    3    3    0    0  0.10120661646E+02 -0.27961317676E+01 -0.70491183375E+03  0.70499286486E+03  0.20000007717E+01 0.  0.
        -13    1    3    3    0    0 -0.10120661646E+02  0.27961317676E+01 -0.97065759702E+01  0.14299472932E+02  0.10566000000E+00 0.  1.
         13    1    4    4    0    0  0.44883470326E+01 -0.98545818106E+00 -0.32300914657E+03  0.32304184918E+03  0.10566000000E+00 0. -1.
        -13    1    4    4    0    0  0.19878809620E+01 -0.45744986125E+00 -0.17396901099E+03  0.17398100149E+03  0.10566000000E+00 0.  1.
         14    1    4    4    0    0  0.36444336517E+01 -0.13532237253E+01 -0.20793367619E+03  0.20797001420E+03  0.00000000000E+00 0. -1.
<mgrwt>
<rscale>  0 0.81865717E+02</rscale>
<asrwt>0</asrwt>
<pdfrwt beam="1">  1        2 0.11030065E+00 0.81865717E+02</pdfrwt>
<pdfrwt beam="2">  1       -1 0.35953350E-03 0.81865717E+02</pdfrwt>
<totfact> 0.31673565E+05</totfact>
</mgrwt>
</event>
<event>
 8    1  0.2603554E-016  0.7623217E+02  0.7818608E-02  0.1340097E+00
         -1   -1    0    0    0  501 -0.00000000000E+00  0.00000000000E+00  0.32718837860E+01  0.32718876678E+01  0.50400000000E-02 0.  1.
          2   -1    0    0  501    0  0.00000000000E+00 -0.00000000000E+00 -0.44403629269E+03  0.44403629270E+03  0.25500000000E-02 0. -1.
         24    2    1    2    0    0  0.35527136788E-14  0.44408920985E-15 -0.44076440890E+03  0.44730818036E+03  0.76232172113E+02 0.  0.
         66    2    3    3    0    0 -0.29995045256E+02 -0.31699146888E+01 -0.35702298837E+03  0.35830038421E+03  0.20000006047E+01 0.  0.
        -13    1    3    3    0    0  0.29995045256E+02  0.31699146888E+01 -0.83741420530E+02  0.89007796150E+02  0.10566000000E+00 0.  1.
         13    1    4    4    0    0 -0.18733464794E+02 -0.26373250818E+01 -0.22022040025E+03  0.22103152272E+03  0.10566000000E+00 0. -1.
        -13    1    4    4    0    0 -0.59444543624E+00 -0.13072245630E+00 -0.61659114924E+01  0.61967799949E+01  0.10566000000E+00 0. -1.
        -14    1    4    4    0    0 -0.10667135026E+02 -0.40186715074E+00 -0.13063667663E+03  0.13107208150E+03  0.00000000000E+00 0.  1.
<mgrwt>
<rscale>  0 0.76232172E+02</rscale>
<asrwt>0</asrwt>
<pdfrwt beam="1">  1        2 0.68313228E-01 0.76232172E+02</pdfrwt>
<pdfrwt beam="2">  1       -1 0.50336739E-03 0.76232172E+02</pdfrwt>
<totfact> 0.33205402E+05</totfact>
</mgrwt>
</event>
<event>
 8    1  0.2603554E-016  0.8276464E+02  0.7818608E-02  0.1321384E+00
         -1   -1    0    0    0  501 -0.00000000000E+00  0.00000000000E+00  0.36464914991E+01  0.36464949821E+01  0.50400000000E-02 0.  1.
          2   -1    0    0  501    0  0.00000000000E+00 -0.00000000000E+00 -0.46962833807E+03  0.46962833808E+03  0.25500000000E-02 0. -1.
         24    2    1    2    0    0  0.00000000000E+00  0.17763568394E-14 -0.46598184657E+03  0.47327483306E+03  0.82764643861E+02 0.  0.
         66    2    3    3    0    0  0.10015333475E+02 -0.13588622995E+02 -0.44902893648E+03  0.44935057959E+03  0.20000001941E+01 0.  0.
        -13    1    3    3    0    0 -0.10015333475E+02  0.13588622995E+02 -0.16952910089E+02  0.23924253469E+02  0.10566000000E+00 0.  1.
         13    1    4    4    0    0  0.59571134937E+01 -0.76024416334E+01 -0.23632203629E+03  0.23651934449E+03  0.10566000000E+00 0. -1.
        -13    1    4    4    0    0  0.21550742659E+01 -0.38204376389E+01 -0.13139285136E+03  0.13146608932E+03  0.10566000000E+00 0.  1.
         14    1    4    4    0    0  0.19031457156E+01 -0.21657437225E+01 -0.81314048830E+02  0.81365145773E+02  0.00000000000E+00 0. -1.
<mgrwt>
<rscale>  0 0.82764644E+02</rscale>
<asrwt>0</asrwt>
<pdfrwt beam="1">  1        2 0.72250466E-01 0.82764644E+02</pdfrwt>
<pdfrwt beam="2">  1       -1 0.56099933E-03 0.82764644E+02</pdfrwt>
<totfact> 0.27305129E+05</totfact>
</mgrwt>
</event>
<event>
 8    1  0.2603554E-016  0.7996662E+02  0.7818608E-02  0.1329146E+00
          2   -1    0    0  501    0  0.00000000000E+00  0.00000000000E+00  0.33485775494E+02  0.33485775591E+02  0.25500000000E-02 0. -1.
         -1   -1    0    0    0  501 -0.00000000000E+00 -0.00000000000E+00 -0.47741622336E+02  0.47741622603E+02  0.50400000000E-02 0.  1.
         24    2    1    2    0    0  0.00000000000E+00  0.00000000000E+00 -0.14255846843E+02  0.81227398193E+02  0.79966624589E+02 0.  0.
         66    2    3    3    0    0 -0.97867487005E+01 -0.11010924811E+02  0.30596741146E+02  0.34017370353E+02  0.20000004148E+01 0.  0.
        -13    1    3    3    0    0  0.97867487005E+01  0.11010924811E+02 -0.44852587989E+02  0.47210027840E+02  0.10566000000E+00 0.  1.
         13    1    4    4    0    0 -0.63546563528E+01 -0.68810002461E+01  0.20240003046E+02  0.22302437290E+02  0.10566000000E+00 0. -1.
        -13    1    4    4    0    0 -0.25336939945E+01 -0.36009009467E+01  0.78712890011E+01  0.90196700306E+01  0.10566000000E+00 0.  1.
         14    1    4    4    0    0 -0.89839835320E+00 -0.52902361847E+00  0.24854490990E+01  0.26952630324E+01  0.00000000000E+00 0. -1.
<mgrwt>
<rscale>  0 0.79966625E+02</rscale>
<asrwt>0</asrwt>
<pdfrwt beam="1">  1        2 0.51516577E-02 0.79966625E+02</pdfrwt>
<pdfrwt beam="2">  1       -1 0.73448651E-02 0.79966625E+02</pdfrwt>
<totfact> 0.13767781E+05</totfact>
</mgrwt>
</event>
<event>
 8    1  0.2603554E-016  0.7920657E+02  0.7818608E-02  0.1331318E+00
          2   -1    0    0  501    0  0.00000000000E+00  0.00000000000E+00  0.41002944087E+02  0.41002944166E+02  0.25500000000E-02 0. -1.
         -1   -1    0    0    0  501 -0.00000000000E+00 -0.00000000000E+00 -0.38251406101E+02  0.38251406433E+02  0.50400000000E-02 0.  1.
         24    2    1    2    0    0  0.00000000000E+00  0.71054273576E-14  0.27515379858E+01  0.79254350600E+02  0.79206572503E+02 0.  0.
         66    2    3    3    0    0  0.64447038287E+01  0.35115770829E+02  0.18468040993E+02  0.40245746431E+02  0.19999998212E+01 0.  0.
        -13    1    3    3    0    0 -0.64447038287E+01 -0.35115770829E+02 -0.15716503008E+02  0.39008604169E+02  0.10566000000E+00 0.  1.
         13    1    4    4    0    0  0.91059702479E-01  0.19033833087E+01  0.68607250593E+00  0.20280580387E+01  0.10566000000E+00 0.  1.
        -13    1    4    4    0    0  0.49463945223E+01  0.27289504251E+02  0.14872414229E+02  0.31470362725E+02  0.10566000000E+00 0. -1.
        -14    1    4    4    0    0  0.14072496039E+01  0.59228832698E+01  0.29095542584E+01  0.67473256671E+01  0.00000000000E+00 0.  1.
<mgrwt>
<rscale>  0 0.79206573E+02</rscale>
<asrwt>0</asrwt>
<pdfrwt beam="1">  1        2 0.63081452E-02 0.79206573E+02</pdfrwt>
<pdfrwt beam="2">  1       -1 0.58848318E-02 0.79206573E+02</pdfrwt>
<totfact> 0.14727692E+05</totfact>
</mgrwt>
</event>
<event>
 8    1  0.2603554E-016  0.8191840E+02  0.7818608E-02  0.1323694E+00
         -1   -1    0    0    0  501 -0.00000000000E+00  0.00000000000E+00  0.32346184082E+01  0.32346223347E+01  0.50400000000E-02 0.  1.
          2   -1    0    0  501    0  0.00000000000E+00 -0.00000000000E+00 -0.51865619312E+03  0.51865619313E+03  0.25500000000E-02 0. -1.
         24    2    1    2    0    0  0.22204460493E-15  0.00000000000E+00 -0.51542157471E+03  0.52189081546E+03  0.81918395884E+02 0.  0.
         66    2    3    3    0    0 -0.17897875906E+01 -0.24807199161E+02 -0.46499543366E+03  0.46566442188E+03  0.20000023883E+01 0.  0.
        -13    1    3    3    0    0  0.17897875906E+01  0.24807199161E+02 -0.50426141054E+02  0.56226393584E+02  0.10566000000E+00 0.  1.
         13    1    4    4    0    0 -0.68122030952E+00 -0.66609519380E+01 -0.12679738988E+03  0.12697409809E+03  0.10566000000E+00 0. -1.
        -13    1    4    4    0    0 -0.88100222551E+00 -0.39992292009E+01 -0.71599240758E+02  0.71716333148E+02  0.10566000000E+00 0.  1.
        -14    1    4    4    0    0 -0.22756505558E+00 -0.14147018022E+02 -0.26659880302E+03  0.26697399064E+03  0.00000000000E+00 0.  1.
<mgrwt>
<rscale>  0 0.81918396E+02</rscale>
<asrwt>0</asrwt>
<pdfrwt beam="1">  1        2 0.79793194E-01 0.81918396E+02</pdfrwt>
<pdfrwt beam="2">  1       -1 0.49763432E-03 0.81918396E+02</pdfrwt>
<totfact> 0.28958574E+05</totfact>
</mgrwt>
</event>
<event>
 8    1  0.2603554E-016  0.7717830E+02  0.7818608E-02  0.1337255E+00
         -1   -1    0    0    0  501 -0.00000000000E+00  0.00000000000E+00  0.10629740499E+02  0.10629741694E+02  0.50400000000E-02 0.  1.
          2   -1    0    0  501    0  0.00000000000E+00 -0.00000000000E+00 -0.14009020811E+03  0.14009020813E+03  0.25500000000E-02 0. -1.
         24    2    1    2    0    0 -0.35527136788E-14  0.00000000000E+00 -0.12946046761E+03  0.15071994983E+03  0.77178303960E+02 0.  0.
         66    2    3    3    0    0 -0.31775663399E+02  0.22137721369E+01 -0.10722454194E+03  0.11187357129E+03  0.19999964472E+01 0.  0.
        -13    1    3    3    0    0  0.31775663399E+02 -0.22137721369E+01 -0.22235925667E+02  0.38846378542E+02  0.10566000000E+00 0.  1.
         13    1    4    4    0    0 -0.96826113676E+01  0.30291994587E+00 -0.35176522807E+02  0.36486211700E+02  0.10566000000E+00 0. -1.
        -13    1    4    4    0    0 -0.12794222564E+01 -0.12635325914E-01 -0.44410516731E+01  0.46228978964E+01  0.10566000000E+00 0.  1.
        -14    1    4    4    0    0 -0.20813629775E+02  0.19234875169E+01 -0.67606967464E+02  0.70764461690E+02  0.00000000000E+00 0.  1.
<mgrwt>
<rscale>  0 0.77178304E+02</rscale>
<asrwt>0</asrwt>
<pdfrwt beam="1">  1        2 0.21552338E-01 0.77178304E+02</pdfrwt>
<pdfrwt beam="2">  1       -1 0.16353449E-02 0.77178304E+02</pdfrwt>
<totfact> 0.21556214E+05</totfact>
</mgrwt>
</event>
<event>
 8    1  0.2603554E-016  0.7923616E+02  0.7818608E-02  0.1331233E+00
         -1   -1    0    0    0  501 -0.00000000000E+00  0.00000000000E+00  0.22549533355E+01  0.22549589679E+01  0.50400000000E-02 0.  1.
          2   -1    0    0  501    0  0.00000000000E+00 -0.00000000000E+00 -0.69606331823E+03  0.69606331824E+03  0.25500000000E-02 0. -1.
         24    2    1    2    0    0 -0.71054273576E-14  0.17763568394E-14 -0.69380836490E+03  0.69831827720E+03  0.79236160164E+02 0.  0.
         66    2    3    3    0    0  0.35129538041E+02 -0.93255212154E+01 -0.48550400189E+03  0.48686670213E+03  0.20000012916E+01 0.  0.
        -13    1    3    3    0    0 -0.35129538041E+02  0.93255212154E+01 -0.20830436301E+03  0.21145157507E+03  0.10566000000E+00 0.  1.
         13    1    4    4    0    0  0.17861715536E+02 -0.43687736381E+01 -0.25302127518E+03  0.25368859636E+03  0.10566000000E+00 0. -1.
        -13    1    4    4    0    0  0.19863615758E+01 -0.26441347367E+00 -0.24747534158E+02  0.24828756669E+02  0.10566000000E+00 0.  1.
         14    1    4    4    0    0  0.15281460929E+02 -0.46923341037E+01 -0.20773519256E+03  0.20834934911E+03  0.00000000000E+00 0. -1.
<mgrwt>
<rscale>  0 0.79236160E+02</rscale>
<asrwt>0</asrwt>
<pdfrwt beam="1">  1        2 0.10708649E+00 0.79236160E+02</pdfrwt>
<pdfrwt beam="2">  1       -1 0.34691689E-03 0.79236160E+02</pdfrwt>
<totfact> 0.34251632E+05</totfact>
</mgrwt>
</event>
<event>
 8    1  0.2603554E-016  0.8091349E+02  0.7818608E-02  0.1326479E+00
          2   -1    0    0  501    0  0.00000000000E+00  0.00000000000E+00  0.18591224204E+03  0.18591224206E+03  0.25500000000E-02 0. -1.
         -1   -1    0    0    0  501 -0.00000000000E+00 -0.00000000000E+00 -0.88038737110E+01  0.88038751537E+01  0.50400000000E-02 0.  1.
         24    2    1    2    0    0  0.00000000000E+00  0.00000000000E+00  0.17710836833E+03  0.19471611721E+03  0.80913485709E+02 0.  0.
         66    2    3    3    0    0 -0.31846699248E+02  0.32655186918E+01  0.14803716508E+03  0.15147236752E+03  0.20000026815E+01 0.  0.
        -13    1    3    3    0    0  0.31846699248E+02 -0.32655186918E+01  0.29071203248E+02  0.43243749694E+02  0.10566000000E+00 0.  1.
         13    1    4    4    0    0 -0.29038113203E+02  0.27170813804E+01  0.13599367339E+03  0.13908589042E+03  0.10566000000E+00 0. -1.
        -13    1    4    4    0    0 -0.21518763721E+01  0.35850010844E+00  0.98351568392E+01  0.10074749046E+02  0.10566000000E+00 0. -1.
         14    1    4    4    0    0 -0.65670967267E+00  0.18993720299E+00  0.22083348522E+01  0.23117280451E+01  0.00000000000E+00 0. -1.
<mgrwt>
<rscale>  0 0.80913486E+02</rscale>
<asrwt>0</asrwt>
<pdfrwt beam="1">  1        2 0.28601885E-01 0.80913486E+02</pdfrwt>
<pdfrwt beam="2">  1       -1 0.13544421E-02 0.80913486E+02</pdfrwt>
<totfact> 0.20873999E+05</totfact>
</mgrwt>
</event>
<event>
 8    1  0.2603554E-016  0.7909025E+02  0.7818608E-02  0.1331653E+00
         -1   -1    0    0    0  501 -0.00000000000E+00  0.00000000000E+00  0.27559448610E+01  0.27559494695E+01  0.50400000000E-02 0.  1.
          2   -1    0    0  501    0  0.00000000000E+00 -0.00000000000E+00 -0.56743361672E+03  0.56743361672E+03  0.25500000000E-02 0. -1.
         24    2    1    2    0    0 -0.35527136788E-14  0.00000000000E+00 -0.56467767185E+03  0.57018956619E+03  0.79090254152E+02 0.  0.
         66    2    3    3    0    0 -0.22460617516E+02  0.11396743173E+02 -0.50207262369E+03  0.50270795155E+03  0.20000008752E+01 0.  0.
        -13    1    3    3    0    0  0.22460617516E+02 -0.11396743173E+02 -0.62605048166E+02  0.67481614637E+02  0.10566000000E+00 0.  1.
         13    1    4    4    0    0 -0.16005267195E+02  0.82464853370E+01 -0.34802900412E+03  0.34849443607E+03  0.10566000000E+00 0. -1.
        -13    1    4    4    0    0 -0.15384141852E+01  0.39395334396E+00 -0.30927613851E+02  0.30968538551E+02  0.10566000000E+00 0.  1.
        -14    1    4    4    0    0 -0.49169361359E+01  0.27563044921E+01 -0.12311600572E+03  0.12324497693E+03  0.00000000000E+00 0.  1.
<mgrwt>
<rscale>  0 0.79090254E+02</rscale>
<asrwt>0</asrwt>
<pdfrwt beam="1">  1        2 0.87297387E-01 0.79090254E+02</pdfrwt>
<pdfrwt beam="2">  1       -1 0.42399232E-03 0.79090254E+02</pdfrwt>
<totfact> 0.32610820E+05</totfact>
</mgrwt>
</event>
<event>
 8    1  0.2603554E-016  0.7948233E+02  0.7818608E-02  0.1330527E+00
          2   -1    0    0  501    0  0.00000000000E+00  0.00000000000E+00  0.43719626567E+03  0.43719626567E+03  0.25500000000E-02 0. -1.
         -1   -1    0    0    0  501 -0.00000000000E+00 -0.00000000000E+00 -0.36124723012E+01  0.36124758171E+01  0.50400000000E-02 0.  1.
         24    2    1    2    0    0 -0.35527136788E-14  0.00000000000E+00  0.43358379336E+03  0.44080874149E+03  0.79482329520E+02 0.  0.
         66    2    3    3    0    0 -0.17898512187E+02  0.35423098815E+02  0.22515960252E+03  0.22863945257E+03  0.19999989817E+01 0.  0.
        -13    1    3    3    0    0  0.17898512187E+02 -0.35423098815E+02  0.20842419085E+03  0.21216928892E+03  0.10566000000E+00 0.  1.
         13    1    4    4    0    0 -0.10212683909E+02  0.20268717294E+02  0.12918979184E+03  0.13116833952E+03  0.10566000000E+00 0. -1.
        -13    1    4    4    0    0 -0.36583825432E+01  0.60038802121E+01  0.37804732189E+02  0.38453078945E+02  0.10566000000E+00 0.  1.
        -14    1    4    4    0    0 -0.40274457339E+01  0.91505013087E+01  0.58165078487E+02  0.59018034098E+02  0.00000000000E+00 0.  1.
<mgrwt>
<rscale>  0 0.79482330E+02</rscale>
<asrwt>0</asrwt>
<pdfrwt beam="1">  1        2 0.67260915E-01 0.79482330E+02</pdfrwt>
<pdfrwt beam="2">  1       -1 0.55576565E-03 0.79482330E+02</pdfrwt>
<totfact> 0.29630808E+05</totfact>
</mgrwt>
</event>
<event>
 8    1  0.2603554E-016  0.8162652E+02  0.7818608E-02  0.1324498E+00
         -1   -1    0    0    0  501 -0.00000000000E+00  0.00000000000E+00  0.18233683784E+02  0.18233684480E+02  0.50400000000E-02 0.  1.
          2   -1    0    0  501    0  0.00000000000E+00 -0.00000000000E+00 -0.91354120538E+02  0.91354120573E+02  0.25500000000E-02 0. -1.
         24    2    1    2    0    0 -0.35527136788E-14  0.00000000000E+00 -0.73120436754E+02  0.10958780505E+03  0.81626519866E+02 0.  0.
         66    2    3    3    0    0  0.26260014783E+02 -0.27438831059E+02 -0.16612836560E+02  0.41502580004E+02  0.19999955380E+01 0.  0.
        -13    1    3    3    0    0 -0.26260014783E+02  0.27438831059E+02 -0.56507600194E+02  0.68085225049E+02  0.10566000000E+00 0.  1.
         13    1    4    4    0    0  0.12799642938E+02 -0.13939041846E+02 -0.87790918817E+01  0.20861720093E+02  0.10566000000E+00 0. -1.
        -13    1    4    4    0    0  0.26444221870E+01 -0.29825421697E+01 -0.20530499672E+01  0.44849419952E+01  0.10566000000E+00 0.  1.
         14    1    4    4    0    0  0.10815949658E+02 -0.10517247043E+02 -0.57806947110E+01  0.16155917916E+02  0.00000000000E+00 0. -1.
<mgrwt>
<rscale>  0 0.81626520E+02</rscale>
<asrwt>0</asrwt>
<pdfrwt beam="1">  1        2 0.14054480E-01 0.81626520E+02</pdfrwt>
<pdfrwt beam="2">  1       -1 0.28051822E-02 0.81626520E+02</pdfrwt>
<totfact> 0.16379430E+05</totfact>
</mgrwt>
</event>
<event>
 8    1  0.2603554E-016  0.8099654E+02  0.7818608E-02  0.1326247E+00
          2   -1    0    0  501    0  0.00000000000E+00  0.00000000000E+00  0.23471179803E+03  0.23471179805E+03  0.25500000000E-02 0. -1.
         -1   -1    0    0    0  501 -0.00000000000E+00 -0.00000000000E+00 -0.69877599330E+01  0.69877617506E+01  0.50400000000E-02 0.  1.
         24    2    1    2    0    0  0.00000000000E+00  0.00000000000E+00  0.22772403810E+03  0.24169955980E+03  0.80996541147E+02 0.  0.
         66    2    3    3    0    0 -0.16240250388E+02 -0.23216577268E+02  0.20017816117E+03  0.20218321264E+03  0.20000180376E+01 0.  0.
        -13    1    3    3    0    0  0.16240250388E+02  0.23216577268E+02  0.27545876932E+02  0.39516347157E+02  0.10566000000E+00 0.  1.
         13    1    4    4    0    0 -0.10634082730E+02 -0.14748700370E+02  0.12826044252E+03  0.12954288925E+03  0.10566000000E+00 0. -1.
        -13    1    4    4    0    0 -0.29621521359E+01 -0.36055573383E+01  0.35076688876E+02  0.35385868020E+02  0.10566000000E+00 0.  1.
         14    1    4    4    0    0 -0.26440155221E+01 -0.48623195589E+01  0.36841029779E+02  0.37254455368E+02  0.00000000000E+00 0. -1.
<mgrwt>
<rscale>  0 0.80996541E+02</rscale>
<asrwt>0</asrwt>
<pdfrwt beam="1">  1        2 0.36109502E-01 0.80996541E+02</pdfrwt>
<pdfrwt beam="2">  1       -1 0.10750403E-02 0.80996541E+02</pdfrwt>
<totfact> 0.22588050E+05</totfact>
</mgrwt>
</event>
<event>
 8    1  0.2603554E-016  0.8042230E+02  0.7818608E-02  0.1327857E+00
         -1   -1    0    0    0  501 -0.00000000000E+00  0.00000000000E+00  0.69517500366E+01  0.69517518636E+01  0.50400000000E-02 0.  1.
          2   -1    0    0  501    0  0.00000000000E+00 -0.00000000000E+00 -0.23259413411E+03  0.23259413412E+03  0.25500000000E-02 0. -1.
         24    2    1    2    0    0  0.00000000000E+00  0.00000000000E+00 -0.22564238407E+03  0.23954588599E+03  0.80422297923E+02 0.  0.
         66    2    3    3    0    0 -0.18709949726E+02 -0.34672293558E+02 -0.13647658071E+03  0.14206367319E+03  0.19999993208E+01 0.  0.
        -13    1    3    3    0    0  0.18709949726E+02  0.34672293558E+02 -0.89165803364E+02  0.97482212803E+02  0.10566000000E+00 0.  1.
         13    1    4    4    0    0 -0.58421945849E+01 -0.10745333588E+02 -0.44346214886E+02  0.46002080064E+02  0.10566000000E+00 0. -1.
        -13    1    4    4    0    0 -0.79265292745E+01 -0.13460264288E+02 -0.53749194651E+02  0.55973169204E+02  0.10566000000E+00 0.  1.
        -14    1    4    4    0    0 -0.49412258663E+01 -0.10466695682E+02 -0.38381171173E+02  0.40088423918E+02  0.00000000000E+00 0.  1.
<mgrwt>
<rscale>  0 0.80422298E+02</rscale>
<asrwt>0</asrwt>
<pdfrwt beam="1">  1        2 0.35783707E-01 0.80422298E+02</pdfrwt>
<pdfrwt beam="2">  1       -1 0.10695003E-02 0.80422298E+02</pdfrwt>
<totfact> 0.22941230E+05</totfact>
</mgrwt>
</event>
<event>
 8    1  0.2603554E-016  0.8122088E+02  0.7818608E-02  0.1325622E+00
          2   -1    0    0  501    0  0.00000000000E+00  0.00000000000E+00  0.10664370141E+02  0.10664370446E+02  0.25500000000E-02 0. -1.
         -1   -1    0    0    0  501 -0.00000000000E+00 -0.00000000000E+00 -0.15464652159E+03  0.15464652167E+03  0.50400000000E-02 0.  1.
         24    2    1    2    0    0  0.00000000000E+00  0.00000000000E+00 -0.14398215145E+03  0.16531089212E+03  0.81220878576E+02 0.  0.
         66    2    3    3    0    0  0.35679744882E+02  0.18301980260E+02 -0.59292085794E+02  0.71606969782E+02  0.20000018187E+01 0.  0.
        -13    1    3    3    0    0 -0.35679744882E+02 -0.18301980260E+02 -0.84690065654E+02  0.93703922334E+02  0.10566000000E+00 0.  1.
         13    1    4    4    0    0  0.19928660679E+02  0.11193762800E+02 -0.33215705023E+02  0.40320541493E+02  0.10566000000E+00 0. -1.
        -13    1    4    4    0    0  0.78978342812E+01  0.34122879155E+01 -0.12642222774E+02  0.15292365934E+02  0.10566000000E+00 0.  1.
        -14    1    4    4    0    0  0.78532499223E+01  0.36959295451E+01 -0.13434157996E+02  0.15994062355E+02  0.00000000000E+00 0.  1.
<mgrwt>
<rscale>  0 0.81220879E+02</rscale>
<asrwt>0</asrwt>
<pdfrwt beam="1">  1        2 0.16406725E-02 0.81220879E+02</pdfrwt>
<pdfrwt beam="2">  1       -1 0.23791771E-01 0.81220879E+02</pdfrwt>
<totfact> 0.10300647E+05</totfact>
</mgrwt>
</event>
<event>
 8    1  0.2603554E-016  0.7924623E+02  0.7818608E-02  0.1331204E+00
         -1   -1    0    0    0  501 -0.00000000000E+00  0.00000000000E+00  0.44969506800E+01  0.44969535043E+01  0.50400000000E-02 0.  1.
          2   -1    0    0  501    0  0.00000000000E+00 -0.00000000000E+00 -0.34912343161E+03  0.34912343162E+03  0.25500000000E-02 0. -1.
         24    2    1    2    0    0  0.44408920985E-15 -0.35527136788E-14 -0.34462648093E+03  0.35362038512E+03  0.79246232823E+02 0.  0.
         66    2    3    3    0    0  0.18363369025E+01 -0.20282829191E+02 -0.32395838819E+03  0.32460407049E+03  0.20000020212E+01 0.  0.
        -13    1    3    3    0    0 -0.18363369025E+01  0.20282829191E+02 -0.20668092737E+02  0.29016314629E+02  0.10566000000E+00 0.  1.
         13    1    4    4    0    0 -0.11584373029E+00 -0.10267550682E+01 -0.21650602470E+02  0.21675502234E+02  0.10566000000E+00 0.  1.
        -13    1    4    4    0    0  0.44159134312E+00 -0.19449028909E+01 -0.28416838581E+02  0.28486936113E+02  0.10566000000E+00 0. -1.
         14    1    4    4    0    0  0.15105892897E+01 -0.17311171232E+02 -0.27389094714E+03  0.27444163215E+03  0.00000000000E+00 0. -1.
<mgrwt>
<rscale>  0 0.79246233E+02</rscale>
<asrwt>0</asrwt>
<pdfrwt beam="1">  1        2 0.53711276E-01 0.79246233E+02</pdfrwt>
<pdfrwt beam="2">  1       -1 0.69183906E-03 0.79246233E+02</pdfrwt>
<totfact> 0.27600427E+05</totfact>
</mgrwt>
</event>
<event>
 8    1  0.2603554E-016  0.8020259E+02  0.7818608E-02  0.1328477E+00
          2   -1    0    0  501    0  0.00000000000E+00  0.00000000000E+00  0.51481918217E+02  0.51481918280E+02  0.25500000000E-02 0. -1.
         -1   -1    0    0    0  501 -0.00000000000E+00 -0.00000000000E+00 -0.31236478462E+02  0.31236478868E+02  0.50400000000E-02 0.  1.
         24    2    1    2    0    0  0.00000000000E+00 -0.17763568394E-14  0.20245439755E+02  0.82718397148E+02  0.80202589708E+02 0.  0.
         66    2    3    3    0    0  0.11962728481E+02 -0.13080723715E+02  0.47199425965E+02  0.50457883478E+02  0.19999970021E+01 0.  0.
        -13    1    3    3    0    0 -0.11962728481E+02  0.13080723715E+02 -0.26953986210E+02  0.32260513670E+02  0.10566000000E+00 0.  1.
         13    1    4    4    0    0  0.64359603631E+01 -0.67568354314E+01  0.23729307079E+02  0.25498384054E+02  0.10566000000E+00 0. -1.
        -13    1    4    4    0    0  0.41707738963E+01 -0.55099547444E+01  0.19047403156E+02  0.20262519271E+02  0.10566000000E+00 0.  1.
         14    1    4    4    0    0  0.13559942218E+01 -0.81393353958E+00  0.44227157295E+01  0.46969801533E+01  0.00000000000E+00 0. -1.
<mgrwt>
<rscale>  0 0.80202590E+02</rscale>
<asrwt>0</asrwt>
<pdfrwt beam="1">  1        2 0.79202951E-02 0.80202590E+02</pdfrwt>
<pdfrwt beam="2">  1       -1 0.48056121E-02 0.80202590E+02</pdfrwt>
<totfact> 0.14934995E+05</totfact>
</mgrwt>
</event>
<event>
 8    1  0.2603554E-016  0.7987961E+02  0.7818608E-02  0.1329393E+00
         -1   -1    0    0    0  501 -0.00000000000E+00  0.00000000000E+00  0.42355002798E+02  0.42355003098E+02  0.50400000000E-02 0.  1.
          2   -1    0    0  501    0  0.00000000000E+00 -0.00000000000E+00 -0.37662325140E+02  0.37662325226E+02  0.25500000000E-02 0. -1.
         24    2    1    2    0    0  0.00000000000E+00 -0.44408920985E-15  0.46926776587E+01  0.80017328324E+02  0.79879606963E+02 0.  0.
         66    2    3    3    0    0 -0.20050975888E+02 -0.28928738867E+01 -0.32102950058E+02  0.38013284037E+02  0.20000018684E+01 0.  0.
        -13    1    3    3    0    0  0.20050975888E+02  0.28928738867E+01  0.36795627717E+02  0.42004044287E+02  0.10566000000E+00 0.  1.
         13    1    4    4    0    0 -0.10513157302E+02 -0.17507655573E+01 -0.18159117707E+02  0.21056029455E+02  0.10566000000E+00 0. -1.
        -13    1    4    4    0    0 -0.25742166365E+01 -0.39022527836E+00 -0.31215378080E+01  0.40662057722E+01  0.10566000000E+00 0.  1.
         14    1    4    4    0    0 -0.69636019501E+01 -0.75188305107E+00 -0.10822294542E+02  0.12891048809E+02  0.00000000000E+00 0. -1.
<mgrwt>
<rscale>  0 0.79879607E+02</rscale>
<asrwt>0</asrwt>
<pdfrwt beam="1">  1        2 0.57942038E-02 0.79879607E+02</pdfrwt>
<pdfrwt beam="2">  1       -1 0.65161544E-02 0.79879607E+02</pdfrwt>
<totfact> 0.14139790E+05</totfact>
</mgrwt>
</event>
<event>
 8    1  0.2603554E-016  0.8095890E+02  0.7818608E-02  0.1326352E+00
          2   -1    0    0  501    0  0.00000000000E+00  0.00000000000E+00  0.18140634250E+03  0.18140634252E+03  0.25500000000E-02 0. -1.
         -1   -1    0    0    0  501 -0.00000000000E+00 -0.00000000000E+00 -0.90326821154E+01  0.90326835215E+01  0.50400000000E-02 0.  1.
         24    2    1    2    0    0 -0.35527136788E-14  0.00000000000E+00  0.17237366038E+03  0.19043902604E+03  0.80958902194E+02 0.  0.
         66    2    3    3    0    0  0.24803194199E+02  0.26482993864E+02  0.12832057860E+03  0.13336685607E+03  0.19999996396E+01 0.  0.
        -13    1    3    3    0    0 -0.24803194199E+02 -0.26482993864E+02  0.44053081779E+02  0.57072169967E+02  0.10566000000E+00 0.  1.
         13    1    4    4    0    0  0.95431628689E+01  0.10448628185E+02  0.52890436558E+02  0.54750846859E+02  0.10566000000E+00 0. -1.
        -13    1    4    4    0    0  0.76096380638E+01  0.86139121457E+01  0.38733705088E+02  0.40403182397E+02  0.10566000000E+00 0.  1.
         14    1    4    4    0    0  0.76503932663E+01  0.74204535332E+01  0.36696436960E+02  0.38212826816E+02  0.00000000000E+00 0. -1.
<mgrwt>
<rscale>  0 0.80958902E+02</rscale>
<asrwt>0</asrwt>
<pdfrwt beam="1">  1        2 0.27908667E-01 0.80958902E+02</pdfrwt>
<pdfrwt beam="2">  1       -1 0.13896436E-02 0.80958902E+02</pdfrwt>
<totfact> 0.20669012E+05</totfact>
</mgrwt>
</event>
<event>
 8    1  0.2603554E-016  0.8090547E+02  0.7818608E-02  0.1326501E+00
          2   -1    0    0  501    0  0.00000000000E+00  0.00000000000E+00  0.11184324854E+04  0.11184324854E+04  0.25500000000E-02 0. -1.
         -1   -1    0    0    0  501 -0.00000000000E+00 -0.00000000000E+00 -0.14631360767E+01  0.14631447572E+01  0.50400000000E-02 0.  1.
         24    2    1    2    0    0  0.00000000000E+00  0.00000000000E+00  0.11169693493E+04  0.11198956301E+04  0.80905470295E+02 0.  0.
         66    2    3    3    0    0  0.15693073752E+02 -0.23610800523E+02  0.95777235456E+03  0.95819393947E+03  0.20000046966E+01 0.  0.
        -13    1    3    3    0    0 -0.15693073752E+02  0.23610800523E+02  0.15919699473E+03  0.16170169066E+03  0.10566000000E+00 0.  1.
         13    1    4    4    0    0  0.70720415509E+00 -0.15453527165E+01  0.55598397437E+02  0.55624465969E+02  0.10566000000E+00 0.  1.
        -13    1    4    4    0    0  0.12869048837E+02 -0.19042338322E+02  0.75853953657E+03  0.75888764832E+03  0.10566000000E+00 0. -1.
        -14    1    4    4    0    0  0.21168207596E+01 -0.30231094843E+01  0.14363442055E+03  0.14368182518E+03  0.00000000000E+00 0.  1.
<mgrwt>
<rscale>  0 0.80905470E+02</rscale>
<asrwt>0</asrwt>
<pdfrwt beam="1">  1        2 0.17206633E+00 0.80905470E+02</pdfrwt>
<pdfrwt beam="2">  1       -1 0.22509879E-03 0.80905470E+02</pdfrwt>
<totfact> 0.34214195E+05</totfact>
</mgrwt>
</event>
<event>
 8    1  0.2603554E-016  0.8031470E+02  0.7818608E-02  0.1328161E+00
         -1   -1    0    0    0  501 -0.00000000000E+00  0.00000000000E+00  0.21274798390E+02  0.21274798987E+02  0.50400000000E-02 0.  1.
          2   -1    0    0  501    0  0.00000000000E+00 -0.00000000000E+00 -0.75799206489E+02  0.75799206532E+02  0.25500000000E-02 0. -1.
         24    2    1    2    0    0  0.00000000000E+00  0.00000000000E+00 -0.54524408100E+02  0.97074005519E+02  0.80314702694E+02 0.  0.
         66    2    3    3    0    0  0.37134530710E+02 -0.14086605014E+02 -0.34243573059E+02  0.52478834863E+02  0.20000002029E+01 0.  0.
        -13    1    3    3    0    0 -0.37134530710E+02  0.14086605014E+02 -0.20280835041E+02  0.44595170656E+02  0.10566000000E+00 0.  1.
         13    1    4    4    0    0  0.23406541155E+02 -0.80581367132E+01 -0.21018278771E+02  0.32474281249E+02  0.10566000000E+00 0. -1.
        -13    1    4    4    0    0  0.12854223738E+02 -0.56953809403E+01 -0.12178883405E+02  0.18601204181E+02  0.10566000000E+00 0. -1.
         14    1    4    4    0    0  0.87376581729E+00 -0.33308736036E+00 -0.10464108821E+01  0.14033494316E+01  0.00000000000E+00 0. -1.
<mgrwt>
<rscale>  0 0.80314703E+02</rscale>
<asrwt>0</asrwt>
<pdfrwt beam="1">  1        2 0.11661416E-01 0.80314703E+02</pdfrwt>
<pdfrwt beam="2">  1       -1 0.32730460E-02 0.80314703E+02</pdfrwt>
<totfact> 0.16294547E+05</totfact>
</mgrwt>
</event>
<event>
 8    1  0.2603554E-016  0.7736178E+02  0.7818608E-02  0.1336710E+00
         -1   -1    0    0    0  501 -0.00000000000E+00  0.00000000000E+00  0.50203349894E+02  0.50203350147E+02  0.50400000000E-02 0.  1.
          2   -1    0    0  501    0  0.00000000000E+00 -0.00000000000E+00 -0.29803012806E+02  0.29803012915E+02  0.25500000000E-02 0. -1.
         24    2    1    2    0    0  0.00000000000E+00  0.00000000000E+00  0.20400337088E+02  0.80006363062E+02  0.77361775943E+02 0.  0.
         66    2    3    3    0    0  0.19692092562E+02 -0.10171846162E+02 -0.22545209743E+02  0.31678564432E+02  0.19999995751E+01 0.  0.
        -13    1    3    3    0    0 -0.19692092562E+02  0.10171846162E+02  0.42945546831E+02  0.48327798630E+02  0.10566000000E+00 0.  1.
         13    1    4    4    0    0  0.78701927453E+01 -0.36930413062E+01 -0.88730245512E+01  0.12422568843E+02  0.10566000000E+00 0. -1.
        -13    1    4    4    0    0  0.78942079151E+01 -0.44884977380E+01 -0.82336027352E+01  0.12258405630E+02  0.10566000000E+00 0.  1.
        -14    1    4    4    0    0  0.39276919011E+01 -0.19903071176E+01 -0.54385824566E+01  0.69975899587E+01  0.00000000000E+00 0.  1.
<mgrwt>
<rscale>  0 0.77361776E+02</rscale>
<asrwt>0</asrwt>
<pdfrwt beam="1">  1        2 0.45850789E-02 0.77361776E+02</pdfrwt>
<pdfrwt beam="2">  1       -1 0.77235923E-02 0.77361776E+02</pdfrwt>
<totfact> 0.14758547E+05</totfact>
</mgrwt>
</event>
<event>
 8    1  0.2603554E-016  0.8025192E+02  0.7818608E-02  0.1328338E+00
         -1   -1    0    0    0  501 -0.00000000000E+00  0.00000000000E+00  0.25404390637E+02  0.25404391137E+02  0.50400000000E-02 0.  1.
          2   -1    0    0  501    0  0.00000000000E+00 -0.00000000000E+00 -0.63378516891E+02  0.63378516942E+02  0.25500000000E-02 0. -1.
         24    2    1    2    0    0  0.35527136788E-14 -0.44408920985E-15 -0.37974126254E+02  0.88782908079E+02  0.80251918994E+02 0.  0.
         66    2    3    3    0    0  0.17025622280E+02  0.24016488546E+01 -0.59077647798E+02  0.61561418097E+02  0.19999993562E+01 0.  0.
        -13    1    3    3    0    0 -0.17025622280E+02 -0.24016488546E+01  0.21103521544E+02  0.27221489982E+02  0.10566000000E+00 0.  1.
         13    1    4    4    0    0  0.65941198227E+00  0.80287034583E-01 -0.36450844188E+01  0.37066257737E+01  0.10566000000E+00 0. -1.
        -13    1    4    4    0    0  0.14012537214E+01 -0.80401980263E-01 -0.49135962664E+01  0.51112198911E+01  0.10566000000E+00 0.  1.
         14    1    4    4    0    0  0.14964956577E+02  0.24017638002E+01 -0.50518967113E+02  0.52743572432E+02  0.00000000000E+00 0. -1.
<mgrwt>
<rscale>  0 0.80251919E+02</rscale>
<asrwt>0</asrwt>
<pdfrwt beam="1">  1        2 0.97505410E-02 0.80251919E+02</pdfrwt>
<pdfrwt beam="2">  1       -1 0.39083679E-02 0.80251919E+02</pdfrwt>
<totfact> 0.15632250E+05</totfact>
</mgrwt>
</event>
<event>
 8    1  0.2603554E-016  0.8102790E+02  0.7818608E-02  0.1326159E+00
          2   -1    0    0  501    0  0.00000000000E+00  0.00000000000E+00  0.12081229765E+04  0.12081229765E+04  0.25500000000E-02 0. -1.
         -1   -1    0    0    0  501 -0.00000000000E+00 -0.00000000000E+00 -0.13586153637E+01  0.13586247120E+01  0.50400000000E-02 0.  1.
         24    2    1    2    0    0  0.00000000000E+00  0.17763568394E-14  0.12067643612E+04  0.12094816012E+04  0.81027898704E+02 0.  0.
         66    2    3    3    0    0  0.17941596323E+02 -0.14558112061E+02  0.11000565122E+04  0.11003009449E+04  0.20000016462E+01 0.  0.
        -13    1    3    3    0    0 -0.17941596323E+02  0.14558112061E+02  0.10670784901E+03  0.10918065630E+03  0.10566000000E+00 0.  1.
         13    1    4    4    0    0  0.71086720634E+01 -0.61499276510E+01  0.45718081712E+03  0.45727744919E+03  0.10566000000E+00 0. -1.
        -13    1    4    4    0    0  0.98740895536E+01 -0.80123196422E+01  0.60481220724E+03  0.60494587534E+03  0.10566000000E+00 0.  1.
        -14    1    4    4    0    0  0.95883470594E+00 -0.39586476778E+00  0.38063487797E+02  0.38077620412E+02  0.00000000000E+00 0.  1.
<mgrwt>
<rscale>  0 0.81027899E+02</rscale>
<asrwt>0</asrwt>
<pdfrwt beam="1">  1        2 0.18586517E+00 0.81027899E+02</pdfrwt>
<pdfrwt beam="2">  1       -1 0.20901836E-03 0.81027899E+02</pdfrwt>
<totfact> 0.33869000E+05</totfact>
</mgrwt>
</event>
<event>
 8    1  0.2603554E-016  0.8589252E+02  0.7818608E-02  0.1313115E+00
         -1   -1    0    0    0  501 -0.00000000000E+00  0.00000000000E+00  0.35210221768E+02  0.35210222129E+02  0.50400000000E-02 0.  1.
          2   -1    0    0  501    0  0.00000000000E+00 -0.00000000000E+00 -0.52381977663E+02  0.52381977726E+02  0.25500000000E-02 0. -1.
         24    2    1    2    0    0  0.00000000000E+00 -0.22204460493E-15 -0.17171755895E+02  0.87592199854E+02  0.85892515825E+02 0.  0.
         66    2    3    3    0    0 -0.20765203032E+02 -0.11328504489E+01 -0.46882173071E+02  0.51326554129E+02  0.19999999484E+01 0.  0.
        -13    1    3    3    0    0  0.20765203032E+02  0.11328504489E+01  0.29710417176E+02  0.36265645725E+02  0.10566000000E+00 0.  1.
         13    1    4    4    0    0 -0.17792494907E+02 -0.10647224853E+01 -0.39651012259E+02  0.43473215273E+02  0.10566000000E+00 0. -1.
        -13    1    4    4    0    0 -0.10485424766E+01 -0.26306249476E+00 -0.32615154692E+01  0.34376286001E+01  0.10566000000E+00 0.  1.
        -14    1    4    4    0    0 -0.19241656488E+01  0.19493453120E+00 -0.39696453431E+01  0.44157102560E+01  0.00000000000E+00 0.  1.
<mgrwt>
<rscale>  0 0.85892516E+02</rscale>
<asrwt>0</asrwt>
<pdfrwt beam="1">  1        2 0.80587658E-02 0.85892516E+02</pdfrwt>
<pdfrwt beam="2">  1       -1 0.54169572E-02 0.85892516E+02</pdfrwt>
<totfact> 0.12417672E+05</totfact>
</mgrwt>
</event>
<event>
 8    1  0.2603554E-016  0.7549101E+02  0.7818608E-02  0.1342357E+00
         -1   -1    0    0    0  501 -0.00000000000E+00  0.00000000000E+00  0.50616139760E+01  0.50616164852E+01  0.50400000000E-02 0.  1.
          2   -1    0    0  501    0  0.00000000000E+00 -0.00000000000E+00 -0.28147595462E+03  0.28147595463E+03  0.25500000000E-02 0. -1.
         24    2    1    2    0    0 -0.35527136788E-14  0.00000000000E+00 -0.27641434064E+03  0.28653757112E+03  0.75491005741E+02 0.  0.
         66    2    3    3    0    0 -0.31487694359E+02 -0.18461351817E+02 -0.17439688132E+03  0.17818689240E+03  0.20000007250E+01 0.  0.
        -13    1    3    3    0    0  0.31487694359E+02  0.18461351817E+02 -0.10201745933E+03  0.10835067872E+03  0.10566000000E+00 0.  1.
         13    1    4    4    0    0 -0.43416156881E+01 -0.26058834299E+01 -0.24998611997E+02  0.25506509386E+02  0.10566000000E+00 0. -1.
        -13    1    4    4    0    0 -0.29451576047E+01 -0.11190852519E+01 -0.14701658404E+02  0.15035831503E+02  0.10566000000E+00 0.  1.
        -14    1    4    4    0    0 -0.24200921066E+02 -0.14736383135E+02 -0.13469661092E+03  0.13764455151E+03  0.00000000000E+00 0.  1.
<mgrwt>
<rscale>  0 0.75491006E+02</rscale>
<asrwt>0</asrwt>
<pdfrwt beam="1">  1        2 0.43303981E-01 0.75491006E+02</pdfrwt>
<pdfrwt beam="2">  1       -1 0.77871026E-03 0.75491006E+02</pdfrwt>
<totfact> 0.28996227E+05</totfact>
</mgrwt>
</event>
<event>
 8    1  0.2603554E-016  0.8090534E+02  0.7818608E-02  0.1326502E+00
         -1   -1    0    0    0  501 -0.00000000000E+00  0.00000000000E+00  0.28990003242E+01  0.28990047053E+01  0.50400000000E-02 0.  1.
          2   -1    0    0  501    0  0.00000000000E+00 -0.00000000000E+00 -0.56447646150E+03  0.56447646150E+03  0.25500000000E-02 0. -1.
         24    2    1    2    0    0  0.00000000000E+00  0.00000000000E+00 -0.56157746117E+03  0.56737546621E+03  0.80905344431E+02 0.  0.
         66    2    3    3    0    0  0.33512704609E+02 -0.20908085397E+01 -0.43885615333E+03  0.44014338136E+03  0.19999985192E+01 0.  0.
        -13    1    3    3    0    0 -0.33512704609E+02  0.20908085397E+01 -0.12272130784E+03  0.12723208484E+03  0.10566000000E+00 0.  1.
         13    1    4    4    0    0  0.19676179556E+02 -0.10146806534E+01 -0.25265874093E+03  0.25342579220E+03  0.10566000000E+00 0. -1.
        -13    1    4    4    0    0  0.13408746076E+00 -0.69143435136E-01 -0.19931685887E+01  0.20016606406E+01  0.10566000000E+00 0. -1.
         14    1    4    4    0    0  0.13702437593E+02 -0.10069844511E+01 -0.18420424381E+03  0.18471592852E+03  0.00000000000E+00 0. -1.
<mgrwt>
<rscale>  0 0.80905344E+02</rscale>
<asrwt>0</asrwt>
<pdfrwt beam="1">  1        2 0.86842445E-01 0.80905344E+02</pdfrwt>
<pdfrwt beam="2">  1       -1 0.44600084E-03 0.80905344E+02</pdfrwt>
<totfact> 0.30693196E+05</totfact>
</mgrwt>
</event>
<event>
 8    1  0.2603554E-016  0.8186540E+02  0.7818608E-02  0.1323840E+00
          2   -1    0    0  501    0  0.00000000000E+00  0.00000000000E+00  0.83813232522E+03  0.83813232522E+03  0.25500000000E-02 0. -1.
         -1   -1    0    0    0  501 -0.00000000000E+00 -0.00000000000E+00 -0.19990675227E+01  0.19990738760E+01  0.50400000000E-02 0.  1.
         24    2    1    2    0    0 -0.35527136788E-14  0.17763568394E-14  0.83613325769E+03  0.84013139910E+03  0.81865396389E+02 0.  0.
         66    2    3    3    0    0 -0.23586734446E+02  0.15092164290E+02  0.72436299569E+03  0.72490679193E+03  0.19999982718E+01 0.  0.
        -13    1    3    3    0    0  0.23586734446E+02 -0.15092164290E+02  0.11177026201E+03  0.11522460717E+03  0.10566000000E+00 0.  1.
         13    1    4    4    0    0 -0.12470243060E+02  0.71960456948E+01  0.36753113630E+03  0.36781304673E+03  0.10566000000E+00 0. -1.
        -13    1    4    4    0    0 -0.10756216639E+02  0.76620379529E+01  0.33998011472E+03  0.34023652448E+03  0.10566000000E+00 0.  1.
        -14    1    4    4    0    0 -0.36027474678E+00  0.23408064215E+00  0.16851744667E+02  0.16857220707E+02  0.00000000000E+00 0.  1.
<mgrwt>
<rscale>  0 0.81865396E+02</rscale>
<asrwt>0</asrwt>
<pdfrwt beam="1">  1        2 0.12894382E+00 0.81865396E+02</pdfrwt>
<pdfrwt beam="2">  1       -1 0.30754841E-03 0.81865396E+02</pdfrwt>
<totfact> 0.32610120E+05</totfact>
</mgrwt>
</event>
<event>
 8    1  0.2603554E-016  0.7960745E+02  0.7818608E-02  0.1330169E+00
         -1   -1    0    0    0  501 -0.00000000000E+00  0.00000000000E+00  0.30948353162E+01  0.30948394200E+01  0.50400000000E-02 0.  1.
          2   -1    0    0  501    0  0.00000000000E+00 -0.00000000000E+00 -0.51192879968E+03  0.51192879969E+03  0.25500000000E-02 0. -1.
         24    2    1    2    0    0 -0.17763568394E-14  0.17763568394E-14 -0.50883396436E+03  0.51502363911E+03  0.79607446562E+02 0.  0.
         66    2    3    3    0    0  0.11430622185E+02 -0.10057625077E+02 -0.49232869812E+03  0.49256812923E+03  0.20000003874E+01 0.  0.
        -13    1    3    3    0    0 -0.11430622185E+02  0.10057625077E+02 -0.16505266247E+02  0.22455509872E+02  0.10566000000E+00 0.  1.
         13    1    4    4    0    0  0.91654853607E+01 -0.74411850789E+01 -0.36162142766E+03  0.36181410346E+03  0.10566000000E+00 0. -1.
        -13    1    4    4    0    0  0.22405546181E+01 -0.24668531230E+01 -0.12255093716E+03  0.12259628384E+03  0.10566000000E+00 0.  1.
         14    1    4    4    0    0  0.24582205796E-01 -0.14958687518E+00 -0.81563333000E+01  0.81577419314E+01  0.00000000000E+00 0. -1.
<mgrwt>
<rscale>  0 0.79607447E+02</rscale>
<asrwt>0</asrwt>
<pdfrwt beam="1">  1        2 0.78758210E-01 0.79607447E+02</pdfrwt>
<pdfrwt beam="2">  1       -1 0.47612924E-03 0.79607447E+02</pdfrwt>
<totfact> 0.31075047E+05</totfact>
</mgrwt>
</event>
<event>
 8    1  0.2603554E-016  0.7940393E+02  0.7818608E-02  0.1330752E+00
          2   -1    0    0  501    0  0.00000000000E+00  0.00000000000E+00  0.64858396058E+01  0.64858401070E+01  0.25500000000E-02 0. -1.
         -1   -1    0    0    0  501 -0.00000000000E+00 -0.00000000000E+00 -0.24302879263E+03  0.24302879268E+03  0.50400000000E-02 0.  1.
         24    2    1    2    0    0  0.00000000000E+00 -0.55511151231E-16 -0.23654295302E+03  0.24951463279E+03  0.79403925284E+02 0.  0.
         66    2    3    3    0    0  0.39444539688E+02 -0.28825213841E+00 -0.10490892753E+03  0.11209744816E+03  0.20000017916E+01 0.  0.
        -13    1    3    3    0    0 -0.39444539688E+02  0.28825213841E+00 -0.13163402549E+03  0.13741718463E+03  0.10566000000E+00 0.  1.
         13    1    4    4    0    0  0.66830829293E+01 -0.32419627078E+00 -0.18703805463E+02  0.19864848439E+02  0.10566000000E+00 0. -1.
        -13    1    4    4    0    0  0.67582585464E+01  0.24587882610E+00 -0.19369870796E+02  0.20516763236E+02  0.10566000000E+00 0.  1.
         14    1    4    4    0    0  0.26003198213E+02 -0.20993469373E+00 -0.66835251274E+02  0.71715836485E+02  0.00000000000E+00 0. -1.
<mgrwt>
<rscale>  0 0.79403925E+02</rscale>
<asrwt>0</asrwt>
<pdfrwt beam="1">  1        2 0.99782170E-03 0.79403925E+02</pdfrwt>
<pdfrwt beam="2">  1       -1 0.37389038E-01 0.79403925E+02</pdfrwt>
<totfact> 0.95329874E+04</totfact>
</mgrwt>
</event>
<event>
 8    1  0.2603554E-016  0.7858529E+02  0.7818608E-02  0.1333115E+00
         -1   -1    0    0    0  501 -0.00000000000E+00  0.00000000000E+00  0.14583312658E+01  0.14583399749E+01  0.50400000000E-02 0.  1.
          2   -1    0    0  501    0  0.00000000000E+00 -0.00000000000E+00 -0.10586809270E+04  0.10586809270E+04  0.25500000000E-02 0. -1.
         24    2    1    2    0    0  0.00000000000E+00 -0.88817841970E-15 -0.10572225957E+04  0.10601392669E+04  0.78585294156E+02 0.  0.
         66    2    3    3    0    0  0.10894151696E+02  0.50923310997E+01 -0.10332253000E+04  0.10332972152E+04  0.19999990555E+01 0.  0.
        -13    1    3    3    0    0 -0.10894151696E+02 -0.50923310997E+01 -0.23997295727E+02  0.26842051774E+02  0.10566000000E+00 0.  1.
         13    1    4    4    0    0  0.60433552642E+01  0.33582311295E+01 -0.63770314517E+03  0.63774063096E+03  0.10566000000E+00 0. -1.
        -13    1    4    4    0    0  0.18730091542E+01  0.43664482538E+00 -0.17303647392E+03  0.17304719383E+03  0.10566000000E+00 0.  1.
         14    1    4    4    0    0  0.29777872772E+01  0.12974551448E+01 -0.22248568087E+03  0.22250939037E+03  0.00000000000E+00 0. -1.
<mgrwt>
<rscale>  0 0.78585294E+02</rscale>
<asrwt>0</asrwt>
<pdfrwt beam="1">  1        2 0.16287337E+00 0.78585294E+02</pdfrwt>
<pdfrwt beam="2">  1       -1 0.22436017E-03 0.78585294E+02</pdfrwt>
<totfact> 0.36944136E+05</totfact>
</mgrwt>
</event>
<event>
 8    1  0.2603554E-016  0.7827297E+02  0.7818608E-02  0.1334025E+00
         -1   -1    0    0    0  501 -0.00000000000E+00  0.00000000000E+00  0.36104753385E+02  0.36104753737E+02  0.50400000000E-02 0.  1.
          2   -1    0    0  501    0  0.00000000000E+00 -0.00000000000E+00 -0.42422794411E+02  0.42422794487E+02  0.25500000000E-02 0. -1.
         24    2    1    2    0    0  0.00000000000E+00  0.00000000000E+00 -0.63180410257E+01  0.78527548224E+02  0.78272972268E+02 0.  0.
         66    2    3    3    0    0 -0.21689417607E+02  0.22396907787E+02 -0.26851588765E+02  0.41195389683E+02  0.19999993412E+01 0.  0.
        -13    1    3    3    0    0  0.21689417607E+02 -0.22396907787E+02  0.20533547740E+02  0.37332158541E+02  0.10566000000E+00 0.  1.
         13    1    4    4    0    0 -0.20523037149E+02  0.21508313895E+02 -0.25674842212E+02  0.39281182608E+02  0.10566000000E+00 0. -1.
        -13    1    4    4    0    0 -0.12659137894E+00  0.15178592130E+00 -0.98214634510E-01  0.24469265040E+00  0.10566000000E+00 0. -1.
         14    1    4    4    0    0 -0.10397890787E+01  0.73680797028E+00 -0.10785319187E+01  0.16695144243E+01  0.00000000000E+00 0. -1.
<mgrwt>
<rscale>  0 0.78272972E+02</rscale>
<asrwt>0</asrwt>
<pdfrwt beam="1">  1        2 0.65265838E-02 0.78272972E+02</pdfrwt>
<pdfrwt beam="2">  1       -1 0.55545775E-02 0.78272972E+02</pdfrwt>
<totfact> 0.15323149E+05</totfact>
</mgrwt>
</event>
<event>
 8    1  0.2603554E-016  0.7803548E+02  0.7818608E-02  0.1334721E+00
         -1   -1    0    0    0  501 -0.00000000000E+00  0.00000000000E+00  0.74831273185E+01  0.74831290157E+01  0.50400000000E-02 0.  1.
          2   -1    0    0  501    0  0.00000000000E+00 -0.00000000000E+00 -0.20344217079E+03  0.20344217080E+03  0.25500000000E-02 0. -1.
         24    2    1    2    0    0  0.44408920985E-15 -0.35527136788E-14 -0.19595904347E+03  0.21092529982E+03  0.78035475179E+02 0.  0.
         66    2    3    3    0    0  0.20139906784E+01  0.19868308723E+02 -0.18856491792E+03  0.18962999267E+03  0.19999998014E+01 0.  0.
        -13    1    3    3    0    0 -0.20139906784E+01 -0.19868308723E+02 -0.73941255486E+01  0.21295307151E+02  0.10566000000E+00 0.  1.
         13    1    4    4    0    0  0.82900007980E+00  0.10144492824E+02 -0.97467805706E+02  0.97997868799E+02  0.10566000000E+00 0. -1.
        -13    1    4    4    0    0 -0.51281483493E-01  0.11630220518E+01 -0.77959778888E+01  0.78831266235E+01  0.10566000000E+00 0.  1.
        -14    1    4    4    0    0  0.12362720821E+01  0.85607938470E+01 -0.83301134323E+02  0.83748997244E+02  0.00000000000E+00 0.  1.
<mgrwt>
<rscale>  0 0.78035475E+02</rscale>
<asrwt>0</asrwt>
<pdfrwt beam="1">  1        2 0.31298791E-01 0.78035475E+02</pdfrwt>
<pdfrwt beam="2">  1       -1 0.11512506E-02 0.78035475E+02</pdfrwt>
<totfact> 0.23692012E+05</totfact>
</mgrwt>
</event>
<event>
 8    1  0.2603554E-016  0.7866758E+02  0.7818608E-02  0.1332876E+00
          2   -1    0    0  501    0  0.00000000000E+00  0.00000000000E+00  0.22931978099E+02  0.22931978241E+02  0.25500000000E-02 0. -1.
         -1   -1    0    0    0  501 -0.00000000000E+00 -0.00000000000E+00 -0.67466800654E+02  0.67466800842E+02  0.50400000000E-02 0.  1.
         24    2    1    2    0    0 -0.71054273576E-14  0.00000000000E+00 -0.44534822555E+02  0.90398779083E+02  0.78667584428E+02 0.  0.
         66    2    3    3    0    0  0.19553426161E+02  0.22586440057E+02  0.70751068597E+01  0.30765904531E+02  0.19999988578E+01 0.  0.
        -13    1    3    3    0    0 -0.19553426161E+02 -0.22586440057E+02 -0.51609929415E+02  0.59632874552E+02  0.10566000000E+00 0.  1.
         13    1    4    4    0    0  0.12268032413E+02  0.13089051653E+02  0.41493974557E+01  0.18413488418E+02  0.10566000000E+00 0. -1.
        -13    1    4    4    0    0  0.20583080864E+01  0.27204914509E+01  0.44724438538E+00  0.34422227541E+01  0.10566000000E+00 0.  1.
        -14    1    4    4    0    0  0.52270856613E+01  0.67768969539E+01  0.24784650187E+01  0.89101933583E+01  0.00000000000E+00 0.  1.
<mgrwt>
<rscale>  0 0.78667584E+02</rscale>
<asrwt>0</asrwt>
<pdfrwt beam="1">  1        2 0.35279967E-02 0.78667584E+02</pdfrwt>
<pdfrwt beam="2">  1       -1 0.10379508E-01 0.78667584E+02</pdfrwt>
<totfact> 0.13384369E+05</totfact>
</mgrwt>
</event>
<event>
 8    1  0.2603554E-016  0.8138829E+02  0.7818608E-02  0.1325157E+00
         -1   -1    0    0    0  501 -0.00000000000E+00  0.00000000000E+00  0.92207534340E+03  0.92207534341E+03  0.50400000000E-02 0.  1.
          2   -1    0    0  501    0  0.00000000000E+00 -0.00000000000E+00 -0.17959624175E+01  0.17959642278E+01  0.25500000000E-02 0. -1.
         24    2    1    2    0    0 -0.35527136788E-14  0.00000000000E+00  0.92027938098E+03  0.92387130764E+03  0.81388291675E+02 0.  0.
         66    2    3    3    0    0  0.30810087927E+02 -0.13998489375E+02  0.71646309107E+03  0.71726465136E+03  0.19999998715E+01 0.  0.
        -13    1    3    3    0    0 -0.30810087927E+02  0.13998489375E+02  0.20381628991E+03  0.20660665628E+03  0.10566000000E+00 0.  1.
         13    1    4    4    0    0  0.14452712377E+02 -0.67016035783E+01  0.34486521892E+03  0.34523299780E+03  0.10566000000E+00 0. -1.
        -13    1    4    4    0    0  0.65569936466E+01 -0.22264920027E+01  0.14197414534E+03  0.14214295811E+03  0.10566000000E+00 0.  1.
        -14    1    4    4    0    0  0.98003819040E+01 -0.50703937943E+01  0.22962372681E+03  0.22988869544E+03  0.00000000000E+00 0.  1.
<mgrwt>
<rscale>  0 0.81388292E+02</rscale>
<asrwt>0</asrwt>
<pdfrwt beam="1">  1        2 0.27630164E-03 0.81388292E+02</pdfrwt>
<pdfrwt beam="2">  1       -1 0.14185796E+00 0.81388292E+02</pdfrwt>
<totfact> 0.38139084E+04</totfact>
</mgrwt>
</event>
<event>
 8    1  0.2603554E-016  0.7907212E+02  0.7818608E-02  0.1331705E+00
         -1   -1    0    0    0  501 -0.00000000000E+00  0.00000000000E+00  0.25359785984E+01  0.25359836066E+01  0.50400000000E-02 0.  1.
          2   -1    0    0  501    0  0.00000000000E+00 -0.00000000000E+00 -0.61636892190E+03  0.61636892191E+03  0.25500000000E-02 0. -1.
         24    2    1    2    0    0  0.00000000000E+00  0.00000000000E+00 -0.61383294330E+03  0.61890490551E+03  0.79072117617E+02 0.  0.
         66    2    3    3    0    0 -0.28813681617E+02 -0.37645971801E+01 -0.51665259790E+03  0.51747300158E+03  0.19999999751E+01 0.  0.
        -13    1    3    3    0    0  0.28813681617E+02  0.37645971801E+01 -0.97180345401E+02  0.10143190394E+03  0.10566000000E+00 0.  1.
         13    1    4    4    0    0 -0.14926578681E+02 -0.24056642913E+01 -0.26882131057E+03  0.26924616645E+03  0.10566000000E+00 0. -1.
        -13    1    4    4    0    0 -0.12113369985E+02 -0.10041676791E+01 -0.20857736486E+03  0.20893125755E+03  0.10566000000E+00 0.  1.
        -14    1    4    4    0    0 -0.17737329508E+01 -0.35476520963E+00 -0.39253922475E+02  0.39295577571E+02  0.00000000000E+00 0.  1.
<mgrwt>
<rscale>  0 0.79072118E+02</rscale>
<asrwt>0</asrwt>
<pdfrwt beam="1">  1        2 0.94825869E-01 0.79072118E+02</pdfrwt>
<pdfrwt beam="2">  1       -1 0.39015143E-03 0.79072118E+02</pdfrwt>
<totfact> 0.33399991E+05</totfact>
</mgrwt>
</event>
<event>
 8    1  0.2603554E-016  0.7986039E+02  0.7818608E-02  0.1329448E+00
          2   -1    0    0  501    0  0.00000000000E+00  0.00000000000E+00  0.32144302632E+03  0.32144302633E+03  0.25500000000E-02 0. -1.
         -1   -1    0    0    0  501 -0.00000000000E+00 -0.00000000000E+00 -0.49601953884E+01  0.49601979490E+01  0.50400000000E-02 0.  1.
         24    2    1    2    0    0  0.00000000000E+00  0.35527136788E-14  0.31648283093E+03  0.32640322428E+03  0.79860394097E+02 0.  0.
         66    2    3    3    0    0 -0.29317847689E+02 -0.19308763177E+02  0.23589454427E+03  0.23850073490E+03  0.20000003794E+01 0.  0.
        -13    1    3    3    0    0  0.29317847689E+02  0.19308763177E+02  0.80588286662E+02  0.87902489383E+02  0.10566000000E+00 0.  1.
         13    1    4    4    0    0 -0.32875509027E+01 -0.24109265239E+01  0.28386801977E+02  0.28678253924E+02  0.10566000000E+00 0. -1.
        -13    1    4    4    0    0 -0.20987575062E+02 -0.13096213736E+02  0.16168757700E+03  0.16356916837E+03  0.10566000000E+00 0.  1.
        -14    1    4    4    0    0 -0.50427217238E+01 -0.38016229167E+01  0.45820165295E+02  0.46253312604E+02  0.00000000000E+00 0.  1.
<mgrwt>
<rscale>  0 0.79860394E+02</rscale>
<asrwt>0</asrwt>
<pdfrwt beam="1">  1        2 0.49452779E-01 0.79860394E+02</pdfrwt>
<pdfrwt beam="2">  1       -1 0.76310710E-03 0.79860394E+02</pdfrwt>
<totfact> 0.26258470E+05</totfact>
</mgrwt>
</event>
<event>
 8    1  0.2603554E-016  0.7879498E+02  0.7818608E-02  0.1332506E+00
         -1   -1    0    0    0  501 -0.00000000000E+00  0.00000000000E+00  0.13600574908E+02  0.13600575842E+02  0.50400000000E-02 0.  1.
          2   -1    0    0  501    0  0.00000000000E+00 -0.00000000000E+00 -0.11412475247E+03  0.11412475250E+03  0.25500000000E-02 0. -1.
         24    2    1    2    0    0  0.35527136788E-14 -0.88817841970E-15 -0.10052417756E+03  0.12772532834E+03  0.78794982234E+02 0.  0.
         66    2    3    3    0    0 -0.29413132601E+02 -0.72035883902E+01 -0.91081782925E+02  0.96004766624E+02  0.19999946628E+01 0.  0.
        -13    1    3    3    0    0  0.29413132601E+02  0.72035883902E+01 -0.94423946368E+01  0.31720561717E+02  0.10566000000E+00 0.  1.
         13    1    4    4    0    0 -0.87696804318E+01 -0.16948862705E+01 -0.26687198277E+02  0.28142452812E+02  0.10566000000E+00 0. -1.
        -13    1    4    4    0    0 -0.36407540665E+01 -0.15489801086E+01 -0.11899825291E+02  0.12540790866E+02  0.10566000000E+00 0.  1.
        -14    1    4    4    0    0 -0.17002698103E+02 -0.39597220112E+01 -0.52494759357E+02  0.55321522946E+02  0.00000000000E+00 0.  1.
<mgrwt>
<rscale>  0 0.78794982E+02</rscale>
<asrwt>0</asrwt>
<pdfrwt beam="1">  1        2 0.17557654E-01 0.78794982E+02</pdfrwt>
<pdfrwt beam="2">  1       -1 0.20923963E-02 0.78794982E+02</pdfrwt>
<totfact> 0.19171243E+05</totfact>
</mgrwt>
</event>
<event>
 8    1  0.2603554E-016  0.7850189E+02  0.7818608E-02  0.1333357E+00
         -1   -1    0    0    0  501 -0.00000000000E+00  0.00000000000E+00  0.22112891718E+01  0.22112949154E+01  0.50400000000E-02 0.  1.
          2   -1    0    0  501    0  0.00000000000E+00 -0.00000000000E+00 -0.69671340397E+03  0.69671340398E+03  0.25500000000E-02 0. -1.
         24    2    1    2    0    0  0.00000000000E+00  0.00000000000E+00 -0.69450211480E+03  0.69892469889E+03  0.78501893349E+02 0.  0.
         66    2    3    3    0    0 -0.24534742171E+02  0.78359168273E+01 -0.61088017313E+03  0.61142615342E+03  0.20000011536E+01 0.  0.
        -13    1    3    3    0    0  0.24534742171E+02 -0.78359168273E+01 -0.83621941676E+02  0.87498545471E+02  0.10566000000E+00 0.  1.
         13    1    4    4    0    0 -0.13531914280E+02  0.45061813904E+01 -0.32703150217E+03  0.32734237879E+03  0.10566000000E+00 0. -1.
        -13    1    4    4    0    0 -0.10263619120E+02  0.28277569531E+01 -0.25766184997E+03  0.25788171354E+03  0.10566000000E+00 0.  1.
         14    1    4    4    0    0 -0.73920877039E+00  0.50197848385E+00 -0.26186820984E+02  0.26202061088E+02  0.00000000000E+00 0. -1.
<mgrwt>
<rscale>  0 0.78501893E+02</rscale>
<asrwt>0</asrwt>
<pdfrwt beam="1">  1        2 0.10718650E+00 0.78501893E+02</pdfrwt>
<pdfrwt beam="2">  1       -1 0.34019933E-03 0.78501893E+02</pdfrwt>
<totfact> 0.35097051E+05</totfact>
</mgrwt>
</event>
<event>
 8    1  0.2603554E-016  0.7949867E+02  0.7818608E-02  0.1330480E+00
         -1   -1    0    0    0  501 -0.00000000000E+00  0.00000000000E+00  0.85557874195E+01  0.85557889040E+01  0.50400000000E-02 0.  1.
          2   -1    0    0  501    0  0.00000000000E+00 -0.00000000000E+00 -0.18467144845E+03  0.18467144847E+03  0.25500000000E-02 0. -1.
         24    2    1    2    0    0  0.35527136788E-14  0.00000000000E+00 -0.17611566103E+03  0.19322723737E+03  0.79498674216E+02 0.  0.
         66    2    3    3    0    0  0.23121323677E+02 -0.63986469553E+01 -0.16506957070E+03  0.16681577079E+03  0.19999802708E+01 0.  0.
        -13    1    3    3    0    0 -0.23121323677E+02  0.63986469553E+01 -0.11046090329E+02  0.26411466582E+02  0.10566000000E+00 0.  1.
         13    1    4    4    0    0  0.11540139481E+01 -0.66522369843E+00 -0.10112381297E+02  0.10200278932E+02  0.10566000000E+00 0.  1.
        -13    1    4    4    0    0  0.41363763063E+01 -0.10569248145E+01 -0.26324799153E+02  0.26668950364E+02  0.10566000000E+00 0.  1.
         14    1    4    4    0    0  0.17830933423E+02 -0.46764984424E+01 -0.12863239025E+03  0.12994654149E+03  0.00000000000E+00 0. -1.
<mgrwt>
<rscale>  0 0.79498674E+02</rscale>
<asrwt>0</asrwt>
<pdfrwt beam="1">  1        2 0.28410989E-01 0.79498674E+02</pdfrwt>
<pdfrwt beam="2">  1       -1 0.13162752E-02 0.79498674E+02</pdfrwt>
<totfact> 0.21820222E+05</totfact>
</mgrwt>
</event>
<event>
 8    1  0.2603554E-016  0.7862375E+02  0.7818608E-02  0.1333003E+00
         -1   -1    0    0    0  501 -0.00000000000E+00  0.00000000000E+00  0.34572428140E+01  0.34572464877E+01  0.50400000000E-02 0.  1.
          2   -1    0    0  501    0  0.00000000000E+00 -0.00000000000E+00 -0.44701021794E+03  0.44701021795E+03  0.25500000000E-02 0. -1.
         24    2    1    2    0    0  0.35527136788E-14  0.00000000000E+00 -0.44355297513E+03  0.45046746444E+03  0.78623754499E+02 0.  0.
         66    2    3    3    0    0  0.21302315769E+02  0.16782661506E+02 -0.38477714514E+03  0.38573682456E+03  0.20000033605E+01 0.  0.
        -13    1    3    3    0    0 -0.21302315769E+02 -0.16782661506E+02 -0.58775829987E+02  0.64730639879E+02  0.10566000000E+00 0.  1.
         13    1    4    4    0    0  0.46360508773E+01  0.34041370118E+01 -0.74000204883E+02  0.74223463967E+02  0.10566000000E+00 0. -1.
        -13    1    4    4    0    0  0.30339014276E+01  0.19299039897E+01 -0.55481945477E+02  0.55598439953E+02  0.10566000000E+00 0.  1.
         14    1    4    4    0    0  0.13632363464E+02  0.11448620505E+02 -0.25529499478E+03  0.25591492064E+03  0.00000000000E+00 0. -1.
<mgrwt>
<rscale>  0 0.78623754E+02</rscale>
<asrwt>0</asrwt>
<pdfrwt beam="1">  1        2 0.68770757E-01 0.78623754E+02</pdfrwt>
<pdfrwt beam="2">  1       -1 0.53188415E-03 0.78623754E+02</pdfrwt>
<totfact> 0.30710946E+05</totfact>
</mgrwt>
</event>
<event>
 8    1  0.2603554E-016  0.8218835E+02  0.7818608E-02  0.1322953E+00
          2   -1    0    0  501    0  0.00000000000E+00  0.00000000000E+00  0.84309642366E+03  0.84309642366E+03  0.25500000000E-02 0. -1.
         -1   -1    0    0    0  501 -0.00000000000E+00 -0.00000000000E+00 -0.20030074985E+01  0.20030138393E+01  0.50400000000E-02 0.  1.
         24    2    1    2    0    0  0.00000000000E+00  0.00000000000E+00  0.84109341616E+03  0.84509943750E+03  0.82188348066E+02 0.  0.
         66    2    3    3    0    0  0.97646901503E+01 -0.33496163680E+02  0.64356760423E+03  0.64451578987E+03  0.20000052822E+01 0.  0.
        -13    1    3    3    0    0 -0.97646901503E+01  0.33496163680E+02  0.19752581193E+03  0.20058364764E+03  0.10566000000E+00 0.  1.
         13    1    4    4    0    0  0.38060318034E+01 -0.11902932928E+02  0.22236856704E+03  0.22271945685E+03  0.10566000000E+00 0. -1.
        -13    1    4    4    0    0  0.26719806417E+01 -0.95637303382E+01  0.19903226740E+03  0.19927985109E+03  0.10566000000E+00 0.  1.
         14    1    4    4    0    0  0.32866777052E+01 -0.12029500413E+02  0.22216676979E+03  0.22251648193E+03  0.00000000000E+00 0. -1.
<mgrwt>
<rscale>  0 0.82188348E+02</rscale>
<asrwt>0</asrwt>
<pdfrwt beam="1">  1        2 0.12970708E+00 0.82188348E+02</pdfrwt>
<pdfrwt beam="2">  1       -1 0.30815563E-03 0.82188348E+02</pdfrwt>
<totfact> 0.32305744E+05</totfact>
</mgrwt>
</event>
<event>
 8    1  0.2603554E-016  0.8053677E+02  0.7818608E-02  0.1327535E+00
         -1   -1    0    0    0  501 -0.00000000000E+00  0.00000000000E+00  0.21084542216E+02  0.21084542818E+02  0.50400000000E-02 0.  1.
          2   -1    0    0  501    0  0.00000000000E+00 -0.00000000000E+00 -0.76906718249E+02  0.76906718291E+02  0.25500000000E-02 0. -1.
         24    2    1    2    0    0 -0.88817841970E-15  0.00000000000E+00 -0.55822176033E+02  0.97991261110E+02  0.80536773692E+02 0.  0.
         66    2    3    3    0    0  0.73925692846E+01 -0.28705452845E+02 -0.61046587476E+02  0.67892112573E+02  0.20000008805E+01 0.  0.
        -13    1    3    3    0    0 -0.73925692846E+01  0.28705452845E+02  0.52244114426E+01  0.30099148537E+02  0.10566000000E+00 0.  1.
         13    1    4    4    0    0  0.26033678891E+01 -0.69711230143E+01 -0.15090942477E+02  0.16826223264E+02  0.10566000000E+00 0. -1.
        -13    1    4    4    0    0  0.37330650283E+01 -0.17533900520E+02 -0.36451552218E+02  0.40621426182E+02  0.10566000000E+00 0.  1.
        -14    1    4    4    0    0  0.10561363672E+01 -0.42004293105E+01 -0.95040927813E+01  0.10444463127E+02  0.00000000000E+00 0.  1.
<mgrwt>
<rscale>  0 0.80536774E+02</rscale>
<asrwt>0</asrwt>
<pdfrwt beam="1">  1        2 0.11831803E-01 0.80536774E+02</pdfrwt>
<pdfrwt beam="2">  1       -1 0.32437758E-02 0.80536774E+02</pdfrwt>
<totfact> 0.16232864E+05</totfact>
</mgrwt>
</event>
<event>
 8    1  0.2603554E-016  0.8111967E+02  0.7818608E-02  0.1325904E+00
          2   -1    0    0  501    0  0.00000000000E+00  0.00000000000E+00  0.11571326622E+04  0.11571326622E+04  0.25500000000E-02 0. -1.
         -1   -1    0    0    0  501 -0.00000000000E+00 -0.00000000000E+00 -0.14216995665E+01  0.14217085000E+01  0.50400000000E-02 0.  1.
         24    2    1    2    0    0  0.00000000000E+00  0.00000000000E+00  0.11557109627E+04  0.11585543707E+04  0.81119669152E+02 0.  0.
         66    2    3    3    0    0 -0.15299842396E+02  0.18539994700E+02  0.10443516449E+04  0.10446301618E+04  0.20000003967E+01 0.  0.
        -13    1    3    3    0    0  0.15299842396E+02 -0.18539994700E+02  0.11135931773E+03  0.11392420897E+03  0.10566000000E+00 0.  1.
         13    1    4    4    0    0 -0.54939487235E-01  0.45698578641E-01  0.44333595248E+01  0.44351941805E+01  0.10566000000E+00 0. -1.
        -13    1    4    4    0    0 -0.11868771606E+02  0.13727556425E+02  0.78139688232E+03  0.78160758211E+03  0.10566000000E+00 0. -1.
         14    1    4    4    0    0 -0.33761313027E+01  0.47667396969E+01  0.25852140309E+03  0.25858738547E+03  0.00000000000E+00 0. -1.
<mgrwt>
<rscale>  0 0.81119669E+02</rscale>
<asrwt>0</asrwt>
<pdfrwt beam="1">  1        2 0.17802092E+00 0.81119669E+02</pdfrwt>
<pdfrwt beam="2">  1       -1 0.21872307E-03 0.81119669E+02</pdfrwt>
<totfact> 0.33909821E+05</totfact>
</mgrwt>
</event>
<event>
 8    1  0.2603554E-016  0.7957647E+02  0.7818608E-02  0.1330258E+00
          2   -1    0    0  501    0  0.00000000000E+00  0.00000000000E+00  0.66125344462E+03  0.66125344463E+03  0.25500000000E-02 0. -1.
         -1   -1    0    0    0  501 -0.00000000000E+00 -0.00000000000E+00 -0.23940925818E+01  0.23940978868E+01  0.50400000000E-02 0.  1.
         24    2    1    2    0    0 -0.17763568394E-14 -0.35527136788E-14  0.65885935204E+03  0.66364754251E+03  0.79576472111E+02 0.  0.
         66    2    3    3    0    0 -0.90095616469E+01 -0.22436731284E+02  0.59290377441E+03  0.59339991981E+03  0.20000005156E+01 0.  0.
        -13    1    3    3    0    0  0.90095616469E+01  0.22436731284E+02  0.65955577626E+02  0.70247622706E+02  0.10566000000E+00 0.  1.
         13    1    4    4    0    0 -0.17716560825E+01 -0.36160061942E+01  0.10527791522E+03  0.10535494702E+03  0.10566000000E+00 0. -1.
        -13    1    4    4    0    0 -0.70861601622E+01 -0.17511203160E+02  0.45131332087E+03  0.45170851294E+03  0.10566000000E+00 0.  1.
        -14    1    4    4    0    0 -0.15174540226E+00 -0.13095219296E+01  0.36312538324E+02  0.36336459843E+02  0.00000000000E+00 0.  1.
<mgrwt>
<rscale>  0 0.79576472E+02</rscale>
<asrwt>0</asrwt>
<pdfrwt beam="1">  1        2 0.10173140E+00 0.79576472E+02</pdfrwt>
<pdfrwt beam="2">  1       -1 0.36832200E-03 0.79576472E+02</pdfrwt>
<totfact> 0.33458095E+05</totfact>
</mgrwt>
</event>
<event>
 8    1  0.2603554E-016  0.7774498E+02  0.7818608E-02  0.1335575E+00
          2   -1    0    0  501    0  0.00000000000E+00  0.00000000000E+00  0.88879316314E+02  0.88879316351E+02  0.25500000000E-02 0. -1.
         -1   -1    0    0    0  501 -0.00000000000E+00 -0.00000000000E+00 -0.17001374020E+02  0.17001374767E+02  0.50400000000E-02 0.  1.
         24    2    1    2    0    0 -0.88817841970E-15  0.00000000000E+00  0.71877942294E+02  0.10588069112E+03  0.77744981595E+02 0.  0.
         66    2    3    3    0    0  0.78298281821E+01  0.37998000796E+02  0.38656130349E+02  0.54803746938E+02  0.19999977491E+01 0.  0.
        -13    1    3    3    0    0 -0.78298281821E+01 -0.37998000796E+02  0.33221811945E+02  0.51076944180E+02  0.10566000000E+00 0.  1.
         13    1    4    4    0    0  0.34547621308E+01  0.17434131378E+02  0.17394437322E+02  0.24868894870E+02  0.10566000000E+00 0. -1.
        -13    1    4    4    0    0  0.21728723294E+01  0.69893564680E+01  0.73448386164E+01  0.10369681593E+02  0.10566000000E+00 0.  1.
         14    1    4    4    0    0  0.22021937219E+01  0.13574512950E+02  0.13916854411E+02  0.19565170475E+02  0.00000000000E+00 0. -1.
<mgrwt>
<rscale>  0 0.77744982E+02</rscale>
<asrwt>0</asrwt>
<pdfrwt beam="1">  1        2 0.13673741E-01 0.77744982E+02</pdfrwt>
<pdfrwt beam="2">  1       -1 0.26155961E-02 0.77744982E+02</pdfrwt>
<totfact> 0.18531185E+05</totfact>
</mgrwt>
</event>
<event>
 8    1  0.2603554E-016  0.8003120E+02  0.7818608E-02  0.1328963E+00
         -1   -1    0    0    0  501 -0.00000000000E+00  0.00000000000E+00  0.20401892311E+02  0.20401892933E+02  0.50400000000E-02 0.  1.
          2   -1    0    0  501    0  0.00000000000E+00 -0.00000000000E+00 -0.78485285483E+02  0.78485285525E+02  0.25500000000E-02 0. -1.
         24    2    1    2    0    0  0.00000000000E+00  0.00000000000E+00 -0.58083393172E+02  0.98887178458E+02  0.80031203296E+02 0.  0.
         66    2    3    3    0    0 -0.22380048078E+02  0.11661545854E+02 -0.67391220404E+02  0.71989129914E+02  0.20000086089E+01 0.  0.
        -13    1    3    3    0    0  0.22380048078E+02 -0.11661545854E+02  0.93078272321E+01  0.26898048544E+02  0.10566000000E+00 0.  1.
         13    1    4    4    0    0 -0.12171834960E+02  0.58263424372E+01 -0.34228425730E+02  0.36792609645E+02  0.10566000000E+00 0. -1.
        -13    1    4    4    0    0 -0.31226154840E+01  0.13623243991E+01 -0.99572606050E+01  0.10524488492E+02  0.10566000000E+00 0.  1.
         14    1    4    4    0    0 -0.70855976341E+01  0.44728790175E+01 -0.23205534069E+02  0.24672031777E+02  0.00000000000E+00 0. -1.
<mgrwt>
<rscale>  0 0.80031203E+02</rscale>
<asrwt>0</asrwt>
<pdfrwt beam="1">  1        2 0.12074659E-01 0.80031203E+02</pdfrwt>
<pdfrwt beam="2">  1       -1 0.31387528E-02 0.80031203E+02</pdfrwt>
<totfact> 0.16596701E+05</totfact>
</mgrwt>
</event>
<event>
 8    1  0.2603554E-016  0.7944744E+02  0.7818608E-02  0.1330627E+00
         -1   -1    0    0    0  501 -0.00000000000E+00  0.00000000000E+00  0.13852447602E+02  0.13852448519E+02  0.50400000000E-02 0.  1.
          2   -1    0    0  501    0  0.00000000000E+00 -0.00000000000E+00 -0.11391300570E+03  0.11391300573E+03  0.25500000000E-02 0. -1.
         24    2    1    2    0    0 -0.71054273576E-14  0.00000000000E+00 -0.10006055810E+03  0.12776545425E+03  0.79447441822E+02 0.  0.
         66    2    3    3    0    0  0.38670677390E+02  0.64708338007E+01 -0.40060636133E+02  0.56090529903E+02  0.19999993936E+01 0.  0.
        -13    1    3    3    0    0 -0.38670677390E+02 -0.64708338007E+01 -0.59999921962E+02  0.71674924342E+02  0.10566000000E+00 0.  1.
         13    1    4    4    0    0  0.16465160531E+02  0.24443193862E+01 -0.18279741743E+02  0.24723194187E+02  0.10566000000E+00 0. -1.
        -13    1    4    4    0    0  0.64402815503E+01  0.11935873020E+01 -0.60689765739E+01  0.89300345903E+01  0.10566000000E+00 0.  1.
         14    1    4    4    0    0  0.15765235309E+02  0.28329271124E+01 -0.15711917816E+02  0.22437301126E+02  0.00000000000E+00 0. -1.
<mgrwt>
<rscale>  0 0.79447442E+02</rscale>
<asrwt>0</asrwt>
<pdfrwt beam="1">  1        2 0.17525077E-01 0.79447442E+02</pdfrwt>
<pdfrwt beam="2">  1       -1 0.21311459E-02 0.79447442E+02</pdfrwt>
<totfact> 0.18744051E+05</totfact>
</mgrwt>
</event>
<event>
 8    1  0.2603554E-016  0.8081622E+02  0.7818608E-02  0.1326751E+00
          2   -1    0    0  501    0  0.00000000000E+00  0.00000000000E+00  0.11112049221E+04  0.11112049221E+04  0.25500000000E-02 0. -1.
         -1   -1    0    0    0  501 -0.00000000000E+00 -0.00000000000E+00 -0.14694055029E+01  0.14694141464E+01  0.50400000000E-02 0.  1.
         24    2    1    2    0    0  0.00000000000E+00  0.17763568394E-14  0.11097355166E+04  0.11126743363E+04  0.80816222079E+02 0.  0.
         66    2    3    3    0    0 -0.23200598861E+02 -0.15441363322E+02  0.95757669582E+03  0.95798425450E+03  0.19999989508E+01 0.  0.
        -13    1    3    3    0    0  0.23200598861E+02  0.15441363322E+02  0.15215882082E+03  0.15469008179E+03  0.10566000000E+00 0.  1.
         13    1    4    4    0    0 -0.91591106724E+01 -0.59455700200E+01  0.37168988763E+03  0.37185026938E+03  0.10566000000E+00 0. -1.
        -13    1    4    4    0    0 -0.30908592175E+01 -0.22358535570E+01  0.11159974932E+03  0.11166497958E+03  0.10566000000E+00 0.  1.
        -14    1    4    4    0    0 -0.10950628971E+02 -0.72599397452E+01  0.47428705887E+03  0.47446900553E+03  0.00000000000E+00 0.  1.
<mgrwt>
<rscale>  0 0.80816222E+02</rscale>
<asrwt>0</asrwt>
<pdfrwt beam="1">  1        2 0.17095444E+00 0.80816222E+02</pdfrwt>
<pdfrwt beam="2">  1       -1 0.22606326E-03 0.80816222E+02</pdfrwt>
<totfact> 0.34322045E+05</totfact>
</mgrwt>
</event>
<event>
 8    1  0.2603554E-016  0.7914782E+02  0.7818608E-02  0.1331487E+00
         -1   -1    0    0    0  501 -0.00000000000E+00  0.00000000000E+00  0.74455326486E+02  0.74455326657E+02  0.50400000000E-02 0.  1.
          2   -1    0    0  501    0  0.00000000000E+00 -0.00000000000E+00 -0.21034013959E+02  0.21034014113E+02  0.25500000000E-02 0. -1.
         24    2    1    2    0    0  0.88817841970E-15 -0.71054273576E-14  0.53421312527E+02  0.95489340770E+02  0.79147820997E+02 0.  0.
         66    2    3    3    0    0 -0.63533190528E+01  0.39017014788E+02  0.25301508655E+02  0.46977211979E+02  0.19999998063E+01 0.  0.
        -13    1    3    3    0    0  0.63533190528E+01 -0.39017014788E+02  0.28119803873E+02  0.48512128791E+02  0.10566000000E+00 0.  1.
         13    1    4    4    0    0 -0.12090002335E+00  0.33720604785E+01  0.24194456315E+01  0.41533468294E+01  0.10566000000E+00 0. -1.
        -13    1    4    4    0    0 -0.25368320500E+01  0.12518020531E+02  0.77453951550E+01  0.14937826649E+02  0.10566000000E+00 0.  1.
        -14    1    4    4    0    0 -0.36955869795E+01  0.23126933778E+02  0.15136667868E+02  0.27886038501E+02  0.00000000000E+00 0.  1.
<mgrwt>
<rscale>  0 0.79147821E+02</rscale>
<asrwt>0</asrwt>
<pdfrwt beam="1">  1        2 0.32360021E-02 0.79147821E+02</pdfrwt>
<pdfrwt beam="2">  1       -1 0.11454666E-01 0.79147821E+02</pdfrwt>
<totfact> 0.12932471E+05</totfact>
</mgrwt>
</event>
<event>
 8    1  0.2603554E-016  0.7776580E+02  0.7818608E-02  0.1335514E+00
          2   -1    0    0  501    0  0.00000000000E+00  0.00000000000E+00  0.60411262957E+03  0.60411262958E+03  0.25500000000E-02 0. -1.
         -1   -1    0    0    0  501 -0.00000000000E+00 -0.00000000000E+00 -0.25026429409E+01  0.25026480158E+01  0.50400000000E-02 0.  1.
         24    2    1    2    0    0  0.00000000000E+00 -0.71054273576E-14  0.60160998663E+03  0.60661527759E+03  0.77765795792E+02 0.  0.
         66    2    3    3    0    0  0.39380953616E+01 -0.34090962216E+02  0.44317294496E+03  0.44450417484E+03  0.20000003399E+01 0.  0.
        -13    1    3    3    0    0 -0.39380953616E+01  0.34090962216E+02  0.15843704167E+03  0.16211110276E+03  0.10566000000E+00 0.  1.
         13    1    4    4    0    0  0.28518393089E+01 -0.23262893716E+02  0.29893060718E+03  0.29984798530E+03  0.10566000000E+00 0. -1.
        -13    1    4    4    0    0  0.71434524463E-01 -0.79134648291E+00  0.14580877362E+02  0.14602892892E+02  0.10566000000E+00 0.  1.
        -14    1    4    4    0    0  0.10148215283E+01 -0.10036722018E+02  0.12966146042E+03  0.13005329665E+03  0.00000000000E+00 0.  1.
<mgrwt>
<rscale>  0 0.77765796E+02</rscale>
<asrwt>0</asrwt>
<pdfrwt beam="1">  1        2 0.92940467E-01 0.77765796E+02</pdfrwt>
<pdfrwt beam="2">  1       -1 0.38502212E-03 0.77765796E+02</pdfrwt>
<totfact> 0.34685664E+05</totfact>
</mgrwt>
</event>
<event>
 8    1  0.2603554E-016  0.7931926E+02  0.7818608E-02  0.1330994E+00
         -1   -1    0    0    0  501 -0.00000000000E+00  0.00000000000E+00  0.26105549665E+01  0.26105598317E+01  0.50400000000E-02 0.  1.
          2   -1    0    0  501    0  0.00000000000E+00 -0.00000000000E+00 -0.60250967554E+03  0.60250967555E+03  0.25500000000E-02 0. -1.
         24    2    1    2    0    0  0.00000000000E+00  0.17763568394E-14 -0.59989912058E+03  0.60512023538E+03  0.79319256161E+02 0.  0.
         66    2    3    3    0    0 -0.10700109864E+01  0.10442997463E+02 -0.59170821915E+03  0.59180471249E+03  0.19999999383E+01 0.  0.
        -13    1    3    3    0    0  0.10700109864E+01 -0.10442997463E+02 -0.81909014241E+01  0.13315522885E+02  0.10566000000E+00 0.  1.
         13    1    4    4    0    0 -0.83598927718E+00  0.85314828921E+01 -0.45757760712E+03  0.45765791021E+03  0.10566000000E+00 0. -1.
        -13    1    4    4    0    0 -0.43337940224E+00  0.16099553257E+01 -0.11972559651E+03  0.11973725151E+03  0.10566000000E+00 0.  1.
         14    1    4    4    0    0  0.19935769299E+00  0.30155924487E+00 -0.14405015516E+02  0.14409550773E+02  0.00000000000E+00 0. -1.
<mgrwt>
<rscale>  0 0.79319256E+02</rscale>
<asrwt>0</asrwt>
<pdfrwt beam="1">  1        2 0.92693686E-01 0.79319256E+02</pdfrwt>
<pdfrwt beam="2">  1       -1 0.40162470E-03 0.79319256E+02</pdfrwt>
<totfact> 0.32924570E+05</totfact>
</mgrwt>
</event>
<event>
 8    1  0.2603554E-016  0.8016252E+02  0.7818608E-02  0.1328591E+00
          2   -1    0    0  501    0  0.00000000000E+00  0.00000000000E+00  0.84073561599E+03  0.84073561599E+03  0.25500000000E-02 0. -1.
         -1   -1    0    0    0  501 -0.00000000000E+00 -0.00000000000E+00 -0.19108321411E+01  0.19108387879E+01  0.50400000000E-02 0.  1.
         24    2    1    2    0    0 -0.35527136788E-14 -0.17763568394E-14  0.83882478385E+03  0.84264645478E+03  0.80162520900E+02 0.  0.
         66    2    3    3    0    0  0.30551426975E+02  0.10409730591E+02  0.66903566671E+03  0.66981674771E+03  0.20000027556E+01 0.  0.
        -13    1    3    3    0    0 -0.30551426975E+02 -0.10409730591E+02  0.16978911714E+03  0.17282970706E+03  0.10566000000E+00 0.  1.
         13    1    4    4    0    0  0.12365363470E+02  0.44239846971E+01  0.25753257480E+03  0.25786723735E+03  0.10566000000E+00 0.  1.
        -13    1    4    4    0    0  0.32577036095E+01  0.91534980966E+00  0.65585152341E+02  0.65672474217E+02  0.10566000000E+00 0. -1.
         14    1    4    4    0    0  0.14928359896E+02  0.50703960845E+01  0.34591793957E+03  0.34627703614E+03  0.00000000000E+00 0. -1.
<mgrwt>
<rscale>  0 0.80162521E+02</rscale>
<asrwt>0</asrwt>
<pdfrwt beam="1">  1        2 0.12934462E+00 0.80162521E+02</pdfrwt>
<pdfrwt beam="2">  1       -1 0.29397315E-03 0.80162521E+02</pdfrwt>
<totfact> 0.34458173E+05</totfact>
</mgrwt>
</event>
<event>
 8    1  0.2603554E-016  0.7945870E+02  0.7818608E-02  0.1330595E+00
          2   -1    0    0  501    0  0.00000000000E+00  0.00000000000E+00  0.14199331593E+03  0.14199331595E+03  0.25500000000E-02 0. -1.
         -1   -1    0    0    0  501 -0.00000000000E+00 -0.00000000000E+00 -0.11116164855E+02  0.11116165998E+02  0.50400000000E-02 0.  1.
         24    2    1    2    0    0  0.00000000000E+00  0.17763568394E-14  0.13087715107E+03  0.15310948195E+03  0.79458698641E+02 0.  0.
         66    2    3    3    0    0 -0.94741747395E+01  0.13901011766E+02  0.13477941970E+03  0.13583994288E+03  0.19999982855E+01 0.  0.
        -13    1    3    3    0    0  0.94741747395E+01 -0.13901011766E+02 -0.39022686247E+01  0.17269539066E+02  0.10566000000E+00 0.  1.
         13    1    4    4    0    0 -0.60329940218E+01  0.72481625192E+01  0.76345752864E+02  0.76926055542E+02  0.10566000000E+00 0. -1.
        -13    1    4    4    0    0 -0.20583589084E+01  0.41036945027E+01  0.37577411950E+02  0.37856970334E+02  0.10566000000E+00 0.  1.
        -14    1    4    4    0    0 -0.13828218094E+01  0.25491547441E+01  0.20856254885E+02  0.21056917008E+02  0.00000000000E+00 0.  1.
<mgrwt>
<rscale>  0 0.79458699E+02</rscale>
<asrwt>0</asrwt>
<pdfrwt beam="1">  1        2 0.21845126E-01 0.79458699E+02</pdfrwt>
<pdfrwt beam="2">  1       -1 0.17101793E-02 0.79458699E+02</pdfrwt>
<totfact> 0.20039996E+05</totfact>
</mgrwt>
</event>
<event>
 8    1  0.2603554E-016  0.8211661E+02  0.7818608E-02  0.1323150E+00
          2   -1    0    0  501    0  0.00000000000E+00  0.00000000000E+00  0.99313978280E+02  0.99313978313E+02  0.25500000000E-02 0. -1.
         -1   -1    0    0    0  501 -0.00000000000E+00 -0.00000000000E+00 -0.16974289132E+02  0.16974289880E+02  0.50400000000E-02 0.  1.
         24    2    1    2    0    0  0.35527136788E-14  0.00000000000E+00  0.82339689148E+02  0.11628826819E+03  0.82116605571E+02 0.  0.
         66    2    3    3    0    0  0.22030880423E+02 -0.10693317742E+02  0.87820833589E+02  0.91193231932E+02  0.20000003946E+01 0.  0.
        -13    1    3    3    0    0 -0.22030880423E+02  0.10693317742E+02 -0.54811444405E+01  0.25095036261E+02  0.10566000000E+00 0.  1.
         13    1    4    4    0    0  0.56802222417E+01 -0.28595016763E+01  0.20824519600E+02  0.21774146485E+02  0.10566000000E+00 0. -1.
        -13    1    4    4    0    0  0.38364151135E+01 -0.19600880283E+01  0.18117471058E+02  0.18622941432E+02  0.10566000000E+00 0.  1.
        -14    1    4    4    0    0  0.12514243068E+02 -0.58737280371E+01  0.48878842930E+02  0.50796144015E+02  0.00000000000E+00 0.  1.
<mgrwt>
<rscale>  0 0.82116606E+02</rscale>
<asrwt>0</asrwt>
<pdfrwt beam="1">  1        2 0.15279073E-01 0.82116606E+02</pdfrwt>
<pdfrwt beam="2">  1       -1 0.26114292E-02 0.82116606E+02</pdfrwt>
<totfact> 0.16494450E+05</totfact>
</mgrwt>
</event>
<event>
 8    1  0.2603554E-016  0.8001865E+02  0.7818608E-02  0.1328999E+00
         -1   -1    0    0    0  501 -0.00000000000E+00  0.00000000000E+00  0.67641283660E+01  0.67641302437E+01  0.50400000000E-02 0.  1.
          2   -1    0    0  501    0  0.00000000000E+00 -0.00000000000E+00 -0.23665217532E+03  0.23665217533E+03  0.25500000000E-02 0. -1.
         24    2    1    2    0    0  0.00000000000E+00  0.00000000000E+00 -0.22988804695E+03  0.24341630557E+03  0.80018645880E+02 0.  0.
         66    2    3    3    0    0  0.14104257670E+02  0.86302604523E+01 -0.22575967867E+03  0.22637324046E+03  0.20000000072E+01 0.  0.
        -13    1    3    3    0    0 -0.14104257670E+02 -0.86302604523E+01 -0.41283682759E+01  0.17043065116E+02  0.10566000000E+00 0.  1.
         13    1    4    4    0    0  0.36020348952E+01  0.13933211773E+01 -0.54047663233E+02  0.54185579855E+02  0.10566000000E+00 0. -1.
        -13    1    4    4    0    0  0.29336416345E+01  0.22547602818E+01 -0.44888098748E+02  0.45040457041E+02  0.10566000000E+00 0.  1.
        -14    1    4    4    0    0  0.75685811406E+01  0.49821789933E+01 -0.12682391669E+03  0.12714720356E+03  0.00000000000E+00 0.  1.
<mgrwt>
<rscale>  0 0.80018646E+02</rscale>
<asrwt>0</asrwt>
<pdfrwt beam="1">  1        2 0.36408021E-01 0.80018646E+02</pdfrwt>
<pdfrwt beam="2">  1       -1 0.10406355E-02 0.80018646E+02</pdfrwt>
<totfact> 0.23390702E+05</totfact>
</mgrwt>
</event>
<event>
 8    1  0.2603554E-016  0.8012644E+02  0.7818608E-02  0.1328693E+00
         -1   -1    0    0    0  501 -0.00000000000E+00  0.00000000000E+00  0.50285168288E+01  0.50285193545E+01  0.50400000000E-02 0.  1.
          2   -1    0    0  501    0  0.00000000000E+00 -0.00000000000E+00 -0.31919179954E+03  0.31919179955E+03  0.25500000000E-02 0. -1.
         24    2    1    2    0    0  0.00000000000E+00  0.00000000000E+00 -0.31416328271E+03  0.32422031890E+03  0.80126443742E+02 0.  0.
         66    2    3    3    0    0 -0.94116563914E+01  0.11149364045E+02 -0.30804760183E+03  0.30839943677E+03  0.20000038223E+01 0.  0.
        -13    1    3    3    0    0  0.94116563914E+01 -0.11149364045E+02 -0.61156808784E+01  0.15820882127E+02  0.10566000000E+00 0.  1.
         13    1    4    4    0    0 -0.54201404537E+01  0.63624526647E+01 -0.19384235228E+03  0.19402249207E+03  0.10566000000E+00 0.  1.
        -13    1    4    4    0    0 -0.26548330774E+01  0.31532076258E+01 -0.70020215797E+02  0.70141518670E+02  0.10566000000E+00 0. -1.
         14    1    4    4    0    0 -0.13366828603E+01  0.16337037542E+01 -0.44185033753E+02  0.44235426038E+02  0.00000000000E+00 0. -1.
<mgrwt>
<rscale>  0 0.80126444E+02</rscale>
<asrwt>0</asrwt>
<pdfrwt beam="1">  1        2 0.49106415E-01 0.80126444E+02</pdfrwt>
<pdfrwt beam="2">  1       -1 0.77361842E-03 0.80126444E+02</pdfrwt>
<totfact> 0.25964792E+05</totfact>
</mgrwt>
</event>
<event>
 8    1  0.2603554E-016  0.7787877E+02  0.7818608E-02  0.1335181E+00
          2   -1    0    0  501    0  0.00000000000E+00  0.00000000000E+00  0.66169600309E+03  0.66169600309E+03  0.25500000000E-02 0. -1.
         -1   -1    0    0    0  501 -0.00000000000E+00 -0.00000000000E+00 -0.22914960340E+01  0.22915015766E+01  0.50400000000E-02 0.  1.
         24    2    1    2    0    0  0.00000000000E+00  0.00000000000E+00  0.65940450706E+03  0.66398750467E+03  0.77878767544E+02 0.  0.
         66    2    3    3    0    0 -0.35555386940E+02  0.37496950221E+00  0.46471063696E+03  0.46607327992E+03  0.20000019232E+01 0.  0.
        -13    1    3    3    0    0  0.35555386940E+02 -0.37496950221E+00  0.19469387010E+03  0.19791422475E+03  0.10566000000E+00 0.  1.
         13    1    4    4    0    0 -0.10556503482E+02 -0.65639100579E+00  0.13240101500E+03  0.13282285402E+03  0.10566000000E+00 0. -1.
        -13    1    4    4    0    0 -0.18844739436E+01  0.71790275520E-01  0.25336146763E+02  0.25406453761E+02  0.10566000000E+00 0. -1.
         14    1    4    4    0    0 -0.23114409514E+02  0.95957023248E+00  0.30697347520E+03  0.30784397213E+03  0.00000000000E+00 0. -1.
<mgrwt>
<rscale>  0 0.77878768E+02</rscale>
<asrwt>0</asrwt>
<pdfrwt beam="1">  1        2 0.10179931E+00 0.77878768E+02</pdfrwt>
<pdfrwt beam="2">  1       -1 0.35253854E-03 0.77878768E+02</pdfrwt>
<totfact> 0.35390645E+05</totfact>
</mgrwt>
</event>
<event>
 8    1  0.2603554E-016  0.7932202E+02  0.7818608E-02  0.1330987E+00
          2   -1    0    0  501    0  0.00000000000E+00  0.00000000000E+00  0.64427476761E+03  0.64427476761E+03  0.25500000000E-02 0. -1.
         -1   -1    0    0    0  501 -0.00000000000E+00 -0.00000000000E+00 -0.24414957673E+01  0.24415009693E+01  0.50400000000E-02 0.  1.
         24    2    1    2    0    0  0.00000000000E+00 -0.35527136788E-14  0.64183327184E+03  0.64671626858E+03  0.79322022209E+02 0.  0.
         66    2    3    3    0    0 -0.66707407195E+01 -0.18373169832E+02  0.60224289420E+03  0.60256333756E+03  0.20000038103E+01 0.  0.
        -13    1    3    3    0    0  0.66707407195E+01  0.18373169832E+02  0.39590377644E+02  0.44152931018E+02  0.10566000000E+00 0.  1.
         13    1    4    4    0    0 -0.61242045895E+00 -0.15706785221E+01  0.52896738306E+02  0.52923701470E+02  0.10566000000E+00 0. -1.
        -13    1    4    4    0    0 -0.56687663496E+01 -0.14107620806E+02  0.47700944745E+03  0.47725169879E+03  0.10566000000E+00 0.  1.
        -14    1    4    4    0    0 -0.38955391098E+00 -0.26948705039E+01  0.72336708439E+02  0.72387937303E+02  0.00000000000E+00 0.  1.
<mgrwt>
<rscale>  0 0.79322022E+02</rscale>
<asrwt>0</asrwt>
<pdfrwt beam="1">  1        2 0.99119064E-01 0.79322022E+02</pdfrwt>
<pdfrwt beam="2">  1       -1 0.37561563E-03 0.79322022E+02</pdfrwt>
<totfact> 0.33516501E+05</totfact>
</mgrwt>
</event>
<event>
 8    1  0.2603554E-016  0.7830127E+02  0.7818608E-02  0.1333942E+00
          2   -1    0    0  501    0  0.00000000000E+00  0.00000000000E+00  0.41483894194E+03  0.41483894195E+03  0.25500000000E-02 0. -1.
         -1   -1    0    0    0  501 -0.00000000000E+00 -0.00000000000E+00 -0.36948592023E+01  0.36948626397E+01  0.50400000000E-02 0.  1.
         24    2    1    2    0    0 -0.35527136788E-14 -0.35527136788E-14  0.41114408274E+03  0.41853380459E+03  0.78301269545E+02 0.  0.
         66    2    3    3    0    0  0.28384483675E+02 -0.23459837067E+02  0.27636007196E+03  0.27880984961E+03  0.19999995320E+01 0.  0.
        -13    1    3    3    0    0 -0.28384483675E+02  0.23459837067E+02  0.13478401078E+03  0.13972395498E+03  0.10566000000E+00 0.  1.
         13    1    4    4    0    0  0.52798547679E+01 -0.47128205758E+01  0.57150311729E+02  0.57586950248E+02  0.10566000000E+00 0. -1.
        -13    1    4    4    0    0  0.38452695106E+01 -0.25882586258E+01  0.33908767022E+02  0.34224272459E+02  0.10566000000E+00 0.  1.
         14    1    4    4    0    0  0.19259359397E+02 -0.16158757865E+02  0.18530099321E+03  0.18699862690E+03  0.00000000000E+00 0. -1.
<mgrwt>
<rscale>  0 0.78301270E+02</rscale>
<asrwt>0</asrwt>
<pdfrwt beam="1">  1        2 0.63821364E-01 0.78301270E+02</pdfrwt>
<pdfrwt beam="2">  1       -1 0.56844025E-03 0.78301270E+02</pdfrwt>
<totfact> 0.30261318E+05</totfact>
</mgrwt>
</event>
<event>
 8    1  0.2603554E-016  0.7982878E+02  0.7818608E-02  0.1329538E+00
          2   -1    0    0  501    0  0.00000000000E+00  0.00000000000E+00  0.54651570952E+01  0.54651576901E+01  0.25500000000E-02 0. -1.
         -1   -1    0    0    0  501 -0.00000000000E+00 -0.00000000000E+00 -0.29151189573E+03  0.29151189578E+03  0.50400000000E-02 0.  1.
         24    2    1    2    0    0 -0.35527136788E-14 -0.71054273576E-14 -0.28604673864E+03  0.29697705347E+03  0.79828776769E+02 0.  0.
         66    2    3    3    0    0  0.14003434485E+02  0.31547166497E+02 -0.21750091872E+03  0.22023162700E+03  0.19999988376E+01 0.  0.
        -13    1    3    3    0    0 -0.14003434485E+02 -0.31547166497E+02 -0.68545819915E+02  0.76745426465E+02  0.10566000000E+00 0.  1.
         13    1    4    4    0    0  0.88930592466E+01  0.20075235700E+02 -0.13939253577E+03  0.14111127448E+03  0.10566000000E+00 0. -1.
        -13    1    4    4    0    0  0.39448918969E+01  0.97803004120E+01 -0.66657578301E+02  0.67486742085E+02  0.10566000000E+00 0.  1.
        -14    1    4    4    0    0  0.11654833412E+01  0.16916303851E+01 -0.11450804647E+02  0.11633610438E+02  0.00000000000E+00 0.  1.
<mgrwt>
<rscale>  0 0.79828777E+02</rscale>
<asrwt>0</asrwt>
<pdfrwt beam="1">  1        2 0.84079367E-03 0.79828777E+02</pdfrwt>
<pdfrwt beam="2">  1       -1 0.44847972E-01 0.79828777E+02</pdfrwt>
<totfact> 0.87914358E+04</totfact>
</mgrwt>
</event>
<event>
 8    1  0.2603554E-016  0.7448853E+02  0.7818608E-02  0.1345462E+00
          2   -1    0    0  501    0  0.00000000000E+00  0.00000000000E+00  0.85138048382E+03  0.85138048382E+03  0.25500000000E-02 0. -1.
         -1   -1    0    0    0  501 -0.00000000000E+00 -0.00000000000E+00 -0.16292736233E+01  0.16292814186E+01  0.50400000000E-02 0.  1.
         24    2    1    2    0    0 -0.17763568394E-14  0.35527136788E-14  0.84975121019E+03  0.85300976524E+03  0.74488525077E+02 0.  0.
         66    2    3    3    0    0 -0.10015313789E+02  0.28936628186E+02  0.66742829443E+03  0.66813334236E+03  0.20000006716E+01 0.  0.
        -13    1    3    3    0    0  0.10015313789E+02 -0.28936628186E+02  0.18232291576E+03  0.18487642288E+03  0.10566000000E+00 0.  1.
         13    1    4    4    0    0 -0.78370178033E+01  0.21062159148E+02  0.47991224948E+03  0.48043814561E+03  0.10566000000E+00 0. -1.
        -13    1    4    4    0    0 -0.59089815466E+00  0.14669477642E+01  0.32379550403E+02  0.32418321127E+02  0.10566000000E+00 0.  1.
         14    1    4    4    0    0 -0.15873978307E+01  0.64075212739E+01  0.15513649455E+03  0.15527687562E+03  0.00000000000E+00 0. -1.
<mgrwt>
<rscale>  0 0.74488525E+02</rscale>
<asrwt>0</asrwt>
<pdfrwt beam="1">  1        2 0.13098175E+00 0.74488525E+02</pdfrwt>
<pdfrwt beam="2">  1       -1 0.25065781E-03 0.74488525E+02</pdfrwt>
<totfact> 0.41743248E+05</totfact>
</mgrwt>
</event>
<event>
 8    1  0.2603554E-016  0.8255214E+02  0.7818608E-02  0.1321961E+00
          2   -1    0    0  501    0  0.00000000000E+00  0.00000000000E+00  0.28227046808E+02  0.28227046923E+02  0.25500000000E-02 0. -1.
         -1   -1    0    0    0  501 -0.00000000000E+00 -0.00000000000E+00 -0.60357504647E+02  0.60357504857E+02  0.50400000000E-02 0.  1.
         24    2    1    2    0    0  0.00000000000E+00  0.00000000000E+00 -0.32130457839E+02  0.88584551781E+02  0.82552144086E+02 0.  0.
         66    2    3    3    0    0 -0.41015626446E+02 -0.30749361916E+01 -0.19463283915E+02  0.45547296936E+02  0.19999980118E+01 0.  0.
        -13    1    3    3    0    0  0.41015626446E+02  0.30749361916E+01 -0.12667173924E+02  0.43037254845E+02  0.10566000000E+00 0.  1.
         13    1    4    4    0    0 -0.24957672095E+02 -0.15608579543E+01 -0.11403654840E+02  0.27484107802E+02  0.10566000000E+00 0. -1.
        -13    1    4    4    0    0 -0.71796675881E+01 -0.47895260802E+00 -0.30441222207E+01  0.78137613482E+01  0.10566000000E+00 0.  1.
         14    1    4    4    0    0 -0.88782867634E+01 -0.10351256293E+01 -0.50155068548E+01  0.10249427786E+02  0.00000000000E+00 0. -1.
<mgrwt>
<rscale>  0 0.82552144E+02</rscale>
<asrwt>0</asrwt>
<pdfrwt beam="1">  1        2 0.43426226E-02 0.82552144E+02</pdfrwt>
<pdfrwt beam="2">  1       -1 0.92857700E-02 0.82552144E+02</pdfrwt>
<totfact> 0.12167938E+05</totfact>
</mgrwt>
</event>
<event>
 8    1  0.2603554E-016  0.8270827E+02  0.7818608E-02  0.1321537E+00
          2   -1    0    0  501    0  0.00000000000E+00  0.00000000000E+00  0.40322210575E+02  0.40322210655E+02  0.25500000000E-02 0. -1.
         -1   -1    0    0    0  501 -0.00000000000E+00 -0.00000000000E+00 -0.42412463432E+02  0.42412463732E+02  0.50400000000E-02 0.  1.
         24    2    1    2    0    0  0.00000000000E+00  0.00000000000E+00 -0.20902528575E+01  0.82734674387E+02  0.82708265542E+02 0.  0.
         66    2    3    3    0    0  0.14622965977E+02  0.33646472878E+02  0.17993024388E+02  0.40910453414E+02  0.20000002040E+01 0.  0.
        -13    1    3    3    0    0 -0.14622965977E+02 -0.33646472878E+02 -0.20083277246E+02  0.41824220973E+02  0.10566000000E+00 0.  1.
         13    1    4    4    0    0  0.34884641023E+01  0.88426506646E+01  0.39599738083E+01  0.10298272145E+02  0.10566000000E+00 0. -1.
        -13    1    4    4    0    0  0.11334991663E+00  0.35855895183E+00  0.22915520281E+00  0.45286738469E+00  0.10566000000E+00 0. -1.
         14    1    4    4    0    0  0.11021151958E+02  0.24445263261E+02  0.13803895377E+02  0.30159313884E+02  0.00000000000E+00 0. -1.
<mgrwt>
<rscale>  0 0.82708266E+02</rscale>
<asrwt>0</asrwt>
<pdfrwt beam="1">  1        2 0.62034170E-02 0.82708266E+02</pdfrwt>
<pdfrwt beam="2">  1       -1 0.65249944E-02 0.82708266E+02</pdfrwt>
<totfact> 0.13020534E+05</totfact>
</mgrwt>
</event>
<event>
 8    1  0.2603554E-016  0.7819513E+02  0.7818608E-02  0.1334253E+00
          2   -1    0    0  501    0  0.00000000000E+00  0.00000000000E+00  0.32870373215E+03  0.32870373216E+03  0.25500000000E-02 0. -1.
         -1   -1    0    0    0  501 -0.00000000000E+00 -0.00000000000E+00 -0.46504467405E+01  0.46504494716E+01  0.50400000000E-02 0.  1.
         24    2    1    2    0    0  0.00000000000E+00  0.35527136788E-14  0.32405328541E+03  0.33335418163E+03  0.78195131732E+02 0.  0.
         66    2    3    3    0    0 -0.12648585581E+02  0.20906912922E+02  0.29210669507E+03  0.29313376985E+03  0.20000001122E+01 0.  0.
        -13    1    3    3    0    0  0.12648585581E+02 -0.20906912922E+02  0.31946590347E+02  0.40220411782E+02  0.10566000000E+00 0.  1.
         13    1    4    4    0    0 -0.66708113003E+01  0.10857671420E+02  0.15078787313E+03  0.15132541954E+03  0.10566000000E+00 0. -1.
        -13    1    4    4    0    0 -0.21826250707E+01  0.43185207989E+01  0.51506322460E+02  0.51733218453E+02  0.10566000000E+00 0.  1.
         14    1    4    4    0    0 -0.37951492099E+01  0.57307207031E+01  0.89812499481E+02  0.90075131864E+02  0.00000000000E+00 0. -1.
<mgrwt>
<rscale>  0 0.78195132E+02</rscale>
<asrwt>0</asrwt>
<pdfrwt beam="1">  1        2 0.50569826E-01 0.78195132E+02</pdfrwt>
<pdfrwt beam="2">  1       -1 0.71545326E-03 0.78195132E+02</pdfrwt>
<totfact> 0.27970409E+05</totfact>
</mgrwt>
</event>
<event>
 8    1  0.2603554E-016  0.8175727E+02  0.7818608E-02  0.1324137E+00
         -1   -1    0    0    0  501 -0.00000000000E+00  0.00000000000E+00  0.32912171652E+02  0.32912172038E+02  0.50400000000E-02 0.  1.
          2   -1    0    0  501    0  0.00000000000E+00 -0.00000000000E+00 -0.50773400282E+02  0.50773400346E+02  0.25500000000E-02 0. -1.
         24    2    1    2    0    0  0.88817841970E-15  0.00000000000E+00 -0.17861228630E+02  0.83685572384E+02  0.81757272075E+02 0.  0.
         66    2    3    3    0    0  0.47488711337E+01 -0.40417885857E+02 -0.12612401249E+02  0.42652431789E+02  0.19999995169E+01 0.  0.
        -13    1    3    3    0    0 -0.47488711337E+01  0.40417885857E+02 -0.52488273817E+01  0.41033140595E+02  0.10566000000E+00 0.  1.
         13    1    4    4    0    0  0.11431176327E+01 -0.10568680864E+02 -0.36050062028E+01  0.11225460653E+02  0.10566000000E+00 0. -1.
        -13    1    4    4    0    0  0.15340070904E+01 -0.13707729674E+02 -0.33171724973E+01  0.14186959786E+02  0.10566000000E+00 0.  1.
        -14    1    4    4    0    0  0.20717464107E+01 -0.16141475320E+02 -0.56902225486E+01  0.17240011350E+02  0.00000000000E+00 0.  1.
<mgrwt>
<rscale>  0 0.81757272E+02</rscale>
<asrwt>0</asrwt>
<pdfrwt beam="1">  1        2 0.78112924E-02 0.81757272E+02</pdfrwt>
<pdfrwt beam="2">  1       -1 0.50634111E-02 0.81757272E+02</pdfrwt>
<totfact> 0.14125971E+05</totfact>
</mgrwt>
</event>
<event>
 8    1  0.2603554E-016  0.8572670E+02  0.7818608E-02  0.1313543E+00
         -1   -1    0    0    0  501 -0.00000000000E+00  0.00000000000E+00  0.12243561307E+01  0.12243665041E+01  0.50400000000E-02 0.  1.
          2   -1    0    0  501    0  0.00000000000E+00 -0.00000000000E+00 -0.15005921030E+04  0.15005921030E+04  0.25500000000E-02 0. -1.
         24    2    1    2    0    0  0.00000000000E+00 -0.17763568394E-14 -0.14993677468E+04  0.15018164695E+04  0.85726703704E+02 0.  0.
         66    2    3    3    0    0 -0.10502567752E+02  0.15044456260E+02 -0.14282736740E+04  0.14283929177E+04  0.20000000505E+01 0.  0.
        -13    1    3    3    0    0  0.10502567752E+02 -0.15044456260E+02 -0.71094072871E+02  0.73423551773E+02  0.10566000000E+00 0.  1.
         13    1    4    4    0    0 -0.71842893449E+01  0.11079342204E+02 -0.10438900457E+04  0.10439735650E+04  0.10566000000E+00 0. -1.
        -13    1    4    4    0    0 -0.31595405261E+01  0.38503958994E+01 -0.37770264560E+03  0.37773549992E+03  0.10566000000E+00 0.  1.
        -14    1    4    4    0    0 -0.15873788142E+00  0.11471815657E+00 -0.66809826672E+01  0.66838527340E+01  0.00000000000E+00 0.  1.
<mgrwt>
<rscale>  0 0.85726704E+02</rscale>
<asrwt>0</asrwt>
<pdfrwt beam="1">  1        2 0.23085885E+00 0.85726704E+02</pdfrwt>
<pdfrwt beam="2">  1       -1 0.18836448E-03 0.85726704E+02</pdfrwt>
<totfact> 0.27760001E+05</totfact>
</mgrwt>
</event>
<event>
 8    1  0.2603554E-016  0.8391582E+02  0.7818608E-02  0.1318292E+00
         -1   -1    0    0    0  501 -0.00000000000E+00  0.00000000000E+00  0.14102842704E+02  0.14102843605E+02  0.50400000000E-02 0.  1.
          2   -1    0    0  501    0  0.00000000000E+00 -0.00000000000E+00 -0.12483058848E+03  0.12483058850E+03  0.25500000000E-02 0. -1.
         24    2    1    2    0    0  0.00000000000E+00  0.00000000000E+00 -0.11072774577E+03  0.13893343211E+03  0.83915820161E+02 0.  0.
         66    2    3    3    0    0 -0.83156392167E+01  0.22521369783E+02  0.15280430528E+01  0.24139114995E+02  0.20000011623E+01 0.  0.
        -13    1    3    3    0    0  0.83156392167E+01 -0.22521369783E+02 -0.11225578883E+03  0.11479431711E+03  0.10566000000E+00 0.  1.
         13    1    4    4    0    0 -0.34758146705E+01  0.96065803511E+01  0.87420332251E+00  0.10253929449E+02  0.10566000000E+00 0. -1.
        -13    1    4    4    0    0 -0.26088624334E+01  0.52209080812E+01  0.65811924755E+00  0.58743790624E+01  0.10566000000E+00 0.  1.
        -14    1    4    4    0    0 -0.22309621127E+01  0.76938813510E+01 -0.42795172343E-02  0.80108064829E+01  0.00000000000E+00 0.  1.
<mgrwt>
<rscale>  0 0.83915820E+02</rscale>
<asrwt>0</asrwt>
<pdfrwt beam="1">  1        2 0.19204705E-01 0.83915820E+02</pdfrwt>
<pdfrwt beam="2">  1       -1 0.21696683E-02 0.83915820E+02</pdfrwt>
<totfact> 0.16643816E+05</totfact>
</mgrwt>
</event>
<event>
 8    1  0.2603554E-016  0.7949629E+02  0.7818608E-02  0.1330487E+00
          2   -1    0    0  501    0  0.00000000000E+00  0.00000000000E+00  0.24794586162E+03  0.24794586163E+03  0.25500000000E-02 0. -1.
         -1   -1    0    0    0  501 -0.00000000000E+00 -0.00000000000E+00 -0.63720154418E+01  0.63720174350E+01  0.50400000000E-02 0.  1.
         24    2    1    2    0    0  0.00000000000E+00  0.00000000000E+00  0.24157384617E+03  0.25431787906E+03  0.79496292092E+02 0.  0.
         66    2    3    3    0    0  0.36045298050E+02 -0.16164969733E+02  0.13418486134E+03  0.13989334067E+03  0.19999985463E+01 0.  0.
        -13    1    3    3    0    0 -0.36045298050E+02  0.16164969733E+02  0.10738898484E+03  0.11442453839E+03  0.10566000000E+00 0.  1.
         13    1    4    4    0    0  0.37926487993E+01 -0.16529721164E+01  0.14734905514E+02  0.15305067993E+02  0.10566000000E+00 0. -1.
        -13    1    4    4    0    0  0.24898699912E+01 -0.67349566400E+00  0.93704006250E+01  0.97194969464E+01  0.10566000000E+00 0.  1.
        -14    1    4    4    0    0  0.29762779260E+02 -0.13838501952E+02  0.11007955520E+03  0.11486877573E+03  0.00000000000E+00 0.  1.
<mgrwt>
<rscale>  0 0.79496292E+02</rscale>
<asrwt>0</asrwt>
<pdfrwt beam="1">  1        2 0.38145509E-01 0.79496292E+02</pdfrwt>
<pdfrwt beam="2">  1       -1 0.98031043E-03 0.79496292E+02</pdfrwt>
<totfact> 0.24196354E+05</totfact>
</mgrwt>
</event>
<event>
 8    1  0.2603554E-016  0.8242233E+02  0.7818608E-02  0.1322314E+00
          2   -1    0    0  501    0  0.00000000000E+00  0.00000000000E+00  0.20718624059E+04  0.20718624059E+04  0.25500000000E-02 0. -1.
         -1   -1    0    0    0  501 -0.00000000000E+00 -0.00000000000E+00 -0.81971854004E+00  0.81973403399E+00  0.50400000000E-02 0.  1.
         24    2    1    2    0    0  0.00000000000E+00  0.00000000000E+00  0.20710426874E+04  0.20726821399E+04  0.82422329139E+02 0.  0.
         66    2    3    3    0    0  0.40840820400E+01 -0.10611077963E+02  0.20316114707E+04  0.20316442707E+04  0.20000027239E+01 0.  0.
        -13    1    3    3    0    0 -0.40840820400E+01  0.10611077963E+02  0.39431216676E+02  0.41037869270E+02  0.10566000000E+00 0.  1.
         13    1    4    4    0    0  0.44711526637E+00 -0.20763888232E+01  0.38034918045E+03  0.38035512555E+03  0.10566000000E+00 0. -1.
        -13    1    4    4    0    0  0.79789697633E+00 -0.13111115887E+01  0.38450188009E+03  0.38450495785E+03  0.10566000000E+00 0. -1.
         14    1    4    4    0    0  0.28390697973E+01 -0.72235775515E+01  0.12667604102E+04  0.12667841873E+04  0.00000000000E+00 0. -1.
<mgrwt>
<rscale>  0 0.82422329E+02</rscale>
<asrwt>0</asrwt>
<pdfrwt beam="1">  1        2 0.31874818E+00 0.82422329E+02</pdfrwt>
<pdfrwt beam="2">  1       -1 0.12611169E-03 0.82422329E+02</pdfrwt>
<totfact> 0.24811865E+05</totfact>
</mgrwt>
</event>
<event>
 8    1  0.2603554E-016  0.8094368E+02  0.7818608E-02  0.1326395E+00
          2   -1    0    0  501    0  0.00000000000E+00  0.00000000000E+00  0.92524803135E+02  0.92524803170E+02  0.25500000000E-02 0. -1.
         -1   -1    0    0    0  501 -0.00000000000E+00 -0.00000000000E+00 -0.17703035528E+02  0.17703036246E+02  0.50400000000E-02 0.  1.
         24    2    1    2    0    0 -0.35527136788E-14 -0.17763568394E-14  0.74821767607E+02  0.11022783942E+03  0.80943682116E+02 0.  0.
         66    2    3    3    0    0  0.25988329649E+02  0.11128699389E+02  0.76824874912E+02  0.81885912330E+02  0.20000012015E+01 0.  0.
        -13    1    3    3    0    0 -0.25988329649E+02 -0.11128699389E+02 -0.20031073051E+01  0.28341927086E+02  0.10566000000E+00 0.  1.
         13    1    4    4    0    0  0.11473774383E+02  0.49389424711E+01  0.33793319002E+02  0.36028325308E+02  0.10566000000E+00 0. -1.
        -13    1    4    4    0    0  0.81676404424E+01  0.29968714882E+01  0.25372848927E+02  0.26823202937E+02  0.10566000000E+00 0.  1.
        -14    1    4    4    0    0  0.63469148237E+01  0.31928854293E+01  0.17658706984E+02  0.19034384085E+02  0.00000000000E+00 0.  1.
<mgrwt>
<rscale>  0 0.80943682E+02</rscale>
<asrwt>0</asrwt>
<pdfrwt beam="1">  1        2 0.14234585E-01 0.80943682E+02</pdfrwt>
<pdfrwt beam="2">  1       -1 0.27235439E-02 0.80943682E+02</pdfrwt>
<totfact> 0.16811974E+05</totfact>
</mgrwt>
</event>
<event>
 8    1  0.2603554E-016  0.7981635E+02  0.7818608E-02  0.1329573E+00
         -1   -1    0    0    0  501 -0.00000000000E+00  0.00000000000E+00  0.95889205261E+01  0.95889218506E+01  0.50400000000E-02 0.  1.
          2   -1    0    0  501    0  0.00000000000E+00 -0.00000000000E+00 -0.16609403047E+03  0.16609403049E+03  0.25500000000E-02 0. -1.
         24    2    1    2    0    0  0.88817841970E-15  0.00000000000E+00 -0.15650510994E+03  0.17568295234E+03  0.79816353615E+02 0.  0.
         66    2    3    3    0    0 -0.68319419914E+01  0.22192578389E+02 -0.14967497341E+03  0.15147865735E+03  0.20000001327E+01 0.  0.
        -13    1    3    3    0    0  0.68319419914E+01 -0.22192578389E+02 -0.68301365371E+01  0.24204294993E+02  0.10566000000E+00 0.  1.
         13    1    4    4    0    0 -0.20565001152E+01  0.55382867386E+01 -0.41189661667E+02  0.41611311022E+02  0.10566000000E+00 0. -1.
        -13    1    4    4    0    0 -0.19273672471E+01  0.88361530237E+01 -0.55026217253E+02  0.55764577412E+02  0.10566000000E+00 0.  1.
        -14    1    4    4    0    0 -0.28480746291E+01  0.78181386271E+01 -0.53459094487E+02  0.54102768913E+02  0.00000000000E+00 0.  1.
<mgrwt>
<rscale>  0 0.79816354E+02</rscale>
<asrwt>0</asrwt>
<pdfrwt beam="1">  1        2 0.25552926E-01 0.79816354E+02</pdfrwt>
<pdfrwt beam="2">  1       -1 0.14752188E-02 0.79816354E+02</pdfrwt>
<totfact> 0.20835041E+05</totfact>
</mgrwt>
</event>
<event>
 8    1  0.2603554E-016  0.8132917E+02  0.7818608E-02  0.1325321E+00
          2   -1    0    0  501    0  0.00000000000E+00  0.00000000000E+00  0.89036429002E+01  0.89036432653E+01  0.25500000000E-02 0. -1.
         -1   -1    0    0    0  501 -0.00000000000E+00 -0.00000000000E+00 -0.18572267720E+03  0.18572267727E+03  0.50400000000E-02 0.  1.
         24    2    1    2    0    0  0.00000000000E+00  0.00000000000E+00 -0.17681903430E+03  0.19462632054E+03  0.81329169145E+02 0.  0.
         66    2    3    3    0    0 -0.73830316859E+00 -0.40624470384E+02 -0.86445295638E+02  0.95538902113E+02  0.19999983604E+01 0.  0.
        -13    1    3    3    0    0  0.73830316859E+00  0.40624470384E+02 -0.90373738665E+02  0.99087418424E+02  0.10566000000E+00 0.  1.
         13    1    4    4    0    0 -0.80137572705E+00 -0.71066976789E+01 -0.15521672437E+02  0.17090372560E+02  0.10566000000E+00 0. -1.
        -13    1    4    4    0    0  0.49493142369E-01 -0.14915631166E+01 -0.29242325873E+01  0.32847390097E+01  0.10566000000E+00 0. -1.
        -14    1    4    4    0    0  0.13579416091E-01 -0.32026209589E+02 -0.67999390613E+02  0.75163790543E+02  0.00000000000E+00 0.  1.
<mgrwt>
<rscale>  0 0.81329169E+02</rscale>
<asrwt>0</asrwt>
<pdfrwt beam="1">  1        2 0.13697914E-02 0.81329169E+02</pdfrwt>
<pdfrwt beam="2">  1       -1 0.28572717E-01 0.81329169E+02</pdfrwt>
<totfact> 0.97632335E+04</totfact>
</mgrwt>
</event>
<event>
 8    1  0.2603554E-016  0.7882028E+02  0.7818608E-02  0.1332433E+00
          2   -1    0    0  501    0  0.00000000000E+00  0.00000000000E+00  0.54107763309E+03  0.54107763310E+03  0.25500000000E-02 0. -1.
         -1   -1    0    0    0  501 -0.00000000000E+00 -0.00000000000E+00 -0.28704896355E+01  0.28704940602E+01  0.50400000000E-02 0.  1.
         24    2    1    2    0    0  0.00000000000E+00 -0.71054273576E-14  0.53820714345E+03  0.54394812716E+03  0.78820275128E+02 0.  0.
         66    2    3    3    0    0  0.16836350219E+02 -0.31587612056E+02  0.38265526842E+03  0.38433096982E+03  0.19999980156E+01 0.  0.
        -13    1    3    3    0    0 -0.16836350219E+02  0.31587612056E+02  0.15555187504E+03  0.15961715734E+03  0.10566000000E+00 0.  1.
         13    1    4    4    0    0  0.33421982183E+01 -0.66049639251E+01  0.77406917806E+02  0.77760130695E+02  0.10566000000E+00 0. -1.
        -13    1    4    4    0    0  0.11911218549E+02 -0.20749070873E+02  0.25708984223E+03  0.25820069561E+03  0.10566000000E+00 0.  1.
        -14    1    4    4    0    0  0.15829334520E+01 -0.42335772580E+01  0.48158508380E+02  0.48370143519E+02  0.00000000000E+00 0.  1.
<mgrwt>
<rscale>  0 0.78820275E+02</rscale>
<asrwt>0</asrwt>
<pdfrwt beam="1">  1        2 0.83242706E-01 0.78820275E+02</pdfrwt>
<pdfrwt beam="2">  1       -1 0.44161417E-03 0.78820275E+02</pdfrwt>
<totfact> 0.32438674E+05</totfact>
</mgrwt>
</event>
<event>
 8    1  0.2603554E-016  0.7732499E+02  0.7818608E-02  0.1336819E+00
          2   -1    0    0  501    0  0.00000000000E+00  0.00000000000E+00  0.15466811588E+03  0.15466811591E+03  0.25500000000E-02 0. -1.
         -1   -1    0    0    0  501 -0.00000000000E+00 -0.00000000000E+00 -0.96644899675E+01  0.96644912817E+01  0.50400000000E-02 0.  1.
         24    2    1    2    0    0  0.00000000000E+00  0.00000000000E+00  0.14500362592E+03  0.16433260719E+03  0.77324991147E+02 0.  0.
         66    2    3    3    0    0  0.24599108729E+02 -0.28401061920E+02  0.91682729252E+02  0.99103275950E+02  0.19999981395E+01 0.  0.
        -13    1    3    3    0    0 -0.24599108729E+02  0.28401061920E+02  0.53320896665E+02  0.65229331237E+02  0.10566000000E+00 0.  1.
         13    1    4    4    0    0  0.74302624213E+01 -0.90403428947E+01  0.27938670754E+02  0.30290544512E+02  0.10566000000E+00 0. -1.
        -13    1    4    4    0    0  0.16794547176E+02 -0.18524186640E+02  0.61462540173E+02  0.66354030127E+02  0.10566000000E+00 0.  1.
        -14    1    4    4    0    0  0.37429913168E+00 -0.83653238526E+00  0.22815183243E+01  0.24587013108E+01  0.00000000000E+00 0.  1.
<mgrwt>
<rscale>  0 0.77324991E+02</rscale>
<asrwt>0</asrwt>
<pdfrwt beam="1">  1        2 0.23795094E-01 0.77324991E+02</pdfrwt>
<pdfrwt beam="2">  1       -1 0.14868448E-02 0.77324991E+02</pdfrwt>
<totfact> 0.22135263E+05</totfact>
</mgrwt>
</event>
<event>
 8    1  0.2603554E-016  0.8077326E+02  0.7818608E-02  0.1326871E+00
          2   -1    0    0  501    0  0.00000000000E+00  0.00000000000E+00  0.30064627827E+03  0.30064627828E+03  0.25500000000E-02 0. -1.
         -1   -1    0    0    0  501 -0.00000000000E+00 -0.00000000000E+00 -0.54252449475E+01  0.54252472886E+01  0.50400000000E-02 0.  1.
         24    2    1    2    0    0  0.00000000000E+00  0.35527136788E-14  0.29522103333E+03  0.30607152557E+03  0.80773264441E+02 0.  0.
         66    2    3    3    0    0  0.32777497763E+02 -0.22184904014E+02  0.17766732231E+03  0.18203354565E+03  0.19999998354E+01 0.  0.
        -13    1    3    3    0    0 -0.32777497763E+02  0.22184904014E+02  0.11755371102E+03  0.12403797992E+03  0.10566000000E+00 0.  1.
         13    1    4    4    0    0  0.36273811373E+01 -0.22606182568E+01  0.18099548376E+02  0.18597663946E+02  0.10566000000E+00 0. -1.
        -13    1    4    4    0    0  0.68453596496E+01 -0.51412103674E+01  0.36032451688E+02  0.37035654867E+02  0.10566000000E+00 0.  1.
         14    1    4    4    0    0  0.22304756977E+02 -0.14783075389E+02  0.12353532225E+03  0.12640022684E+03  0.00000000000E+00 0. -1.
<mgrwt>
<rscale>  0 0.80773264E+02</rscale>
<asrwt>0</asrwt>
<pdfrwt beam="1">  1        2 0.46253274E-01 0.80773264E+02</pdfrwt>
<pdfrwt beam="2">  1       -1 0.83465325E-03 0.80773264E+02</pdfrwt>
<totfact> 0.24878651E+05</totfact>
</mgrwt>
</event>
<event>
 8    1  0.2603554E-016  0.8013849E+02  0.7818608E-02  0.1328659E+00
         -1   -1    0    0    0  501 -0.00000000000E+00  0.00000000000E+00  0.70942592033E+02  0.70942592212E+02  0.50400000000E-02 0.  1.
          2   -1    0    0  501    0  0.00000000000E+00 -0.00000000000E+00 -0.22631601760E+02  0.22631601904E+02  0.25500000000E-02 0. -1.
         24    2    1    2    0    0  0.00000000000E+00 -0.35527136788E-14  0.48310990273E+02  0.93574194116E+02  0.80138492770E+02 0.  0.
         66    2    3    3    0    0 -0.44573729610E+01  0.24880961341E+02 -0.12094746343E+02  0.28092940378E+02  0.19999997431E+01 0.  0.
        -13    1    3    3    0    0  0.44573729610E+01 -0.24880961341E+02  0.60405736616E+02  0.65481253739E+02  0.10566000000E+00 0.  1.
         13    1    4    4    0    0 -0.15512575049E+01  0.11297497546E+02 -0.61549534533E+01  0.12958953149E+02  0.10566000000E+00 0. -1.
        -13    1    4    4    0    0 -0.70154571918E+00  0.32683060796E+01 -0.10319911394E+01  0.35000229675E+01  0.10566000000E+00 0.  1.
        -14    1    4    4    0    0 -0.22045697369E+01  0.10315157715E+02 -0.49078017507E+01  0.11633964262E+02  0.00000000000E+00 0.  1.
<mgrwt>
<rscale>  0 0.80138493E+02</rscale>
<asrwt>0</asrwt>
<pdfrwt beam="1">  1        2 0.34817850E-02 0.80138493E+02</pdfrwt>
<pdfrwt beam="2">  1       -1 0.10914245E-01 0.80138493E+02</pdfrwt>
<totfact> 0.12664552E+05</totfact>
</mgrwt>
</event>
<event>
 8    1  0.2603554E-016  0.7491417E+02  0.7818608E-02  0.1344137E+00
          2   -1    0    0  501    0  0.00000000000E+00  0.00000000000E+00  0.42027877574E+02  0.42027877651E+02  0.25500000000E-02 0. -1.
         -1   -1    0    0    0  501 -0.00000000000E+00 -0.00000000000E+00 -0.33383396987E+02  0.33383397367E+02  0.50400000000E-02 0.  1.
         24    2    1    2    0    0  0.35527136788E-14  0.35527136788E-14  0.86444805873E+01  0.75411275018E+02  0.74914173260E+02 0.  0.
         66    2    3    3    0    0 -0.16691618114E+02 -0.26149731332E+02  0.25407298317E+02  0.40149088667E+02  0.19999872379E+01 0.  0.
        -13    1    3    3    0    0  0.16691618114E+02  0.26149731332E+02 -0.16762817730E+02  0.35262186352E+02  0.10566000000E+00 0.  1.
         13    1    4    4    0    0 -0.15545145929E+01 -0.17850041247E+01  0.19882262967E+01  0.30930507897E+01  0.10566000000E+00 0. -1.
        -13    1    4    4    0    0 -0.24210864460E+01 -0.33616478880E+01  0.28966033868E+01  0.50560667834E+01  0.10566000000E+00 0.  1.
         14    1    4    4    0    0 -0.12716017075E+02 -0.21003079319E+02  0.20522468634E+02  0.31999971094E+02  0.00000000000E+00 0. -1.
<mgrwt>
<rscale>  0 0.74914173E+02</rscale>
<asrwt>0</asrwt>
<pdfrwt beam="1">  1        2 0.64658273E-02 0.74914173E+02</pdfrwt>
<pdfrwt beam="2">  1       -1 0.51359073E-02 0.74914173E+02</pdfrwt>
<totfact> 0.17246274E+05</totfact>
</mgrwt>
</event>
<event>
 8    1  0.2603554E-016  0.8128814E+02  0.7818608E-02  0.1325435E+00
          2   -1    0    0  501    0  0.00000000000E+00  0.00000000000E+00  0.52321284003E+03  0.52321284003E+03  0.25500000000E-02 0. -1.
         -1   -1    0    0    0  501 -0.00000000000E+00 -0.00000000000E+00 -0.31572988488E+01  0.31573028715E+01  0.50400000000E-02 0.  1.
         24    2    1    2    0    0 -0.35527136788E-14  0.35527136788E-14  0.52005554118E+03  0.52637014290E+03  0.81288138319E+02 0.  0.
         66    2    3    3    0    0  0.20671052857E+02 -0.26777651258E+02  0.40578687615E+03  0.40719936627E+03  0.19999998419E+01 0.  0.
        -13    1    3    3    0    0 -0.20671052857E+02  0.26777651258E+02  0.11426866503E+03  0.11917077664E+03  0.10566000000E+00 0.  1.
         13    1    4    4    0    0  0.29672196755E+01 -0.44075798271E+01  0.59718433389E+02  0.59954429386E+02  0.10566000000E+00 0. -1.
        -13    1    4    4    0    0  0.25704375200E+01 -0.28085323000E+01  0.42002703087E+02  0.42175030924E+02  0.10566000000E+00 0.  1.
         14    1    4    4    0    0  0.15133395661E+02 -0.19561539131E+02  0.30406573967E+03  0.30506990596E+03  0.00000000000E+00 0. -1.
<mgrwt>
<rscale>  0 0.81288138E+02</rscale>
<asrwt>0</asrwt>
<pdfrwt beam="1">  1        2 0.80494170E-01 0.81288138E+02</pdfrwt>
<pdfrwt beam="2">  1       -1 0.48573928E-03 0.81288138E+02</pdfrwt>
<totfact> 0.29628886E+05</totfact>
</mgrwt>
</event>
<event>
 8    1  0.2603554E-016  0.8003345E+02  0.7818608E-02  0.1328957E+00
          2   -1    0    0  501    0  0.00000000000E+00  0.00000000000E+00  0.11916960104E+04  0.11916960104E+04  0.25500000000E-02 0. -1.
         -1   -1    0    0    0  501 -0.00000000000E+00 -0.00000000000E+00 -0.13437425123E+01  0.13437519641E+01  0.50400000000E-02 0.  1.
         24    2    1    2    0    0  0.00000000000E+00  0.00000000000E+00  0.11903522679E+04  0.11930397624E+04  0.80033448776E+02 0.  0.
         66    2    3    3    0    0 -0.90477879999E+01  0.43239813929E+01  0.11726472833E+04  0.11726918650E+04  0.20000021000E+01 0.  0.
        -13    1    3    3    0    0  0.90477879999E+01 -0.43239813929E+01  0.17704984642E+02  0.20347897385E+02  0.10566000000E+00 0.  1.
         13    1    4    4    0    0 -0.56637593880E+01  0.21202428730E+01  0.66165621180E+03  0.66168385758E+03  0.10566000000E+00 0.  1.
        -13    1    4    4    0    0 -0.16590504609E+01  0.14594515607E+01  0.32198945837E+03  0.32199705730E+03  0.10566000000E+00 0. -1.
        -14    1    4    4    0    0 -0.17249781511E+01  0.74428695917E+00  0.18900161309E+03  0.18901095011E+03  0.00000000000E+00 0.  1.
<mgrwt>
<rscale>  0 0.80033449E+02</rscale>
<asrwt>0</asrwt>
<pdfrwt beam="1">  1        2 0.18333775E+00 0.80033449E+02</pdfrwt>
<pdfrwt beam="2">  1       -1 0.20673045E-03 0.80033449E+02</pdfrwt>
<totfact> 0.35026058E+05</totfact>
</mgrwt>
</event>
<event>
 8    1  0.2603554E-016  0.8150265E+02  0.7818608E-02  0.1324840E+00
          2   -1    0    0  501    0  0.00000000000E+00  0.00000000000E+00  0.19419170877E+02  0.19419171045E+02  0.25500000000E-02 0. -1.
         -1   -1    0    0    0  501 -0.00000000000E+00 -0.00000000000E+00 -0.85517054019E+02  0.85517054167E+02  0.50400000000E-02 0.  1.
         24    2    1    2    0    0  0.00000000000E+00 -0.69388939039E-17 -0.66097883142E+02  0.10493622521E+03  0.81502645392E+02 0.  0.
         66    2    3    3    0    0  0.39168576440E+02 -0.31873115738E-01 -0.18703457317E+02  0.43451095632E+02  0.19999999391E+01 0.  0.
        -13    1    3    3    0    0 -0.39168576440E+02  0.31873115738E-01 -0.47394425824E+02  0.61485129580E+02  0.10566000000E+00 0.  1.
         13    1    4    4    0    0  0.19806902954E+02  0.29001692434E+00 -0.99218589682E+01  0.22155179165E+02  0.10566000000E+00 0.  1.
        -13    1    4    4    0    0  0.18672112762E+02 -0.52004574190E+00 -0.85358354838E+01  0.20537524048E+02  0.10566000000E+00 0. -1.
         14    1    4    4    0    0  0.68956072412E+00  0.19815570182E+00 -0.24576286543E+00  0.75839241850E+00  0.00000000000E+00 0. -1.
<mgrwt>
<rscale>  0 0.81502645E+02</rscale>
<asrwt>0</asrwt>
<pdfrwt beam="1">  1        2 0.29875648E-02 0.81502645E+02</pdfrwt>
<pdfrwt beam="2">  1       -1 0.13156470E-01 0.81502645E+02</pdfrwt>
<totfact> 0.11696831E+05</totfact>
</mgrwt>
</event>
<event>
 8    1  0.2603554E-016  0.7897445E+02  0.7818608E-02  0.1331987E+00
          2   -1    0    0  501    0  0.00000000000E+00  0.00000000000E+00  0.17635102028E+02  0.17635102212E+02  0.25500000000E-02 0. -1.
         -1   -1    0    0    0  501 -0.00000000000E+00 -0.00000000000E+00 -0.88416887425E+02  0.88416887569E+02  0.50400000000E-02 0.  1.
         24    2    1    2    0    0  0.00000000000E+00  0.00000000000E+00 -0.70781785398E+02  0.10605198978E+03  0.78974447718E+02 0.  0.
         66    2    3    3    0    0  0.17435508599E+02  0.32576913926E+02 -0.16807042648E+02  0.40641468456E+02  0.19999986479E+01 0.  0.
        -13    1    3    3    0    0 -0.17435508599E+02 -0.32576913926E+02 -0.53974742750E+02  0.65410521325E+02  0.10566000000E+00 0.  1.
         13    1    4    4    0    0  0.88738383024E+01  0.15493569282E+02 -0.80997069586E+01  0.19606430378E+02  0.10566000000E+00 0. -1.
        -13    1    4    4    0    0  0.10643083463E+01  0.27571421852E+01 -0.99249306453E+00  0.31194217099E+01  0.10566000000E+00 0.  1.
         14    1    4    4    0    0  0.74973619507E+01  0.14326202459E+02 -0.77148426250E+01  0.17915616368E+02  0.00000000000E+00 0. -1.
<mgrwt>
<rscale>  0 0.78974448E+02</rscale>
<asrwt>0</asrwt>
<pdfrwt beam="1">  1        2 0.27130927E-02 0.78974448E+02</pdfrwt>
<pdfrwt beam="2">  1       -1 0.13602598E-01 0.78974448E+02</pdfrwt>
<totfact> 0.12559617E+05</totfact>
</mgrwt>
</event>
<event>
 8    1  0.2603554E-016  0.7812727E+02  0.7818608E-02  0.1334452E+00
         -1   -1    0    0    0  501 -0.00000000000E+00  0.00000000000E+00  0.11969802624E+02  0.11969803685E+02  0.50400000000E-02 0.  1.
          2   -1    0    0  501    0  0.00000000000E+00 -0.00000000000E+00 -0.12748477191E+03  0.12748477193E+03  0.25500000000E-02 0. -1.
         24    2    1    2    0    0 -0.44408920985E-15  0.35527136788E-14 -0.11551496929E+03  0.13945457562E+03  0.78127271374E+02 0.  0.
         66    2    3    3    0    0 -0.26030896516E+01 -0.29982504690E+02 -0.10217726980E+03  0.10653600860E+03  0.20000003125E+01 0.  0.
        -13    1    3    3    0    0  0.26030896516E+01  0.29982504690E+02 -0.13337699488E+02  0.32918567024E+02  0.10566000000E+00 0.  1.
         13    1    4    4    0    0 -0.21623705871E+01 -0.21270675811E+02 -0.74086350744E+02  0.77109766091E+02  0.10566000000E+00 0. -1.
        -13    1    4    4    0    0 -0.39861522888E+00 -0.87026976838E+01 -0.27833135961E+02  0.29164884065E+02  0.10566000000E+00 0.  1.
         14    1    4    4    0    0 -0.42103835597E-01 -0.91311951165E-02 -0.25778309217E+00  0.26135844028E+00  0.00000000000E+00 0. -1.
<mgrwt>
<rscale>  0 0.78127271E+02</rscale>
<asrwt>0</asrwt>
<pdfrwt beam="1">  1        2 0.19613041E-01 0.78127271E+02</pdfrwt>
<pdfrwt beam="2">  1       -1 0.18415083E-02 0.78127271E+02</pdfrwt>
<totfact> 0.20269428E+05</totfact>
</mgrwt>
</event>
<event>
 8    1  0.2603554E-016  0.8015629E+02  0.7818608E-02  0.1328608E+00
         -1   -1    0    0    0  501 -0.00000000000E+00  0.00000000000E+00  0.53159559068E+01  0.53159582960E+01  0.50400000000E-02 0.  1.
          2   -1    0    0  501    0  0.00000000000E+00 -0.00000000000E+00 -0.30215777784E+03  0.30215777785E+03  0.25500000000E-02 0. -1.
         24    2    1    2    0    0  0.00000000000E+00  0.35527136788E-14 -0.29684182193E+03  0.30747373614E+03  0.80156292151E+02 0.  0.
         66    2    3    3    0    0 -0.13463698534E+02  0.24464218779E+02 -0.25865720276E+03  0.26016786459E+03  0.20000111284E+01 0.  0.
        -13    1    3    3    0    0  0.13463698534E+02 -0.24464218779E+02 -0.38184619167E+02  0.47305871555E+02  0.10566000000E+00 0.  1.
         13    1    4    4    0    0 -0.54270200662E+01  0.81758719042E+01 -0.93057648483E+02  0.93573685047E+02  0.10566000000E+00 0. -1.
        -13    1    4    4    0    0 -0.66808761128E+00  0.16146506925E+01 -0.17330912192E+02  0.17419102139E+02  0.10566000000E+00 0.  1.
         14    1    4    4    0    0 -0.73685908560E+01  0.14673696182E+02 -0.14826864209E+03  0.14917507740E+03  0.00000000000E+00 0. -1.
<mgrwt>
<rscale>  0 0.80156292E+02</rscale>
<asrwt>0</asrwt>
<pdfrwt beam="1">  1        2 0.46485799E-01 0.80156292E+02</pdfrwt>
<pdfrwt beam="2">  1       -1 0.81783979E-03 0.80156292E+02</pdfrwt>
<totfact> 0.25430254E+05</totfact>
</mgrwt>
</event>
<event>
 8    1  0.2603554E-016  0.7926773E+02  0.7818608E-02  0.1331142E+00
          2   -1    0    0  501    0  0.00000000000E+00  0.00000000000E+00  0.84922349966E+03  0.84922349966E+03  0.25500000000E-02 0. -1.
         -1   -1    0    0    0  501 -0.00000000000E+00 -0.00000000000E+00 -0.18497374492E+01  0.18497443154E+01  0.50400000000E-02 0.  1.
         24    2    1    2    0    0  0.00000000000E+00  0.17763568394E-14  0.84737376221E+03  0.85107324398E+03  0.79267734508E+02 0.  0.
         66    2    3    3    0    0  0.32336036622E+02  0.86177357264E+01  0.65145057823E+03  0.65231260950E+03  0.20000007017E+01 0.  0.
        -13    1    3    3    0    0 -0.32336036622E+02 -0.86177357264E+01  0.19592318398E+03  0.19876063448E+03  0.10566000000E+00 0.  1.
         13    1    4    4    0    0  0.22032326976E+02  0.58567265744E+01  0.43218271433E+03  0.43278358842E+03  0.10566000000E+00 0. -1.
        -13    1    4    4    0    0  0.52344159374E+01  0.99329148200E+00  0.11329733444E+03  0.11342258546E+03  0.10566000000E+00 0.  1.
        -14    1    4    4    0    0  0.50692937081E+01  0.17677176700E+01  0.10597052946E+03  0.10610643562E+03  0.00000000000E+00 0.  1.
<mgrwt>
<rscale>  0 0.79267735E+02</rscale>
<asrwt>0</asrwt>
<pdfrwt beam="1">  1        2 0.13065016E+00 0.79267735E+02</pdfrwt>
<pdfrwt beam="2">  1       -1 0.28457467E-03 0.79267735E+02</pdfrwt>
<totfact> 0.35528837E+05</totfact>
</mgrwt>
</event>
<event>
 8    1  0.2603554E-016  0.7884083E+02  0.7818608E-02  0.1332374E+00
         -1   -1    0    0    0  501 -0.00000000000E+00  0.00000000000E+00  0.39047777201E+01  0.39047809728E+01  0.50400000000E-02 0.  1.
          2   -1    0    0  501    0  0.00000000000E+00 -0.00000000000E+00 -0.39796587499E+03  0.39796587500E+03  0.25500000000E-02 0. -1.
         24    2    1    2    0    0  0.00000000000E+00  0.00000000000E+00 -0.39406109727E+03  0.40187065597E+03  0.78840825395E+02 0.  0.
         66    2    3    3    0    0  0.20532995627E+02 -0.26905463990E+02 -0.29992121173E+03  0.30183147807E+03  0.20000013100E+01 0.  0.
        -13    1    3    3    0    0 -0.20532995627E+02  0.26905463990E+02 -0.94139885537E+02  0.10003917790E+03  0.10566000000E+00 0.  1.
         13    1    4    4    0    0  0.80798690088E+01 -0.10359898483E+02 -0.11506793408E+03  0.11581559652E+03  0.10566000000E+00 0. -1.
        -13    1    4    4    0    0  0.10650363037E+02 -0.13414989331E+02 -0.15585737280E+03  0.15679580349E+03  0.10566000000E+00 0.  1.
        -14    1    4    4    0    0  0.18027635817E+01 -0.31305761760E+01 -0.28995904847E+02  0.29220078056E+02  0.00000000000E+00 0.  1.
<mgrwt>
<rscale>  0 0.78840825E+02</rscale>
<asrwt>0</asrwt>
<pdfrwt beam="1">  1        2 0.61225487E-01 0.78840825E+02</pdfrwt>
<pdfrwt beam="2">  1       -1 0.60073560E-03 0.78840825E+02</pdfrwt>
<totfact> 0.29298599E+05</totfact>
</mgrwt>
</event>
<event>
 8    1  0.2603554E-016  0.8251175E+02  0.7818608E-02  0.1322071E+00
         -1   -1    0    0    0  501 -0.00000000000E+00  0.00000000000E+00  0.21344797598E+01  0.21344857100E+01  0.50400000000E-02 0.  1.
          2   -1    0    0  501    0  0.00000000000E+00 -0.00000000000E+00 -0.79740498380E+03  0.79740498380E+03  0.25500000000E-02 0. -1.
         24    2    1    2    0    0  0.00000000000E+00 -0.22204460493E-15 -0.79527050404E+03  0.79953946951E+03  0.82511748948E+02 0.  0.
         66    2    3    3    0    0  0.35977175922E+02  0.14226842745E+01 -0.59255322599E+03  0.59364948141E+03  0.19999819950E+01 0.  0.
        -13    1    3    3    0    0 -0.35977175922E+02 -0.14226842745E+01 -0.20271727805E+03  0.20588998810E+03  0.10566000000E+00 0.  1.
         13    1    4    4    0    0  0.22793435425E+02  0.51371232144E+00 -0.37232917429E+03  0.37302658054E+03  0.10566000000E+00 0. -1.
        -13    1    4    4    0    0  0.12289602532E+02  0.10465755832E+01 -0.20801741033E+03  0.20838278195E+03  0.10566000000E+00 0.  1.
         14    1    4    4    0    0  0.89413796495E+00 -0.13760363014E+00 -0.12206641379E+02  0.12240118922E+02  0.00000000000E+00 0. -1.
<mgrwt>
<rscale>  0 0.82511749E+02</rscale>
<asrwt>0</asrwt>
<pdfrwt beam="1">  1        2 0.12267745E+00 0.82511749E+02</pdfrwt>
<pdfrwt beam="2">  1       -1 0.32838260E-03 0.82511749E+02</pdfrwt>
<totfact> 0.31691925E+05</totfact>
</mgrwt>
</event>
<event>
 8    1  0.2603554E-016  0.8078703E+02  0.7818608E-02  0.1326833E+00
         -1   -1    0    0    0  501 -0.00000000000E+00  0.00000000000E+00  0.16547528011E+03  0.16547528019E+03  0.50400000000E-02 0.  1.
          2   -1    0    0  501    0  0.00000000000E+00 -0.00000000000E+00 -0.98603007466E+01  0.98603010763E+01  0.25500000000E-02 0. -1.
         24    2    1    2    0    0  0.35527136788E-14  0.22204460493E-15  0.15561497936E+03  0.17533558126E+03  0.80787030238E+02 0.  0.
         66    2    3    3    0    0 -0.30229669034E+02  0.11738506620E+01  0.19844718270E+02  0.36235668335E+02  0.20000003018E+01 0.  0.
        -13    1    3    3    0    0  0.30229669034E+02 -0.11738506620E+01  0.13577026109E+03  0.13909991293E+03  0.10566000000E+00 0.  1.
         13    1    4    4    0    0 -0.11747028862E+01  0.17153548796E+00  0.56179791145E+00  0.13176237033E+01  0.10566000000E+00 0. -1.
        -13    1    4    4    0    0 -0.33364494264E+01  0.58311675077E+00  0.22032794713E+01  0.40419703592E+01  0.10566000000E+00 0.  1.
         14    1    4    4    0    0 -0.25718516721E+02  0.41919842331E+00  0.17079640888E+02  0.30876074273E+02  0.00000000000E+00 0. -1.
<mgrwt>
<rscale>  0 0.80787030E+02</rscale>
<asrwt>0</asrwt>
<pdfrwt beam="1">  1        2 0.15169696E-02 0.80787030E+02</pdfrwt>
<pdfrwt beam="2">  1       -1 0.25457732E-01 0.80787030E+02</pdfrwt>
<totfact> 0.10255871E+05</totfact>
</mgrwt>
</event>
<event>
 8    1  0.2603554E-016  0.7996031E+02  0.7818608E-02  0.1329164E+00
         -1   -1    0    0    0  501 -0.00000000000E+00  0.00000000000E+00  0.66288095197E+01  0.66288114357E+01  0.50400000000E-02 0.  1.
          2   -1    0    0  501    0  0.00000000000E+00 -0.00000000000E+00 -0.24113116966E+03  0.24113116967E+03  0.25500000000E-02 0. -1.
         24    2    1    2    0    0  0.35527136788E-14  0.35527136788E-14 -0.23450236014E+03  0.24775998111E+03  0.79960310954E+02 0.  0.
         66    2    3    3    0    0 -0.11479886495E+02 -0.24555192764E+02 -0.20827906305E+03  0.21004502705E+03  0.19999990486E+01 0.  0.
        -13    1    3    3    0    0  0.11479886495E+02  0.24555192764E+02 -0.26223297090E+02  0.37714954063E+02  0.10566000000E+00 0.  1.
         13    1    4    4    0    0 -0.34419344134E+01 -0.84766562155E+01 -0.68432130779E+02  0.69041062420E+02  0.10566000000E+00 0.  1.
        -13    1    4    4    0    0 -0.10081949331E+01 -0.20993070665E+01 -0.14944345917E+02  0.15125084664E+02  0.10566000000E+00 0. -1.
         14    1    4    4    0    0 -0.70297571490E+01 -0.13979229482E+02 -0.12490258635E+03  0.12587887996E+03  0.00000000000E+00 0. -1.
<mgrwt>
<rscale>  0 0.79960311E+02</rscale>
<asrwt>0</asrwt>
<pdfrwt beam="1">  1        2 0.37097096E-01 0.79960311E+02</pdfrwt>
<pdfrwt beam="2">  1       -1 0.10198172E-02 0.79960311E+02</pdfrwt>
<totfact> 0.23592837E+05</totfact>
</mgrwt>
</event>
<event>
 8    1  0.2603554E-016  0.7783132E+02  0.7818608E-02  0.1335321E+00
          2   -1    0    0  501    0  0.00000000000E+00  0.00000000000E+00  0.35689806622E+03  0.35689806623E+03  0.25500000000E-02 0. -1.
         -1   -1    0    0    0  501 -0.00000000000E+00 -0.00000000000E+00 -0.42433073966E+01  0.42433103897E+01  0.50400000000E-02 0.  1.
         24    2    1    2    0    0  0.00000000000E+00  0.35527136788E-14  0.35265475882E+03  0.36114137662E+03  0.77831323934E+02 0.  0.
         66    2    3    3    0    0 -0.16581055641E+02 -0.16297129628E+02  0.32109824442E+03  0.32194504254E+03  0.20000004885E+01 0.  0.
        -13    1    3    3    0    0  0.16581055641E+02  0.16297129628E+02  0.31556514396E+02  0.39196334078E+02  0.10566000000E+00 0.  1.
         13    1    4    4    0    0 -0.48749846019E+00 -0.45921705533E+00  0.11166909840E+02  0.11187473999E+02  0.10566000000E+00 0. -1.
        -13    1    4    4    0    0 -0.38236734275E+01 -0.39022381860E+01  0.65442684370E+02  0.65670419848E+02  0.10566000000E+00 0.  1.
        -14    1    4    4    0    0 -0.12269883753E+02 -0.11935674387E+02  0.24448865021E+03  0.24508714869E+03  0.00000000000E+00 0.  1.
<mgrwt>
<rscale>  0 0.77831324E+02</rscale>
<asrwt>0</asrwt>
<pdfrwt beam="1">  1        2 0.54907397E-01 0.77831324E+02</pdfrwt>
<pdfrwt beam="2">  1       -1 0.65281673E-03 0.77831324E+02</pdfrwt>
<totfact> 0.29157697E+05</totfact>
</mgrwt>
</event>
<event>
 8    1  0.2603554E-016  0.8022120E+02  0.7818608E-02  0.1328425E+00
         -1   -1    0    0    0  501 -0.00000000000E+00  0.00000000000E+00  0.23779844986E+01  0.23779898396E+01  0.50400000000E-02 0.  1.
          2   -1    0    0  501    0  0.00000000000E+00 -0.00000000000E+00 -0.67656387273E+03  0.67656387274E+03  0.25500000000E-02 0. -1.
         24    2    1    2    0    0 -0.17763568394E-14 -0.35527136788E-14 -0.67418588823E+03  0.67894186258E+03  0.80221199602E+02 0.  0.
         66    2    3    3    0    0  0.83817324081E+01  0.27548752130E+02 -0.57331740596E+03  0.57404358298E+03  0.20000004516E+01 0.  0.
        -13    1    3    3    0    0 -0.83817324081E+01 -0.27548752130E+02 -0.10086848228E+03  0.10489827960E+03  0.10566000000E+00 0.  1.
         13    1    4    4    0    0  0.24604847881E+01  0.10128188439E+02 -0.21751347402E+03  0.21776307477E+03  0.10566000000E+00 0.  1.
        -13    1    4    4    0    0  0.53874613908E+01  0.16231770231E+02 -0.33414924142E+03  0.33458664320E+03  0.10566000000E+00 0. -1.
        -14    1    4    4    0    0  0.53378622917E+00  0.11887934604E+01 -0.21654690522E+02  0.21693865013E+02  0.00000000000E+00 0.  1.
<mgrwt>
<rscale>  0 0.80221200E+02</rscale>
<asrwt>0</asrwt>
<pdfrwt beam="1">  1        2 0.10408660E+00 0.80221200E+02</pdfrwt>
<pdfrwt beam="2">  1       -1 0.36584472E-03 0.80221200E+02</pdfrwt>
<totfact> 0.32947646E+05</totfact>
</mgrwt>
</event>
<event>
 8    1  0.2603554E-016  0.7975624E+02  0.7818608E-02  0.1329745E+00
          2   -1    0    0  501    0  0.00000000000E+00  0.00000000000E+00  0.35097256123E+03  0.35097256124E+03  0.25500000000E-02 0. -1.
         -1   -1    0    0    0  501 -0.00000000000E+00 -0.00000000000E+00 -0.45310211193E+01  0.45310239224E+01  0.50400000000E-02 0.  1.
         24    2    1    2    0    0  0.00000000000E+00  0.00000000000E+00  0.34644154011E+03  0.35550358516E+03  0.79756243320E+02 0.  0.
         66    2    3    3    0    0  0.39023861183E+02 -0.67531172953E+01  0.19316010476E+03  0.19718846926E+03  0.20000011573E+01 0.  0.
        -13    1    3    3    0    0 -0.39023861183E+02  0.67531172953E+01  0.15328143535E+03  0.15831511590E+03  0.10566000000E+00 0.  1.
         13    1    4    4    0    0  0.57886779277E+01 -0.10664823175E+01  0.27615130807E+02  0.28235665216E+02  0.10566000000E+00 0. -1.
        -13    1    4    4    0    0  0.25960637214E+01 -0.11623063470E+00  0.11276208733E+02  0.11572255779E+02  0.10566000000E+00 0.  1.
         14    1    4    4    0    0  0.30639119534E+02 -0.55704043431E+01  0.15426876522E+03  0.15738054827E+03  0.00000000000E+00 0. -1.
<mgrwt>
<rscale>  0 0.79756243E+02</rscale>
<asrwt>0</asrwt>
<pdfrwt beam="1">  1        2 0.53995756E-01 0.79756243E+02</pdfrwt>
<pdfrwt beam="2">  1       -1 0.69708068E-03 0.79756243E+02</pdfrwt>
<totfact> 0.27192508E+05</totfact>
</mgrwt>
</event>
<event>
 8    1  0.2603554E-016  0.8185724E+02  0.7818608E-02  0.1323862E+00
         -1   -1    0    0    0  501 -0.00000000000E+00  0.00000000000E+00  0.74836866413E+01  0.74836883384E+01  0.50400000000E-02 0.  1.
          2   -1    0    0  501    0  0.00000000000E+00 -0.00000000000E+00 -0.22384045427E+03  0.22384045429E+03  0.25500000000E-02 0. -1.
         24    2    1    2    0    0 -0.35527136788E-14  0.00000000000E+00 -0.21635676763E+03  0.23132414263E+03  0.81857241961E+02 0.  0.
         66    2    3    3    0    0  0.22197415462E+02 -0.93405525978E+01 -0.20167762652E+03  0.20312025063E+03  0.19999999940E+01 0.  0.
        -13    1    3    3    0    0 -0.22197415462E+02  0.93405525978E+01 -0.14679141109E+02  0.28203891997E+02  0.10566000000E+00 0.  1.
         13    1    4    4    0    0  0.10675187121E+02 -0.41983348205E+01 -0.90882793310E+02  0.91603924147E+02  0.10566000000E+00 0. -1.
        -13    1    4    4    0    0  0.26097896494E+00  0.76908911832E-02 -0.25451517520E+01  0.25606894865E+01  0.10566000000E+00 0.  1.
        -14    1    4    4    0    0  0.11261249376E+02 -0.51499086684E+01 -0.10824968146E+03  0.10895563700E+03  0.00000000000E+00 0.  1.
<mgrwt>
<rscale>  0 0.81857242E+02</rscale>
<asrwt>0</asrwt>
<pdfrwt beam="1">  1        2 0.34436988E-01 0.81857242E+02</pdfrwt>
<pdfrwt beam="2">  1       -1 0.11513367E-02 0.81857242E+02</pdfrwt>
<totfact> 0.21599678E+05</totfact>
</mgrwt>
</event>
<event>
 8    1  0.2603554E-016  0.8255170E+02  0.7818608E-02  0.1321962E+00
          2   -1    0    0  501    0  0.00000000000E+00  0.00000000000E+00  0.15585753071E+03  0.15585753073E+03  0.25500000000E-02 0. -1.
         -1   -1    0    0    0  501 -0.00000000000E+00 -0.00000000000E+00 -0.10931108322E+02  0.10931109484E+02  0.50400000000E-02 0.  1.
         24    2    1    2    0    0  0.00000000000E+00  0.00000000000E+00  0.14492642239E+03  0.16678864022E+03  0.82551696521E+02 0.  0.
         66    2    3    3    0    0  0.23524232086E+01  0.22111403862E+02  0.14270572641E+03  0.14444158828E+03  0.19999994061E+01 0.  0.
        -13    1    3    3    0    0 -0.23524232086E+01 -0.22111403862E+02  0.22206959777E+01  0.22347051938E+02  0.10566000000E+00 0.  1.
         13    1    4    4    0    0  0.16122410280E+00  0.35003338609E+01  0.20810221640E+02  0.21103431453E+02  0.10566000000E+00 0. -1.
        -13    1    4    4    0    0  0.80111328718E+00  0.22866578312E+01  0.15418598386E+02  0.15608168591E+02  0.10566000000E+00 0.  1.
         14    1    4    4    0    0  0.13900858186E+01  0.16324412169E+02  0.10647690639E+03  0.10772998824E+03  0.00000000000E+00 0. -1.
<mgrwt>
<rscale>  0 0.82551697E+02</rscale>
<asrwt>0</asrwt>
<pdfrwt beam="1">  1        2 0.23978081E-01 0.82551697E+02</pdfrwt>
<pdfrwt beam="2">  1       -1 0.16817091E-02 0.82551697E+02</pdfrwt>
<totfact> 0.18657597E+05</totfact>
</mgrwt>
</event>
<event>
 8    1  0.2603554E-016  0.7870475E+02  0.7818608E-02  0.1332768E+00
          2   -1    0    0  501    0  0.00000000000E+00  0.00000000000E+00  0.12263728468E+03  0.12263728471E+03  0.25500000000E-02 0. -1.
         -1   -1    0    0    0  501 -0.00000000000E+00 -0.00000000000E+00 -0.12627555973E+02  0.12627556979E+02  0.50400000000E-02 0.  1.
         24    2    1    2    0    0  0.00000000000E+00  0.00000000000E+00  0.11000972871E+03  0.13526484169E+03  0.78704745640E+02 0.  0.
         66    2    3    3    0    0  0.19075142158E+02 -0.73546845024E+01  0.11277858668E+03  0.11463403533E+03  0.20000029136E+01 0.  0.
        -13    1    3    3    0    0 -0.19075142158E+02  0.73546845024E+01 -0.27688579647E+01  0.20630806357E+02  0.10566000000E+00 0.  1.
         13    1    4    4    0    0  0.54816550714E+01 -0.30018600245E+01  0.35684332999E+02  0.36227648164E+02  0.10566000000E+00 0. -1.
        -13    1    4    4    0    0  0.87265914817E+01 -0.30417108195E+01  0.49313492733E+02  0.50172075233E+02  0.10566000000E+00 0.  1.
         14    1    4    4    0    0  0.48668956045E+01 -0.13111136583E+01  0.27780760944E+02  0.28234311936E+02  0.00000000000E+00 0. -1.
<mgrwt>
<rscale>  0 0.78704746E+02</rscale>
<asrwt>0</asrwt>
<pdfrwt beam="1">  1        2 0.18867274E-01 0.78704746E+02</pdfrwt>
<pdfrwt beam="2">  1       -1 0.19427011E-02 0.78704746E+02</pdfrwt>
<totfact> 0.19644551E+05</totfact>
</mgrwt>
</event>
<event>
 8    1  0.2603554E-016  0.7927524E+02  0.7818608E-02  0.1331121E+00
         -1   -1    0    0    0  501 -0.00000000000E+00  0.00000000000E+00  0.22035197634E+01  0.22035255272E+01  0.50400000000E-02 0.  1.
          2   -1    0    0  501    0  0.00000000000E+00 -0.00000000000E+00 -0.71301324693E+03  0.71301324694E+03  0.25500000000E-02 0. -1.
         24    2    1    2    0    0  0.17763568394E-14  0.17763568394E-14 -0.71080972717E+03  0.71521677247E+03  0.79275238101E+02 0.  0.
         66    2    3    3    0    0 -0.11389165922E+02 -0.84258514362E+01 -0.68937260867E+03  0.68952106686E+03  0.19999977352E+01 0.  0.
        -13    1    3    3    0    0  0.11389165922E+02  0.84258514362E+01 -0.21437118506E+02  0.25695705608E+02  0.10566000000E+00 0.  1.
         13    1    4    4    0    0 -0.13737740998E+01 -0.15784681246E+01 -0.93243603043E+02  0.93267140458E+02  0.10566000000E+00 0.  1.
        -13    1    4    4    0    0 -0.61236877255E+01 -0.42230613471E+01 -0.33335902843E+03  0.33344202914E+03  0.10566000000E+00 0. -1.
        -14    1    4    4    0    0 -0.38917040964E+01 -0.26243219645E+01 -0.26276997720E+03  0.26281189726E+03  0.00000000000E+00 0.  1.
<mgrwt>
<rscale>  0 0.79275238E+02</rscale>
<asrwt>0</asrwt>
<pdfrwt beam="1">  1        2 0.10969416E+00 0.79275238E+02</pdfrwt>
<pdfrwt beam="2">  1       -1 0.33900405E-03 0.79275238E+02</pdfrwt>
<totfact> 0.34394556E+05</totfact>
</mgrwt>
</event>
<event>
 8    1  0.2603554E-016  0.7870850E+02  0.7818608E-02  0.1332757E+00
         -1   -1    0    0    0  501 -0.00000000000E+00  0.00000000000E+00  0.35557654608E+02  0.35557654965E+02  0.50400000000E-02 0.  1.
          2   -1    0    0  501    0  0.00000000000E+00 -0.00000000000E+00 -0.43556224043E+02  0.43556224118E+02  0.25500000000E-02 0. -1.
         24    2    1    2    0    0 -0.35527136788E-14 -0.13877787808E-16 -0.79985694351E+01  0.79113879083E+02  0.78708504944E+02 0.  0.
         66    2    3    3    0    0  0.29312680167E+02 -0.97905323477E-01 -0.30357304293E+02  0.42246997027E+02  0.20000074715E+01 0.  0.
        -13    1    3    3    0    0 -0.29312680167E+02  0.97905323477E-01  0.22358734857E+02  0.36866882055E+02  0.10566000000E+00 0.  1.
         13    1    4    4    0    0  0.13262065145E+01  0.24556011320E+00 -0.12118936635E+01  0.18163077315E+01  0.10566000000E+00 0. -1.
        -13    1    4    4    0    0  0.64475670265E+01  0.15150314741E+00 -0.74686718997E+01  0.98684496121E+01  0.10566000000E+00 0.  1.
         14    1    4    4    0    0  0.21538906626E+02 -0.49496858409E+00 -0.21676738729E+02  0.30562239684E+02  0.00000000000E+00 0. -1.
<mgrwt>
<rscale>  0 0.78708505E+02</rscale>
<asrwt>0</asrwt>
<pdfrwt beam="1">  1        2 0.67009576E-02 0.78708505E+02</pdfrwt>
<pdfrwt beam="2">  1       -1 0.54704084E-02 0.78708505E+02</pdfrwt>
<totfact> 0.15173737E+05</totfact>
</mgrwt>
</event>
<event>
 8    1  0.2603554E-016  0.8065384E+02  0.7818608E-02  0.1327206E+00
         -1   -1    0    0    0  501 -0.00000000000E+00  0.00000000000E+00  0.15306112842E+03  0.15306112850E+03  0.50400000000E-02 0.  1.
          2   -1    0    0  501    0  0.00000000000E+00 -0.00000000000E+00 -0.10624908403E+02  0.10624908709E+02  0.25500000000E-02 0. -1.
         24    2    1    2    0    0  0.00000000000E+00  0.71054273576E-14  0.14243622001E+03  0.16368603721E+03  0.80653840610E+02 0.  0.
         66    2    3    3    0    0 -0.20316925966E+01  0.39429993028E+02  0.87674735115E+02  0.96175419396E+02  0.19999983814E+01 0.  0.
        -13    1    3    3    0    0  0.20316925966E+01 -0.39429993028E+02  0.54761484897E+02  0.67510617811E+02  0.10566000000E+00 0.  1.
         13    1    4    4    0    0 -0.16726534559E+01  0.35836184534E+02  0.80190463434E+02  0.87849595795E+02  0.10566000000E+00 0. -1.
        -13    1    4    4    0    0  0.10156270339E+00  0.12597562794E+01  0.26522526293E+01  0.29398824656E+01  0.10566000000E+00 0.  1.
         14    1    4    4    0    0 -0.46060184409E+00  0.23340522153E+01  0.48320190519E+01  0.53859411360E+01  0.00000000000E+00 0. -1.
<mgrwt>
<rscale>  0 0.80653841E+02</rscale>
<asrwt>0</asrwt>
<pdfrwt beam="1">  1        2 0.16346014E-02 0.80653841E+02</pdfrwt>
<pdfrwt beam="2">  1       -1 0.23547865E-01 0.80653841E+02</pdfrwt>
<totfact> 0.10512888E+05</totfact>
</mgrwt>
</event>
<event>
 8    1  0.2603554E-016  0.8183002E+02  0.7818608E-02  0.1323937E+00
         -1   -1    0    0    0  501 -0.00000000000E+00  0.00000000000E+00  0.16772035108E+03  0.16772035115E+03  0.50400000000E-02 0.  1.
          2   -1    0    0  501    0  0.00000000000E+00 -0.00000000000E+00 -0.99811267275E+01  0.99811270532E+01  0.25500000000E-02 0. -1.
         24    2    1    2    0    0  0.71054273576E-14  0.00000000000E+00  0.15773922435E+03  0.17770147821E+03  0.81830021741E+02 0.  0.
         66    2    3    3    0    0  0.40795326349E+02  0.65586770778E-01  0.72863273875E+02  0.83530351598E+02  0.20000012205E+01 0.  0.
        -13    1    3    3    0    0 -0.40795326349E+02 -0.65586770778E-01  0.84875950475E+02  0.94171126607E+02  0.10566000000E+00 0.  1.
         13    1    4    4    0    0  0.22565729269E+02  0.46142079953E+00  0.41108910126E+02  0.46897534076E+02  0.10566000000E+00 0. -1.
        -13    1    4    4    0    0  0.35615299477E+01 -0.37434736819E+00  0.56674042887E+01  0.67048688971E+01  0.10566000000E+00 0.  1.
        -14    1    4    4    0    0  0.14668067132E+02 -0.21486660555E-01  0.26086959460E+02  0.29927948625E+02  0.00000000000E+00 0.  1.
<mgrwt>
<rscale>  0 0.81830022E+02</rscale>
<asrwt>0</asrwt>
<pdfrwt beam="1">  1        2 0.15355579E-02 0.81830022E+02</pdfrwt>
<pdfrwt beam="2">  1       -1 0.25803133E-01 0.81830022E+02</pdfrwt>
<totfact> 0.98914356E+04</totfact>
</mgrwt>
</event>
<event>
 8    1  0.2603554E-016  0.7808621E+02  0.7818608E-02  0.1334572E+00
         -1   -1    0    0    0  501 -0.00000000000E+00  0.00000000000E+00  0.27314024018E+02  0.27314024483E+02  0.50400000000E-02 0.  1.
          2   -1    0    0  501    0  0.00000000000E+00 -0.00000000000E+00 -0.55808840344E+02  0.55808840402E+02  0.25500000000E-02 0. -1.
         24    2    1    2    0    0  0.00000000000E+00 -0.44408920985E-15 -0.28494816326E+02  0.83122864885E+02  0.78086209469E+02 0.  0.
         66    2    3    3    0    0 -0.20745737592E+02  0.23995115705E+01 -0.49340334427E+02  0.53615406964E+02  0.19999946304E+01 0.  0.
        -13    1    3    3    0    0  0.20745737592E+02 -0.23995115705E+01  0.20845518101E+02  0.29507457921E+02  0.10566000000E+00 0.  1.
         13    1    4    4    0    0 -0.50175955574E+01  0.12233796673E+01 -0.11979574903E+02  0.13045853820E+02  0.10566000000E+00 0. -1.
        -13    1    4    4    0    0 -0.11474697658E+02  0.11786813447E+01 -0.28268434766E+02  0.30531517227E+02  0.10566000000E+00 0.  1.
        -14    1    4    4    0    0 -0.42534443765E+01 -0.25494415798E-02 -0.90923247584E+01  0.10038035917E+02  0.00000000000E+00 0.  1.
<mgrwt>
<rscale>  0 0.78086209E+02</rscale>
<asrwt>0</asrwt>
<pdfrwt beam="1">  1        2 0.85859754E-02 0.78086209E+02</pdfrwt>
<pdfrwt beam="2">  1       -1 0.42021576E-02 0.78086209E+02</pdfrwt>
<totfact> 0.16354863E+05</totfact>
</mgrwt>
</event>
<event>
 8    1  0.2603554E-016  0.7876084E+02  0.7818608E-02  0.1332605E+00
         -1   -1    0    0    0  501 -0.00000000000E+00  0.00000000000E+00  0.15224807899E+03  0.15224807908E+03  0.50400000000E-02 0.  1.
          2   -1    0    0  501    0  0.00000000000E+00 -0.00000000000E+00 -0.10186121405E+02  0.10186121724E+02  0.25500000000E-02 0. -1.
         24    2    1    2    0    0  0.00000000000E+00  0.35527136788E-14  0.14206195759E+03  0.16243420080E+03  0.78760839229E+02 0.  0.
         66    2    3    3    0    0  0.63922683089E+01  0.25635643372E+02  0.10921616249E+02  0.28658838361E+02  0.20000023787E+01 0.  0.
        -13    1    3    3    0    0 -0.63922683089E+01 -0.25635643372E+02  0.13114034134E+03  0.13377536244E+03  0.10566000000E+00 0.  1.
         13    1    4    4    0    0  0.42010598920E+01  0.17662202397E+02  0.77736924014E+01  0.19749525445E+02  0.10566000000E+00 0. -1.
        -13    1    4    4    0    0  0.11518605797E+01  0.53878719173E+01  0.16878547055E+01  0.57633292579E+01  0.10566000000E+00 0.  1.
         14    1    4    4    0    0  0.10393478372E+01  0.25855690578E+01  0.14600691423E+01  0.31459836585E+01  0.00000000000E+00 0. -1.
<mgrwt>
<rscale>  0 0.78760839E+02</rscale>
<asrwt>0</asrwt>
<pdfrwt beam="1">  1        2 0.15670957E-02 0.78760839E+02</pdfrwt>
<pdfrwt beam="2">  1       -1 0.23422780E-01 0.78760839E+02</pdfrwt>
<totfact> 0.11178852E+05</totfact>
</mgrwt>
</event>
<event>
 8    1  0.2603554E-016  0.8035296E+02  0.7818608E-02  0.1328053E+00
          2   -1    0    0  501    0  0.00000000000E+00  0.00000000000E+00  0.22634360307E+03  0.22634360309E+03  0.25500000000E-02 0. -1.
         -1   -1    0    0    0  501 -0.00000000000E+00 -0.00000000000E+00 -0.71314112504E+01  0.71314130313E+01  0.50400000000E-02 0.  1.
         24    2    1    2    0    0  0.35527136788E-14  0.00000000000E+00  0.21921219182E+03  0.23347501612E+03  0.80352959547E+02 0.  0.
         66    2    3    3    0    0 -0.24322547648E+02  0.26188644573E+02  0.16283257852E+03  0.16672096464E+03  0.19999985713E+01 0.  0.
        -13    1    3    3    0    0  0.24322547648E+02 -0.26188644573E+02  0.56379613305E+02  0.66754051481E+02  0.10566000000E+00 0.  1.
         13    1    4    4    0    0 -0.76494135024E+00  0.10911270987E+01  0.59354402596E+01  0.60841029516E+01  0.10566000000E+00 0. -1.
        -13    1    4    4    0    0 -0.31887451005E+00  0.27585648853E+00  0.27465053176E+01  0.27806893481E+01  0.10566000000E+00 0.  1.
         14    1    4    4    0    0 -0.23238731788E+02  0.24821660986E+02  0.15415063294E+03  0.15785617234E+03  0.00000000000E+00 0. -1.
<mgrwt>
<rscale>  0 0.80352960E+02</rscale>
<asrwt>0</asrwt>
<pdfrwt beam="1">  1        2 0.34822085E-01 0.80352960E+02</pdfrwt>
<pdfrwt beam="2">  1       -1 0.10971406E-02 0.80352960E+02</pdfrwt>
<totfact> 0.22772052E+05</totfact>
</mgrwt>
</event>
<event>
 8    1  0.2603554E-016  0.8360369E+02  0.7818608E-02  0.1319125E+00
         -1   -1    0    0    0  501 -0.00000000000E+00  0.00000000000E+00  0.58605496116E+01  0.58605517788E+01  0.50400000000E-02 0.  1.
          2   -1    0    0  501    0  0.00000000000E+00 -0.00000000000E+00 -0.29816211495E+03  0.29816211496E+03  0.25500000000E-02 0. -1.
         24    2    1    2    0    0  0.88817841970E-15  0.00000000000E+00 -0.29230156533E+03  0.30402266674E+03  0.83603688867E+02 0.  0.
         66    2    3    3    0    0  0.72321547108E+01 -0.36270141658E+02 -0.21689435106E+03  0.22003405818E+03  0.20000004729E+01 0.  0.
        -13    1    3    3    0    0 -0.72321547108E+01  0.36270141658E+02 -0.75407214278E+02  0.83988608554E+02  0.10566000000E+00 0.  1.
         13    1    4    4    0    0  0.24025679511E+01 -0.11838183260E+02 -0.72720914113E+02  0.73717416050E+02  0.10566000000E+00 0. -1.
        -13    1    4    4    0    0  0.76327306883E+00 -0.71192622183E+01 -0.42959772467E+02  0.43552493554E+02  0.10566000000E+00 0.  1.
        -14    1    4    4    0    0  0.40663136909E+01 -0.17312696180E+02 -0.10121366448E+03  0.10276414858E+03  0.00000000000E+00 0.  1.
<mgrwt>
<rscale>  0 0.83603689E+02</rscale>
<asrwt>0</asrwt>
<pdfrwt beam="1">  1        2 0.45871083E-01 0.83603689E+02</pdfrwt>
<pdfrwt beam="2">  1       -1 0.90162342E-03 0.83603689E+02</pdfrwt>
<totfact> 0.22656701E+05</totfact>
</mgrwt>
</event>
<event>
 8    1  0.2603554E-016  0.7570091E+02  0.7818608E-02  0.1341714E+00
         -1   -1    0    0    0  501 -0.00000000000E+00  0.00000000000E+00  0.82953940108E+01  0.82953955419E+01  0.50400000000E-02 0.  1.
          2   -1    0    0  501    0  0.00000000000E+00 -0.00000000000E+00 -0.17270508859E+03  0.17270508861E+03  0.25500000000E-02 0. -1.
         24    2    1    2    0    0  0.00000000000E+00 -0.17763568394E-14 -0.16440969458E+03  0.18100048415E+03  0.75700908787E+02 0.  0.
         66    2    3    3    0    0 -0.24486859785E+02 -0.15165015962E+02 -0.14088134196E+03  0.14380937564E+03  0.19999996587E+01 0.  0.
        -13    1    3    3    0    0  0.24486859785E+02  0.15165015962E+02 -0.23528352625E+02  0.37191108515E+02  0.10566000000E+00 0.  1.
         13    1    4    4    0    0 -0.17348961290E+02 -0.10055104515E+02 -0.94871872582E+02  0.96967906835E+02  0.10566000000E+00 0. -1.
        -13    1    4    4    0    0 -0.29299569912E+01 -0.18584113160E+01 -0.17993859991E+02  0.18325624191E+02  0.10566000000E+00 0.  1.
         14    1    4    4    0    0 -0.42079415044E+01 -0.32515001309E+01 -0.28015609384E+02  0.28515844612E+02  0.00000000000E+00 0. -1.
<mgrwt>
<rscale>  0 0.75700909E+02</rscale>
<asrwt>0</asrwt>
<pdfrwt beam="1">  1        2 0.26570011E-01 0.75700909E+02</pdfrwt>
<pdfrwt beam="2">  1       -1 0.12762147E-02 0.75700909E+02</pdfrwt>
<totfact> 0.24270866E+05</totfact>
</mgrwt>
</event>
<event>
 8    1  0.2603554E-016  0.7925736E+02  0.7818608E-02  0.1331172E+00
         -1   -1    0    0    0  501 -0.00000000000E+00  0.00000000000E+00  0.40745305073E+02  0.40745305385E+02  0.50400000000E-02 0.  1.
          2   -1    0    0  501    0  0.00000000000E+00 -0.00000000000E+00 -0.38542652870E+02  0.38542652954E+02  0.25500000000E-02 0. -1.
         24    2    1    2    0    0  0.00000000000E+00  0.00000000000E+00  0.22026522034E+01  0.79287958340E+02  0.79257357141E+02 0.  0.
         66    2    3    3    0    0 -0.66798913128E+01  0.10772451044E+02 -0.36432596396E+02  0.38626425562E+02  0.20000055269E+01 0.  0.
        -13    1    3    3    0    0  0.66798913128E+01 -0.10772451044E+02  0.38635248599E+02  0.40661532778E+02  0.10566000000E+00 0.  1.
         13    1    4    4    0    0 -0.42250049483E+01  0.55848710880E+01 -0.20625549496E+02  0.21782238359E+02  0.10566000000E+00 0. -1.
        -13    1    4    4    0    0 -0.21357349826E+01  0.35869975959E+01 -0.11820993900E+02  0.12536944464E+02  0.10566000000E+00 0.  1.
        -14    1    4    4    0    0 -0.31915138191E+00  0.16005823606E+01 -0.39860530000E+01  0.43072427394E+01  0.00000000000E+00 0.  1.
<mgrwt>
<rscale>  0 0.79257357E+02</rscale>
<asrwt>0</asrwt>
<pdfrwt beam="1">  1        2 0.59296389E-02 0.79257357E+02</pdfrwt>
<pdfrwt beam="2">  1       -1 0.62685085E-02 0.79257357E+02</pdfrwt>
<totfact> 0.14517157E+05</totfact>
</mgrwt>
</event>
<event>
 8    1  0.2603554E-016  0.7426528E+02  0.7818608E-02  0.1346161E+00
         -1   -1    0    0    0  501 -0.00000000000E+00  0.00000000000E+00  0.12916319102E+03  0.12916319112E+03  0.50400000000E-02 0.  1.
          2   -1    0    0  501    0  0.00000000000E+00 -0.00000000000E+00 -0.10675123846E+02  0.10675124151E+02  0.25500000000E-02 0. -1.
         24    2    1    2    0    0  0.00000000000E+00  0.00000000000E+00  0.11848806717E+03  0.13983831527E+03  0.74265283644E+02 0.  0.
         66    2    3    3    0    0  0.23915073021E+02 -0.50668868866E+00  0.58745709054E+01  0.24712305363E+02  0.20000005020E+01 0.  0.
        -13    1    3    3    0    0 -0.23915073021E+02  0.50668868866E+00  0.11261349627E+03  0.11512600991E+03  0.10566000000E+00 0.  1.
         13    1    4    4    0    0  0.18394681565E+01 -0.77270564679E-01  0.18762004069E-01  0.18442152497E+01  0.10566000000E+00 0. -1.
        -13    1    4    4    0    0  0.18231618992E+02 -0.11533925436E+00  0.44944889131E+01  0.18778094387E+02  0.10566000000E+00 0.  1.
        -14    1    4    4    0    0  0.38439858728E+01 -0.31407886962E+00  0.13613199882E+01  0.40899957258E+01  0.00000000000E+00 0.  1.
<mgrwt>
<rscale>  0 0.74265284E+02</rscale>
<asrwt>0</asrwt>
<pdfrwt beam="1">  1        2 0.16423267E-02 0.74265284E+02</pdfrwt>
<pdfrwt beam="2">  1       -1 0.19871261E-01 0.74265284E+02</pdfrwt>
<totfact> 0.13491274E+05</totfact>
</mgrwt>
</event>
<event>
 8    1  0.2603554E-016  0.8147466E+02  0.7818608E-02  0.1324918E+00
          2   -1    0    0  501    0  0.00000000000E+00  0.00000000000E+00  0.17269811486E+02  0.17269811675E+02  0.25500000000E-02 0. -1.
         -1   -1    0    0    0  501 -0.00000000000E+00 -0.00000000000E+00 -0.96094282710E+02  0.96094282842E+02  0.50400000000E-02 0.  1.
         24    2    1    2    0    0  0.00000000000E+00  0.00000000000E+00 -0.78824471224E+02  0.11336409452E+03  0.81474662699E+02 0.  0.
         66    2    3    3    0    0 -0.18957076360E+02  0.15815057942E+02  0.56085583316E+01  0.25395722668E+02  0.20000003617E+01 0.  0.
        -13    1    3    3    0    0  0.18957076360E+02 -0.15815057942E+02 -0.84433029555E+02  0.87968371849E+02  0.10566000000E+00 0.  1.
         13    1    4    4    0    0 -0.78914728471E+01  0.64712124291E+01  0.18965318645E+01  0.10380748102E+02  0.10566000000E+00 0. -1.
        -13    1    4    4    0    0 -0.65474073986E+01  0.63928129134E+01  0.22512586016E+01  0.94242203877E+01  0.10566000000E+00 0.  1.
        -14    1    4    4    0    0 -0.45181961146E+01  0.29510325991E+01  0.14607678654E+01  0.55907541788E+01  0.00000000000E+00 0.  1.
<mgrwt>
<rscale>  0 0.81474663E+02</rscale>
<asrwt>0</asrwt>
<pdfrwt beam="1">  1        2 0.26568941E-02 0.81474663E+02</pdfrwt>
<pdfrwt beam="2">  1       -1 0.14783736E-01 0.81474663E+02</pdfrwt>
<totfact> 0.11422891E+05</totfact>
</mgrwt>
</event>
<event>
 8    1  0.2603554E-016  0.7818449E+02  0.7818608E-02  0.1334284E+00
          2   -1    0    0  501    0  0.00000000000E+00  0.00000000000E+00  0.80585658092E+03  0.80585658093E+03  0.25500000000E-02 0. -1.
         -1   -1    0    0    0  501 -0.00000000000E+00 -0.00000000000E+00 -0.18963681716E+01  0.18963748690E+01  0.50400000000E-02 0.  1.
         24    2    1    2    0    0  0.00000000000E+00  0.00000000000E+00  0.80396021275E+03  0.80775295580E+03  0.78184486376E+02 0.  0.
         66    2    3    3    0    0 -0.81505599864E+01  0.27012523681E+02  0.68139799259E+03  0.68198484760E+03  0.19999974129E+01 0.  0.
        -13    1    3    3    0    0  0.81505599864E+01 -0.27012523681E+02  0.12256222017E+03  0.12576810820E+03  0.10566000000E+00 0.  1.
         13    1    4    4    0    0 -0.39168334099E+01  0.11710044613E+02  0.30230352251E+03  0.30255561078E+03  0.10566000000E+00 0. -1.
        -13    1    4    4    0    0 -0.31354878927E+01  0.11056911533E+02  0.25951916294E+03  0.25977354306E+03  0.10566000000E+00 0.  1.
         14    1    4    4    0    0 -0.10982386838E+01  0.42455675355E+01  0.11957530714E+03  0.11965569376E+03  0.00000000000E+00 0. -1.
<mgrwt>
<rscale>  0 0.78184486E+02</rscale>
<asrwt>0</asrwt>
<pdfrwt beam="1">  1        2 0.12397814E+00 0.78184486E+02</pdfrwt>
<pdfrwt beam="2">  1       -1 0.29174899E-03 0.78184486E+02</pdfrwt>
<totfact> 0.36520064E+05</totfact>
</mgrwt>
</event>
<event>
 8    1  0.2603554E-016  0.7315114E+02  0.7818608E-02  0.1349694E+00
          2   -1    0    0  501    0  0.00000000000E+00  0.00000000000E+00  0.13473477177E+03  0.13473477180E+03  0.25500000000E-02 0. -1.
         -1   -1    0    0    0  501 -0.00000000000E+00 -0.00000000000E+00 -0.99289311122E+01  0.99289323914E+01  0.50400000000E-02 0.  1.
         24    2    1    2    0    0  0.00000000000E+00  0.35527136788E-14  0.12480584066E+03  0.14466370419E+03  0.73151141116E+02 0.  0.
         66    2    3    3    0    0 -0.16290913036E+02  0.30138549398E+02  0.37275471949E+02  0.50667413740E+02  0.19999996622E+01 0.  0.
        -13    1    3    3    0    0  0.16290913036E+02 -0.30138549398E+02  0.87530368713E+02  0.93996290450E+02  0.10566000000E+00 0.  1.
         13    1    4    4    0    0 -0.33095239745E+01  0.62582937178E+01  0.85616137094E+01  0.11109976712E+02  0.10566000000E+00 0.  1.
        -13    1    4    4    0    0 -0.78530078059E+01  0.14634418754E+02  0.18397958990E+02  0.24785721755E+02  0.10566000000E+00 0. -1.
        -14    1    4    4    0    0 -0.51283812553E+01  0.92458369268E+01  0.10315899250E+02  0.14771715273E+02  0.00000000000E+00 0.  1.
<mgrwt>
<rscale>  0 0.73151141E+02</rscale>
<asrwt>0</asrwt>
<pdfrwt beam="1">  1        2 0.20728425E-01 0.73151141E+02</pdfrwt>
<pdfrwt beam="2">  1       -1 0.15275281E-02 0.73151141E+02</pdfrwt>
<totfact> 0.24530239E+05</totfact>
</mgrwt>
</event>
<event>
 8    1  0.2603554E-016  0.7896395E+02  0.7818608E-02  0.1332018E+00
         -1   -1    0    0    0  501 -0.00000000000E+00  0.00000000000E+00  0.50310981468E+01  0.50311006713E+01  0.50400000000E-02 0.  1.
          2   -1    0    0  501    0  0.00000000000E+00 -0.00000000000E+00 -0.30983808958E+03  0.30983808959E+03  0.25500000000E-02 0. -1.
         24    2    1    2    0    0  0.35527136788E-14  0.00000000000E+00 -0.30480699144E+03  0.31486919026E+03  0.78963947151E+02 0.  0.
         66    2    3    3    0    0 -0.24805430035E+02  0.28852994179E+01 -0.27431175123E+03  0.27545339202E+03  0.20000002650E+01 0.  0.
        -13    1    3    3    0    0  0.24805430035E+02 -0.28852994179E+01 -0.30495240209E+02  0.39415798246E+02  0.10566000000E+00 0.  1.
         13    1    4    4    0    0 -0.47228921914E+01  0.23301846731E+00 -0.47922231453E+02  0.48155076988E+02  0.10566000000E+00 0. -1.
        -13    1    4    4    0    0 -0.98678780554E+01  0.60511844014E+00 -0.11113984069E+03  0.11157874590E+03  0.10566000000E+00 0.  1.
         14    1    4    4    0    0 -0.10214659789E+02  0.20471625105E+01 -0.11524967909E+03  0.11571956913E+03  0.00000000000E+00 0. -1.
<mgrwt>
<rscale>  0 0.78963947E+02</rscale>
<asrwt>0</asrwt>
<pdfrwt beam="1">  1        2 0.47667384E-01 0.78963947E+02</pdfrwt>
<pdfrwt beam="2">  1       -1 0.77401553E-03 0.78963947E+02</pdfrwt>
<totfact> 0.26689637E+05</totfact>
</mgrwt>
</event>
<event>
 8    1  0.2603554E-016  0.7703222E+02  0.7818608E-02  0.1337691E+00
         -1   -1    0    0    0  501 -0.00000000000E+00  0.00000000000E+00  0.91999053881E+01  0.91999067687E+01  0.50400000000E-02 0.  1.
          2   -1    0    0  501    0  0.00000000000E+00 -0.00000000000E+00 -0.16125062091E+03  0.16125062093E+03  0.25500000000E-02 0. -1.
         24    2    1    2    0    0 -0.22204460493E-15  0.35527136788E-14 -0.15205071553E+03  0.17045052770E+03  0.77032216003E+02 0.  0.
         66    2    3    3    0    0 -0.10673604555E+01  0.27353147193E+02 -0.13594883998E+03  0.13869182056E+03  0.20000190686E+01 0.  0.
        -13    1    3    3    0    0  0.10673604555E+01 -0.27353147193E+02 -0.16101875542E+02  0.31758707148E+02  0.10566000000E+00 0.  1.
         13    1    4    4    0    0 -0.32721778552E+00  0.13315993357E+01 -0.69310753561E+01  0.70662010938E+01  0.10566000000E+00 0. -1.
        -13    1    4    4    0    0 -0.70564203794E+00  0.11957701874E+02 -0.56284722120E+02  0.57545335806E+02  0.10566000000E+00 0.  1.
         14    1    4    4    0    0 -0.34500632050E-01  0.14063845983E+02 -0.72733042507E+02  0.74080283656E+02  0.00000000000E+00 0. -1.
<mgrwt>
<rscale>  0 0.77032216E+02</rscale>
<asrwt>0</asrwt>
<pdfrwt beam="1">  1        2 0.24807786E-01 0.77032216E+02</pdfrwt>
<pdfrwt beam="2">  1       -1 0.14153703E-02 0.77032216E+02</pdfrwt>
<totfact> 0.22663118E+05</totfact>
</mgrwt>
</event>
<event>
 8    1  0.2603554E-016  0.8116019E+02  0.7818608E-02  0.1325791E+00
         -1   -1    0    0    0  501 -0.00000000000E+00  0.00000000000E+00  0.35882711677E+01  0.35882747072E+01  0.50400000000E-02 0.  1.
          2   -1    0    0  501    0  0.00000000000E+00 -0.00000000000E+00 -0.45892389359E+03  0.45892389360E+03  0.25500000000E-02 0. -1.
         24    2    1    2    0    0  0.35527136788E-14  0.17763568394E-14 -0.45533562242E+03  0.46251216830E+03  0.81160192107E+02 0.  0.
         66    2    3    3    0    0 -0.29713369870E+02  0.12792285150E+02 -0.36718802516E+03  0.36861575211E+03  0.19999921294E+01 0.  0.
        -13    1    3    3    0    0  0.29713369870E+02 -0.12792285150E+02 -0.88147597256E+02  0.93896416196E+02  0.10566000000E+00 0.  1.
         13    1    4    4    0    0 -0.10406486701E+02  0.52753721418E+01 -0.12946002417E+03  0.12998474349E+03  0.10566000000E+00 0.  1.
        -13    1    4    4    0    0 -0.12516942597E+02  0.43963927799E+01 -0.15288122793E+03  0.15345580190E+03  0.10566000000E+00 0. -1.
         14    1    4    4    0    0 -0.67899405718E+01  0.31205202284E+01 -0.84846773064E+02  0.85175206714E+02  0.00000000000E+00 0. -1.
<mgrwt>
<rscale>  0 0.81160192E+02</rscale>
<asrwt>0</asrwt>
<pdfrwt beam="1">  1        2 0.70603629E-01 0.81160192E+02</pdfrwt>
<pdfrwt beam="2">  1       -1 0.55204236E-03 0.81160192E+02</pdfrwt>
<totfact> 0.28519952E+05</totfact>
</mgrwt>
</event>
<event>
 8    1  0.2603554E-016  0.7968792E+02  0.7818608E-02  0.1329939E+00
         -1   -1    0    0    0  501 -0.00000000000E+00  0.00000000000E+00  0.12899949713E+02  0.12899950698E+02  0.50400000000E-02 0.  1.
          2   -1    0    0  501    0  0.00000000000E+00 -0.00000000000E+00 -0.12306567029E+03  0.12306567032E+03  0.25500000000E-02 0. -1.
         24    2    1    2    0    0  0.00000000000E+00 -0.71054273576E-14 -0.11016572058E+03  0.13596562102E+03  0.79687916950E+02 0.  0.
         66    2    3    3    0    0 -0.11098845740E+02  0.34210392788E+02 -0.84273504498E+02  0.91649107514E+02  0.19999990604E+01 0.  0.
        -13    1    3    3    0    0  0.11098845740E+02 -0.34210392788E+02 -0.25892216082E+02  0.44316513504E+02  0.10566000000E+00 0.  1.
         13    1    4    4    0    0 -0.61628911535E+01  0.16367512781E+02 -0.40642280754E+02  0.44245709972E+02  0.10566000000E+00 0. -1.
        -13    1    4    4    0    0 -0.20421199128E+00  0.95570584881E+00 -0.19796745972E+01  0.22102831839E+01  0.10566000000E+00 0. -1.
        -14    1    4    4    0    0 -0.47317425955E+01  0.16887174158E+02 -0.41651549147E+02  0.45193114358E+02  0.00000000000E+00 0.  1.
<mgrwt>
<rscale>  0 0.79687917E+02</rscale>
<asrwt>0</asrwt>
<pdfrwt beam="1">  1        2 0.18933179E-01 0.79687917E+02</pdfrwt>
<pdfrwt beam="2">  1       -1 0.19846078E-02 0.79687917E+02</pdfrwt>
<totfact> 0.19025956E+05</totfact>
</mgrwt>
</event>
<event>
 8    1  0.2603554E-016  0.7958572E+02  0.7818608E-02  0.1330231E+00
         -1   -1    0    0    0  501 -0.00000000000E+00  0.00000000000E+00  0.21190756704E+01  0.21190816640E+01  0.50400000000E-02 0.  1.
          2   -1    0    0  501    0  0.00000000000E+00 -0.00000000000E+00 -0.74724526680E+03  0.74724526681E+03  0.25500000000E-02 0. -1.
         24    2    1    2    0    0  0.00000000000E+00  0.00000000000E+00 -0.74512619113E+03  0.74936434847E+03  0.79585715101E+02 0.  0.
         66    2    3    3    0    0  0.27612634016E+02  0.22104011381E+02 -0.54395373953E+03  0.54510615078E+03  0.19999981666E+01 0.  0.
        -13    1    3    3    0    0 -0.27612634016E+02 -0.22104011381E+02 -0.20117245161E+03  0.20425819769E+03  0.10566000000E+00 0.  1.
         13    1    4    4    0    0  0.72177132431E+01  0.67496580987E+01 -0.15206587274E+03  0.15238665980E+03  0.10566000000E+00 0.  1.
        -13    1    4    4    0    0  0.15211375442E+02  0.11699107984E+02 -0.28945520776E+03  0.29009064709E+03  0.10566000000E+00 0. -1.
         14    1    4    4    0    0  0.51835453318E+01  0.36552452977E+01 -0.10243265903E+03  0.10262884388E+03  0.00000000000E+00 0. -1.
<mgrwt>
<rscale>  0 0.79585715E+02</rscale>
<asrwt>0</asrwt>
<pdfrwt beam="1">  1        2 0.11496060E+00 0.79585715E+02</pdfrwt>
<pdfrwt beam="2">  1       -1 0.32601270E-03 0.79585715E+02</pdfrwt>
<totfact> 0.34388210E+05</totfact>
</mgrwt>
</event>
<event>
 8    1  0.2603554E-016  0.7994732E+02  0.7818608E-02  0.1329201E+00
          2   -1    0    0  501    0  0.00000000000E+00  0.00000000000E+00  0.60631592771E+02  0.60631592824E+02  0.25500000000E-02 0. -1.
         -1   -1    0    0    0  501 -0.00000000000E+00 -0.00000000000E+00 -0.26354138800E+02  0.26354139282E+02  0.50400000000E-02 0.  1.
         24    2    1    2    0    0  0.17763568394E-14  0.35527136788E-14  0.34277453970E+02  0.86985732106E+02  0.79947318525E+02 0.  0.
         66    2    3    3    0    0  0.12112668409E+02  0.14561573760E+02  0.55418870663E+02  0.58600404379E+02  0.20000003658E+01 0.  0.
        -13    1    3    3    0    0 -0.12112668409E+02 -0.14561573760E+02 -0.21141416693E+02  0.28385327727E+02  0.10566000000E+00 0.  1.
         13    1    4    4    0    0  0.30482296840E+01  0.39028755365E+01  0.14000460758E+02  0.14850865534E+02  0.10566000000E+00 0. -1.
        -13    1    4    4    0    0  0.28154315410E+01  0.23439736141E+01  0.11950529693E+02  0.12499887641E+02  0.10566000000E+00 0.  1.
        -14    1    4    4    0    0  0.62490071837E+01  0.83147246099E+01  0.29467880213E+02  0.31249651204E+02  0.00000000000E+00 0.  1.
<mgrwt>
<rscale>  0 0.79947319E+02</rscale>
<asrwt>0</asrwt>
<pdfrwt beam="1">  1        2 0.93279373E-02 0.79947319E+02</pdfrwt>
<pdfrwt beam="2">  1       -1 0.40544830E-02 0.79947319E+02</pdfrwt>
<totfact> 0.15631934E+05</totfact>
</mgrwt>
</event>
<event>
 8    1  0.2603554E-016  0.8000514E+02  0.7818608E-02  0.1329037E+00
          2   -1    0    0  501    0  0.00000000000E+00  0.00000000000E+00  0.58527260076E+02  0.58527260132E+02  0.25500000000E-02 0. -1.
         -1   -1    0    0    0  501 -0.00000000000E+00 -0.00000000000E+00 -0.27341200479E+02  0.27341200944E+02  0.50400000000E-02 0.  1.
         24    2    1    2    0    0  0.00000000000E+00  0.00000000000E+00  0.31186059597E+02  0.85868461076E+02  0.80005139175E+02 0.  0.
         66    2    3    3    0    0  0.28344824730E+02  0.18346838527E+02  0.38576226050E+02  0.51304588360E+02  0.19999994177E+01 0.  0.
        -13    1    3    3    0    0 -0.28344824730E+02 -0.18346838527E+02 -0.73901664526E+01  0.34563872716E+02  0.10566000000E+00 0.  1.
         13    1    4    4    0    0  0.14223553242E+02  0.89458773746E+01  0.17859600190E+02  0.24521718370E+02  0.10566000000E+00 0.  1.
        -13    1    4    4    0    0  0.70945518178E+01  0.43909569465E+01  0.10312764276E+02  0.13265648851E+02  0.10566000000E+00 0. -1.
        -14    1    4    4    0    0  0.70267196697E+01  0.50100042060E+01  0.10403861584E+02  0.13517221139E+02  0.00000000000E+00 0.  1.
<mgrwt>
<rscale>  0 0.80005139E+02</rscale>
<asrwt>0</asrwt>
<pdfrwt beam="1">  1        2 0.90041937E-02 0.80005139E+02</pdfrwt>
<pdfrwt beam="2">  1       -1 0.42063387E-02 0.80005139E+02</pdfrwt>
<totfact> 0.15474784E+05</totfact>
</mgrwt>
</event>
<event>
 8    1  0.2603554E-016  0.7904919E+02  0.7818608E-02  0.1331772E+00
          2   -1    0    0  501    0  0.00000000000E+00  0.00000000000E+00  0.75733476845E+03  0.75733476845E+03  0.25500000000E-02 0. -1.
         -1   -1    0    0    0  501 -0.00000000000E+00 -0.00000000000E+00 -0.20627486100E+01  0.20627547672E+01  0.50400000000E-02 0.  1.
         24    2    1    2    0    0  0.35527136788E-14  0.11102230246E-15  0.75527201984E+03  0.75939752322E+03  0.79049189254E+02 0.  0.
         66    2    3    3    0    0  0.31327864736E+02  0.77237034590E+00  0.60886784569E+03  0.60967703351E+03  0.20000043740E+01 0.  0.
        -13    1    3    3    0    0 -0.31327864736E+02 -0.77237034590E+00  0.14640417415E+03  0.14972048971E+03  0.10566000000E+00 0.  1.
         13    1    4    4    0    0  0.61923058779E+01 -0.36619718225E-01  0.13156342203E+03  0.13170911575E+03  0.10566000000E+00 0.  1.
        -13    1    4    4    0    0  0.19324870746E+02  0.13252893300E+00  0.36561262365E+03  0.36612302568E+03  0.10566000000E+00 0. -1.
        -14    1    4    4    0    0  0.58106881127E+01  0.67646113113E+00  0.11169180001E+03  0.11184489208E+03  0.00000000000E+00 0.  1.
<mgrwt>
<rscale>  0 0.79049189E+02</rscale>
<asrwt>0</asrwt>
<pdfrwt beam="1">  1        2 0.11651301E+00 0.79049189E+02</pdfrwt>
<pdfrwt beam="2">  1       -1 0.31734649E-03 0.79049189E+02</pdfrwt>
<totfact> 0.35091556E+05</totfact>
</mgrwt>
</event>
<event>
 8    1  0.2603554E-016  0.7906687E+02  0.7818608E-02  0.1331721E+00
          2   -1    0    0  501    0  0.00000000000E+00  0.00000000000E+00  0.22106931640E+03  0.22106931641E+03  0.25500000000E-02 0. -1.
         -1   -1    0    0    0  501 -0.00000000000E+00 -0.00000000000E+00 -0.70696936271E+01  0.70696954236E+01  0.50400000000E-02 0.  1.
         24    2    1    2    0    0 -0.71054273576E-14  0.00000000000E+00  0.21399962277E+03  0.22813901184E+03  0.79066871543E+02 0.  0.
         66    2    3    3    0    0 -0.26441217481E+02 -0.22705175239E+02  0.16075691827E+03  0.16450364658E+03  0.20000006638E+01 0.  0.
        -13    1    3    3    0    0  0.26441217481E+02  0.22705175239E+02  0.53242704505E+02  0.63635365258E+02  0.10566000000E+00 0.  1.
         13    1    4    4    0    0 -0.48504529034E+01 -0.46049404972E+01  0.28137268198E+02  0.28921434889E+02  0.10566000000E+00 0. -1.
        -13    1    4    4    0    0 -0.10229980480E+02 -0.80516332291E+01  0.62054833607E+02  0.63405794974E+02  0.10566000000E+00 0.  1.
        -14    1    4    4    0    0 -0.11360784097E+02 -0.10048601513E+02  0.70564816463E+02  0.72176416717E+02  0.00000000000E+00 0.  1.
<mgrwt>
<rscale>  0 0.79066872E+02</rscale>
<asrwt>0</asrwt>
<pdfrwt beam="1">  1        2 0.34010656E-01 0.79066872E+02</pdfrwt>
<pdfrwt beam="2">  1       -1 0.10876456E-02 0.79066872E+02</pdfrwt>
<totfact> 0.23562962E+05</totfact>
</mgrwt>
</event>
<event>
 8    1  0.2603554E-016  0.8019783E+02  0.7818608E-02  0.1328491E+00
          2   -1    0    0  501    0  0.00000000000E+00  0.00000000000E+00  0.50076367316E+03  0.50076367317E+03  0.25500000000E-02 0. -1.
         -1   -1    0    0    0  501 -0.00000000000E+00 -0.00000000000E+00 -0.32109397138E+01  0.32109436692E+01  0.50400000000E-02 0.  1.
         24    2    1    2    0    0  0.71054273576E-14  0.00000000000E+00  0.49755273345E+03  0.50397461684E+03  0.80197829490E+02 0.  0.
         66    2    3    3    0    0  0.32744320488E+02  0.10201478947E+02  0.37918947799E+03  0.38074259136E+03  0.19999898464E+01 0.  0.
        -13    1    3    3    0    0 -0.32744320488E+02 -0.10201478947E+02  0.11836325546E+03  0.12323202548E+03  0.10566000000E+00 0.  1.
         13    1    4    4    0    0  0.22916376015E+02  0.70841110131E+01  0.26425301946E+03  0.26533943239E+03  0.10566000000E+00 0. -1.
        -13    1    4    4    0    0  0.37150354277E+01  0.95975033084E+00  0.37560338560E+02  0.37755963843E+02  0.10566000000E+00 0.  1.
         14    1    4    4    0    0  0.61129090457E+01  0.21576176030E+01  0.77376119964E+02  0.77647195129E+02  0.00000000000E+00 0. -1.
<mgrwt>
<rscale>  0 0.80197829E+02</rscale>
<asrwt>0</asrwt>
<pdfrwt beam="1">  1        2 0.77040597E-01 0.80197829E+02</pdfrwt>
<pdfrwt beam="2">  1       -1 0.49399083E-03 0.80197829E+02</pdfrwt>
<totfact> 0.30270652E+05</totfact>
</mgrwt>
</event>
<event>
 8    1  0.2603554E-016  0.7911127E+02  0.7818608E-02  0.1331593E+00
         -1   -1    0    0    0  501 -0.00000000000E+00  0.00000000000E+00  0.10706191127E+02  0.10706192314E+02  0.50400000000E-02 0.  1.
          2   -1    0    0  501    0  0.00000000000E+00 -0.00000000000E+00 -0.14614425659E+03  0.14614425661E+03  0.25500000000E-02 0. -1.
         24    2    1    2    0    0 -0.44408920985E-15  0.00000000000E+00 -0.13543806546E+03  0.15685044892E+03  0.79111274493E+02 0.  0.
         66    2    3    3    0    0  0.24500659390E+01 -0.18409088539E+02 -0.13694939395E+03  0.13821734285E+03  0.19999999102E+01 0.  0.
        -13    1    3    3    0    0 -0.24500659390E+01  0.18409088539E+02  0.15113284860E+01  0.18633106069E+02  0.10566000000E+00 0.  1.
         13    1    4    4    0    0  0.20306761481E+01 -0.12779013168E+02 -0.98827453078E+02  0.99670976061E+02  0.10566000000E+00 0. -1.
        -13    1    4    4    0    0  0.88673391269E-01 -0.21917182430E+01 -0.17479720071E+02  0.17617130005E+02  0.10566000000E+00 0.  1.
        -14    1    4    4    0    0  0.33071639963E+00 -0.34383571283E+01 -0.20642220797E+02  0.20929236787E+02  0.00000000000E+00 0.  1.
<mgrwt>
<rscale>  0 0.79111274E+02</rscale>
<asrwt>0</asrwt>
<pdfrwt beam="1">  1        2 0.22483730E-01 0.79111274E+02</pdfrwt>
<pdfrwt beam="2">  1       -1 0.16471065E-02 0.79111274E+02</pdfrwt>
<totfact> 0.20460861E+05</totfact>
</mgrwt>
</event>
<event>
 8    1  0.2603554E-016  0.8043428E+02  0.7818608E-02  0.1327824E+00
          2   -1    0    0  501    0  0.00000000000E+00  0.00000000000E+00  0.91625828532E+02  0.91625828567E+02  0.25500000000E-02 0. -1.
         -1   -1    0    0    0  501 -0.00000000000E+00 -0.00000000000E+00 -0.17652427204E+02  0.17652427923E+02  0.50400000000E-02 0.  1.
         24    2    1    2    0    0  0.00000000000E+00  0.17763568394E-14  0.73973401328E+02  0.10927825649E+03  0.80434278996E+02 0.  0.
         66    2    3    3    0    0  0.35009104664E+02  0.14610403134E+02  0.55049382190E+02  0.66884495706E+02  0.19999992896E+01 0.  0.
        -13    1    3    3    0    0 -0.35009104664E+02 -0.14610403134E+02  0.18924019137E+02  0.42393760785E+02  0.10566000000E+00 0.  1.
         13    1    4    4    0    0  0.24189031687E+00  0.22163707826E+00  0.42312400778E+00  0.54573975612E+00  0.10566000000E+00 0. -1.
        -13    1    4    4    0    0  0.13429837909E+02  0.50827726952E+01  0.20499482248E+02  0.25028684764E+02  0.10566000000E+00 0.  1.
         14    1    4    4    0    0  0.21337376438E+02  0.93059933609E+01  0.34126775935E+02  0.41310071186E+02  0.00000000000E+00 0. -1.
<mgrwt>
<rscale>  0 0.80434279E+02</rscale>
<asrwt>0</asrwt>
<pdfrwt beam="1">  1        2 0.14096281E-01 0.80434279E+02</pdfrwt>
<pdfrwt beam="2">  1       -1 0.27157581E-02 0.80434279E+02</pdfrwt>
<totfact> 0.17054313E+05</totfact>
</mgrwt>
</event>
<event>
 8    1  0.2603554E-016  0.8026373E+02  0.7818608E-02  0.1328305E+00
         -1   -1    0    0    0  501 -0.00000000000E+00  0.00000000000E+00  0.19268760820E+02  0.19268761479E+02  0.50400000000E-02 0.  1.
          2   -1    0    0  501    0  0.00000000000E+00 -0.00000000000E+00 -0.83584335477E+02  0.83584335516E+02  0.25500000000E-02 0. -1.
         24    2    1    2    0    0  0.00000000000E+00 -0.35527136788E-14 -0.64315574657E+02  0.10285309699E+03  0.80263730401E+02 0.  0.
         66    2    3    3    0    0  0.25597224473E+02 -0.22206680471E+02 -0.46877019469E+01  0.34268485556E+02  0.19999986217E+01 0.  0.
        -13    1    3    3    0    0 -0.25597224473E+02  0.22206680471E+02 -0.59627872710E+02  0.68584611439E+02  0.10566000000E+00 0.  1.
         13    1    4    4    0    0  0.83417234391E+01 -0.79566065295E+01 -0.20711255331E+01  0.11712927150E+02  0.10566000000E+00 0. -1.
        -13    1    4    4    0    0  0.65563230400E+01 -0.47858187636E+01 -0.10475779659E+01  0.81852316200E+01  0.10566000000E+00 0.  1.
         14    1    4    4    0    0  0.10699177994E+02 -0.94642551780E+01 -0.15689984479E+01  0.14370326786E+02  0.00000000000E+00 0. -1.
<mgrwt>
<rscale>  0 0.80263730E+02</rscale>
<asrwt>0</asrwt>
<pdfrwt beam="1">  1        2 0.12859128E-01 0.80263730E+02</pdfrwt>
<pdfrwt beam="2">  1       -1 0.29644248E-02 0.80263730E+02</pdfrwt>
<totfact> 0.16737287E+05</totfact>
</mgrwt>
</event>
<event>
 8    1  0.2603554E-016  0.7906803E+02  0.7818608E-02  0.1331717E+00
          2   -1    0    0  501    0  0.00000000000E+00  0.00000000000E+00  0.76517670582E+02  0.76517670624E+02  0.25500000000E-02 0. -1.
         -1   -1    0    0    0  501 -0.00000000000E+00 -0.00000000000E+00 -0.20425849497E+02  0.20425850119E+02  0.50400000000E-02 0.  1.
         24    2    1    2    0    0  0.00000000000E+00  0.00000000000E+00  0.56091821085E+02  0.96943520743E+02  0.79068032867E+02 0.  0.
         66    2    3    3    0    0  0.23364597913E+02  0.19064079840E+02  0.59360972861E+02  0.66611325089E+02  0.19999888231E+01 0.  0.
        -13    1    3    3    0    0 -0.23364597913E+02 -0.19064079840E+02 -0.32691517762E+01  0.30332195654E+02  0.10566000000E+00 0.  1.
         13    1    4    4    0    0  0.10945524933E+02  0.96235954108E+01  0.29218123376E+02  0.32651615616E+02  0.10566000000E+00 0. -1.
        -13    1    4    4    0    0  0.92221248577E+01  0.64801582162E+01  0.21103055897E+02  0.23924677001E+02  0.10566000000E+00 0.  1.
        -14    1    4    4    0    0  0.31969481226E+01  0.29603262131E+01  0.90397935885E+01  0.10035032472E+02  0.00000000000E+00 0.  1.
<mgrwt>
<rscale>  0 0.79068033E+02</rscale>
<asrwt>0</asrwt>
<pdfrwt beam="1">  1        2 0.11771949E-01 0.79068033E+02</pdfrwt>
<pdfrwt beam="2">  1       -1 0.31424385E-02 0.79068033E+02</pdfrwt>
<totfact> 0.17037578E+05</totfact>
</mgrwt>
</event>
<event>
 8    1  0.2603554E-016  0.8035419E+02  0.7818608E-02  0.1328049E+00
          2   -1    0    0  501    0  0.00000000000E+00  0.00000000000E+00  0.15439763608E+03  0.15439763610E+03  0.25500000000E-02 0. -1.
         -1   -1    0    0    0  501 -0.00000000000E+00 -0.00000000000E+00 -0.10454814756E+02  0.10454815971E+02  0.50400000000E-02 0.  1.
         24    2    1    2    0    0  0.00000000000E+00  0.17763568394E-14  0.14394282132E+03  0.16485245207E+03  0.80354185600E+02 0.  0.
         66    2    3    3    0    0  0.38060996062E+02 -0.87225106477E+01  0.91203529723E+02  0.99231070984E+02  0.20000003778E+01 0.  0.
        -13    1    3    3    0    0 -0.38060996062E+02  0.87225106477E+01  0.52739291599E+02  0.65621381086E+02  0.10566000000E+00 0.  1.
         13    1    4    4    0    0  0.17580490286E+02 -0.45321232702E+01  0.44091615749E+02  0.47683283480E+02  0.10566000000E+00 0. -1.
        -13    1    4    4    0    0  0.36517840351E+00 -0.60116481223E-01  0.87851765962E+00  0.95912802669E+00  0.10566000000E+00 0. -1.
        -14    1    4    4    0    0  0.20115327373E+02 -0.41302708962E+01  0.46233396314E+02  0.50588659477E+02  0.00000000000E+00 0.  1.
<mgrwt>
<rscale>  0 0.80354186E+02</rscale>
<asrwt>0</asrwt>
<pdfrwt beam="1">  1        2 0.23753482E-01 0.80354186E+02</pdfrwt>
<pdfrwt beam="2">  1       -1 0.16084332E-02 0.80354186E+02</pdfrwt>
<totfact> 0.19982640E+05</totfact>
</mgrwt>
</event>
<event>
 8    1  0.2603554E-016  0.8132882E+02  0.7818608E-02  0.1325322E+00
         -1   -1    0    0    0  501 -0.00000000000E+00  0.00000000000E+00  0.39849399814E+02  0.39849400132E+02  0.50400000000E-02 0.  1.
          2   -1    0    0  501    0  0.00000000000E+00 -0.00000000000E+00 -0.41496085972E+02  0.41496086051E+02  0.25500000000E-02 0. -1.
         24    2    1    2    0    0  0.00000000000E+00  0.00000000000E+00 -0.16466861585E+01  0.81345486183E+02  0.81328817445E+02 0.  0.
         66    2    3    3    0    0  0.19037587244E+02  0.32344756669E+02 -0.16414726333E+02  0.41012879192E+02  0.20000017236E+01 0.  0.
        -13    1    3    3    0    0 -0.19037587244E+02 -0.32344756669E+02  0.14768040175E+02  0.40332606991E+02  0.10566000000E+00 0.  1.
         13    1    4    4    0    0  0.91257388147E+01  0.14620337522E+02 -0.74842886135E+01  0.18789867436E+02  0.10566000000E+00 0. -1.
        -13    1    4    4    0    0  0.96296900447E+01  0.17380426566E+02 -0.85271544919E+01  0.21622527275E+02  0.10566000000E+00 0.  1.
        -14    1    4    4    0    0  0.28215838467E+00  0.34399258181E+00 -0.40328322810E+00  0.60048448144E+00  0.00000000000E+00 0.  1.
<mgrwt>
<rscale>  0 0.81328817E+02</rscale>
<asrwt>0</asrwt>
<pdfrwt beam="1">  1        2 0.63840133E-02 0.81328817E+02</pdfrwt>
<pdfrwt beam="2">  1       -1 0.61306769E-02 0.81328817E+02</pdfrwt>
<totfact> 0.13724411E+05</totfact>
</mgrwt>
</event>
<event>
 8    1  0.2603554E-016  0.8470198E+02  0.7818608E-02  0.1316214E+00
          2   -1    0    0  501    0  0.00000000000E+00  0.00000000000E+00  0.26243836673E+02  0.26243836797E+02  0.25500000000E-02 0. -1.
         -1   -1    0    0    0  501 -0.00000000000E+00 -0.00000000000E+00 -0.68343906228E+02  0.68343906414E+02  0.50400000000E-02 0.  1.
         24    2    1    2    0    0  0.00000000000E+00  0.00000000000E+00 -0.42100069555E+02  0.94587743210E+02  0.84701979369E+02 0.  0.
         66    2    3    3    0    0 -0.24760018768E+02  0.55601879462E+01  0.16768728445E+02  0.30482199289E+02  0.20000001145E+01 0.  0.
        -13    1    3    3    0    0  0.24760018768E+02 -0.55601879462E+01 -0.58868798000E+02  0.64105543921E+02  0.10566000000E+00 0.  1.
         13    1    4    4    0    0 -0.16437189690E+02  0.37386780460E+01  0.10317594334E+02  0.19764180613E+02  0.10566000000E+00 0. -1.
        -13    1    4    4    0    0 -0.39019930534E+01  0.44389180636E+00  0.29440287064E+01  0.49092829196E+01  0.10566000000E+00 0.  1.
         14    1    4    4    0    0 -0.44208360245E+01  0.13776180939E+01  0.35071054047E+01  0.58087357564E+01  0.00000000000E+00 0. -1.
<mgrwt>
<rscale>  0 0.84701979E+02</rscale>
<asrwt>0</asrwt>
<pdfrwt beam="1">  1        2 0.40375134E-02 0.84701979E+02</pdfrwt>
<pdfrwt beam="2">  1       -1 0.10514447E-01 0.84701979E+02</pdfrwt>
<totfact> 0.11143960E+05</totfact>
</mgrwt>
</event>
<event>
 8    1  0.2603554E-016  0.8033327E+02  0.7818608E-02  0.1328108E+00
          2   -1    0    0  501    0  0.00000000000E+00  0.00000000000E+00  0.50075830028E+03  0.50075830029E+03  0.25500000000E-02 0. -1.
         -1   -1    0    0    0  501 -0.00000000000E+00 -0.00000000000E+00 -0.32218292218E+01  0.32218331639E+01  0.50400000000E-02 0.  1.
         24    2    1    2    0    0  0.00000000000E+00 -0.35527136788E-14  0.49753647106E+03  0.50398013345E+03  0.80333273801E+02 0.  0.
         66    2    3    3    0    0 -0.20464701642E+01  0.26016717509E+02  0.44027203835E+03  0.44104934570E+03  0.19999887651E+01 0.  0.
        -13    1    3    3    0    0  0.20464701642E+01 -0.26016717509E+02  0.57264432709E+02  0.62930787756E+02  0.10566000000E+00 0.  1.
         13    1    4    4    0    0 -0.39785084814E+00  0.66352269388E+01  0.10316796075E+03  0.10338193175E+03  0.10566000000E+00 0.  1.
        -13    1    4    4    0    0 -0.12461190133E+01  0.14423811018E+02  0.24053421627E+03  0.24096954060E+03  0.10566000000E+00 0. -1.
        -14    1    4    4    0    0 -0.40250030270E+00  0.49576795520E+01  0.96569861334E+02  0.96697873353E+02  0.00000000000E+00 0.  1.
<mgrwt>
<rscale>  0 0.80333274E+02</rscale>
<asrwt>0</asrwt>
<pdfrwt beam="1">  1        2 0.77039771E-01 0.80333274E+02</pdfrwt>
<pdfrwt beam="2">  1       -1 0.49566613E-03 0.80333274E+02</pdfrwt>
<totfact> 0.30137673E+05</totfact>
</mgrwt>
</event>
<event>
 8    1  0.2603554E-016  0.8019491E+02  0.7818608E-02  0.1328499E+00
          2   -1    0    0  501    0  0.00000000000E+00  0.00000000000E+00  0.54629782039E+01  0.54629787990E+01  0.25500000000E-02 0. -1.
         -1   -1    0    0    0  501 -0.00000000000E+00 -0.00000000000E+00 -0.29430939288E+03  0.29430939292E+03  0.50400000000E-02 0.  1.
         24    2    1    2    0    0  0.00000000000E+00  0.71054273576E-14 -0.28884641467E+03  0.29977237172E+03  0.80194909917E+02 0.  0.
         66    2    3    3    0    0 -0.94867008094E+01  0.37650594451E+02 -0.10746343856E+03  0.11428016179E+03  0.19999995158E+01 0.  0.
        -13    1    3    3    0    0  0.94867008094E+01 -0.37650594451E+02 -0.18138297612E+03  0.18549220993E+03  0.10566000000E+00 0.  1.
         13    1    4    4    0    0 -0.19192486550E+01  0.77264684544E+01 -0.21969099940E+02  0.23367377825E+02  0.10566000000E+00 0. -1.
        -13    1    4    4    0    0 -0.19945770832E+01  0.52175222297E+01 -0.14987327496E+02  0.15994749935E+02  0.10566000000E+00 0.  1.
         14    1    4    4    0    0 -0.55728750711E+01  0.24706603767E+02 -0.70507011121E+02  0.74918034034E+02  0.00000000000E+00 0. -1.
<mgrwt>
<rscale>  0 0.80194910E+02</rscale>
<asrwt>0</asrwt>
<pdfrwt beam="1">  1        2 0.84045846E-03 0.80194910E+02</pdfrwt>
<pdfrwt beam="2">  1       -1 0.45278356E-01 0.80194910E+02</pdfrwt>
<totfact> 0.86559642E+04</totfact>
</mgrwt>
</event>
<event>
 8    1  0.2603554E-016  0.7277871E+02  0.7818608E-02  0.1350891E+00
          2   -1    0    0  501    0  0.00000000000E+00  0.00000000000E+00  0.22378194425E+03  0.22378194427E+03  0.25500000000E-02 0. -1.
         -1   -1    0    0    0  501 -0.00000000000E+00 -0.00000000000E+00 -0.59172996985E+01  0.59173018449E+01  0.50400000000E-02 0.  1.
         24    2    1    2    0    0  0.00000000000E+00  0.00000000000E+00  0.21786464456E+03  0.22969924611E+03  0.72778707860E+02 0.  0.
         66    2    3    3    0    0  0.21139947076E+02  0.10254051876E+02  0.19660128757E+03  0.19801037651E+03  0.19999977588E+01 0.  0.
        -13    1    3    3    0    0 -0.21139947076E+02 -0.10254051876E+02  0.21263356990E+02  0.31688869604E+02  0.10566000000E+00 0.  1.
         13    1    4    4    0    0  0.97335922591E+01  0.47187612354E+01  0.88274161751E+02  0.88934517049E+02  0.10566000000E+00 0. -1.
        -13    1    4    4    0    0  0.11407027476E+02  0.55415326780E+01  0.10832935712E+03  0.10906919656E+03  0.10566000000E+00 0.  1.
        -14    1    4    4    0    0 -0.67266000726E-03 -0.62420378400E-02 -0.22313062393E-02  0.66628999253E-02  0.00000000000E+00 0.  1.
<mgrwt>
<rscale>  0 0.72778708E+02</rscale>
<asrwt>0</asrwt>
<pdfrwt beam="1">  1        2 0.34427996E-01 0.72778708E+02</pdfrwt>
<pdfrwt beam="2">  1       -1 0.91035385E-03 0.72778708E+02</pdfrwt>
<totfact> 0.29397097E+05</totfact>
</mgrwt>
</event>
<event>
 8    1  0.2603554E-016  0.7958279E+02  0.7818608E-02  0.1330240E+00
         -1   -1    0    0    0  501 -0.00000000000E+00  0.00000000000E+00  0.12779004924E+02  0.12779005918E+02  0.50400000000E-02 0.  1.
          2   -1    0    0  501    0  0.00000000000E+00 -0.00000000000E+00 -0.12390282809E+03  0.12390282812E+03  0.25500000000E-02 0. -1.
         24    2    1    2    0    0  0.71054273576E-14 -0.17763568394E-14 -0.11112382317E+03  0.13668183403E+03  0.79582785072E+02 0.  0.
         66    2    3    3    0    0  0.38003113457E+02 -0.97886979193E+01 -0.44560213569E+02  0.59411008193E+02  0.20000054616E+01 0.  0.
        -13    1    3    3    0    0 -0.38003113457E+02  0.97886979193E+01 -0.66563609597E+02  0.77270825840E+02  0.10566000000E+00 0.  1.
         13    1    4    4    0    0  0.56068653357E+01 -0.18549639674E+01 -0.72412704111E+01  0.93447841824E+01  0.10566000000E+00 0. -1.
        -13    1    4    4    0    0  0.44952162096E+01 -0.14119676837E+01 -0.48641280166E+01  0.67728521989E+01  0.10566000000E+00 0.  1.
         14    1    4    4    0    0  0.27901031912E+02 -0.65217662682E+01 -0.32454815141E+02  0.43293371812E+02  0.00000000000E+00 0. -1.
<mgrwt>
<rscale>  0 0.79582785E+02</rscale>
<asrwt>0</asrwt>
<pdfrwt beam="1">  1        2 0.19061973E-01 0.79582785E+02</pdfrwt>
<pdfrwt beam="2">  1       -1 0.19660009E-02 0.79582785E+02</pdfrwt>
<totfact> 0.19132160E+05</totfact>
</mgrwt>
</event>
<event>
 8    1  0.2603554E-016  0.7827159E+02  0.7818608E-02  0.1334029E+00
          2   -1    0    0  501    0  0.00000000000E+00  0.00000000000E+00  0.20285292731E+03  0.20285292733E+03  0.25500000000E-02 0. -1.
         -1   -1    0    0    0  501 -0.00000000000E+00 -0.00000000000E+00 -0.75503492262E+01  0.75503509083E+01  0.50400000000E-02 0.  1.
         24    2    1    2    0    0  0.88817841970E-15 -0.35527136788E-14  0.19530257809E+03  0.21040327824E+03  0.78271594373E+02 0.  0.
         66    2    3    3    0    0  0.76685106183E+01  0.29139001940E+02  0.16474114773E+03  0.16748591953E+03  0.19999989320E+01 0.  0.
        -13    1    3    3    0    0 -0.76685106183E+01 -0.29139001940E+02  0.30561430361E+02  0.42917358713E+02  0.10566000000E+00 0.  1.
         13    1    4    4    0    0  0.15019592984E+00  0.14417745521E+01  0.87252564862E+01  0.88454811888E+01  0.10566000000E+00 0.  1.
        -13    1    4    4    0    0  0.42691105857E+00  0.11543269520E+01  0.54214709580E+01  0.55604168143E+01  0.10566000000E+00 0. -1.
         14    1    4    4    0    0  0.70914036299E+01  0.26542900436E+02  0.15059442028E+03  0.15308002152E+03  0.00000000000E+00 0. -1.
<mgrwt>
<rscale>  0 0.78271594E+02</rscale>
<asrwt>0</asrwt>
<pdfrwt beam="1">  1        2 0.31208137E-01 0.78271594E+02</pdfrwt>
<pdfrwt beam="2">  1       -1 0.11615925E-02 0.78271594E+02</pdfrwt>
<totfact> 0.23480732E+05</totfact>
</mgrwt>
</event>
<event>
 8    1  0.2603554E-016  0.8124180E+02  0.7818608E-02  0.1325564E+00
          2   -1    0    0  501    0  0.00000000000E+00  0.00000000000E+00  0.78669165501E+01  0.78669169634E+01  0.25500000000E-02 0. -1.
         -1   -1    0    0    0  501 -0.00000000000E+00 -0.00000000000E+00 -0.20974640693E+03  0.20974640699E+03  0.50400000000E-02 0.  1.
         24    2    1    2    0    0  0.00000000000E+00  0.00000000000E+00 -0.20187949038E+03  0.21761332395E+03  0.81241800363E+02 0.  0.
         66    2    3    3    0    0  0.15344599561E+02 -0.28545555733E+02 -0.35512304165E+02  0.48118907229E+02  0.19999995142E+01 0.  0.
        -13    1    3    3    0    0 -0.15344599561E+02  0.28545555733E+02 -0.16636718621E+03  0.16949441672E+03  0.10566000000E+00 0.  1.
         13    1    4    4    0    0  0.21059796576E+01 -0.32451759543E+01 -0.45290039699E+01  0.59572945443E+01  0.10566000000E+00 0. -1.
        -13    1    4    4    0    0  0.10258065376E+02 -0.20822055785E+02 -0.24919698279E+02  0.34055666764E+02  0.10566000000E+00 0.  1.
        -14    1    4    4    0    0  0.29805545273E+01 -0.44783239931E+01 -0.60636019166E+01  0.81059459214E+01  0.00000000000E+00 0.  1.
<mgrwt>
<rscale>  0 0.81241800E+02</rscale>
<asrwt>0</asrwt>
<pdfrwt beam="1">  1        2 0.12102950E-02 0.81241800E+02</pdfrwt>
<pdfrwt beam="2">  1       -1 0.32268674E-01 0.81241800E+02</pdfrwt>
<totfact> 0.94379170E+04</totfact>
</mgrwt>
</event>
<event>
 8    1  0.2603554E-016  0.8230182E+02  0.7818608E-02  0.1322643E+00
         -1   -1    0    0    0  501 -0.00000000000E+00  0.00000000000E+00  0.38386213540E+01  0.38386246627E+01  0.50400000000E-02 0.  1.
          2   -1    0    0  501    0  0.00000000000E+00 -0.00000000000E+00 -0.44114714751E+03  0.44114714752E+03  0.25500000000E-02 0. -1.
         24    2    1    2    0    0  0.00000000000E+00  0.35527136788E-14 -0.43730852615E+03  0.44498577218E+03  0.82301824973E+02 0.  0.
         66    2    3    3    0    0 -0.27248163860E+02 -0.27853841563E+02 -0.28991703019E+03  0.29253065364E+03  0.19999995415E+01 0.  0.
        -13    1    3    3    0    0  0.27248163860E+02  0.27853841563E+02 -0.14739149596E+03  0.15245511854E+03  0.10566000000E+00 0.  1.
         13    1    4    4    0    0 -0.13084273559E+02 -0.13114570546E+02 -0.13886674553E+03  0.14009701765E+03  0.10566000000E+00 0. -1.
        -13    1    4    4    0    0 -0.10273138521E+02 -0.10623412063E+02 -0.10440849218E+03  0.10544922315E+03  0.10566000000E+00 0.  1.
         14    1    4    4    0    0 -0.38907517789E+01 -0.41158589535E+01 -0.46641792481E+02  0.46984412842E+02  0.00000000000E+00 0. -1.
<mgrwt>
<rscale>  0 0.82301825E+02</rscale>
<asrwt>0</asrwt>
<pdfrwt beam="1">  1        2 0.67868752E-01 0.82301825E+02</pdfrwt>
<pdfrwt beam="2">  1       -1 0.59055774E-03 0.82301825E+02</pdfrwt>
<totfact> 0.27134432E+05</totfact>
</mgrwt>
</event>
<event>
 8    1  0.2603554E-016  0.7926496E+02  0.7818608E-02  0.1331150E+00
          2   -1    0    0  501    0  0.00000000000E+00  0.00000000000E+00  0.92494863491E+03  0.92494863491E+03  0.25500000000E-02 0. -1.
         -1   -1    0    0    0  501 -0.00000000000E+00 -0.00000000000E+00 -0.16981807168E+01  0.16981881958E+01  0.50400000000E-02 0.  1.
         24    2    1    2    0    0  0.00000000000E+00  0.00000000000E+00  0.92325045419E+03  0.92664682311E+03  0.79264958276E+02 0.  0.
         66    2    3    3    0    0 -0.24628623243E+02  0.10024354089E+02  0.80508403525E+03  0.80552551827E+03  0.20000001214E+01 0.  0.
        -13    1    3    3    0    0  0.24628623243E+02 -0.10024354089E+02  0.11816641894E+03  0.12112130484E+03  0.10566000000E+00 0.  1.
         13    1    4    4    0    0 -0.10259072384E+02  0.46124525995E+01  0.35254999186E+03  0.35272940224E+03  0.10566000000E+00 0. -1.
        -13    1    4    4    0    0 -0.16939327305E+01  0.66434795277E+00  0.65967123854E+02  0.65992297731E+02  0.10566000000E+00 0.  1.
        -14    1    4    4    0    0 -0.12675618129E+02  0.47475535372E+01  0.38656691955E+03  0.38680381829E+03  0.00000000000E+00 0.  1.
<mgrwt>
<rscale>  0 0.79264958E+02</rscale>
<asrwt>0</asrwt>
<pdfrwt beam="1">  1        2 0.14230023E+00 0.79264958E+02</pdfrwt>
<pdfrwt beam="2">  1       -1 0.26125835E-03 0.79264958E+02</pdfrwt>
<totfact> 0.35893648E+05</totfact>
</mgrwt>
</event>
<event>
 8    1  0.2603554E-016  0.8267335E+02  0.7818608E-02  0.1321632E+00
          2   -1    0    0  501    0  0.00000000000E+00  0.00000000000E+00  0.52715690785E+03  0.52715690786E+03  0.25500000000E-02 0. -1.
         -1   -1    0    0    0  501 -0.00000000000E+00 -0.00000000000E+00 -0.32413868752E+01  0.32413907935E+01  0.50400000000E-02 0.  1.
         24    2    1    2    0    0  0.00000000000E+00  0.00000000000E+00  0.52391552098E+03  0.53039829865E+03  0.82673345718E+02 0.  0.
         66    2    3    3    0    0 -0.30371587429E+02  0.17241893047E+02  0.40369027380E+03  0.40520310137E+03  0.20000008081E+01 0.  0.
        -13    1    3    3    0    0  0.30371587429E+02 -0.17241893047E+02  0.12022524718E+03  0.12519519728E+03  0.10566000000E+00 0.  1.
         13    1    4    4    0    0 -0.21473506030E+02  0.12671496891E+02  0.28966000096E+03  0.29073115694E+03  0.10566000000E+00 0. -1.
        -13    1    4    4    0    0 -0.69025611096E+01  0.32386039636E+01  0.89817783518E+02  0.90140885871E+02  0.10566000000E+00 0.  1.
         14    1    4    4    0    0 -0.19955202895E+01  0.13317921928E+01  0.24212489317E+02  0.24331058559E+02  0.00000000000E+00 0. -1.
<mgrwt>
<rscale>  0 0.82673346E+02</rscale>
<asrwt>0</asrwt>
<pdfrwt beam="1">  1        2 0.81101027E-01 0.82673346E+02</pdfrwt>
<pdfrwt beam="2">  1       -1 0.49867543E-03 0.82673346E+02</pdfrwt>
<totfact> 0.28416007E+05</totfact>
</mgrwt>
</event>
<event>
 8    1  0.2603554E-016  0.8060313E+02  0.7818608E-02  0.1327349E+00
         -1   -1    0    0    0  501 -0.00000000000E+00  0.00000000000E+00  0.14809770920E+02  0.14809771778E+02  0.50400000000E-02 0.  1.
          2   -1    0    0  501    0  0.00000000000E+00 -0.00000000000E+00 -0.10967192670E+03  0.10967192673E+03  0.25500000000E-02 0. -1.
         24    2    1    2    0    0  0.00000000000E+00  0.00000000000E+00 -0.94862155778E+02  0.12448169851E+03  0.80603130608E+02 0.  0.
         66    2    3    3    0    0  0.27467396143E+02 -0.25141565710E+02 -0.71168036362E+02  0.80345787547E+02  0.19999998930E+01 0.  0.
        -13    1    3    3    0    0 -0.27467396143E+02  0.25141565710E+02 -0.23694119416E+02  0.44135910959E+02  0.10566000000E+00 0.  1.
         13    1    4    4    0    0  0.97023700256E+01 -0.93399498785E+01 -0.26881159377E+02  0.30066235903E+02  0.10566000000E+00 0. -1.
        -13    1    4    4    0    0  0.49696194010E+01 -0.43255294938E+01 -0.13396651976E+02  0.14929459823E+02  0.10566000000E+00 0.  1.
         14    1    4    4    0    0  0.12795406716E+02 -0.11476086338E+02 -0.30890225009E+02  0.35350091821E+02  0.00000000000E+00 0. -1.
<mgrwt>
<rscale>  0 0.80603131E+02</rscale>
<asrwt>0</asrwt>
<pdfrwt beam="1">  1        2 0.16872604E-01 0.80603131E+02</pdfrwt>
<pdfrwt beam="2">  1       -1 0.22784264E-02 0.80603131E+02</pdfrwt>
<totfact> 0.17836203E+05</totfact>
</mgrwt>
</event>
<event>
 8    1  0.2603554E-016  0.7943163E+02  0.7818608E-02  0.1330672E+00
         -1   -1    0    0    0  501 -0.00000000000E+00  0.00000000000E+00  0.46469446937E+01  0.46469474268E+01  0.50400000000E-02 0.  1.
          2   -1    0    0  501    0  0.00000000000E+00 -0.00000000000E+00 -0.33943707584E+03  0.33943707585E+03  0.25500000000E-02 0. -1.
         24    2    1    2    0    0  0.00000000000E+00  0.00000000000E+00 -0.33479013115E+03  0.34408402328E+03  0.79431625699E+02 0.  0.
         66    2    3    3    0    0  0.25481361903E+02 -0.30354950010E+02 -0.17680982983E+03  0.18120827443E+03  0.20000006432E+01 0.  0.
        -13    1    3    3    0    0 -0.25481361903E+02  0.30354950010E+02 -0.15798030132E+03  0.16287574885E+03  0.10566000000E+00 0.  1.
         13    1    4    4    0    0  0.17881918057E+02 -0.20482823933E+02 -0.12321296540E+03  0.12617747452E+03  0.10566000000E+00 0. -1.
        -13    1    4    4    0    0  0.68179332675E+01 -0.85731230647E+01 -0.47783751418E+02  0.49023267096E+02  0.10566000000E+00 0.  1.
        -14    1    4    4    0    0  0.78151057814E+00 -0.12990030118E+01 -0.58131130118E+01  0.60075328128E+01  0.00000000000E+00 0.  1.
<mgrwt>
<rscale>  0 0.79431626E+02</rscale>
<asrwt>0</asrwt>
<pdfrwt beam="1">  1        2 0.52221069E-01 0.79431626E+02</pdfrwt>
<pdfrwt beam="2">  1       -1 0.71491505E-03 0.79431626E+02</pdfrwt>
<totfact> 0.27157652E+05</totfact>
</mgrwt>
</event>
<event>
 8    1  0.2603554E-016  0.8067871E+02  0.7818608E-02  0.1327136E+00
         -1   -1    0    0    0  501 -0.00000000000E+00  0.00000000000E+00  0.43370500371E+01  0.43370529656E+01  0.50400000000E-02 0.  1.
          2   -1    0    0  501    0  0.00000000000E+00 -0.00000000000E+00 -0.37520041292E+03  0.37520041293E+03  0.25500000000E-02 0. -1.
         24    2    1    2    0    0  0.00000000000E+00  0.00000000000E+00 -0.37086336288E+03  0.37953746589E+03  0.80678709017E+02 0.  0.
         66    2    3    3    0    0 -0.25973392547E+02  0.15588457174E+02 -0.31068710023E+03  0.31216676850E+03  0.19999959865E+01 0.  0.
        -13    1    3    3    0    0  0.25973392547E+02 -0.15588457174E+02 -0.60176262648E+02  0.67370697397E+02  0.10566000000E+00 0.  1.
         13    1    4    4    0    0 -0.14316253680E+02  0.84466607269E+01 -0.16283924034E+03  0.16368546226E+03  0.10566000000E+00 0. -1.
        -13    1    4    4    0    0 -0.37997829619E+00  0.40070265850E+00 -0.61659529625E+01  0.61915334206E+01  0.10566000000E+00 0. -1.
        -14    1    4    4    0    0 -0.11277160571E+02  0.67410937890E+01 -0.14168190693E+03  0.14228977282E+03  0.00000000000E+00 0.  1.
<mgrwt>
<rscale>  0 0.80678709E+02</rscale>
<asrwt>0</asrwt>
<pdfrwt beam="1">  1        2 0.57723115E-01 0.80678709E+02</pdfrwt>
<pdfrwt beam="2">  1       -1 0.66723899E-03 0.80678709E+02</pdfrwt>
<totfact> 0.27019942E+05</totfact>
</mgrwt>
</event>
<event>
 8    1  0.2603554E-016  0.7876630E+02  0.7818608E-02  0.1332589E+00
         -1   -1    0    0    0  501 -0.00000000000E+00  0.00000000000E+00  0.25041408668E+01  0.25041459388E+01  0.50400000000E-02 0.  1.
          2   -1    0    0  501    0  0.00000000000E+00 -0.00000000000E+00 -0.61938645894E+03  0.61938645895E+03  0.25500000000E-02 0. -1.
         24    2    1    2    0    0  0.00000000000E+00  0.00000000000E+00 -0.61688231808E+03  0.62189060489E+03  0.78766300483E+02 0.  0.
         66    2    3    3    0    0 -0.34392178575E+02  0.50565211570E+01 -0.45435961337E+03  0.45569183515E+03  0.20000016592E+01 0.  0.
        -13    1    3    3    0    0  0.34392178575E+02 -0.50565211570E+01 -0.16252270471E+03  0.16619876974E+03  0.10566000000E+00 0.  1.
         13    1    4    4    0    0 -0.19694709541E+02  0.28403419541E+01 -0.26031520235E+03  0.26107463466E+03  0.10566000000E+00 0. -1.
        -13    1    4    4    0    0 -0.80281691161E+01  0.11503266150E+01 -0.97446171200E+02  0.97783138609E+02  0.10566000000E+00 0.  1.
        -14    1    4    4    0    0 -0.66692999175E+01  0.10658525879E+01 -0.96598239819E+02  0.96834061875E+02  0.00000000000E+00 0.  1.
<mgrwt>
<rscale>  0 0.78766300E+02</rscale>
<asrwt>0</asrwt>
<pdfrwt beam="1">  1        2 0.95290103E-01 0.78766300E+02</pdfrwt>
<pdfrwt beam="2">  1       -1 0.38525333E-03 0.78766300E+02</pdfrwt>
<totfact> 0.33782418E+05</totfact>
</mgrwt>
</event>
<event>
 8    1  0.2603554E-016  0.8044198E+02  0.7818608E-02  0.1327802E+00
          2   -1    0    0  501    0  0.00000000000E+00  0.00000000000E+00  0.24757561569E+03  0.24757561570E+03  0.25500000000E-02 0. -1.
         -1   -1    0    0    0  501 -0.00000000000E+00 -0.00000000000E+00 -0.65342772528E+01  0.65342791965E+01  0.50400000000E-02 0.  1.
         24    2    1    2    0    0  0.00000000000E+00  0.00000000000E+00  0.24104133844E+03  0.25410989490E+03  0.80441978160E+02 0.  0.
         66    2    3    3    0    0 -0.87212079203E+01 -0.13538500200E+02  0.23693476559E+03  0.23748986001E+03  0.20000009533E+01 0.  0.
        -13    1    3    3    0    0  0.87212079203E+01  0.13538500200E+02  0.41065728419E+01  0.16620034891E+02  0.10566000000E+00 0.  1.
         13    1    4    4    0    0 -0.37997838972E+01 -0.42050683506E+01  0.81527143833E+02  0.81723970187E+02  0.10566000000E+00 0. -1.
        -13    1    4    4    0    0 -0.49145953574E+01 -0.92521055096E+01  0.15416688648E+03  0.15452247330E+03  0.10566000000E+00 0.  1.
        -14    1    4    4    0    0 -0.68286658072E-02 -0.81326339556E-01  0.12407352848E+01  0.12434165236E+01  0.00000000000E+00 0.  1.
<mgrwt>
<rscale>  0 0.80441978E+02</rscale>
<asrwt>0</asrwt>
<pdfrwt beam="1">  1        2 0.38088549E-01 0.80441978E+02</pdfrwt>
<pdfrwt beam="2">  1       -1 0.10052738E-02 0.80441978E+02</pdfrwt>
<totfact> 0.23443055E+05</totfact>
</mgrwt>
</event>
<event>
 8    1  0.2603554E-016  0.7665326E+02  0.7818608E-02  0.1338827E+00
          2   -1    0    0  501    0  0.00000000000E+00  0.00000000000E+00  0.16387986257E+03  0.16387986259E+03  0.25500000000E-02 0. -1.
         -1   -1    0    0    0  501 -0.00000000000E+00 -0.00000000000E+00 -0.89634584280E+01  0.89634598449E+01  0.50400000000E-02 0.  1.
         24    2    1    2    0    0  0.00000000000E+00  0.00000000000E+00  0.15491640415E+03  0.17284332244E+03  0.76653257192E+02 0.  0.
         66    2    3    3    0    0 -0.20209937080E+02 -0.23648161443E+02  0.12789336070E+03  0.13163733819E+03  0.19999999470E+01 0.  0.
        -13    1    3    3    0    0  0.20209937080E+02  0.23648161443E+02  0.27023043451E+02  0.41205984248E+02  0.10566000000E+00 0.  1.
         13    1    4    4    0    0 -0.13436812793E+01 -0.13003440379E+01  0.69490709713E+01  0.71970219811E+01  0.10566000000E+00 0.  1.
        -13    1    4    4    0    0 -0.61641212131E+01 -0.83099038237E+01  0.41145992444E+02  0.42427052103E+02  0.10566000000E+00 0. -1.
         14    1    4    4    0    0 -0.12702134588E+02 -0.14037913582E+02  0.79798297280E+02  0.82013264108E+02  0.00000000000E+00 0. -1.
<mgrwt>
<rscale>  0 0.76653257E+02</rscale>
<asrwt>0</asrwt>
<pdfrwt beam="1">  1        2 0.25212286E-01 0.76653257E+02</pdfrwt>
<pdfrwt beam="2">  1       -1 0.13789937E-02 0.76653257E+02</pdfrwt>
<totfact> 0.23081797E+05</totfact>
</mgrwt>
</event>
<event>
 8    1  0.2603554E-016  0.8076485E+02  0.7818608E-02  0.1326895E+00
          2   -1    0    0  501    0  0.00000000000E+00  0.00000000000E+00  0.26190784797E+03  0.26190784798E+03  0.25500000000E-02 0. -1.
         -1   -1    0    0    0  501 -0.00000000000E+00 -0.00000000000E+00 -0.62263883417E+01  0.62263903816E+01  0.50400000000E-02 0.  1.
         24    2    1    2    0    0 -0.35527136788E-14  0.00000000000E+00  0.25568145963E+03  0.26813423836E+03  0.80764849937E+02 0.  0.
         66    2    3    3    0    0 -0.25223161050E+02  0.27089198758E+02  0.74520240218E+02  0.83230395448E+02  0.19999954076E+01 0.  0.
        -13    1    3    3    0    0  0.25223161050E+02 -0.27089198758E+02  0.18116121941E+03  0.18490384291E+03  0.10566000000E+00 0.  1.
         13    1    4    4    0    0 -0.12999719027E+01  0.10536827857E+01  0.34891853698E+01  0.38711436218E+01  0.10566000000E+00 0.  1.
        -13    1    4    4    0    0 -0.19546652517E+02  0.20761833681E+02  0.56142865539E+02  0.62969499580E+02  0.10566000000E+00 0. -1.
        -14    1    4    4    0    0 -0.43765366302E+01  0.52736822913E+01  0.14888189309E+02  0.16389752246E+02  0.00000000000E+00 0.  1.
<mgrwt>
<rscale>  0 0.80764850E+02</rscale>
<asrwt>0</asrwt>
<pdfrwt beam="1">  1        2 0.40293510E-01 0.80764850E+02</pdfrwt>
<pdfrwt beam="2">  1       -1 0.95790619E-03 0.80764850E+02</pdfrwt>
<totfact> 0.23671831E+05</totfact>
</mgrwt>
</event>
<event>
 8    1  0.2603554E-016  0.7803310E+02  0.7818608E-02  0.1334728E+00
         -1   -1    0    0    0  501 -0.00000000000E+00  0.00000000000E+00  0.29715098292E+01  0.29715141034E+01  0.50400000000E-02 0.  1.
          2   -1    0    0  501    0  0.00000000000E+00 -0.00000000000E+00 -0.51229509980E+03  0.51229509980E+03  0.25500000000E-02 0. -1.
         24    2    1    2    0    0 -0.35527136788E-14 -0.35527136788E-14 -0.50932358997E+03  0.51526661391E+03  0.78033096243E+02 0.  0.
         66    2    3    3    0    0  0.31290562901E+02  0.21821272276E+02 -0.30807287781E+03  0.31043222334E+03  0.19999989530E+01 0.  0.
        -13    1    3    3    0    0 -0.31290562901E+02 -0.21821272276E+02 -0.20125071215E+03  0.20483439056E+03  0.10566000000E+00 0.  1.
         13    1    4    4    0    0  0.11827848476E+02  0.82382620178E+01 -0.12263826104E+03  0.12348247323E+03  0.10566000000E+00 0. -1.
        -13    1    4    4    0    0  0.67804235115E+01  0.42273080825E+01 -0.61130319586E+02  0.61650396701E+02  0.10566000000E+00 0.  1.
        -14    1    4    4    0    0  0.12682290913E+02  0.93557021761E+01 -0.12430429719E+03  0.12529935341E+03  0.00000000000E+00 0.  1.
<mgrwt>
<rscale>  0 0.78033096E+02</rscale>
<asrwt>0</asrwt>
<pdfrwt beam="1">  1        2 0.78814561E-01 0.78033096E+02</pdfrwt>
<pdfrwt beam="2">  1       -1 0.45715610E-03 0.78033096E+02</pdfrwt>
<totfact> 0.32740068E+05</totfact>
</mgrwt>
</event>
<event>
 8    1  0.2603554E-016  0.7955344E+02  0.7818608E-02  0.1330324E+00
          2   -1    0    0  501    0  0.00000000000E+00  0.00000000000E+00  0.72894417344E+03  0.72894417344E+03  0.25500000000E-02 0. -1.
         -1   -1    0    0    0  501 -0.00000000000E+00 -0.00000000000E+00 -0.21705164112E+01  0.21705222627E+01  0.50400000000E-02 0.  1.
         24    2    1    2    0    0 -0.35527136788E-14 -0.88817841970E-15  0.72677365703E+03  0.73111469570E+03  0.79553439447E+02 0.  0.
         66    2    3    3    0    0 -0.22153619070E+02 -0.79580114092E+01  0.65800039059E+03  0.65842435162E+03  0.19999998829E+01 0.  0.
        -13    1    3    3    0    0  0.22153619070E+02  0.79580114092E+01  0.68773266433E+02  0.72690344086E+02  0.10566000000E+00 0.  1.
         13    1    4    4    0    0 -0.70573575953E+00 -0.67263061630E-02  0.22506736962E+02  0.22518047893E+02  0.10566000000E+00 0.  1.
        -13    1    4    4    0    0 -0.16141406463E+02 -0.64186318464E+01  0.47374167995E+03  0.47406005349E+03  0.10566000000E+00 0. -1.
         14    1    4    4    0    0 -0.53064768475E+01 -0.15326532567E+01  0.16175197369E+03  0.16184625023E+03  0.00000000000E+00 0. -1.
<mgrwt>
<rscale>  0 0.79553439E+02</rscale>
<asrwt>0</asrwt>
<pdfrwt beam="1">  1        2 0.11214523E+00 0.79553439E+02</pdfrwt>
<pdfrwt beam="2">  1       -1 0.33392614E-03 0.79553439E+02</pdfrwt>
<totfact> 0.34247255E+05</totfact>
</mgrwt>
</event>
<event>
 8    1  0.2603554E-016  0.7756033E+02  0.7818608E-02  0.1336121E+00
          2   -1    0    0  501    0  0.00000000000E+00  0.00000000000E+00  0.13987874074E+02  0.13987874307E+02  0.25500000000E-02 0. -1.
         -1   -1    0    0    0  501 -0.00000000000E+00 -0.00000000000E+00 -0.10751462277E+03  0.10751462288E+03  0.50400000000E-02 0.  1.
         24    2    1    2    0    0  0.00000000000E+00  0.00000000000E+00 -0.93526748691E+02  0.12150249719E+03  0.77560325571E+02 0.  0.
         66    2    3    3    0    0 -0.23419049526E+01  0.35604045226E+02 -0.23100348386E+02  0.42553009673E+02  0.19999953501E+01 0.  0.
        -13    1    3    3    0    0  0.23419049526E+01 -0.35604045226E+02 -0.70426400306E+02  0.78949487518E+02  0.10566000000E+00 0.  1.
         13    1    4    4    0    0 -0.13116229763E+01  0.19237743540E+02 -0.12634093999E+02  0.23053039421E+02  0.10566000000E+00 0. -1.
        -13    1    4    4    0    0 -0.10169411749E+01  0.15988069174E+02 -0.10436666537E+02  0.19120347740E+02  0.10566000000E+00 0.  1.
        -14    1    4    4    0    0 -0.13340801376E-01  0.37823251256E+00 -0.29587849515E-01  0.37962251169E+00  0.00000000000E+00 0.  1.
<mgrwt>
<rscale>  0 0.77560326E+02</rscale>
<asrwt>0</asrwt>
<pdfrwt beam="1">  1        2 0.21519807E-02 0.77560326E+02</pdfrwt>
<pdfrwt beam="2">  1       -1 0.16540711E-01 0.77560326E+02</pdfrwt>
<totfact> 0.12607466E+05</totfact>
</mgrwt>
</event>
<event>
 8    1  0.2603554E-016  0.7961757E+02  0.7818608E-02  0.1330140E+00
         -1   -1    0    0    0  501 -0.00000000000E+00  0.00000000000E+00  0.13989611979E+01  0.13989702766E+01  0.50400000000E-02 0.  1.
          2   -1    0    0  501    0  0.00000000000E+00 -0.00000000000E+00 -0.11327934519E+04  0.11327934519E+04  0.25500000000E-02 0. -1.
         24    2    1    2    0    0  0.88817841970E-15  0.00000000000E+00 -0.11313944907E+04  0.11341924222E+04  0.79617566770E+02 0.  0.
         66    2    3    3    0    0 -0.74042190388E+01 -0.83924827546E+01 -0.11099028636E+04  0.11099610907E+04  0.19999989959E+01 0.  0.
        -13    1    3    3    0    0  0.74042190388E+01  0.83924827546E+01 -0.21491627144E+02  0.24231331530E+02  0.10566000000E+00 0.  1.
         13    1    4    4    0    0 -0.14623977959E+01 -0.16737801153E+01 -0.18200879461E+03  0.18202239595E+03  0.10566000000E+00 0. -1.
        -13    1    4    4    0    0 -0.24725580740E+01 -0.23027294749E+01 -0.28340797796E+03  0.28342813771E+03  0.10566000000E+00 0.  1.
         14    1    4    4    0    0 -0.34692631690E+01 -0.44159731645E+01 -0.64448609103E+03  0.64451055704E+03  0.00000000000E+00 0. -1.
<mgrwt>
<rscale>  0 0.79617567E+02</rscale>
<asrwt>0</asrwt>
<pdfrwt beam="1">  1        2 0.17427518E+00 0.79617567E+02</pdfrwt>
<pdfrwt beam="2">  1       -1 0.21522640E-03 0.79617567E+02</pdfrwt>
<totfact> 0.35646891E+05</totfact>
</mgrwt>
</event>
<event>
 8    1  0.2603554E-016  0.7998884E+02  0.7818608E-02  0.1329083E+00
          2   -1    0    0  501    0  0.00000000000E+00  0.00000000000E+00  0.92035909458E+02  0.92035909494E+02  0.25500000000E-02 0. -1.
         -1   -1    0    0    0  501 -0.00000000000E+00 -0.00000000000E+00 -0.17379667361E+02  0.17379668092E+02  0.50400000000E-02 0.  1.
         24    2    1    2    0    0  0.44408920985E-15 -0.35527136788E-14  0.74656242097E+02  0.10941557759E+03  0.79988837561E+02 0.  0.
         66    2    3    3    0    0 -0.28516681085E+01  0.26975780906E+02  0.77505855073E+02  0.82140016644E+02  0.19999993210E+01 0.  0.
        -13    1    3    3    0    0  0.28516681085E+01 -0.26975780906E+02 -0.28496129756E+01  0.27275560941E+02  0.10566000000E+00 0.  1.
         13    1    4    4    0    0 -0.73600421359E+00  0.53667114932E+01  0.16811972075E+02  0.17663432949E+02  0.10566000000E+00 0. -1.
        -13    1    4    4    0    0 -0.50269373218E+00  0.90954560954E+01  0.23723019526E+02  0.25412060956E+02  0.10566000000E+00 0.  1.
        -14    1    4    4    0    0 -0.16129701628E+01  0.12513613318E+02  0.36970863472E+02  0.39064522740E+02  0.00000000000E+00 0.  1.
<mgrwt>
<rscale>  0 0.79988838E+02</rscale>
<asrwt>0</asrwt>
<pdfrwt beam="1">  1        2 0.14159371E-01 0.79988838E+02</pdfrwt>
<pdfrwt beam="2">  1       -1 0.26737951E-02 0.79988838E+02</pdfrwt>
<totfact> 0.17331563E+05</totfact>
</mgrwt>
</event>
<event>
 8    1  0.2603554E-016  0.7239137E+02  0.7818608E-02  0.1352145E+00
          2   -1    0    0  501    0  0.00000000000E+00  0.00000000000E+00  0.95529517663E+02  0.95529517697E+02  0.25500000000E-02 0. -1.
         -1   -1    0    0    0  501 -0.00000000000E+00 -0.00000000000E+00 -0.13714374025E+02  0.13714374952E+02  0.50400000000E-02 0.  1.
         24    2    1    2    0    0  0.22204460493E-15 -0.35527136788E-14  0.81815143637E+02  0.10924389265E+03  0.72391369324E+02 0.  0.
         66    2    3    3    0    0  0.17665207016E+01 -0.24051466403E+02  0.81614582647E+02  0.85126574798E+02  0.20000011916E+01 0.  0.
        -13    1    3    3    0    0 -0.17665207016E+01  0.24051466403E+02  0.20056099008E+00  0.24117317850E+02  0.10566000000E+00 0.  1.
         13    1    4    4    0    0  0.26256623826E+00 -0.17571694063E+01  0.46398071376E+01  0.49694627136E+01  0.10566000000E+00 0. -1.
        -13    1    4    4    0    0 -0.22918890702E-01 -0.43936386420E+01  0.15446546059E+02  0.16059624372E+02  0.10566000000E+00 0.  1.
         14    1    4    4    0    0  0.15268733540E+01 -0.17900658354E+02  0.61528229450E+02  0.64097487713E+02  0.00000000000E+00 0. -1.
<mgrwt>
<rscale>  0 0.72391369E+02</rscale>
<asrwt>0</asrwt>
<pdfrwt beam="1">  1        2 0.14696849E-01 0.72391369E+02</pdfrwt>
<pdfrwt beam="2">  1       -1 0.21099038E-02 0.72391369E+02</pdfrwt>
<totfact> 0.22841246E+05</totfact>
</mgrwt>
</event>
<event>
 8    1  0.2603554E-016  0.7290491E+02  0.7818608E-02  0.1350484E+00
         -1   -1    0    0    0  501 -0.00000000000E+00  0.00000000000E+00  0.84619467144E+00  0.84620968062E+00  0.50400000000E-02 0.  1.
          2   -1    0    0  501    0  0.00000000000E+00 -0.00000000000E+00 -0.15702881998E+04  0.15702881998E+04  0.25500000000E-02 0. -1.
         24    2    1    2    0    0  0.00000000000E+00 -0.17763568394E-14 -0.15694420051E+04  0.15711344094E+04  0.72904905174E+02 0.  0.
         66    2    3    3    0    0  0.64673230726E+01 -0.15015225043E+02 -0.14867743851E+04  0.14868656144E+04  0.19999993526E+01 0.  0.
        -13    1    3    3    0    0 -0.64673230726E+01  0.15015225043E+02 -0.82667620029E+02  0.84268795031E+02  0.10566000000E+00 0.  1.
         13    1    4    4    0    0  0.27139735177E+01 -0.55317391672E+01 -0.61903393704E+03  0.61906461065E+03  0.10566000000E+00 0. -1.
        -13    1    4    4    0    0  0.41237310984E+00 -0.56374749267E+00 -0.75334004433E+02  0.75337316456E+02  0.10566000000E+00 0.  1.
        -14    1    4    4    0    0  0.33409764450E+01 -0.89197383831E+01 -0.79240644359E+03  0.79246368730E+03  0.00000000000E+00 0.  1.
<mgrwt>
<rscale>  0 0.72904905E+02</rscale>
<asrwt>0</asrwt>
<pdfrwt beam="1">  1        2 0.24158047E+00 0.72904905E+02</pdfrwt>
<pdfrwt beam="2">  1       -1 0.13018621E-03 0.72904905E+02</pdfrwt>
<totfact> 0.41500247E+05</totfact>
</mgrwt>
</event>
<event>
 8    1  0.2603554E-016  0.7973937E+02  0.7818608E-02  0.1329793E+00
         -1   -1    0    0    0  501 -0.00000000000E+00  0.00000000000E+00  0.22710297130E+01  0.22710353055E+01  0.50400000000E-02 0.  1.
          2   -1    0    0  501    0  0.00000000000E+00 -0.00000000000E+00 -0.69994240946E+03  0.69994240947E+03  0.25500000000E-02 0. -1.
         24    2    1    2    0    0  0.00000000000E+00 -0.88817841970E-15 -0.69767137975E+03  0.70221344477E+03  0.79739374827E+02 0.  0.
         66    2    3    3    0    0 -0.22731430739E+02  0.64539460357E+01 -0.63157472793E+03  0.63201978474E+03  0.19999952452E+01 0.  0.
        -13    1    3    3    0    0  0.22731430739E+02 -0.64539460357E+01 -0.66096651819E+02  0.70193660031E+02  0.10566000000E+00 0.  1.
         13    1    4    4    0    0 -0.15450152055E+02  0.50457432331E+01 -0.42630540374E+03  0.42661513703E+03  0.10566000000E+00 0. -1.
        -13    1    4    4    0    0 -0.56021547818E+01  0.11892922043E+01 -0.16610778319E+03  0.16620651418E+03  0.10566000000E+00 0.  1.
         14    1    4    4    0    0 -0.16791239027E+01  0.21891059835E+00 -0.39161541004E+02  0.39198133536E+02  0.00000000000E+00 0. -1.
<mgrwt>
<rscale>  0 0.79739375E+02</rscale>
<asrwt>0</asrwt>
<pdfrwt beam="1">  1        2 0.10768328E+00 0.79739375E+02</pdfrwt>
<pdfrwt beam="2">  1       -1 0.34939017E-03 0.79739375E+02</pdfrwt>
<totfact> 0.33735974E+05</totfact>
</mgrwt>
</event>
<event>
 8    1  0.2603554E-016  0.7743650E+02  0.7818608E-02  0.1336488E+00
          2   -1    0    0  501    0  0.00000000000E+00  0.00000000000E+00  0.48965405022E+03  0.48965405023E+03  0.25500000000E-02 0. -1.
         -1   -1    0    0    0  501 -0.00000000000E+00 -0.00000000000E+00 -0.30615530781E+01  0.30615572266E+01  0.50400000000E-02 0.  1.
         24    2    1    2    0    0  0.00000000000E+00  0.00000000000E+00  0.48659249714E+03  0.49271560745E+03  0.77436500135E+02 0.  0.
         66    2    3    3    0    0 -0.88236459119E+01 -0.19851606622E+02  0.44718357559E+03  0.44771541551E+03  0.19999996484E+01 0.  0.
        -13    1    3    3    0    0  0.88236459119E+01  0.19851606622E+02  0.39408921550E+02  0.45000191937E+02  0.10566000000E+00 0.  1.
         13    1    4    4    0    0 -0.57893611722E+00 -0.16115037995E+01  0.27611073448E+02  0.27664320930E+02  0.10566000000E+00 0. -1.
        -13    1    4    4    0    0 -0.20533804419E+01 -0.41367233037E+01  0.10570376187E+03  0.10580465627E+03  0.10566000000E+00 0.  1.
         14    1    4    4    0    0 -0.61913293528E+01 -0.14103379518E+02  0.31386874027E+03  0.31424643832E+03  0.00000000000E+00 0. -1.
<mgrwt>
<rscale>  0 0.77436500E+02</rscale>
<asrwt>0</asrwt>
<pdfrwt beam="1">  1        2 0.75331334E-01 0.77436500E+02</pdfrwt>
<pdfrwt beam="2">  1       -1 0.47100885E-03 0.77436500E+02</pdfrwt>
<totfact> 0.32923563E+05</totfact>
</mgrwt>
</event>
<event>
 8    1  0.2603554E-016  0.8238376E+02  0.7818608E-02  0.1322420E+00
         -1   -1    0    0    0  501 -0.00000000000E+00  0.00000000000E+00  0.46118790572E+01  0.46118818111E+01  0.50400000000E-02 0.  1.
          2   -1    0    0  501    0  0.00000000000E+00 -0.00000000000E+00 -0.36791304868E+03  0.36791304869E+03  0.25500000000E-02 0. -1.
         24    2    1    2    0    0 -0.35527136788E-14 -0.17763568394E-14 -0.36330116962E+03  0.37252493050E+03  0.82383760504E+02 0.  0.
         66    2    3    3    0    0  0.22210578485E+02  0.13101084162E+02 -0.32686620173E+03  0.32788788028E+03  0.19999997039E+01 0.  0.
        -13    1    3    3    0    0 -0.22210578485E+02 -0.13101084162E+02 -0.36434967891E+02  0.44637050218E+02  0.10566000000E+00 0.  1.
         13    1    4    4    0    0  0.17861567603E+02  0.10578380706E+02 -0.25882109423E+03  0.25965228233E+03  0.10566000000E+00 0. -1.
        -13    1    4    4    0    0  0.42049053250E+01  0.25462256987E+01 -0.64333553513E+02  0.64521173004E+02  0.10566000000E+00 0.  1.
        -14    1    4    4    0    0  0.14410555649E+00 -0.23522241896E-01 -0.37115539890E+01  0.37144249515E+01  0.00000000000E+00 0.  1.
<mgrwt>
<rscale>  0 0.82383761E+02</rscale>
<asrwt>0</asrwt>
<pdfrwt beam="1">  1        2 0.56601985E-01 0.82383761E+02</pdfrwt>
<pdfrwt beam="2">  1       -1 0.70952036E-03 0.82383761E+02</pdfrwt>
<totfact> 0.25402054E+05</totfact>
</mgrwt>
</event>
<event>
 8    1  0.2603554E-016  0.7800781E+02  0.7818608E-02  0.1334802E+00
          2   -1    0    0  501    0  0.00000000000E+00  0.00000000000E+00  0.35349819089E+02  0.35349819181E+02  0.25500000000E-02 0. -1.
         -1   -1    0    0    0  501 -0.00000000000E+00 -0.00000000000E+00 -0.43035709831E+02  0.43035710126E+02  0.50400000000E-02 0.  1.
         24    2    1    2    0    0 -0.35527136788E-14  0.00000000000E+00 -0.76858907421E+01  0.78385529307E+02  0.78007809150E+02 0.  0.
         66    2    3    3    0    0  0.18523080555E+02 -0.25516573111E+02  0.19180544506E+02  0.36960699513E+02  0.20000011011E+01 0.  0.
        -13    1    3    3    0    0 -0.18523080555E+02  0.25516573111E+02 -0.26866435248E+02  0.41424829795E+02  0.10566000000E+00 0.  1.
         13    1    4    4    0    0  0.11156942525E+02 -0.14090318864E+02  0.11247955842E+02  0.21202408516E+02  0.10566000000E+00 0. -1.
        -13    1    4    4    0    0  0.26316080846E+01 -0.47524430135E+01  0.31756992676E+01  0.62934335288E+01  0.10566000000E+00 0.  1.
         14    1    4    4    0    0  0.47345299448E+01 -0.66738112330E+01  0.47568893960E+01  0.94648574684E+01  0.00000000000E+00 0. -1.
<mgrwt>
<rscale>  0 0.78007809E+02</rscale>
<asrwt>0</asrwt>
<pdfrwt beam="1">  1        2 0.54384337E-02 0.78007809E+02</pdfrwt>
<pdfrwt beam="2">  1       -1 0.66208785E-02 0.78007809E+02</pdfrwt>
<totfact> 0.14909281E+05</totfact>
</mgrwt>
</event>
<event>
 8    1  0.2603554E-016  0.7959308E+02  0.7818608E-02  0.1330210E+00
          2   -1    0    0  501    0  0.00000000000E+00  0.00000000000E+00  0.97541553401E+01  0.97541556735E+01  0.25500000000E-02 0. -1.
         -1   -1    0    0    0  501 -0.00000000000E+00 -0.00000000000E+00 -0.16236817927E+03  0.16236817935E+03  0.50400000000E-02 0.  1.
         24    2    1    2    0    0  0.17763568394E-14 -0.71054273576E-14 -0.15261402393E+03  0.17212233502E+03  0.79593077043E+02 0.  0.
         66    2    3    3    0    0  0.14014844103E+02 -0.23962306440E+02 -0.14764671280E+02  0.31505610642E+02  0.19999996942E+01 0.  0.
        -13    1    3    3    0    0 -0.14014844103E+02  0.23962306440E+02 -0.13784935265E+03  0.14061672438E+03  0.10566000000E+00 0.  1.
         13    1    4    4    0    0  0.64412548190E+01 -0.98632087621E+01 -0.68384006515E+01  0.13621583544E+02  0.10566000000E+00 0. -1.
        -13    1    4    4    0    0  0.41165787442E+01 -0.73325415867E+01 -0.46455691864E+01  0.96075420259E+01  0.10566000000E+00 0. -1.
        -14    1    4    4    0    0  0.34570105399E+01 -0.67665560910E+01 -0.32807014418E+01  0.82764850725E+01  0.00000000000E+00 0.  1.
<mgrwt>
<rscale>  0 0.79593077E+02</rscale>
<asrwt>0</asrwt>
<pdfrwt beam="1">  1        2 0.15006394E-02 0.79593077E+02</pdfrwt>
<pdfrwt beam="2">  1       -1 0.24979718E-01 0.79593077E+02</pdfrwt>
<totfact> 0.10704348E+05</totfact>
</mgrwt>
</event>
<event>
 8    1  0.2603554E-016  0.7965072E+02  0.7818608E-02  0.1330046E+00
          2   -1    0    0  501    0  0.00000000000E+00  0.00000000000E+00  0.89227707354E+03  0.89227707354E+03  0.25500000000E-02 0. -1.
         -1   -1    0    0    0  501 -0.00000000000E+00 -0.00000000000E+00 -0.17775377137E+01  0.17775448588E+01  0.50400000000E-02 0.  1.
         24    2    1    2    0    0  0.35527136788E-14  0.17763568394E-14  0.89049953582E+03  0.89405461840E+03  0.79650721151E+02 0.  0.
         66    2    3    3    0    0 -0.20984506911E+02  0.13578974692E+02  0.79319013248E+03  0.79358636856E+03  0.20000016585E+01 0.  0.
        -13    1    3    3    0    0  0.20984506911E+02 -0.13578974692E+02  0.97309403340E+02  0.10046824984E+03  0.10566000000E+00 0.  1.
         13    1    4    4    0    0 -0.18128933176E+02  0.12082549265E+02  0.68650695984E+03  0.68685257755E+03  0.10566000000E+00 0. -1.
        -13    1    4    4    0    0 -0.24110918876E+01  0.97918737231E+00  0.83956349533E+02  0.83996737812E+02  0.10566000000E+00 0.  1.
        -14    1    4    4    0    0 -0.44448184682E+00  0.51723805488E+00  0.22726823104E+02  0.22737053189E+02  0.00000000000E+00 0.  1.
<mgrwt>
<rscale>  0 0.79650721E+02</rscale>
<asrwt>0</asrwt>
<pdfrwt beam="1">  1        2 0.13727329E+00 0.79650721E+02</pdfrwt>
<pdfrwt beam="2">  1       -1 0.27346810E-03 0.79650721E+02</pdfrwt>
<totfact> 0.35311538E+05</totfact>
</mgrwt>
</event>
<event>
 8    1  0.2603554E-016  0.7985477E+02  0.7818608E-02  0.1329464E+00
         -1   -1    0    0    0  501 -0.00000000000E+00  0.00000000000E+00  0.20476212538E+02  0.20476213158E+02  0.50400000000E-02 0.  1.
          2   -1    0    0  501    0  0.00000000000E+00 -0.00000000000E+00 -0.77856002520E+02  0.77856002562E+02  0.25500000000E-02 0. -1.
         24    2    1    2    0    0  0.00000000000E+00  0.71054273576E-14 -0.57379789982E+02  0.98332215720E+02  0.79854770365E+02 0.  0.
         66    2    3    3    0    0  0.34890770392E+01  0.36182767999E+02 -0.48972493240E+02  0.61021893272E+02  0.20000014046E+01 0.  0.
        -13    1    3    3    0    0 -0.34890770392E+01 -0.36182767999E+02 -0.84072967416E+01  0.37310322449E+02  0.10566000000E+00 0.  1.
         13    1    4    4    0    0  0.24717933925E+01  0.24447875680E+02 -0.34110662156E+02  0.42039943203E+02  0.10566000000E+00 0. -1.
        -13    1    4    4    0    0  0.24411692782E+00  0.41197565274E+01 -0.46177100414E+01  0.61940614286E+01  0.10566000000E+00 0.  1.
        -14    1    4    4    0    0  0.77316671885E+00  0.76151357923E+01 -0.10244121043E+02  0.12787888640E+02  0.00000000000E+00 0.  1.
<mgrwt>
<rscale>  0 0.79854770E+02</rscale>
<asrwt>0</asrwt>
<pdfrwt beam="1">  1        2 0.11977846E-01 0.79854770E+02</pdfrwt>
<pdfrwt beam="2">  1       -1 0.31501867E-02 0.79854770E+02</pdfrwt>
<totfact> 0.16661623E+05</totfact>
</mgrwt>
</event>
<event>
 8    1  0.2603554E-016  0.7870336E+02  0.7818608E-02  0.1332772E+00
          2   -1    0    0  501    0  0.00000000000E+00  0.00000000000E+00  0.50317311615E+03  0.50317311616E+03  0.25500000000E-02 0. -1.
         -1   -1    0    0    0  501 -0.00000000000E+00 -0.00000000000E+00 -0.30775762101E+01  0.30775803370E+01  0.50400000000E-02 0.  1.
         24    2    1    2    0    0 -0.35527136788E-14 -0.17763568394E-14  0.50009553994E+03  0.50625069649E+03  0.78703358456E+02 0.  0.
         66    2    3    3    0    0  0.30967740264E+02  0.12113694169E+02  0.38525944916E+03  0.38669702054E+03  0.20000017106E+01 0.  0.
        -13    1    3    3    0    0 -0.30967740264E+02 -0.12113694169E+02  0.11483609078E+03  0.11955367595E+03  0.10566000000E+00 0.  1.
         13    1    4    4    0    0  0.58275935406E+01  0.26675419106E+01  0.72310939023E+02  0.72594488033E+02  0.10566000000E+00 0. -1.
        -13    1    4    4    0    0  0.95477697620E+01  0.37679698939E+01  0.12817763808E+03  0.12858800711E+03  0.10566000000E+00 0.  1.
         14    1    4    4    0    0  0.15592376961E+02  0.56781823644E+01  0.18477087206E+03  0.18551452540E+03  0.00000000000E+00 0. -1.
<mgrwt>
<rscale>  0 0.78703358E+02</rscale>
<asrwt>0</asrwt>
<pdfrwt beam="1">  1        2 0.77411239E-01 0.78703358E+02</pdfrwt>
<pdfrwt beam="2">  1       -1 0.47347364E-03 0.78703358E+02</pdfrwt>
<totfact> 0.31839035E+05</totfact>
</mgrwt>
</event>
<event>
 8    1  0.2603554E-016  0.7951733E+02  0.7818608E-02  0.1330427E+00
         -1   -1    0    0    0  501 -0.00000000000E+00  0.00000000000E+00  0.49837039770E+01  0.49837065254E+01  0.50400000000E-02 0.  1.
          2   -1    0    0  501    0  0.00000000000E+00 -0.00000000000E+00 -0.31718399554E+03  0.31718399555E+03  0.25500000000E-02 0. -1.
         24    2    1    2    0    0  0.00000000000E+00  0.00000000000E+00 -0.31220029157E+03  0.32216770208E+03  0.79517332757E+02 0.  0.
         66    2    3    3    0    0  0.20963000086E+02 -0.23370402736E+02 -0.25487035512E+03  0.25680444120E+03  0.20000002011E+01 0.  0.
        -13    1    3    3    0    0 -0.20963000086E+02  0.23370402736E+02 -0.57329936443E+02  0.65363260882E+02  0.10566000000E+00 0.  1.
         13    1    4    4    0    0  0.15989673403E+02 -0.18508877140E+02 -0.19861933227E+03  0.20011971043E+03  0.10566000000E+00 0. -1.
        -13    1    4    4    0    0  0.22362996765E+01 -0.20079792547E+01 -0.27237201931E+02  0.27402725229E+02  0.10566000000E+00 0.  1.
         14    1    4    4    0    0  0.27370270059E+01 -0.28535463406E+01 -0.29013820927E+02  0.29282005539E+02  0.00000000000E+00 0. -1.
<mgrwt>
<rscale>  0 0.79517333E+02</rscale>
<asrwt>0</asrwt>
<pdfrwt beam="1">  1        2 0.48797522E-01 0.79517333E+02</pdfrwt>
<pdfrwt beam="2">  1       -1 0.76672414E-03 0.79517333E+02</pdfrwt>
<totfact> 0.26428715E+05</totfact>
</mgrwt>
</event>
<event>
 8    1  0.2603554E-016  0.7959832E+02  0.7818608E-02  0.1330195E+00
          2   -1    0    0  501    0  0.00000000000E+00  0.00000000000E+00  0.96129327452E+02  0.96129327485E+02  0.25500000000E-02 0. -1.
         -1   -1    0    0    0  501 -0.00000000000E+00 -0.00000000000E+00 -0.16477523338E+02  0.16477524108E+02  0.50400000000E-02 0.  1.
         24    2    1    2    0    0  0.35527136788E-14 -0.17763568394E-14  0.79651804114E+02  0.11260685159E+03  0.79598323646E+02 0.  0.
         66    2    3    3    0    0  0.25103354582E+02 -0.14509320911E+02  0.78367665658E+02  0.83583430359E+02  0.20000013215E+01 0.  0.
        -13    1    3    3    0    0 -0.25103354582E+02  0.14509320911E+02  0.12841384561E+01  0.29023421235E+02  0.10566000000E+00 0.  1.
         13    1    4    4    0    0  0.10760114055E+02 -0.66691500822E+01  0.32731548202E+02  0.35094487160E+02  0.10566000000E+00 0. -1.
        -13    1    4    4    0    0  0.74805399709E+00 -0.70030787990E+00  0.27767356019E+01  0.29616617882E+01  0.10566000000E+00 0.  1.
        -14    1    4    4    0    0  0.13595186530E+02 -0.71398629494E+01  0.42859381854E+02  0.45527281410E+02  0.00000000000E+00 0.  1.
<mgrwt>
<rscale>  0 0.79598324E+02</rscale>
<asrwt>0</asrwt>
<pdfrwt beam="1">  1        2 0.14789127E-01 0.79598324E+02</pdfrwt>
<pdfrwt beam="2">  1       -1 0.25350037E-02 0.79598324E+02</pdfrwt>
<totfact> 0.17770694E+05</totfact>
</mgrwt>
</event>
<event>
 8    1  0.2603554E-016  0.7990768E+02  0.7818608E-02  0.1329314E+00
         -1   -1    0    0    0  501 -0.00000000000E+00  0.00000000000E+00  0.23821427601E+01  0.23821480917E+01  0.50400000000E-02 0.  1.
          2   -1    0    0  501    0  0.00000000000E+00 -0.00000000000E+00 -0.67011411036E+03  0.67011411036E+03  0.25500000000E-02 0. -1.
         24    2    1    2    0    0 -0.35527136788E-14  0.00000000000E+00 -0.66773196760E+03  0.67249625846E+03  0.79907678500E+02 0.  0.
         66    2    3    3    0    0  0.11562229583E+02  0.26622141176E+01 -0.65493310414E+03  0.65504361949E+03  0.20000003449E+01 0.  0.
        -13    1    3    3    0    0 -0.11562229583E+02 -0.26622141176E+01 -0.12798863460E+02  0.17452638965E+02  0.10566000000E+00 0.  1.
         13    1    4    4    0    0  0.48342199168E+00  0.84915612258E-01 -0.23874575917E+02  0.23879854412E+02  0.10566000000E+00 0.  1.
        -13    1    4    4    0    0  0.25657516156E+01  0.13757426008E+01 -0.14628340721E+03  0.14631241280E+03  0.10566000000E+00 0.  1.
         14    1    4    4    0    0  0.85130559756E+01  0.12015559045E+01 -0.48477512101E+03  0.48485135228E+03  0.00000000000E+00 0. -1.
<mgrwt>
<rscale>  0 0.79907678E+02</rscale>
<asrwt>0</asrwt>
<pdfrwt beam="1">  1        2 0.10309433E+00 0.79907678E+02</pdfrwt>
<pdfrwt beam="2">  1       -1 0.36648445E-03 0.79907678E+02</pdfrwt>
<totfact> 0.33207562E+05</totfact>
</mgrwt>
</event>
<event>
 8    1  0.2603554E-016  0.7911664E+02  0.7818608E-02  0.1331577E+00
         -1   -1    0    0    0  501 -0.00000000000E+00  0.00000000000E+00  0.68880801828E+01  0.68880820267E+01  0.50400000000E-02 0.  1.
          2   -1    0    0  501    0  0.00000000000E+00 -0.00000000000E+00 -0.22718382650E+03  0.22718382651E+03  0.25500000000E-02 0. -1.
         24    2    1    2    0    0  0.00000000000E+00  0.00000000000E+00 -0.22029574632E+03  0.23407190854E+03  0.79116638721E+02 0.  0.
         66    2    3    3    0    0  0.28691157303E+02  0.22873850923E+02 -0.15374623580E+03  0.15807688188E+03  0.19999995161E+01 0.  0.
        -13    1    3    3    0    0 -0.28691157303E+02 -0.22873850923E+02 -0.66549510517E+02  0.75995026663E+02  0.10566000000E+00 0.  1.
         13    1    4    4    0    0  0.62798855747E+01  0.57606495140E+01 -0.36743908808E+02  0.37719332499E+02  0.10566000000E+00 0.  1.
        -13    1    4    4    0    0  0.12350955667E+02  0.97958113745E+01 -0.67406153327E+02  0.69225029410E+02  0.10566000000E+00 0. -1.
        -14    1    4    4    0    0  0.10060316061E+02  0.73173900345E+01 -0.49596173665E+02  0.51132519969E+02  0.00000000000E+00 0.  1.
<mgrwt>
<rscale>  0 0.79116639E+02</rscale>
<asrwt>0</asrwt>
<pdfrwt beam="1">  1        2 0.34951352E-01 0.79116639E+02</pdfrwt>
<pdfrwt beam="2">  1       -1 0.10597050E-02 0.79116639E+02</pdfrwt>
<totfact> 0.23751847E+05</totfact>
</mgrwt>
</event>
<event>
 8    1  0.2603554E-016  0.7854813E+02  0.7818608E-02  0.1333223E+00
          2   -1    0    0  501    0  0.00000000000E+00  0.00000000000E+00  0.25225626314E+02  0.25225626443E+02  0.25500000000E-02 0. -1.
         -1   -1    0    0    0  501 -0.00000000000E+00 -0.00000000000E+00 -0.61146231764E+02  0.61146231971E+02  0.50400000000E-02 0.  1.
         24    2    1    2    0    0 -0.35527136788E-14  0.00000000000E+00 -0.35920605449E+02  0.86371858415E+02  0.78548125567E+02 0.  0.
         66    2    3    3    0    0  0.19560654735E+02  0.30446236514E+02 -0.12646390979E+01  0.36265574384E+02  0.20000104545E+01 0.  0.
        -13    1    3    3    0    0 -0.19560654735E+02 -0.30446236514E+02 -0.34655966351E+02  0.50106284030E+02  0.10566000000E+00 0.  1.
         13    1    4    4    0    0  0.43649868459E+01  0.72040447642E+01 -0.29976887448E+00  0.84292583626E+01  0.10566000000E+00 0. -1.
        -13    1    4    4    0    0  0.50917497473E+01  0.92675741158E+01 -0.31939600251E+00  0.10579556859E+02  0.10566000000E+00 0.  1.
        -14    1    4    4    0    0  0.10103918142E+02  0.13974617634E+02 -0.64547422092E+00  0.17256759163E+02  0.00000000000E+00 0.  1.
<mgrwt>
<rscale>  0 0.78548126E+02</rscale>
<asrwt>0</asrwt>
<pdfrwt beam="1">  1        2 0.38808656E-02 0.78548126E+02</pdfrwt>
<pdfrwt beam="2">  1       -1 0.94071126E-02 0.78548126E+02</pdfrwt>
<totfact> 0.13694038E+05</totfact>
</mgrwt>
</event>
<event>
 8    1  0.2603554E-016  0.8204066E+02  0.7818608E-02  0.1323358E+00
         -1   -1    0    0    0  501 -0.00000000000E+00  0.00000000000E+00  0.80805612611E+01  0.80805628329E+01  0.50400000000E-02 0.  1.
          2   -1    0    0  501    0  0.00000000000E+00 -0.00000000000E+00 -0.20823643932E+03  0.20823643934E+03  0.25500000000E-02 0. -1.
         24    2    1    2    0    0  0.00000000000E+00  0.00000000000E+00 -0.20015587806E+03  0.21631700217E+03  0.82040660076E+02 0.  0.
         66    2    3    3    0    0 -0.35961102051E+02  0.77448437829E+01 -0.14785206392E+03  0.15237262319E+03  0.20000063409E+01 0.  0.
        -13    1    3    3    0    0  0.35961102051E+02 -0.77448437829E+01 -0.52303814139E+02  0.63944378983E+02  0.10566000000E+00 0.  1.
         13    1    4    4    0    0 -0.15097417085E+02  0.32963440813E+01 -0.60101696312E+02  0.62056610853E+02  0.10566000000E+00 0. -1.
        -13    1    4    4    0    0 -0.58004014580E+01  0.11548338704E+01 -0.21934940939E+02  0.22718518798E+02  0.10566000000E+00 0.  1.
        -14    1    4    4    0    0 -0.15063283507E+02  0.32936658311E+01 -0.65815426672E+02  0.67597493539E+02  0.00000000000E+00 0.  1.
<mgrwt>
<rscale>  0 0.82040660E+02</rscale>
<asrwt>0</asrwt>
<pdfrwt beam="1">  1        2 0.32036371E-01 0.82040660E+02</pdfrwt>
<pdfrwt beam="2">  1       -1 0.12431636E-02 0.82040660E+02</pdfrwt>
<totfact> 0.20931682E+05</totfact>
</mgrwt>
</event>
<event>
 8    1  0.2603554E-016  0.8191553E+02  0.7818608E-02  0.1323702E+00
         -1   -1    0    0    0  501 -0.00000000000E+00  0.00000000000E+00  0.79487210051E+01  0.79487226030E+01  0.50400000000E-02 0.  1.
          2   -1    0    0  501    0  0.00000000000E+00 -0.00000000000E+00 -0.21104506209E+03  0.21104506211E+03  0.25500000000E-02 0. -1.
         24    2    1    2    0    0  0.71054273576E-14  0.44408920985E-15 -0.20309634109E+03  0.21899378471E+03  0.81915529534E+02 0.  0.
         66    2    3    3    0    0 -0.39157018884E+02 -0.27675140077E+01 -0.13262495807E+03  0.13832682586E+03  0.19999970032E+01 0.  0.
        -13    1    3    3    0    0  0.39157018884E+02  0.27675140077E+01 -0.70471383018E+02  0.80666958850E+02  0.10566000000E+00 0.  1.
         13    1    4    4    0    0 -0.10994704491E+02 -0.11467576249E+01 -0.38253812397E+02  0.39819139956E+02  0.10566000000E+00 0. -1.
        -13    1    4    4    0    0 -0.27889170977E+02 -0.17497023732E+01 -0.93367314927E+02  0.97459396555E+02  0.10566000000E+00 0.  1.
        -14    1    4    4    0    0 -0.27314341578E+00  0.12894599045E+00 -0.10038307451E+01  0.10482893488E+01  0.00000000000E+00 0.  1.
<mgrwt>
<rscale>  0 0.81915530E+02</rscale>
<asrwt>0</asrwt>
<pdfrwt beam="1">  1        2 0.32468467E-01 0.81915530E+02</pdfrwt>
<pdfrwt beam="2">  1       -1 0.12228804E-02 0.81915530E+02</pdfrwt>
<totfact> 0.21115454E+05</totfact>
</mgrwt>
</event>
<event>
 8    1  0.2603554E-016  0.7987325E+02  0.7818608E-02  0.1329412E+00
         -1   -1    0    0    0  501 -0.00000000000E+00  0.00000000000E+00  0.24890007358E+01  0.24890058386E+01  0.50400000000E-02 0.  1.
          2   -1    0    0  501    0  0.00000000000E+00 -0.00000000000E+00 -0.64079230606E+03  0.64079230607E+03  0.25500000000E-02 0. -1.
         24    2    1    2    0    0 -0.88817841970E-15 -0.17763568394E-14 -0.63830330533E+03  0.64328131191E+03  0.79873253701E+02 0.  0.
         66    2    3    3    0    0  0.64613914612E+01  0.13177877371E+02 -0.61826709669E+03  0.61844450752E+03  0.19999997148E+01 0.  0.
        -13    1    3    3    0    0 -0.64613914612E+01 -0.13177877371E+02 -0.20036208637E+02  0.24836804388E+02  0.10566000000E+00 0.  1.
         13    1    4    4    0    0  0.32109041868E+01  0.71604404152E+01 -0.31839197346E+03  0.31848868385E+03  0.10566000000E+00 0. -1.
        -13    1    4    4    0    0  0.18332921611E+01  0.21697476618E+01 -0.11334218879E+03  0.11337782715E+03  0.10566000000E+00 0.  1.
         14    1    4    4    0    0  0.14171951133E+01  0.38476892942E+01 -0.18653293444E+03  0.18657799652E+03  0.00000000000E+00 0. -1.
<mgrwt>
<rscale>  0 0.79873254E+02</rscale>
<asrwt>0</asrwt>
<pdfrwt beam="1">  1        2 0.98583300E-01 0.79873254E+02</pdfrwt>
<pdfrwt beam="2">  1       -1 0.38292410E-03 0.79873254E+02</pdfrwt>
<totfact> 0.32872518E+05</totfact>
</mgrwt>
</event>
<event>
 8    1  0.2603554E-016  0.8074454E+02  0.7818608E-02  0.1326952E+00
          2   -1    0    0  501    0  0.00000000000E+00  0.00000000000E+00  0.28169976216E+03  0.28169976217E+03  0.25500000000E-02 0. -1.
         -1   -1    0    0    0  501 -0.00000000000E+00 -0.00000000000E+00 -0.57860174090E+01  0.57860196040E+01  0.50400000000E-02 0.  1.
         24    2    1    2    0    0  0.17763568394E-14 -0.17763568394E-14  0.27591374475E+03  0.28748578177E+03  0.80744536536E+02 0.  0.
         66    2    3    3    0    0 -0.12200831936E+02  0.13630411143E+02  0.26608174837E+03  0.26671735081E+03  0.19999999201E+01 0.  0.
        -13    1    3    3    0    0  0.12200831936E+02 -0.13630411143E+02  0.98319963800E+01  0.20768430964E+02  0.10566000000E+00 0.  1.
         13    1    4    4    0    0 -0.45453476139E+01  0.51686240008E+01  0.97815929861E+02  0.98057851076E+02  0.10566000000E+00 0. -1.
        -13    1    4    4    0    0 -0.70817164744E+01  0.71169933812E+01  0.14391659372E+03  0.14426641818E+03  0.10566000000E+00 0.  1.
        -14    1    4    4    0    0 -0.57376784802E+00  0.13447937613E+01  0.24349224791E+02  0.24393081554E+02  0.00000000000E+00 0.  1.
<mgrwt>
<rscale>  0 0.80744537E+02</rscale>
<asrwt>0</asrwt>
<pdfrwt beam="1">  1        2 0.43338427E-01 0.80744537E+02</pdfrwt>
<pdfrwt beam="2">  1       -1 0.89015665E-03 0.80744537E+02</pdfrwt>
<totfact> 0.24321023E+05</totfact>
</mgrwt>
</event>
<event>
 8    1  0.2603554E-016  0.7781912E+02  0.7818608E-02  0.1335357E+00
         -1   -1    0    0    0  501 -0.00000000000E+00  0.00000000000E+00  0.17241532388E+01  0.17241606052E+01  0.50400000000E-02 0.  1.
          2   -1    0    0  501    0  0.00000000000E+00 -0.00000000000E+00 -0.87808346856E+03  0.87808346857E+03  0.25500000000E-02 0. -1.
         24    2    1    2    0    0  0.00000000000E+00 -0.17763568394E-14 -0.87635931533E+03  0.87980762917E+03  0.77819115862E+02 0.  0.
         66    2    3    3    0    0  0.11476643949E+02 -0.12852468085E+02 -0.83256099839E+03  0.83274168583E+03  0.19999974512E+01 0.  0.
        -13    1    3    3    0    0 -0.11476643949E+02  0.12852468085E+02 -0.43798316939E+02  0.47065943345E+02  0.10566000000E+00 0.  1.
         13    1    4    4    0    0  0.97007481420E+01 -0.10035272549E+02 -0.65784528430E+03  0.65799334378E+03  0.10566000000E+00 0. -1.
        -13    1    4    4    0    0  0.14711469460E+01 -0.26178474006E+01 -0.15181074124E+03  0.15184047457E+03  0.10566000000E+00 0.  1.
        -14    1    4    4    0    0  0.30474886124E+00 -0.19934813498E+00 -0.22904972846E+02  0.22907867483E+02  0.00000000000E+00 0.  1.
<mgrwt>
<rscale>  0 0.77819116E+02</rscale>
<asrwt>0</asrwt>
<pdfrwt beam="1">  1        2 0.13508941E+00 0.77819116E+02</pdfrwt>
<pdfrwt beam="2">  1       -1 0.26525561E-03 0.77819116E+02</pdfrwt>
<totfact> 0.37434968E+05</totfact>
</mgrwt>
</event>
<event>
 8    1  0.2603554E-016  0.7901548E+02  0.7818608E-02  0.1331869E+00
          2   -1    0    0  501    0  0.00000000000E+00  0.00000000000E+00  0.62133222113E+02  0.62133222166E+02  0.25500000000E-02 0. -1.
         -1   -1    0    0    0  501 -0.00000000000E+00 -0.00000000000E+00 -0.25121204709E+02  0.25121205215E+02  0.50400000000E-02 0.  1.
         24    2    1    2    0    0  0.35527136788E-14  0.17763568394E-14  0.37012017404E+02  0.87254427380E+02  0.79015477377E+02 0.  0.
         66    2    3    3    0    0  0.27213332802E+02  0.13272737268E+02  0.46500249877E+02  0.55524807839E+02  0.20000025354E+01 0.  0.
        -13    1    3    3    0    0 -0.27213332802E+02 -0.13272737268E+02 -0.94882324728E+01  0.31729619542E+02  0.10566000000E+00 0.  1.
         13    1    4    4    0    0  0.81284206890E+01  0.33506715215E+01  0.13718731430E+02  0.16294568992E+02  0.10566000000E+00 0. -1.
        -13    1    4    4    0    0  0.70496645296E+01  0.29996380415E+01  0.11322130355E+02  0.13671042322E+02  0.10566000000E+00 0.  1.
         14    1    4    4    0    0  0.12035247583E+02  0.69224277052E+01  0.21459388091E+02  0.25559196525E+02  0.00000000000E+00 0. -1.
<mgrwt>
<rscale>  0 0.79015477E+02</rscale>
<asrwt>0</asrwt>
<pdfrwt beam="1">  1        2 0.95589572E-02 0.79015477E+02</pdfrwt>
<pdfrwt beam="2">  1       -1 0.38648008E-02 0.79015477E+02</pdfrwt>
<totfact> 0.16229676E+05</totfact>
</mgrwt>
</event>
<event>
 8    1  0.2603554E-016  0.8033357E+02  0.7818608E-02  0.1328107E+00
         -1   -1    0    0    0  501 -0.00000000000E+00  0.00000000000E+00  0.18264789500E+01  0.18264859037E+01  0.50400000000E-02 0.  1.
          2   -1    0    0  501    0  0.00000000000E+00 -0.00000000000E+00 -0.88332120024E+03  0.88332120025E+03  0.25500000000E-02 0. -1.
         24    2    1    2    0    0  0.00000000000E+00  0.00000000000E+00 -0.88149472129E+03  0.88514768615E+03  0.80333571003E+02 0.  0.
         66    2    3    3    0    0 -0.21893583841E+02 -0.17325039564E+02 -0.75881614555E+03  0.75933222558E+03  0.20000101817E+01 0.  0.
        -13    1    3    3    0    0  0.21893583841E+02  0.17325039564E+02 -0.12267857574E+03  0.12581546057E+03  0.10566000000E+00 0.  1.
         13    1    4    4    0    0 -0.95191747099E+01 -0.86380284476E+01 -0.34401135817E+03  0.34425144289E+03  0.10566000000E+00 0. -1.
        -13    1    4    4    0    0 -0.10167293472E+02 -0.74402134117E+01 -0.34514530280E+03  0.34537518996E+03  0.10566000000E+00 0.  1.
        -14    1    4    4    0    0 -0.22071156592E+01 -0.12467977046E+01 -0.69659484592E+02  0.69705592729E+02  0.00000000000E+00 0.  1.
<mgrwt>
<rscale>  0 0.80333571E+02</rscale>
<asrwt>0</asrwt>
<pdfrwt beam="1">  1        2 0.13589523E+00 0.80333571E+02</pdfrwt>
<pdfrwt beam="2">  1       -1 0.28099800E-03 0.80333571E+02</pdfrwt>
<totfact> 0.34496337E+05</totfact>
</mgrwt>
</event>
<event>
 8    1  0.2603554E-016  0.7777184E+02  0.7818608E-02  0.1335496E+00
         -1   -1    0    0    0  501 -0.00000000000E+00  0.00000000000E+00  0.28180177477E+01  0.28180222546E+01  0.50400000000E-02 0.  1.
          2   -1    0    0  501    0  0.00000000000E+00 -0.00000000000E+00 -0.53658761271E+03  0.53658761272E+03  0.25500000000E-02 0. -1.
         24    2    1    2    0    0 -0.88817841970E-15  0.00000000000E+00 -0.53376959496E+03  0.53940563497E+03  0.77771836367E+02 0.  0.
         66    2    3    3    0    0 -0.53081358449E+01 -0.10507968356E+02 -0.52391907965E+03  0.52405514570E+03  0.19999997885E+01 0.  0.
        -13    1    3    3    0    0  0.53081358449E+01  0.10507968356E+02 -0.98505153076E+01  0.15350489275E+02  0.10566000000E+00 0.  1.
         13    1    4    4    0    0 -0.25752995432E+01 -0.63334702120E+01 -0.30273979225E+03  0.30281700413E+03  0.10566000000E+00 0. -1.
        -13    1    4    4    0    0 -0.10829185313E+00 -0.84921348172E+00 -0.40785278738E+02  0.40794399327E+02  0.10566000000E+00 0.  1.
         14    1    4    4    0    0 -0.26245444485E+01 -0.33252846618E+01 -0.18039400867E+03  0.18044374224E+03  0.00000000000E+00 0. -1.
<mgrwt>
<rscale>  0 0.77771836E+02</rscale>
<asrwt>0</asrwt>
<pdfrwt beam="1">  1        2 0.82551859E-01 0.77771836E+02</pdfrwt>
<pdfrwt beam="2">  1       -1 0.43354197E-03 0.77771836E+02</pdfrwt>
<totfact> 0.33502539E+05</totfact>
</mgrwt>
</event>
<event>
 8    1  0.2603554E-016  0.7935007E+02  0.7818608E-02  0.1330906E+00
         -1   -1    0    0    0  501 -0.00000000000E+00  0.00000000000E+00  0.11435356282E+02  0.11435357393E+02  0.50400000000E-02 0.  1.
          2   -1    0    0  501    0  0.00000000000E+00 -0.00000000000E+00 -0.13765275212E+03  0.13765275215E+03  0.25500000000E-02 0. -1.
         24    2    1    2    0    0  0.00000000000E+00  0.00000000000E+00 -0.12621739584E+03  0.14908810954E+03  0.79350068640E+02 0.  0.
         66    2    3    3    0    0  0.25702338491E+02 -0.72944563747E+01 -0.11819283596E+03  0.12119144266E+03  0.20000008800E+01 0.  0.
        -13    1    3    3    0    0 -0.25702338491E+02  0.72944563747E+01 -0.80245598789E+01  0.27896666880E+02  0.10566000000E+00 0.  1.
         13    1    4    4    0    0  0.48031714226E+01 -0.14761152899E+01 -0.22023691089E+02  0.22589898302E+02  0.10566000000E+00 0. -1.
        -13    1    4    4    0    0  0.30052145893E+01 -0.13520094386E+01 -0.16397473967E+02  0.16725655766E+02  0.10566000000E+00 0.  1.
        -14    1    4    4    0    0  0.17893952479E+02 -0.44663316462E+01 -0.79771670904E+02  0.81875888591E+02  0.00000000000E+00 0.  1.
<mgrwt>
<rscale>  0 0.79350069E+02</rscale>
<asrwt>0</asrwt>
<pdfrwt beam="1">  1        2 0.21177345E-01 0.79350069E+02</pdfrwt>
<pdfrwt beam="2">  1       -1 0.17592858E-02 0.79350069E+02</pdfrwt>
<totfact> 0.19917208E+05</totfact>
</mgrwt>
</event>
<event>
 8    1  0.2603554E-016  0.8023063E+02  0.7818608E-02  0.1328398E+00
          2   -1    0    0  501    0  0.00000000000E+00  0.00000000000E+00  0.94215802647E+02  0.94215802682E+02  0.25500000000E-02 0. -1.
         -1   -1    0    0    0  501 -0.00000000000E+00 -0.00000000000E+00 -0.17080345393E+02  0.17080346137E+02  0.50400000000E-02 0.  1.
         24    2    1    2    0    0  0.00000000000E+00  0.00000000000E+00  0.77135457254E+02  0.11129614882E+03  0.80230629912E+02 0.  0.
         66    2    3    3    0    0 -0.38519744408E+02  0.31890253546E+01  0.53356896813E+02  0.65915848107E+02  0.20000005633E+01 0.  0.
        -13    1    3    3    0    0  0.38519744408E+02 -0.31890253546E+01  0.23778560441E+02  0.45380300711E+02  0.10566000000E+00 0.  1.
         13    1    4    4    0    0 -0.12421837085E+02  0.12483088760E+01  0.17277996831E+02  0.21316675401E+02  0.10566000000E+00 0. -1.
        -13    1    4    4    0    0 -0.31762108737E+01  0.70241592721E+00  0.48638519296E+01  0.58523434005E+01  0.10566000000E+00 0.  1.
        -14    1    4    4    0    0 -0.22921696449E+02  0.12383005514E+01  0.31215048052E+02  0.38746829306E+02  0.00000000000E+00 0.  1.
<mgrwt>
<rscale>  0 0.80230630E+02</rscale>
<asrwt>0</asrwt>
<pdfrwt beam="1">  1        2 0.14494739E-01 0.80230630E+02</pdfrwt>
<pdfrwt beam="2">  1       -1 0.26277455E-02 0.80230630E+02</pdfrwt>
<totfact> 0.17301750E+05</totfact>
</mgrwt>
</event>
<event>
 8    1  0.2603554E-016  0.8012678E+02  0.7818608E-02  0.1328692E+00
          2   -1    0    0  501    0  0.00000000000E+00  0.00000000000E+00  0.19000342213E+03  0.19000342215E+03  0.25500000000E-02 0. -1.
         -1   -1    0    0    0  501 -0.00000000000E+00 -0.00000000000E+00 -0.84476103979E+01  0.84476119013E+01  0.50400000000E-02 0.  1.
         24    2    1    2    0    0  0.00000000000E+00 -0.35527136788E-14  0.18155581173E+03  0.19845103405E+03  0.80126775432E+02 0.  0.
         66    2    3    3    0    0 -0.72040744389E+00 -0.21155749985E+02  0.17500558533E+03  0.17629248323E+03  0.20000008574E+01 0.  0.
        -13    1    3    3    0    0  0.72040744389E+00  0.21155749985E+02  0.65502264025E+01  0.22158550816E+02  0.10566000000E+00 0.  1.
         13    1    4    4    0    0 -0.10547231246E+01 -0.12306307016E+02  0.10380679822E+03  0.10453908434E+03  0.10566000000E+00 0. -1.
        -13    1    4    4    0    0 -0.22383170206E+00 -0.16977719213E+01  0.12173124784E+02  0.12293439761E+02  0.10566000000E+00 0.  1.
        -14    1    4    4    0    0  0.55814738273E+00 -0.71516710479E+01  0.59025662327E+02  0.59459959135E+02  0.00000000000E+00 0.  1.
<mgrwt>
<rscale>  0 0.80126775E+02</rscale>
<asrwt>0</asrwt>
<pdfrwt beam="1">  1        2 0.29231294E-01 0.80126775E+02</pdfrwt>
<pdfrwt beam="2">  1       -1 0.12996326E-02 0.80126775E+02</pdfrwt>
<totfact> 0.21580755E+05</totfact>
</mgrwt>
</event>
<event>
 8    1  0.2603554E-016  0.8017362E+02  0.7818608E-02  0.1328559E+00
          2   -1    0    0  501    0  0.00000000000E+00  0.00000000000E+00  0.11550677086E+03  0.11550677089E+03  0.25500000000E-02 0. -1.
         -1   -1    0    0    0  501 -0.00000000000E+00 -0.00000000000E+00 -0.13912190102E+02  0.13912191015E+02  0.50400000000E-02 0.  1.
         24    2    1    2    0    0  0.35527136788E-14  0.35527136788E-14  0.10159458076E+03  0.12941896190E+03  0.80173616987E+02 0.  0.
         66    2    3    3    0    0 -0.26216520875E+02 -0.27087676615E+02  0.72719338791E+02  0.81933817344E+02  0.19999997681E+01 0.  0.
        -13    1    3    3    0    0  0.26216520875E+02  0.27087676615E+02  0.28875241969E+02  0.47485144561E+02  0.10566000000E+00 0.  1.
         13    1    4    4    0    0 -0.10666315886E+02 -0.10602671751E+02  0.27562781018E+02  0.31399124260E+02  0.10566000000E+00 0. -1.
        -13    1    4    4    0    0 -0.66511720789E+01 -0.74177766047E+01  0.20837332562E+02  0.23096906549E+02  0.10566000000E+00 0.  1.
        -14    1    4    4    0    0 -0.88990329100E+01 -0.90672282592E+01  0.24319225211E+02  0.27437786534E+02  0.00000000000E+00 0.  1.
<mgrwt>
<rscale>  0 0.80173617E+02</rscale>
<asrwt>0</asrwt>
<pdfrwt beam="1">  1        2 0.17770272E-01 0.80173617E+02</pdfrwt>
<pdfrwt beam="2">  1       -1 0.21403370E-02 0.80173617E+02</pdfrwt>
<totfact> 0.18369271E+05</totfact>
</mgrwt>
</event>
<event>
 8    1  0.2603554E-016  0.8054665E+02  0.7818608E-02  0.1327507E+00
         -1   -1    0    0    0  501 -0.00000000000E+00  0.00000000000E+00  0.63178900432E+01  0.63178920535E+01  0.50400000000E-02 0.  1.
          2   -1    0    0  501    0  0.00000000000E+00 -0.00000000000E+00 -0.25672185718E+03  0.25672185719E+03  0.25500000000E-02 0. -1.
         24    2    1    2    0    0  0.00000000000E+00 -0.71054273576E-14 -0.25040396714E+03  0.26303974925E+03  0.80546650617E+02 0.  0.
         66    2    3    3    0    0  0.12213884735E+02  0.35452821131E+02 -0.17303549983E+03  0.17706316869E+03  0.19999998014E+01 0.  0.
        -13    1    3    3    0    0 -0.12213884735E+02 -0.35452821131E+02 -0.77368467310E+02  0.85976580557E+02  0.10566000000E+00 0.  1.
         13    1    4    4    0    0  0.11333848711E+02  0.32434301243E+02 -0.15888922399E+03  0.16256148586E+03  0.10566000000E+00 0. -1.
        -13    1    4    4    0    0  0.59920358107E+00  0.25313318212E+01 -0.12259823682E+02  0.12533200967E+02  0.10566000000E+00 0.  1.
         14    1    4    4    0    0  0.28083244244E+00  0.48718806690E+00 -0.18864521618E+01  0.19684818597E+01  0.00000000000E+00 0. -1.
<mgrwt>
<rscale>  0 0.80546651E+02</rscale>
<asrwt>0</asrwt>
<pdfrwt beam="1">  1        2 0.39495662E-01 0.80546651E+02</pdfrwt>
<pdfrwt beam="2">  1       -1 0.97198344E-03 0.80546651E+02</pdfrwt>
<totfact> 0.23669067E+05</totfact>
</mgrwt>
</event>
<event>
 8    1  0.2603554E-016  0.8318729E+02  0.7818608E-02  0.1320242E+00
         -1   -1    0    0    0  501 -0.00000000000E+00  0.00000000000E+00  0.19362063296E+02  0.19362063952E+02  0.50400000000E-02 0.  1.
          2   -1    0    0  501    0  0.00000000000E+00 -0.00000000000E+00 -0.89351600069E+02  0.89351600106E+02  0.25500000000E-02 0. -1.
         24    2    1    2    0    0  0.00000000000E+00  0.00000000000E+00 -0.69989536773E+02  0.10871366406E+03  0.83187291669E+02 0.  0.
         66    2    3    3    0    0 -0.80524044075E+01  0.39953206994E+02 -0.45706127497E+02  0.61271118849E+02  0.19999870823E+01 0.  0.
        -13    1    3    3    0    0  0.80524044075E+01 -0.39953206994E+02 -0.24283409276E+02  0.47442545210E+02  0.10566000000E+00 0.  1.
         13    1    4    4    0    0 -0.54001741963E+00  0.34602187934E+01 -0.34737295208E+01  0.49338315467E+01  0.10566000000E+00 0. -1.
        -13    1    4    4    0    0 -0.33718665657E+01  0.13080158882E+02 -0.15621381651E+02  0.20651846630E+02  0.10566000000E+00 0.  1.
         14    1    4    4    0    0 -0.41405204221E+01  0.23412829319E+02 -0.26611016325E+02  0.35685440672E+02  0.00000000000E+00 0. -1.
<mgrwt>
<rscale>  0 0.83187292E+02</rscale>
<asrwt>0</asrwt>
<pdfrwt beam="1">  1        2 0.13746400E-01 0.83187292E+02</pdfrwt>
<pdfrwt beam="2">  1       -1 0.29787791E-02 0.83187292E+02</pdfrwt>
<totfact> 0.15470614E+05</totfact>
</mgrwt>
</event>
<event>
 8    1  0.2603554E-016  0.7340714E+02  0.7818608E-02  0.1348876E+00
          2   -1    0    0  501    0  0.00000000000E+00  0.00000000000E+00  0.37974031903E+03  0.37974031904E+03  0.25500000000E-02 0. -1.
         -1   -1    0    0    0  501 -0.00000000000E+00 -0.00000000000E+00 -0.35475591806E+01  0.35475627607E+01  0.50400000000E-02 0.  1.
         24    2    1    2    0    0  0.00000000000E+00 -0.35527136788E-14  0.37619275985E+03  0.38328788180E+03  0.73407137058E+02 0.  0.
         66    2    3    3    0    0  0.24672150429E+02  0.26766401105E+02  0.21158168036E+03  0.21469970342E+03  0.19999873451E+01 0.  0.
        -13    1    3    3    0    0 -0.24672150429E+02 -0.26766401105E+02  0.16461107949E+03  0.16858817838E+03  0.10566000000E+00 0.  1.
         13    1    4    4    0    0  0.44143737868E+01  0.39155392293E+01  0.34507514171E+02  0.35008539554E+02  0.10566000000E+00 0. -1.
        -13    1    4    4    0    0  0.73229674247E+01  0.79215765027E+01  0.65182371630E+02  0.66069130171E+02  0.10566000000E+00 0.  1.
         14    1    4    4    0    0  0.12934809218E+02  0.14929285373E+02  0.11189179456E+03  0.11362203370E+03  0.00000000000E+00 0. -1.
<mgrwt>
<rscale>  0 0.73407137E+02</rscale>
<asrwt>0</asrwt>
<pdfrwt beam="1">  1        2 0.58421603E-01 0.73407137E+02</pdfrwt>
<pdfrwt beam="2">  1       -1 0.54577847E-03 0.73407137E+02</pdfrwt>
<totfact> 0.34698540E+05</totfact>
</mgrwt>
</event>
<event>
 8    1  0.2603554E-016  0.8124968E+02  0.7818608E-02  0.1325542E+00
         -1   -1    0    0    0  501 -0.00000000000E+00  0.00000000000E+00  0.11473060635E+02  0.11473061742E+02  0.50400000000E-02 0.  1.
          2   -1    0    0  501    0  0.00000000000E+00 -0.00000000000E+00 -0.14384806299E+03  0.14384806301E+03  0.25500000000E-02 0. -1.
         24    2    1    2    0    0 -0.88817841970E-15  0.00000000000E+00 -0.13237500235E+03  0.15532112475E+03  0.81249680287E+02 0.  0.
         66    2    3    3    0    0 -0.53700290999E+01  0.38450695758E+02 -0.43521488744E+02  0.58355918305E+02  0.20000004988E+01 0.  0.
        -13    1    3    3    0    0  0.53700290999E+01 -0.38450695758E+02 -0.88853513609E+02  0.96965206448E+02  0.10566000000E+00 0.  1.
         13    1    4    4    0    0 -0.15646179514E+01  0.10898082002E+02 -0.12520493003E+02  0.16673036008E+02  0.10566000000E+00 0. -1.
        -13    1    4    4    0    0 -0.27820933319E+01  0.15278047250E+02 -0.18013273116E+02  0.23783354336E+02  0.10566000000E+00 0.  1.
        -14    1    4    4    0    0 -0.10233178166E+01  0.12274566506E+02 -0.12987722625E+02  0.17899527962E+02  0.00000000000E+00 0.  1.
<mgrwt>
<rscale>  0 0.81249680E+02</rscale>
<asrwt>0</asrwt>
<pdfrwt beam="1">  1        2 0.22130470E-01 0.81249680E+02</pdfrwt>
<pdfrwt beam="2">  1       -1 0.17650864E-02 0.81249680E+02</pdfrwt>
<totfact> 0.18965506E+05</totfact>
</mgrwt>
</event>
<event>
 8    1  0.2603554E-016  0.7153248E+02  0.7818608E-02  0.1354958E+00
          2   -1    0    0  501    0  0.00000000000E+00  0.00000000000E+00  0.12315107613E+03  0.12315107616E+03  0.25500000000E-02 0. -1.
         -1   -1    0    0    0  501 -0.00000000000E+00 -0.00000000000E+00 -0.10387434455E+02  0.10387435677E+02  0.50400000000E-02 0.  1.
         24    2    1    2    0    0  0.00000000000E+00 -0.17763568394E-14  0.11276364168E+03  0.13353851183E+03  0.71532476953E+02 0.  0.
         66    2    3    3    0    0 -0.32103347761E+02 -0.12290119914E+02  0.74673627950E+02  0.82230302992E+02  0.20000084926E+01 0.  0.
        -13    1    3    3    0    0  0.32103347761E+02  0.12290119914E+02  0.38090013727E+02  0.51308208843E+02  0.10566000000E+00 0.  1.
         13    1    4    4    0    0 -0.51988324247E+01 -0.16090470726E+01  0.11020709892E+02  0.12291627297E+02  0.10566000000E+00 0. -1.
        -13    1    4    4    0    0 -0.23591007577E+02 -0.94312637307E+01  0.54771862145E+02  0.60377582106E+02  0.10566000000E+00 0.  1.
        -14    1    4    4    0    0 -0.33135077592E+01 -0.12498091110E+01  0.88810559129E+01  0.95610935887E+01  0.00000000000E+00 0.  1.
<mgrwt>
<rscale>  0 0.71532477E+02</rscale>
<asrwt>0</asrwt>
<pdfrwt beam="1">  1        2 0.18946319E-01 0.71532477E+02</pdfrwt>
<pdfrwt beam="2">  1       -1 0.15980670E-02 0.71532477E+02</pdfrwt>
<totfact> 0.25320094E+05</totfact>
</mgrwt>
</event>
<event>
 8    1  0.2603554E-016  0.7854501E+02  0.7818608E-02  0.1333232E+00
         -1   -1    0    0    0  501 -0.00000000000E+00  0.00000000000E+00  0.54100083881E+02  0.54100084116E+02  0.50400000000E-02 0.  1.
          2   -1    0    0  501    0  0.00000000000E+00 -0.00000000000E+00 -0.28508823544E+02  0.28508823658E+02  0.25500000000E-02 0. -1.
         24    2    1    2    0    0  0.00000000000E+00 -0.71054273576E-14  0.25591260337E+02  0.82608907773E+02  0.78545012814E+02 0.  0.
         66    2    3    3    0    0 -0.13367897128E+02 -0.32366256376E+02  0.31442249912E+02  0.47105098563E+02  0.20000014123E+01 0.  0.
        -13    1    3    3    0    0  0.13367897128E+02  0.32366256376E+02 -0.58509895749E+01  0.35503809211E+02  0.10566000000E+00 0.  1.
         13    1    4    4    0    0 -0.46246680064E+01 -0.99972686792E+01  0.90437330314E+01  0.14252480710E+02  0.10566000000E+00 0. -1.
        -13    1    4    4    0    0 -0.31824844222E+01 -0.82689892734E+01  0.88369465591E+01  0.12514279013E+02  0.10566000000E+00 0.  1.
        -14    1    4    4    0    0 -0.55607446998E+01 -0.14099998423E+02  0.13561570321E+02  0.20338338839E+02  0.00000000000E+00 0.  1.
<mgrwt>
<rscale>  0 0.78545013E+02</rscale>
<asrwt>0</asrwt>
<pdfrwt beam="1">  1        2 0.43859729E-02 0.78545013E+02</pdfrwt>
<pdfrwt beam="2">  1       -1 0.83230898E-02 0.78545013E+02</pdfrwt>
<totfact> 0.14024699E+05</totfact>
</mgrwt>
</event>
<event>
 8    1  0.2603554E-016  0.8160104E+02  0.7818608E-02  0.1324568E+00
          2   -1    0    0  501    0  0.00000000000E+00  0.00000000000E+00  0.12259212815E+04  0.12259212815E+04  0.25500000000E-02 0. -1.
         -1   -1    0    0    0  501 -0.00000000000E+00 -0.00000000000E+00 -0.13578986171E+01  0.13579079703E+01  0.50400000000E-02 0.  1.
         24    2    1    2    0    0  0.35527136788E-14 -0.17763568394E-14  0.12245633829E+04  0.12272791894E+04  0.81601042982E+02 0.  0.
         66    2    3    3    0    0  0.20162667746E+02 -0.13282164446E+02  0.11068509787E+04  0.11071160906E+04  0.20000002481E+01 0.  0.
        -13    1    3    3    0    0 -0.20162667746E+02  0.13282164446E+02  0.11771240418E+03  0.12016309885E+03  0.10566000000E+00 0.  1.
         13    1    4    4    0    0  0.44202708225E+01 -0.29098755393E+01  0.26266640122E+03  0.26271972835E+03  0.10566000000E+00 0. -1.
        -13    1    4    4    0    0  0.15501189941E+01 -0.53912261401E+00  0.74574337730E+02  0.74592469686E+02  0.10566000000E+00 0.  1.
         14    1    4    4    0    0  0.14192277929E+02 -0.98331662927E+01  0.76961023972E+03  0.76980389256E+03  0.00000000000E+00 0. -1.
<mgrwt>
<rscale>  0 0.81601043E+02</rscale>
<asrwt>0</asrwt>
<pdfrwt beam="1">  1        2 0.18860344E+00 0.81601043E+02</pdfrwt>
<pdfrwt beam="2">  1       -1 0.20890802E-03 0.81601043E+02</pdfrwt>
<totfact> 0.33193398E+05</totfact>
</mgrwt>
</event>
<event>
 8    1  0.2603554E-016  0.8092667E+02  0.7818608E-02  0.1326442E+00
         -1   -1    0    0    0  501 -0.00000000000E+00  0.00000000000E+00  0.43373650469E+01  0.43373679751E+01  0.50400000000E-02 0.  1.
          2   -1    0    0  501    0  0.00000000000E+00 -0.00000000000E+00 -0.37748284764E+03  0.37748284765E+03  0.25500000000E-02 0. -1.
         24    2    1    2    0    0  0.00000000000E+00  0.00000000000E+00 -0.37314548259E+03  0.38182021562E+03  0.80926669766E+02 0.  0.
         66    2    3    3    0    0  0.32217316694E+02 -0.10064242844E+02 -0.29176686933E+03  0.29371950996E+03  0.20000023168E+01 0.  0.
        -13    1    3    3    0    0 -0.32217316694E+02  0.10064242844E+02 -0.81378613260E+02  0.88100705668E+02  0.10566000000E+00 0.  1.
         13    1    4    4    0    0  0.12601741833E+02 -0.33818863248E+01 -0.11327870066E+03  0.11402769944E+03  0.10566000000E+00 0. -1.
        -13    1    4    4    0    0  0.12842814720E+02 -0.46418625059E+01 -0.12233977049E+03  0.12309961570E+03  0.10566000000E+00 0.  1.
        -14    1    4    4    0    0  0.67727601408E+01 -0.20404940137E+01 -0.56148398189E+02  0.56592194824E+02  0.00000000000E+00 0.  1.
<mgrwt>
<rscale>  0 0.80926670E+02</rscale>
<asrwt>0</asrwt>
<pdfrwt beam="1">  1        2 0.58074259E-01 0.80926670E+02</pdfrwt>
<pdfrwt beam="2">  1       -1 0.66728745E-03 0.80926670E+02</pdfrwt>
<totfact> 0.26861620E+05</totfact>
</mgrwt>
</event>
<event>
 8    1  0.2603554E-016  0.7930639E+02  0.7818608E-02  0.1331031E+00
          2   -1    0    0  501    0  0.00000000000E+00  0.00000000000E+00  0.14444874333E+02  0.14444874558E+02  0.25500000000E-02 0. -1.
         -1   -1    0    0    0  501 -0.00000000000E+00 -0.00000000000E+00 -0.10885354059E+03  0.10885354071E+03  0.50400000000E-02 0.  1.
         24    2    1    2    0    0  0.00000000000E+00 -0.55511151231E-16 -0.94408666261E+02  0.12329841527E+03  0.79306386519E+02 0.  0.
         66    2    3    3    0    0 -0.36870562074E+02  0.48062565374E+00 -0.24666789023E+02  0.44408555633E+02  0.19999960110E+01 0.  0.
        -13    1    3    3    0    0  0.36870562074E+02 -0.48062565374E+00 -0.69741877238E+02  0.78889859636E+02  0.10566000000E+00 0.  1.
         13    1    4    4    0    0 -0.49317648574E+01  0.11671455043E+00 -0.39800187299E+01  0.63393722103E+01  0.10566000000E+00 0. -1.
        -13    1    4    4    0    0 -0.20055594217E+02  0.49674047566E+00 -0.13496250187E+02  0.24179196506E+02  0.10566000000E+00 0.  1.
        -14    1    4    4    0    0 -0.11883203000E+02 -0.13282937236E+00 -0.71905201058E+01  0.13889986917E+02  0.00000000000E+00 0.  1.
<mgrwt>
<rscale>  0 0.79306387E+02</rscale>
<asrwt>0</asrwt>
<pdfrwt beam="1">  1        2 0.22222885E-02 0.79306387E+02</pdfrwt>
<pdfrwt beam="2">  1       -1 0.16746698E-01 0.79306387E+02</pdfrwt>
<totfact> 0.11892712E+05</totfact>
</mgrwt>
</event>
<event>
 8    1  0.2603554E-016  0.8471340E+02  0.7818608E-02  0.1316184E+00
         -1   -1    0    0    0  501 -0.00000000000E+00  0.00000000000E+00  0.59800870560E+01  0.59800891798E+01  0.50400000000E-02 0.  1.
          2   -1    0    0  501    0  0.00000000000E+00 -0.00000000000E+00 -0.30001065083E+03  0.30001065084E+03  0.25500000000E-02 0. -1.
         24    2    1    2    0    0  0.17763568394E-14  0.00000000000E+00 -0.29403056377E+03  0.30599074002E+03  0.84713402393E+02 0.  0.
         66    2    3    3    0    0  0.14583648396E+02  0.21423725501E+02 -0.26800298391E+03  0.26926057677E+03  0.20000005782E+01 0.  0.
        -13    1    3    3    0    0 -0.14583648396E+02 -0.21423725501E+02 -0.26027579864E+02  0.36730163251E+02  0.10566000000E+00 0.  1.
         13    1    4    4    0    0  0.27381268274E+01  0.43269354282E+01 -0.56327139382E+02  0.56559504097E+02  0.10566000000E+00 0. -1.
        -13    1    4    4    0    0  0.86759726915E+01  0.11286957006E+02 -0.14256358668E+03  0.14327266073E+03  0.10566000000E+00 0.  1.
        -14    1    4    4    0    0  0.31695488774E+01  0.58098330669E+01 -0.69112257843E+02  0.69428411940E+02  0.00000000000E+00 0.  1.
<mgrwt>
<rscale>  0 0.84713402E+02</rscale>
<asrwt>0</asrwt>
<pdfrwt beam="1">  1        2 0.46155473E-01 0.84713402E+02</pdfrwt>
<pdfrwt beam="2">  1       -1 0.92001379E-03 0.84713402E+02</pdfrwt>
<totfact> 0.21932252E+05</totfact>
</mgrwt>
</event>
<event>
 8    1  0.2603554E-016  0.7939002E+02  0.7818608E-02  0.1330791E+00
         -1   -1    0    0    0  501 -0.00000000000E+00  0.00000000000E+00  0.18320688547E+02  0.18320689240E+02  0.50400000000E-02 0.  1.
          2   -1    0    0  501    0  0.00000000000E+00 -0.00000000000E+00 -0.86006242903E+02  0.86006242940E+02  0.25500000000E-02 0. -1.
         24    2    1    2    0    0  0.00000000000E+00  0.00000000000E+00 -0.67685554355E+02  0.10432693218E+03  0.79390015177E+02 0.  0.
         66    2    3    3    0    0 -0.18599247409E+02  0.34247572595E+02 -0.24130892815E+02  0.45881676268E+02  0.19999990700E+01 0.  0.
        -13    1    3    3    0    0  0.18599247409E+02 -0.34247572595E+02 -0.43554661541E+02  0.58445255913E+02  0.10566000000E+00 0.  1.
         13    1    4    4    0    0 -0.30933116062E+01  0.53354610034E+01 -0.46216834096E+01  0.77075834336E+01  0.10566000000E+00 0.  1.
        -13    1    4    4    0    0 -0.11626711056E+02  0.21306802938E+02 -0.14617673971E+02  0.28334569306E+02  0.10566000000E+00 0. -1.
        -14    1    4    4    0    0 -0.38792247471E+01  0.76053086535E+01 -0.48915354344E+01  0.98395235281E+01  0.00000000000E+00 0.  1.
<mgrwt>
<rscale>  0 0.79390015E+02</rscale>
<asrwt>0</asrwt>
<pdfrwt beam="1">  1        2 0.13231729E-01 0.79390015E+02</pdfrwt>
<pdfrwt beam="2">  1       -1 0.28185676E-02 0.79390015E+02</pdfrwt>
<totfact> 0.17367296E+05</totfact>
</mgrwt>
</event>
<event>
 8    1  0.2603554E-016  0.7917687E+02  0.7818608E-02  0.1331404E+00
         -1   -1    0    0    0  501 -0.00000000000E+00  0.00000000000E+00  0.27194474593E+01  0.27194521297E+01  0.50400000000E-02 0.  1.
          2   -1    0    0  501    0  0.00000000000E+00 -0.00000000000E+00 -0.57630923526E+03  0.57630923526E+03  0.25500000000E-02 0. -1.
         24    2    1    2    0    0  0.17763568394E-14  0.00000000000E+00 -0.57358978780E+03  0.57902868739E+03  0.79176866302E+02 0.  0.
         66    2    3    3    0    0  0.73067595097E+01 -0.28651246729E+02 -0.47921000176E+03  0.48012551327E+03  0.20000096247E+01 0.  0.
        -13    1    3    3    0    0 -0.73067595097E+01  0.28651246729E+02 -0.94379786039E+02  0.98903174117E+02  0.10566000000E+00 0.  1.
         13    1    4    4    0    0  0.32483075781E+01 -0.13153082678E+02 -0.22082294085E+03  0.22123819168E+03  0.10566000000E+00 0. -1.
        -13    1    4    4    0    0 -0.53797405523E-01 -0.15935353479E+00 -0.41741195738E+01  0.41788426582E+01  0.10566000000E+00 0.  1.
        -14    1    4    4    0    0  0.41122493372E+01 -0.15338810516E+02 -0.25421294133E+03  0.25470847894E+03  0.00000000000E+00 0.  1.
<mgrwt>
<rscale>  0 0.79176866E+02</rscale>
<asrwt>0</asrwt>
<pdfrwt beam="1">  1        2 0.88662862E-01 0.79176866E+02</pdfrwt>
<pdfrwt beam="2">  1       -1 0.41837735E-03 0.79176866E+02</pdfrwt>
<totfact> 0.32665198E+05</totfact>
</mgrwt>
</event>
<event>
 8    1  0.2603554E-016  0.7841696E+02  0.7818608E-02  0.1333605E+00
          2   -1    0    0  501    0  0.00000000000E+00  0.00000000000E+00  0.48916795202E+03  0.48916795203E+03  0.25500000000E-02 0. -1.
         -1   -1    0    0    0  501 -0.00000000000E+00 -0.00000000000E+00 -0.31426911027E+01  0.31426951441E+01  0.50400000000E-02 0.  1.
         24    2    1    2    0    0  0.00000000000E+00  0.00000000000E+00  0.48602526092E+03  0.49231064717E+03  0.78416956508E+02 0.  0.
         66    2    3    3    0    0 -0.89038560882E+00 -0.12104063778E+02  0.47706679326E+03  0.47722534130E+03  0.20000005100E+01 0.  0.
        -13    1    3    3    0    0  0.89038560882E+00  0.12104063778E+02  0.89584676641E+01  0.15085305876E+02  0.10566000000E+00 0.  1.
         13    1    4    4    0    0 -0.86509956536E+00 -0.33081651268E+01  0.14355134844E+03  0.14359210687E+03  0.10566000000E+00 0. -1.
        -13    1    4    4    0    0  0.43097559417E+00 -0.31518984385E+01  0.10964903120E+03  0.10969522054E+03  0.10566000000E+00 0.  1.
         14    1    4    4    0    0 -0.45626163762E+00 -0.56440002123E+01  0.22386641362E+03  0.22393801388E+03  0.00000000000E+00 0. -1.
<mgrwt>
<rscale>  0 0.78416957E+02</rscale>
<asrwt>0</asrwt>
<pdfrwt beam="1">  1        2 0.75256600E-01 0.78416957E+02</pdfrwt>
<pdfrwt beam="2">  1       -1 0.48349131E-03 0.78416957E+02</pdfrwt>
<totfact> 0.31853792E+05</totfact>
</mgrwt>
</event>
<event>
 8    1  0.2603554E-016  0.8117454E+02  0.7818608E-02  0.1325751E+00
         -1   -1    0    0    0  501 -0.00000000000E+00  0.00000000000E+00  0.37161484445E+03  0.37161484449E+03  0.50400000000E-02 0.  1.
          2   -1    0    0  501    0  0.00000000000E+00 -0.00000000000E+00 -0.44328862433E+01  0.44328869767E+01  0.25500000000E-02 0. -1.
         24    2    1    2    0    0 -0.71054273576E-14 -0.35527136788E-14  0.36718195821E+03  0.37604773147E+03  0.81174539755E+02 0.  0.
         66    2    3    3    0    0 -0.29868606676E+02 -0.12551857326E+02  0.29676357748E+03  0.29853358891E+03  0.20000006130E+01 0.  0.
        -13    1    3    3    0    0  0.29868606676E+02  0.12551857326E+02  0.70418380731E+02  0.77514142554E+02  0.10566000000E+00 0.  1.
         13    1    4    4    0    0 -0.13535144538E+02 -0.64691007676E+01  0.13424423568E+03  0.13507988518E+03  0.10566000000E+00 0. -1.
        -13    1    4    4    0    0 -0.97278861452E+01 -0.36921279612E+01  0.10098239144E+03  0.10151708291E+03  0.10566000000E+00 0.  1.
         14    1    4    4    0    0 -0.66055759927E+01 -0.23906285971E+01  0.61536950363E+02  0.61936620825E+02  0.00000000000E+00 0. -1.
<mgrwt>
<rscale>  0 0.81174540E+02</rscale>
<asrwt>0</asrwt>
<pdfrwt beam="1">  1        2 0.68198247E-03 0.81174540E+02</pdfrwt>
<pdfrwt beam="2">  1       -1 0.57171522E-01 0.81174540E+02</pdfrwt>
<totfact> 0.75738064E+04</totfact>
</mgrwt>
</event>
<event>
 8    1  0.2603554E-016  0.7994654E+02  0.7818608E-02  0.1329203E+00
          2   -1    0    0  501    0  0.00000000000E+00  0.00000000000E+00  0.64204826703E+02  0.64204826754E+02  0.25500000000E-02 0. -1.
         -1   -1    0    0    0  501 -0.00000000000E+00 -0.00000000000E+00 -0.24886947139E+02  0.24886947649E+02  0.50400000000E-02 0.  1.
         24    2    1    2    0    0 -0.71054273576E-14  0.00000000000E+00  0.39317879564E+02  0.89091774403E+02  0.79946535965E+02 0.  0.
         66    2    3    3    0    0  0.28200058544E+02  0.28159218514E+02  0.22757954429E+02  0.45935926900E+02  0.20000002915E+01 0.  0.
        -13    1    3    3    0    0 -0.28200058544E+02 -0.28159218514E+02  0.16559925135E+02  0.43155847503E+02  0.10566000000E+00 0.  1.
         13    1    4    4    0    0  0.15273758462E+02  0.14976843104E+02  0.11541006900E+02  0.24306368121E+02  0.10566000000E+00 0. -1.
        -13    1    4    4    0    0  0.73700492114E+01  0.68547079849E+01  0.58051308625E+01  0.11619610807E+02  0.10566000000E+00 0.  1.
        -14    1    4    4    0    0  0.55562508708E+01  0.63276674248E+01  0.54118166664E+01  0.10009947972E+02  0.00000000000E+00 0.  1.
<mgrwt>
<rscale>  0 0.79946536E+02</rscale>
<asrwt>0</asrwt>
<pdfrwt beam="1">  1        2 0.98776656E-02 0.79946536E+02</pdfrwt>
<pdfrwt beam="2">  1       -1 0.38287612E-02 0.79946536E+02</pdfrwt>
<totfact> 0.15843317E+05</totfact>
</mgrwt>
</event>
<event>
 8    1  0.2603554E-016  0.8407304E+02  0.7818608E-02  0.1317875E+00
          2   -1    0    0  501    0  0.00000000000E+00  0.00000000000E+00  0.11261712956E+03  0.11261712958E+03  0.25500000000E-02 0. -1.
         -1   -1    0    0    0  501 -0.00000000000E+00 -0.00000000000E+00 -0.15690943230E+02  0.15690944040E+02  0.50400000000E-02 0.  1.
         24    2    1    2    0    0  0.00000000000E+00  0.00000000000E+00  0.96926186325E+02  0.12830807362E+03  0.84073040634E+02 0.  0.
         66    2    3    3    0    0  0.87447901362E+01  0.34077514252E+02  0.13444917052E+02  0.37716231741E+02  0.20000025367E+01 0.  0.
        -13    1    3    3    0    0 -0.87447901362E+01 -0.34077514252E+02  0.83481269273E+02  0.90591841882E+02  0.10566000000E+00 0.  1.
         13    1    4    4    0    0  0.21712258795E+01  0.62237139679E+01  0.28995540860E+01  0.72019035891E+01  0.10566000000E+00 0. -1.
        -13    1    4    4    0    0  0.18447448608E+01  0.61678048437E+01  0.23822568644E+01  0.68652175490E+01  0.10566000000E+00 0. -1.
         14    1    4    4    0    0  0.47288193959E+01  0.21685995440E+02  0.81631061015E+01  0.23649110603E+02  0.00000000000E+00 0. -1.
<mgrwt>
<rscale>  0 0.84073041E+02</rscale>
<asrwt>0</asrwt>
<pdfrwt beam="1">  1        2 0.17325713E-01 0.84073041E+02</pdfrwt>
<pdfrwt beam="2">  1       -1 0.24139912E-02 0.84073041E+02</pdfrwt>
<totfact> 0.16054793E+05</totfact>
</mgrwt>
</event>
<event>
 8    1  0.2603554E-016  0.7999819E+02  0.7818608E-02  0.1329057E+00
          2   -1    0    0  501    0  0.00000000000E+00  0.00000000000E+00  0.28339485184E+02  0.28339485299E+02  0.25500000000E-02 0. -1.
         -1   -1    0    0    0  501 -0.00000000000E+00 -0.00000000000E+00 -0.56455773185E+02  0.56455773410E+02  0.50400000000E-02 0.  1.
         24    2    1    2    0    0 -0.44408920985E-15  0.71054273576E-14 -0.28116288001E+02  0.84795258708E+02  0.79998189033E+02 0.  0.
         66    2    3    3    0    0 -0.21162180687E+01  0.39111301983E+02 -0.22530064735E+02  0.45230256799E+02  0.19999978503E+01 0.  0.
        -13    1    3    3    0    0  0.21162180687E+01 -0.39111301983E+02 -0.55862232655E+01  0.39565001910E+02  0.10566000000E+00 0.  1.
         13    1    4    4    0    0 -0.84298970020E+00  0.24404016887E+02 -0.14672295565E+02  0.28487788490E+02  0.10566000000E+00 0. -1.
        -13    1    4    4    0    0 -0.41372250414E+00  0.42919607203E+01 -0.26969131202E+01  0.50869045154E+01  0.10566000000E+00 0.  1.
         14    1    4    4    0    0 -0.85950586436E+00  0.10415324375E+02 -0.51608560502E+01  0.11655563793E+02  0.00000000000E+00 0. -1.
<mgrwt>
<rscale>  0 0.79998189E+02</rscale>
<asrwt>0</asrwt>
<pdfrwt beam="1">  1        2 0.43599208E-02 0.79998189E+02</pdfrwt>
<pdfrwt beam="2">  1       -1 0.86855036E-02 0.79998189E+02</pdfrwt>
<totfact> 0.13305907E+05</totfact>
</mgrwt>
</event>
<event>
 8    1  0.3132448E-016  0.8078063E+02  0.7818608E-02  0.1326851E+00
         -1   -1    0    0    0  501 -0.00000000000E+00  0.00000000000E+00  0.14839632557E+02  0.14839633413E+02  0.50400000000E-02 0.  1.
          2   -1    0    0  501    0  0.00000000000E+00 -0.00000000000E+00 -0.10993382455E+03  0.10993382458E+03  0.25500000000E-02 0. -1.
         24    2    1    2    0    0  0.35527136788E-14  0.71054273576E-14 -0.95094191997E+02  0.12477345800E+03  0.80780631768E+02 0.  0.
         66    2    3    3    0    0 -0.22223850009E+02 -0.28475957108E+02 -0.75404323229E+02  0.83633675078E+02  0.20000007157E+01 0.  0.
        -13    1    3    3    0    0  0.22223850009E+02  0.28475957108E+02 -0.19689868768E+02  0.41139782919E+02  0.10566000000E+00 0.  1.
         13    1    4    4    0    0 -0.10858875255E+02 -0.13809122206E+02 -0.36650210994E+02  0.40643033325E+02  0.10566000000E+00 0. -1.
        -13    1    4    4    0    0 -0.53894951142E+01 -0.61682854415E+01 -0.15907779817E+02  0.17893099945E+02  0.10566000000E+00 0.  1.
        -14    1    4    4    0    0 -0.59754796402E+01 -0.84985494608E+01 -0.22846332418E+02  0.25097541808E+02  0.00000000000E+00 0.  1.
<mgrwt>
<rscale>  0 0.80780632E+02</rscale>
<asrwt>0</asrwt>
<pdfrwt beam="1">  1        2 0.16912896E-01 0.80780632E+02</pdfrwt>
<pdfrwt beam="2">  1       -1 0.22830205E-02 0.80780632E+02</pdfrwt>
<totfact> 0.17743830E+05</totfact>
</mgrwt>
</event>
<event>
 8    1  0.2603554E-016  0.8173295E+02  0.7818608E-02  0.1324204E+00
          2   -1    0    0  501    0  0.00000000000E+00  0.00000000000E+00  0.57178146254E+03  0.57178146255E+03  0.25500000000E-02 0. -1.
         -1   -1    0    0    0  501 -0.00000000000E+00 -0.00000000000E+00 -0.29208147017E+01  0.29208190500E+01  0.50400000000E-02 0.  1.
         24    2    1    2    0    0  0.00000000000E+00  0.00000000000E+00  0.56886064784E+03  0.57470228160E+03  0.81732954261E+02 0.  0.
         66    2    3    3    0    0  0.13294714548E+02  0.32515164947E+02  0.43109755373E+03  0.43253102343E+03  0.20000024536E+01 0.  0.
        -13    1    3    3    0    0 -0.13294714548E+02 -0.32515164947E+02  0.13776309411E+03  0.14217125817E+03  0.10566000000E+00 0.  1.
         13    1    4    4    0    0  0.61313039940E+01  0.14712372777E+02  0.19598040388E+03  0.19662750741E+03  0.10566000000E+00 0. -1.
        -13    1    4    4    0    0  0.19456667901E+01  0.61439260419E+01  0.73067694651E+02  0.73351432243E+02  0.10566000000E+00 0.  1.
         14    1    4    4    0    0  0.52177437636E+01  0.11658866128E+02  0.16204945520E+03  0.16255208378E+03  0.00000000000E+00 0. -1.
<mgrwt>
<rscale>  0 0.81732954E+02</rscale>
<asrwt>0</asrwt>
<pdfrwt beam="1">  1        2 0.87966305E-01 0.81732954E+02</pdfrwt>
<pdfrwt beam="2">  1       -1 0.44935682E-03 0.81732954E+02</pdfrwt>
<totfact> 0.30002191E+05</totfact>
</mgrwt>
</event>
<event>
 8    1  0.2603554E-016  0.8121385E+02  0.7818608E-02  0.1325642E+00
          2   -1    0    0  501    0  0.00000000000E+00  0.00000000000E+00  0.25745002187E+03  0.25745002189E+03  0.25500000000E-02 0. -1.
         -1   -1    0    0    0  501 -0.00000000000E+00 -0.00000000000E+00 -0.64048241400E+01  0.64048261230E+01  0.50400000000E-02 0.  1.
         24    2    1    2    0    0  0.00000000000E+00  0.00000000000E+00  0.25104519773E+03  0.26385484801E+03  0.81213850499E+02 0.  0.
         66    2    3    3    0    0  0.85862781101E+01  0.18308620190E+02  0.23991085526E+03  0.24076990722E+03  0.20000009590E+01 0.  0.
        -13    1    3    3    0    0 -0.85862781101E+01 -0.18308620190E+02  0.11134342471E+02  0.23084940792E+02  0.10566000000E+00 0.  1.
         13    1    4    4    0    0  0.16237245296E+01  0.25759528323E+01  0.35261650316E+02  0.35393038318E+02  0.10566000000E+00 0. -1.
        -13    1    4    4    0    0  0.33931212909E+01  0.76038250488E+01  0.10816704681E+03  0.10848710802E+03  0.10566000000E+00 0.  1.
        -14    1    4    4    0    0  0.35694322897E+01  0.81288423089E+01  0.96482158136E+02  0.96889760877E+02  0.00000000000E+00 0.  1.
<mgrwt>
<rscale>  0 0.81213850E+02</rscale>
<asrwt>0</asrwt>
<pdfrwt beam="1">  1        2 0.39607699E-01 0.81213850E+02</pdfrwt>
<pdfrwt beam="2">  1       -1 0.98535764E-03 0.81213850E+02</pdfrwt>
<totfact> 0.23184665E+05</totfact>
</mgrwt>
</event>
<event>
 8    1  0.2603554E-016  0.7800124E+02  0.7818608E-02  0.1334821E+00
          2   -1    0    0  501    0  0.00000000000E+00  0.00000000000E+00  0.47260452920E+02  0.47260452989E+02  0.25500000000E-02 0. -1.
         -1   -1    0    0    0  501 -0.00000000000E+00 -0.00000000000E+00 -0.32184380533E+02  0.32184380928E+02  0.50400000000E-02 0.  1.
         24    2    1    2    0    0  0.00000000000E+00  0.00000000000E+00  0.15076072387E+02  0.79444833917E+02  0.78001241512E+02 0.  0.
         66    2    3    3    0    0  0.28987269595E+02  0.16985057403E+02  0.27664350249E+02  0.43566847949E+02  0.19999979843E+01 0.  0.
        -13    1    3    3    0    0 -0.28987269595E+02 -0.16985057403E+02 -0.12588277862E+02  0.35877985968E+02  0.10566000000E+00 0.  1.
         13    1    4    4    0    0  0.13965805732E+02  0.82294181563E+01  0.13844683938E+02  0.21317914774E+02  0.10566000000E+00 0. -1.
        -13    1    4    4    0    0  0.92098436893E+01  0.52150685005E+01  0.76071830077E+01  0.13034514091E+02  0.10566000000E+00 0.  1.
        -14    1    4    4    0    0  0.58116201735E+01  0.35405707459E+01  0.62124833038E+01  0.92144190836E+01  0.00000000000E+00 0.  1.
<mgrwt>
<rscale>  0 0.78001242E+02</rscale>
<asrwt>0</asrwt>
<pdfrwt beam="1">  1        2 0.72708389E-02 0.78001242E+02</pdfrwt>
<pdfrwt beam="2">  1       -1 0.49514432E-02 0.78001242E+02</pdfrwt>
<totfact> 0.15822159E+05</totfact>
</mgrwt>
</event>
<event>
 8    1  0.2603554E-016  0.8031472E+02  0.7818608E-02  0.1328161E+00
          2   -1    0    0  501    0  0.00000000000E+00  0.00000000000E+00  0.10171249569E+03  0.10171249572E+03  0.25500000000E-02 0. -1.
         -1   -1    0    0    0  501 -0.00000000000E+00 -0.00000000000E+00 -0.15854623825E+02  0.15854624626E+02  0.50400000000E-02 0.  1.
         24    2    1    2    0    0  0.00000000000E+00  0.00000000000E+00  0.85857871863E+02  0.11756712035E+03  0.80314716121E+02 0.  0.
         66    2    3    3    0    0  0.72465079572E+01  0.20813723830E+02  0.92051346056E+02  0.94674037027E+02  0.19999997804E+01 0.  0.
        -13    1    3    3    0    0 -0.72465079572E+01 -0.20813723830E+02 -0.61934741926E+01  0.22893083319E+02  0.10566000000E+00 0.  1.
         13    1    4    4    0    0  0.52606564950E+01  0.12869338658E+02  0.59709731454E+02  0.61307076089E+02  0.10566000000E+00 0. -1.
        -13    1    4    4    0    0  0.38020448719E+00  0.16470752707E+01  0.58863502457E+01  0.61251690304E+01  0.10566000000E+00 0.  1.
         14    1    4    4    0    0  0.16056469750E+01  0.62973099009E+01  0.26455264356E+02  0.27241791908E+02  0.00000000000E+00 0. -1.
<mgrwt>
<rscale>  0 0.80314716E+02</rscale>
<asrwt>0</asrwt>
<pdfrwt beam="1">  1        2 0.15648077E-01 0.80314716E+02</pdfrwt>
<pdfrwt beam="2">  1       -1 0.24391729E-02 0.80314716E+02</pdfrwt>
<totfact> 0.17624256E+05</totfact>
</mgrwt>
</event>
<event>
 8    1  0.2603554E-016  0.8222056E+02  0.7818608E-02  0.1322865E+00
         -1   -1    0    0    0  501 -0.00000000000E+00  0.00000000000E+00  0.26663712250E+01  0.26663759883E+01  0.50400000000E-02 0.  1.
          2   -1    0    0  501    0  0.00000000000E+00 -0.00000000000E+00 -0.63384025658E+03  0.63384025659E+03  0.25500000000E-02 0. -1.
         24    2    1    2    0    0  0.00000000000E+00  0.00000000000E+00 -0.63117388536E+03  0.63650663258E+03  0.82220555555E+02 0.  0.
         66    2    3    3    0    0  0.38005683828E+02  0.63745078509E+01 -0.42606743955E+03  0.42781132446E+03  0.19999845795E+01 0.  0.
        -13    1    3    3    0    0 -0.38005683828E+02 -0.63745078509E+01 -0.20510644581E+03  0.20869530812E+03  0.10566000000E+00 0.  1.
         13    1    4    4    0    0  0.11583526437E+02  0.15413146148E+01 -0.12893097467E+03  0.12945949609E+03  0.10566000000E+00 0. -1.
        -13    1    4    4    0    0  0.86347217205E+01  0.18680875992E+01 -0.10491716960E+03  0.10528851700E+03  0.10566000000E+00 0.  1.
         14    1    4    4    0    0  0.17787435670E+02  0.29651056368E+01 -0.19221929528E+03  0.19306331137E+03  0.00000000000E+00 0. -1.
<mgrwt>
<rscale>  0 0.82220556E+02</rscale>
<asrwt>0</asrwt>
<pdfrwt beam="1">  1        2 0.97513766E-01 0.82220556E+02</pdfrwt>
<pdfrwt beam="2">  1       -1 0.41021183E-03 0.82220556E+02</pdfrwt>
<totfact> 0.30397440E+05</totfact>
</mgrwt>
</event>
<event>
 8    1  0.2603554E-016  0.7875474E+02  0.7818608E-02  0.1332623E+00
         -1   -1    0    0    0  501 -0.00000000000E+00  0.00000000000E+00  0.34351856772E+02  0.34351857142E+02  0.50400000000E-02 0.  1.
          2   -1    0    0  501    0  0.00000000000E+00 -0.00000000000E+00 -0.45138096412E+02  0.45138096484E+02  0.25500000000E-02 0. -1.
         24    2    1    2    0    0  0.00000000000E+00 -0.35527136788E-14 -0.10786239640E+02  0.79489953625E+02  0.78754744377E+02 0.  0.
         66    2    3    3    0    0 -0.26280931522E+02  0.28658059911E+02 -0.11502920651E+02  0.40599124947E+02  0.20000008543E+01 0.  0.
        -13    1    3    3    0    0  0.26280931522E+02 -0.28658059911E+02  0.71668101092E+00  0.38890828678E+02  0.10566000000E+00 0.  1.
         13    1    4    4    0    0 -0.59509137407E+01  0.74472891117E+01 -0.29192754035E+01  0.99703973030E+01  0.10566000000E+00 0. -1.
        -13    1    4    4    0    0 -0.67894613421E+01  0.63501622210E+01 -0.27540665837E+01  0.96962566144E+01  0.10566000000E+00 0.  1.
        -14    1    4    4    0    0 -0.13540556440E+02  0.14860608579E+02 -0.58295786634E+01  0.20932471030E+02  0.00000000000E+00 0.  1.
<mgrwt>
<rscale>  0 0.78754744E+02</rscale>
<asrwt>0</asrwt>
<pdfrwt beam="1">  1        2 0.69443225E-02 0.78754744E+02</pdfrwt>
<pdfrwt beam="2">  1       -1 0.52849011E-02 0.78754744E+02</pdfrwt>
<totfact> 0.15262500E+05</totfact>
</mgrwt>
</event>
<event>
 8    1  0.2603554E-016  0.7782864E+02  0.7818608E-02  0.1335329E+00
         -1   -1    0    0    0  501 -0.00000000000E+00  0.00000000000E+00  0.54301187887E+01  0.54301211277E+01  0.50400000000E-02 0.  1.
          2   -1    0    0  501    0  0.00000000000E+00 -0.00000000000E+00 -0.27887495024E+03  0.27887495025E+03  0.25500000000E-02 0. -1.
         24    2    1    2    0    0  0.00000000000E+00  0.00000000000E+00 -0.27344483145E+03  0.28430507138E+03  0.77828643600E+02 0.  0.
         66    2    3    3    0    0 -0.47683507622E+01 -0.38113572898E+02 -0.11461100144E+03  0.12089277585E+03  0.19999987662E+01 0.  0.
        -13    1    3    3    0    0  0.47683507622E+01  0.38113572898E+02 -0.15883383001E+03  0.16341229553E+03  0.10566000000E+00 0.  1.
         13    1    4    4    0    0 -0.15138382602E+01 -0.91054691339E+01 -0.26948703373E+02  0.28485874604E+02  0.10566000000E+00 0.  1.
        -13    1    4    4    0    0 -0.25654625589E+01 -0.26561600042E+02 -0.80358719865E+02  0.84673698498E+02  0.10566000000E+00 0. -1.
        -14    1    4    4    0    0 -0.68904994322E+00 -0.24465037224E+01 -0.73035781983E+01  0.77332027509E+01  0.00000000000E+00 0.  1.
<mgrwt>
<rscale>  0 0.77828644E+02</rscale>
<asrwt>0</asrwt>
<pdfrwt beam="1">  1        2 0.42903827E-01 0.77828644E+02</pdfrwt>
<pdfrwt beam="2">  1       -1 0.83540329E-03 0.77828644E+02</pdfrwt>
<totfact> 0.26685722E+05</totfact>
</mgrwt>
</event>
<event>
 8    1  0.2603554E-016  0.7961370E+02  0.7818608E-02  0.1330151E+00
          2   -1    0    0  501    0  0.00000000000E+00  0.00000000000E+00  0.40911322242E+02  0.40911322322E+02  0.25500000000E-02 0. -1.
         -1   -1    0    0    0  501 -0.00000000000E+00 -0.00000000000E+00 -0.38732195768E+02  0.38732196096E+02  0.50400000000E-02 0.  1.
         24    2    1    2    0    0 -0.35527136788E-14  0.35527136788E-14  0.21791264742E+01  0.79643518417E+02  0.79613701294E+02 0.  0.
         66    2    3    3    0    0  0.17552450591E+02 -0.17167906275E+02  0.32403008247E+02  0.40703568223E+02  0.19999987549E+01 0.  0.
        -13    1    3    3    0    0 -0.17552450591E+02  0.17167906275E+02 -0.30223881773E+02  0.38939950194E+02  0.10566000000E+00 0.  1.
         13    1    4    4    0    0  0.26920953690E+01 -0.29038942856E+01  0.58373406610E+01  0.70544801032E+01  0.10566000000E+00 0. -1.
        -13    1    4    4    0    0  0.34859067602E+01 -0.35314788748E+01  0.54255794320E+01  0.73532962127E+01  0.10566000000E+00 0.  1.
        -14    1    4    4    0    0  0.11374448462E+02 -0.10732533115E+02  0.21140088154E+02  0.26295791908E+02  0.00000000000E+00 0.  1.
<mgrwt>
<rscale>  0 0.79613701E+02</rscale>
<asrwt>0</asrwt>
<pdfrwt beam="1">  1        2 0.62940496E-02 0.79613701E+02</pdfrwt>
<pdfrwt beam="2">  1       -1 0.59587994E-02 0.79613701E+02</pdfrwt>
<totfact> 0.14514201E+05</totfact>
</mgrwt>
</event>
<event>
 8    1  0.2603554E-016  0.8008563E+02  0.7818608E-02  0.1328809E+00
          2   -1    0    0  501    0  0.00000000000E+00  0.00000000000E+00  0.97127039114E+03  0.97127039115E+03  0.25500000000E-02 0. -1.
         -1   -1    0    0    0  501 -0.00000000000E+00 -0.00000000000E+00 -0.16508517446E+01  0.16508594381E+01  0.50400000000E-02 0.  1.
         24    2    1    2    0    0  0.17763568394E-14  0.00000000000E+00  0.96961953940E+03  0.97292125059E+03  0.80085633266E+02 0.  0.
         66    2    3    3    0    0 -0.12168635835E+02 -0.26784948870E+02  0.81467266839E+03  0.81520614927E+03  0.19999994693E+01 0.  0.
        -13    1    3    3    0    0  0.12168635835E+02  0.26784948870E+02  0.15494687101E+03  0.15771510132E+03  0.10566000000E+00 0.  1.
         13    1    4    4    0    0 -0.51284062243E+01 -0.11156316250E+02  0.31976628495E+03  0.32000195639E+03  0.10566000000E+00 0. -1.
        -13    1    4    4    0    0 -0.58874175116E-01 -0.40553678496E+00  0.12973335167E+02  0.12980235577E+02  0.10566000000E+00 0.  1.
         14    1    4    4    0    0 -0.69813554354E+01 -0.15223095835E+02  0.48193304828E+03  0.48222395730E+03  0.00000000000E+00 0. -1.
<mgrwt>
<rscale>  0 0.80085633E+02</rscale>
<asrwt>0</asrwt>
<pdfrwt beam="1">  1        2 0.14942688E+00 0.80085633E+02</pdfrwt>
<pdfrwt beam="2">  1       -1 0.25397666E-03 0.80085633E+02</pdfrwt>
<totfact> 0.35080239E+05</totfact>
</mgrwt>
</event>
<event>
 8    1  0.2603554E-016  0.8256444E+02  0.7818608E-02  0.1321928E+00
          2   -1    0    0  501    0  0.00000000000E+00  0.00000000000E+00  0.22793704244E+03  0.22793704246E+03  0.25500000000E-02 0. -1.
         -1   -1    0    0    0  501 -0.00000000000E+00 -0.00000000000E+00 -0.74767208817E+01  0.74767225804E+01  0.50400000000E-02 0.  1.
         24    2    1    2    0    0  0.00000000000E+00  0.00000000000E+00  0.22046032156E+03  0.23541376504E+03  0.82564443838E+02 0.  0.
         66    2    3    3    0    0 -0.13075997858E+02 -0.35098339865E+02  0.15962594039E+03  0.16397352233E+03  0.19999998935E+01 0.  0.
        -13    1    3    3    0    0  0.13075997858E+02  0.35098339865E+02  0.60834381176E+02  0.71440242709E+02  0.10566000000E+00 0.  1.
         13    1    4    4    0    0 -0.24042034099E+01 -0.53504121338E+01  0.25852652158E+02  0.26509958349E+02  0.10566000000E+00 0. -1.
        -13    1    4    4    0    0 -0.68888487511E+01 -0.17115039434E+02  0.77540593333E+02  0.79705304657E+02  0.10566000000E+00 0.  1.
         14    1    4    4    0    0 -0.37829456975E+01 -0.12632888297E+02  0.56232694894E+02  0.57758259322E+02  0.00000000000E+00 0. -1.
<mgrwt>
<rscale>  0 0.82564444E+02</rscale>
<asrwt>0</asrwt>
<pdfrwt beam="1">  1        2 0.35067234E-01 0.82564444E+02</pdfrwt>
<pdfrwt beam="2">  1       -1 0.11502650E-02 0.82564444E+02</pdfrwt>
<totfact> 0.21251092E+05</totfact>
</mgrwt>
</event>
<event>
 8    1  0.2603554E-016  0.7863436E+02  0.7818608E-02  0.1332972E+00
          2   -1    0    0  501    0  0.00000000000E+00  0.00000000000E+00  0.21234826781E+04  0.21234826781E+04  0.25500000000E-02 0. -1.
         -1   -1    0    0    0  501 -0.00000000000E+00 -0.00000000000E+00 -0.72796551016E+00  0.72798295693E+00  0.50400000000E-02 0.  1.
         24    2    1    2    0    0  0.22204460493E-15  0.17763568394E-14  0.21227547126E+04  0.21242106611E+04  0.78634361014E+02 0.  0.
         66    2    3    3    0    0  0.15296678887E+01  0.15851240535E+02  0.20323920642E+04  0.20324554373E+04  0.20000059786E+01 0.  0.
        -13    1    3    3    0    0 -0.15296678887E+01 -0.15851240535E+02  0.90362648398E+02  0.91755223829E+02  0.10566000000E+00 0.  1.
         13    1    4    4    0    0  0.52893077540E+00  0.75518091502E+01  0.93190204739E+03  0.93193280160E+03  0.10566000000E+00 0. -1.
        -13    1    4    4    0    0  0.10649327289E+00  0.18230234410E+01  0.17611837919E+03  0.17612787800E+03  0.10566000000E+00 0.  1.
        -14    1    4    4    0    0  0.89424384037E+00  0.64764079437E+01  0.92437163764E+03  0.92439475767E+03  0.00000000000E+00 0.  1.
<mgrwt>
<rscale>  0 0.78634361E+02</rscale>
<asrwt>0</asrwt>
<pdfrwt beam="1">  1        2 0.32668925E+00 0.78634361E+02</pdfrwt>
<pdfrwt beam="2">  1       -1 0.11199617E-03 0.78634361E+02</pdfrwt>
<totfact> 0.27339227E+05</totfact>
</mgrwt>
</event>
<event>
 8    1  0.2603554E-016  0.7942218E+02  0.7818608E-02  0.1330699E+00
          2   -1    0    0  501    0  0.00000000000E+00  0.00000000000E+00  0.10418619900E+04  0.10418619900E+04  0.25500000000E-02 0. -1.
         -1   -1    0    0    0  501 -0.00000000000E+00 -0.00000000000E+00 -0.15136037875E+01  0.15136121786E+01  0.50400000000E-02 0.  1.
         24    2    1    2    0    0  0.00000000000E+00 -0.17763568394E-14  0.10403483862E+04  0.10433756022E+04  0.79422179100E+02 0.  0.
         66    2    3    3    0    0 -0.18417395163E+02  0.13056521409E+02  0.94928193497E+03  0.94955245524E+03  0.19999994291E+01 0.  0.
        -13    1    3    3    0    0  0.18417395163E+02 -0.13056521409E+02  0.91066451236E+02  0.93823146935E+02  0.10566000000E+00 0.  1.
         13    1    4    4    0    0 -0.50284951359E+01  0.40297461753E+01  0.25007603147E+03  0.25015906399E+03  0.10566000000E+00 0. -1.
        -13    1    4    4    0    0 -0.87201796273E+01  0.53012310049E+01  0.42659573516E+03  0.42671779551E+03  0.10566000000E+00 0.  1.
         14    1    4    4    0    0 -0.46687204001E+01  0.37255442286E+01  0.27261016834E+03  0.27267559574E+03  0.00000000000E+00 0. -1.
<mgrwt>
<rscale>  0 0.79422179E+02</rscale>
<asrwt>0</asrwt>
<pdfrwt beam="1">  1        2 0.16028658E+00 0.79422179E+02</pdfrwt>
<pdfrwt beam="2">  1       -1 0.23286259E-03 0.79422179E+02</pdfrwt>
<totfact> 0.35940026E+05</totfact>
</mgrwt>
</event>
<event>
 8    1  0.2603554E-016  0.8001918E+02  0.7818608E-02  0.1328997E+00
          2   -1    0    0  501    0  0.00000000000E+00  0.00000000000E+00  0.46740414993E+03  0.46740414994E+03  0.25500000000E-02 0. -1.
         -1   -1    0    0    0  501 -0.00000000000E+00 -0.00000000000E+00 -0.34248011141E+01  0.34248048226E+01  0.50400000000E-02 0.  1.
         24    2    1    2    0    0 -0.35527136788E-14  0.00000000000E+00  0.46397934881E+03  0.47082895476E+03  0.80019175904E+02 0.  0.
         66    2    3    3    0    0  0.24963863496E+02 -0.45507795222E+01  0.41395287590E+03  0.41473471949E+03  0.20000007471E+01 0.  0.
        -13    1    3    3    0    0 -0.24963863496E+02  0.45507795222E+01  0.50026472911E+02  0.56094235273E+02  0.10566000000E+00 0.  1.
         13    1    4    4    0    0  0.37964337053E+01 -0.54793736689E+00  0.56773639740E+02  0.56903167553E+02  0.10566000000E+00 0. -1.
        -13    1    4    4    0    0  0.82860369943E+01 -0.16371110875E+01  0.12801171289E+03  0.12829009448E+03  0.10566000000E+00 0.  1.
         14    1    4    4    0    0  0.12881392796E+02 -0.23657310679E+01  0.22916752327E+03  0.22954145745E+03  0.00000000000E+00 0. -1.
<mgrwt>
<rscale>  0 0.80019176E+02</rscale>
<asrwt>0</asrwt>
<pdfrwt beam="1">  1        2 0.71908356E-01 0.80019176E+02</pdfrwt>
<pdfrwt beam="2">  1       -1 0.52689258E-03 0.80019176E+02</pdfrwt>
<totfact> 0.29773843E+05</totfact>
</mgrwt>
</event>
<event>
 8    1  0.2603554E-016  0.8026088E+02  0.7818608E-02  0.1328313E+00
          2   -1    0    0  501    0  0.00000000000E+00  0.00000000000E+00  0.30296920746E+03  0.30296920747E+03  0.25500000000E-02 0. -1.
         -1   -1    0    0    0  501 -0.00000000000E+00 -0.00000000000E+00 -0.53155622898E+01  0.53155646792E+01  0.50400000000E-02 0.  1.
         24    2    1    2    0    0 -0.35527136788E-14  0.00000000000E+00  0.29765364517E+03  0.30828477215E+03  0.80260876250E+02 0.  0.
         66    2    3    3    0    0  0.30766104035E+02 -0.24953984033E+02  0.17296539252E+03  0.17745501257E+03  0.20000007259E+01 0.  0.
        -13    1    3    3    0    0 -0.30766104035E+02  0.24953984033E+02  0.12468825266E+03  0.13082975958E+03  0.10566000000E+00 0.  1.
         13    1    4    4    0    0  0.19459641380E+02 -0.15456067072E+02  0.10896486259E+03  0.11176278493E+03  0.10566000000E+00 0. -1.
        -13    1    4    4    0    0  0.75954449699E+01 -0.56710143606E+01  0.40461379449E+02  0.41557016004E+02  0.10566000000E+00 0.  1.
        -14    1    4    4    0    0  0.37110176858E+01 -0.38269026007E+01  0.23539150474E+02  0.24135211638E+02  0.00000000000E+00 0.  1.
<mgrwt>
<rscale>  0 0.80260876E+02</rscale>
<asrwt>0</asrwt>
<pdfrwt beam="1">  1        2 0.46610645E-01 0.80260876E+02</pdfrwt>
<pdfrwt beam="2">  1       -1 0.81777905E-03 0.80260876E+02</pdfrwt>
<totfact> 0.25368075E+05</totfact>
</mgrwt>
</event>
<event>
 8    1  0.2603554E-016  0.7939965E+02  0.7818608E-02  0.1330764E+00
         -1   -1    0    0    0  501 -0.00000000000E+00  0.00000000000E+00  0.46148769034E+01  0.46148796555E+01  0.50400000000E-02 0.  1.
          2   -1    0    0  501    0  0.00000000000E+00 -0.00000000000E+00 -0.34152061613E+03  0.34152061614E+03  0.25500000000E-02 0. -1.
         24    2    1    2    0    0  0.00000000000E+00  0.00000000000E+00 -0.33690573922E+03  0.34613549579E+03  0.79399649403E+02 0.  0.
         66    2    3    3    0    0  0.22553666492E+02  0.32873299510E+01 -0.31012929910E+03  0.31097211541E+03  0.19999971094E+01 0.  0.
        -13    1    3    3    0    0 -0.22553666492E+02 -0.32873299510E+01 -0.26776440117E+02  0.35163380381E+02  0.10566000000E+00 0.  1.
         13    1    4    4    0    0  0.17791741113E+02  0.28353325699E+01 -0.23553393735E+03  0.23622199722E+03  0.10566000000E+00 0. -1.
        -13    1    4    4    0    0  0.55419211756E+00  0.13958096284E+00 -0.10432555847E+02  0.10448731851E+02  0.10566000000E+00 0.  1.
         14    1    4    4    0    0  0.42077332621E+01  0.31241641824E+00 -0.64162805903E+02  0.64301386334E+02  0.00000000000E+00 0. -1.
<mgrwt>
<rscale>  0 0.79399649E+02</rscale>
<asrwt>0</asrwt>
<pdfrwt beam="1">  1        2 0.52541613E-01 0.79399649E+02</pdfrwt>
<pdfrwt beam="2">  1       -1 0.70998155E-03 0.79399649E+02</pdfrwt>
<totfact> 0.27245919E+05</totfact>
</mgrwt>
</event>
<event>
 8    1  0.2603554E-016  0.8038219E+02  0.7818608E-02  0.1327970E+00
         -1   -1    0    0    0  501 -0.00000000000E+00  0.00000000000E+00  0.16580797175E+02  0.16580797941E+02  0.50400000000E-02 0.  1.
          2   -1    0    0  501    0  0.00000000000E+00 -0.00000000000E+00 -0.97421364686E+02  0.97421364719E+02  0.25500000000E-02 0. -1.
         24    2    1    2    0    0  0.00000000000E+00  0.00000000000E+00 -0.80840567511E+02  0.11400216266E+03  0.80382185437E+02 0.  0.
         66    2    3    3    0    0  0.34658508500E+02  0.18047444429E+02 -0.27262627980E+02  0.47688293596E+02  0.19999999528E+01 0.  0.
        -13    1    3    3    0    0 -0.34658508500E+02 -0.18047444429E+02 -0.53577939531E+02  0.66313869064E+02  0.10566000000E+00 0.  1.
         13    1    4    4    0    0  0.14509328616E+02  0.72388946997E+01 -0.10369669645E+02  0.19247426475E+02  0.10566000000E+00 0. -1.
        -13    1    4    4    0    0  0.98443083380E+01  0.48464193517E+01 -0.79197455359E+01  0.13532616915E+02  0.10566000000E+00 0.  1.
        -14    1    4    4    0    0  0.10304871546E+02  0.59621303772E+01 -0.89732127998E+01  0.14908250205E+02  0.00000000000E+00 0.  1.
<mgrwt>
<rscale>  0 0.80382185E+02</rscale>
<asrwt>0</asrwt>
<pdfrwt beam="1">  1        2 0.14987902E-01 0.80382185E+02</pdfrwt>
<pdfrwt beam="2">  1       -1 0.25508920E-02 0.80382185E+02</pdfrwt>
<totfact> 0.17373881E+05</totfact>
</mgrwt>
</event>
<event>
 8    1  0.2603554E-016  0.8042482E+02  0.7818608E-02  0.1327850E+00
         -1   -1    0    0    0  501 -0.00000000000E+00  0.00000000000E+00  0.37119472275E+02  0.37119472617E+02  0.50400000000E-02 0.  1.
          2   -1    0    0  501    0  0.00000000000E+00 -0.00000000000E+00 -0.43563066958E+02  0.43563067033E+02  0.25500000000E-02 0. -1.
         24    2    1    2    0    0  0.00000000000E+00  0.00000000000E+00 -0.64435946834E+01  0.80682539650E+02  0.80424823854E+02 0.  0.
         66    2    3    3    0    0 -0.37190091370E+02  0.10201308644E+02 -0.14567693667E+02  0.41272112826E+02  0.20000010604E+01 0.  0.
        -13    1    3    3    0    0  0.37190091370E+02 -0.10201308644E+02  0.81240989832E+01  0.39410426824E+02  0.10566000000E+00 0.  1.
         13    1    4    4    0    0 -0.27795011562E+02  0.71697184759E+01 -0.10899072097E+02  0.30704534965E+02  0.10566000000E+00 0. -1.
        -13    1    4    4    0    0 -0.58128353029E+01  0.20033387558E+01 -0.18560294741E+01  0.64232725206E+01  0.10566000000E+00 0.  1.
        -14    1    4    4    0    0 -0.35822445044E+01  0.10282514121E+01 -0.18125920951E+01  0.41443053409E+01  0.00000000000E+00 0.  1.
<mgrwt>
<rscale>  0 0.80424824E+02</rscale>
<asrwt>0</asrwt>
<pdfrwt beam="1">  1        2 0.67020103E-02 0.80424824E+02</pdfrwt>
<pdfrwt beam="2">  1       -1 0.57106881E-02 0.80424824E+02</pdfrwt>
<totfact> 0.14299610E+05</totfact>
</mgrwt>
</event>
<event>
 8    1  0.2603554E-016  0.7910601E+02  0.7818608E-02  0.1331608E+00
         -1   -1    0    0    0  501 -0.00000000000E+00  0.00000000000E+00  0.14660150402E+01  0.14660237037E+01  0.50400000000E-02 0.  1.
          2   -1    0    0  501    0  0.00000000000E+00 -0.00000000000E+00 -0.10671346099E+04  0.10671346099E+04  0.25500000000E-02 0. -1.
         24    2    1    2    0    0  0.88817841970E-15  0.35527136788E-14 -0.10656685949E+04  0.10686006336E+04  0.79106005300E+02 0.  0.
         66    2    3    3    0    0 -0.60315973113E+01 -0.27483571586E+02 -0.90819094376E+03  0.90862892163E+03  0.20000050276E+01 0.  0.
        -13    1    3    3    0    0  0.60315973113E+01  0.27483571586E+02 -0.15747765113E+03  0.15997171201E+03  0.10566000000E+00 0.  1.
         13    1    4    4    0    0 -0.26840241230E+01 -0.11155584044E+02 -0.39161526791E+03  0.39178333331E+03  0.10566000000E+00 0. -1.
        -13    1    4    4    0    0 -0.10511217445E+01 -0.76664408026E+01 -0.24296318535E+03  0.24308640392E+03  0.10566000000E+00 0. -1.
         14    1    4    4    0    0 -0.22964514438E+01 -0.86615467397E+01 -0.27361249051E+03  0.27375918440E+03  0.00000000000E+00 0. -1.
<mgrwt>
<rscale>  0 0.79106005E+02</rscale>
<asrwt>0</asrwt>
<pdfrwt beam="1">  1        2 0.16417393E+00 0.79106005E+02</pdfrwt>
<pdfrwt beam="2">  1       -1 0.22554230E-03 0.79106005E+02</pdfrwt>
<totfact> 0.36315977E+05</totfact>
</mgrwt>
</event>
<event>
 8    1  0.2603554E-016  0.8653157E+02  0.7818608E-02  0.1311475E+00
          2   -1    0    0  501    0  0.00000000000E+00  0.00000000000E+00  0.45002181818E+03  0.45002181819E+03  0.25500000000E-02 0. -1.
         -1   -1    0    0    0  501 -0.00000000000E+00 -0.00000000000E+00 -0.41596374302E+01  0.41596404836E+01  0.50400000000E-02 0.  1.
         24    2    1    2    0    0  0.00000000000E+00  0.35527136788E-14  0.44586218075E+03  0.45418145868E+03  0.86531573298E+02 0.  0.
         66    2    3    3    0    0 -0.19715749024E+02 -0.27051926346E+02  0.36673547274E+03  0.36826542662E+03  0.20000001331E+01 0.  0.
        -13    1    3    3    0    0  0.19715749024E+02  0.27051926346E+02  0.79126708014E+02  0.85916032053E+02  0.10566000000E+00 0.  1.
         13    1    4    4    0    0 -0.48424634198E+01 -0.64781737060E+01  0.83291242160E+02  0.83683082945E+02  0.10566000000E+00 0. -1.
        -13    1    4    4    0    0 -0.85255920035E+01 -0.12759219977E+02  0.17546185983E+03  0.17613165199E+03  0.10566000000E+00 0.  1.
        -14    1    4    4    0    0 -0.63476936006E+01 -0.78145326629E+01  0.10798237075E+03  0.10845069169E+03  0.00000000000E+00 0.  1.
<mgrwt>
<rscale>  0 0.86531573E+02</rscale>
<asrwt>0</asrwt>
<pdfrwt beam="1">  1        2 0.69234168E-01 0.86531573E+02</pdfrwt>
<pdfrwt beam="2">  1       -1 0.63994407E-03 0.86531573E+02</pdfrwt>
<totfact> 0.23953190E+05</totfact>
</mgrwt>
</event>
<event>
 8    1  0.2603554E-016  0.7824522E+02  0.7818608E-02  0.1334106E+00
         -1   -1    0    0    0  501 -0.00000000000E+00  0.00000000000E+00  0.12106934504E+02  0.12106935554E+02  0.50400000000E-02 0.  1.
          2   -1    0    0  501    0  0.00000000000E+00 -0.00000000000E+00 -0.12642164445E+03  0.12642164448E+03  0.25500000000E-02 0. -1.
         24    2    1    2    0    0  0.00000000000E+00  0.00000000000E+00 -0.11431470995E+03  0.13852858003E+03  0.78245220782E+02 0.  0.
         66    2    3    3    0    0 -0.60149263666E+01  0.35742692964E+02 -0.83145562139E+02  0.90724329398E+02  0.20000004628E+01 0.  0.
        -13    1    3    3    0    0  0.60149263666E+01 -0.35742692964E+02 -0.31169147811E+02  0.47804250636E+02  0.10566000000E+00 0.  1.
         13    1    4    4    0    0 -0.36973602363E+01  0.17698994670E+02 -0.41761916803E+02  0.45508172279E+02  0.10566000000E+00 0. -1.
        -13    1    4    4    0    0 -0.11241412309E+00  0.34590114129E+00 -0.10156856203E+01  0.10840045431E+01  0.10566000000E+00 0.  1.
         14    1    4    4    0    0 -0.22051520072E+01  0.17697797153E+02 -0.40367959716E+02  0.44132152577E+02  0.00000000000E+00 0. -1.
<mgrwt>
<rscale>  0 0.78245221E+02</rscale>
<asrwt>0</asrwt>
<pdfrwt beam="1">  1        2 0.19449483E-01 0.78245221E+02</pdfrwt>
<pdfrwt beam="2">  1       -1 0.18626055E-02 0.78245221E+02</pdfrwt>
<totfact> 0.20136996E+05</totfact>
</mgrwt>
</event>
<event>
 8    1  0.2603554E-016  0.7872499E+02  0.7818608E-02  0.1332709E+00
          2   -1    0    0  501    0  0.00000000000E+00  0.00000000000E+00  0.11148327301E+03  0.11148327304E+03  0.25500000000E-02 0. -1.
         -1   -1    0    0    0  501 -0.00000000000E+00 -0.00000000000E+00 -0.13898102467E+02  0.13898103381E+02  0.50400000000E-02 0.  1.
         24    2    1    2    0    0  0.44408920985E-15 -0.35527136788E-14  0.97585170545E+02  0.12538137642E+03  0.78724989954E+02 0.  0.
         66    2    3    3    0    0  0.22354771217E+01 -0.21794570157E+02  0.10085761618E+03  0.10322915959E+03  0.20000005251E+01 0.  0.
        -13    1    3    3    0    0 -0.22354771217E+01  0.21794570157E+02 -0.32724456309E+01  0.22152216835E+02  0.10566000000E+00 0.  1.
         13    1    4    4    0    0  0.76301516721E+00 -0.47801527032E+01  0.24539057115E+02  0.25012167842E+02  0.10566000000E+00 0. -1.
        -13    1    4    4    0    0  0.10736231870E+01 -0.53877148567E+01  0.24490857925E+02  0.25099669800E+02  0.10566000000E+00 0.  1.
         14    1    4    4    0    0  0.39883876755E+00 -0.11626702597E+02  0.51827701136E+02  0.53117321946E+02  0.00000000000E+00 0. -1.
<mgrwt>
<rscale>  0 0.78724990E+02</rscale>
<asrwt>0</asrwt>
<pdfrwt beam="1">  1        2 0.17151272E-01 0.78724990E+02</pdfrwt>
<pdfrwt beam="2">  1       -1 0.21381698E-02 0.78724990E+02</pdfrwt>
<totfact> 0.19085957E+05</totfact>
</mgrwt>
</event>
<event>
 8    1  0.2603554E-016  0.7992386E+02  0.7818608E-02  0.1329268E+00
          2   -1    0    0  501    0  0.00000000000E+00  0.00000000000E+00  0.52529468628E+02  0.52529468690E+02  0.25500000000E-02 0. -1.
         -1   -1    0    0    0  501 -0.00000000000E+00 -0.00000000000E+00 -0.30401143612E+02  0.30401144029E+02  0.50400000000E-02 0.  1.
         24    2    1    2    0    0  0.00000000000E+00  0.00000000000E+00  0.22128325017E+02  0.82930612720E+02  0.79923862257E+02 0.  0.
         66    2    3    3    0    0  0.35311062313E+02 -0.16770832191E+02  0.25892614783E+01  0.39228002935E+02  0.20000013102E+01 0.  0.
        -13    1    3    3    0    0 -0.35311062313E+02  0.16770832191E+02  0.19539063538E+02  0.43702609785E+02  0.10566000000E+00 0.  1.
         13    1    4    4    0    0  0.13610757808E+02 -0.66071212934E+01  0.17467578516E+01  0.15230532063E+02  0.10566000000E+00 0. -1.
        -13    1    4    4    0    0  0.19729502264E+02 -0.93841204164E+01  0.52238320363E+00  0.21854039073E+02  0.10566000000E+00 0.  1.
        -14    1    4    4    0    0  0.19708022404E+01 -0.77959048082E+00  0.32012042302E+00  0.21434317982E+01  0.00000000000E+00 0.  1.
<mgrwt>
<rscale>  0 0.79923862E+02</rscale>
<asrwt>0</asrwt>
<pdfrwt beam="1">  1        2 0.80814566E-02 0.79923862E+02</pdfrwt>
<pdfrwt beam="2">  1       -1 0.46770991E-02 0.79923862E+02</pdfrwt>
<totfact> 0.15144991E+05</totfact>
</mgrwt>
</event>
<event>
 8    1  0.2603554E-016  0.7969988E+02  0.7818608E-02  0.1329905E+00
         -1   -1    0    0    0  501 -0.00000000000E+00  0.00000000000E+00  0.14861417677E+03  0.14861417685E+03  0.50400000000E-02 0.  1.
          2   -1    0    0  501    0  0.00000000000E+00 -0.00000000000E+00 -0.10685506512E+02  0.10685506817E+02  0.25500000000E-02 0. -1.
         24    2    1    2    0    0  0.00000000000E+00  0.00000000000E+00  0.13792867025E+03  0.15929968367E+03  0.79699881674E+02 0.  0.
         66    2    3    3    0    0  0.14565144844E+02  0.30715159826E+02  0.27539196245E+02  0.43794655105E+02  0.19999996129E+01 0.  0.
        -13    1    3    3    0    0 -0.14565144844E+02 -0.30715159826E+02  0.11038947401E+03  0.11550502856E+03  0.10566000000E+00 0.  1.
         13    1    4    4    0    0  0.75423780166E+00  0.17163332117E+01  0.12387733398E+01  0.22495327911E+01  0.10566000000E+00 0. -1.
        -13    1    4    4    0    0  0.14124803277E+01  0.40029494200E+01  0.30926006117E+01  0.52530036469E+01  0.10566000000E+00 0.  1.
        -14    1    4    4    0    0  0.12398426715E+02  0.24995877194E+02  0.23207822293E+02  0.36292118666E+02  0.00000000000E+00 0.  1.
<mgrwt>
<rscale>  0 0.79699882E+02</rscale>
<asrwt>0</asrwt>
<pdfrwt beam="1">  1        2 0.16439241E-02 0.79699882E+02</pdfrwt>
<pdfrwt beam="2">  1       -1 0.22863720E-01 0.79699882E+02</pdfrwt>
<totfact> 0.10915926E+05</totfact>
</mgrwt>
</event>
<event>
 8    1  0.2603554E-016  0.8014788E+02  0.7818608E-02  0.1328632E+00
          2   -1    0    0  501    0  0.00000000000E+00  0.00000000000E+00  0.84930484921E+03  0.84930484922E+03  0.25500000000E-02 0. -1.
         -1   -1    0    0    0  501 -0.00000000000E+00 -0.00000000000E+00 -0.18908616636E+01  0.18908683805E+01  0.50400000000E-02 0.  1.
         24    2    1    2    0    0  0.35527136788E-14  0.00000000000E+00  0.84741398755E+03  0.85119571760E+03  0.80147884323E+02 0.  0.
         66    2    3    3    0    0  0.31881587982E+02 -0.47094036938E+01  0.67647948552E+03  0.67724966480E+03  0.20000020030E+01 0.  0.
        -13    1    3    3    0    0 -0.31881587982E+02  0.47094036938E+01  0.17093450203E+03  0.17394605279E+03  0.10566000000E+00 0.  1.
         13    1    4    4    0    0  0.20018141533E+02 -0.31246276346E+01  0.42886287598E+03  0.42934120097E+03  0.10566000000E+00 0. -1.
        -13    1    4    4    0    0  0.46074397556E+01 -0.84879206712E+00  0.10769729526E+03  0.10779920000E+03  0.10566000000E+00 0.  1.
        -14    1    4    4    0    0  0.72560066933E+01 -0.73598399209E+00  0.13991931427E+03  0.14010926384E+03  0.00000000000E+00 0.  1.
<mgrwt>
<rscale>  0 0.80147884E+02</rscale>
<asrwt>0</asrwt>
<pdfrwt beam="1">  1        2 0.13066216E+00 0.80147884E+02</pdfrwt>
<pdfrwt beam="2">  1       -1 0.29090260E-03 0.80147884E+02</pdfrwt>
<totfact> 0.34525245E+05</totfact>
</mgrwt>
</event>
<event>
 8    1  0.2603554E-016  0.7924964E+02  0.7818608E-02  0.1331194E+00
         -1   -1    0    0    0  501 -0.00000000000E+00  0.00000000000E+00  0.77967367277E+01  0.77967383566E+01  0.50400000000E-02 0.  1.
          2   -1    0    0  501    0  0.00000000000E+00 -0.00000000000E+00 -0.20138247001E+03  0.20138247003E+03  0.25500000000E-02 0. -1.
         24    2    1    2    0    0  0.00000000000E+00 -0.17763568394E-14 -0.19358573328E+03  0.20917920838E+03  0.79249637786E+02 0.  0.
         66    2    3    3    0    0  0.19312016590E+02  0.58660967503E+01 -0.18678168046E+03  0.18787964560E+03  0.19999997969E+01 0.  0.
        -13    1    3    3    0    0 -0.19312016590E+02 -0.58660967503E+01 -0.68040528195E+01  0.21299562781E+02  0.10566000000E+00 0.  1.
         13    1    4    4    0    0  0.10077520685E+01  0.28907155161E+00 -0.65591584213E+01  0.66432559656E+01  0.10566000000E+00 0. -1.
        -13    1    4    4    0    0  0.37420759722E+01  0.11174444509E+01 -0.38794752842E+02  0.38990971093E+02  0.10566000000E+00 0.  1.
         14    1    4    4    0    0  0.14562188549E+02  0.44595807478E+01 -0.14142776920E+03  0.14224541855E+03  0.00000000000E+00 0. -1.
<mgrwt>
<rscale>  0 0.79249638E+02</rscale>
<asrwt>0</asrwt>
<pdfrwt beam="1">  1        2 0.30981915E-01 0.79249638E+02</pdfrwt>
<pdfrwt beam="2">  1       -1 0.11994982E-02 0.79249638E+02</pdfrwt>
<totfact> 0.22667804E+05</totfact>
</mgrwt>
</event>
<event>
 8    1  0.2603554E-016  0.8267450E+02  0.7818608E-02  0.1321628E+00
          2   -1    0    0  501    0  0.00000000000E+00  0.00000000000E+00  0.95533636119E+02  0.95533636153E+02  0.25500000000E-02 0. -1.
         -1   -1    0    0    0  501 -0.00000000000E+00 -0.00000000000E+00 -0.17886560643E+02  0.17886561354E+02  0.50400000000E-02 0.  1.
         24    2    1    2    0    0  0.00000000000E+00  0.00000000000E+00  0.77647075475E+02  0.11342019751E+03  0.82674499530E+02 0.  0.
         66    2    3    3    0    0  0.39418272893E+02 -0.99123847526E+01  0.48993313790E+02  0.63689876452E+02  0.19999892498E+01 0.  0.
        -13    1    3    3    0    0 -0.39418272893E+02  0.99123847526E+01  0.28653761685E+02  0.49730321054E+02  0.10566000000E+00 0.  1.
         13    1    4    4    0    0  0.26407711545E+02 -0.64119279909E+01  0.33515910083E+02  0.43148666750E+02  0.10566000000E+00 0. -1.
        -13    1    4    4    0    0  0.68198867689E+01 -0.16209965265E+01  0.74256754335E+01  0.10212262480E+02  0.10566000000E+00 0.  1.
        -14    1    4    4    0    0  0.61906745794E+01 -0.18794602352E+01  0.80517282734E+01  0.10328947222E+02  0.00000000000E+00 0.  1.
<mgrwt>
<rscale>  0 0.82674500E+02</rscale>
<asrwt>0</asrwt>
<pdfrwt beam="1">  1        2 0.14697482E-01 0.82674500E+02</pdfrwt>
<pdfrwt beam="2">  1       -1 0.27517787E-02 0.82674500E+02</pdfrwt>
<totfact> 0.16022141E+05</totfact>
</mgrwt>
</event>
<event>
 8    1  0.2603554E-016  0.7356653E+02  0.7818608E-02  0.1348368E+00
         -1   -1    0    0    0  501 -0.00000000000E+00  0.00000000000E+00  0.16276051436E+02  0.16276052217E+02  0.50400000000E-02 0.  1.
          2   -1    0    0  501    0  0.00000000000E+00 -0.00000000000E+00 -0.83128791258E+02  0.83128791297E+02  0.25500000000E-02 0. -1.
         24    2    1    2    0    0  0.00000000000E+00  0.35527136788E-14 -0.66852739822E+02  0.99404843514E+02  0.73566528342E+02 0.  0.
         66    2    3    3    0    0  0.25315815227E+02  0.13617286990E+02 -0.64402074538E+02  0.70554576098E+02  0.19999994842E+01 0.  0.
        -13    1    3    3    0    0 -0.25315815227E+02 -0.13617286990E+02 -0.24506652835E+01  0.28850267416E+02  0.10566000000E+00 0.  1.
         13    1    4    4    0    0  0.19907801995E+02  0.10776524337E+02 -0.51035008558E+02  0.55830433633E+02  0.10566000000E+00 0. -1.
        -13    1    4    4    0    0  0.17815049949E+01  0.49352538953E+00 -0.42171987896E+01  0.46057851690E+01  0.10566000000E+00 0.  1.
        -14    1    4    4    0    0  0.36265082369E+01  0.23472372640E+01 -0.91498671903E+01  0.10118357296E+02  0.00000000000E+00 0.  1.
<mgrwt>
<rscale>  0 0.73566528E+02</rscale>
<asrwt>0</asrwt>
<pdfrwt beam="1">  1        2 0.12789045E-01 0.73566528E+02</pdfrwt>
<pdfrwt beam="2">  1       -1 0.25040080E-02 0.73566528E+02</pdfrwt>
<totfact> 0.21104751E+05</totfact>
</mgrwt>
</event>
<event>
 8    1  0.2603554E-016  0.7872411E+02  0.7818608E-02  0.1332712E+00
         -1   -1    0    0    0  501 -0.00000000000E+00  0.00000000000E+00  0.12435005371E+01  0.12435107508E+01  0.50400000000E-02 0.  1.
          2   -1    0    0  501    0  0.00000000000E+00 -0.00000000000E+00 -0.12459704947E+04  0.12459704947E+04  0.25500000000E-02 0. -1.
         24    2    1    2    0    0  0.00000000000E+00  0.00000000000E+00 -0.12447269942E+04  0.12472140055E+04  0.78724109403E+02 0.  0.
         66    2    3    3    0    0 -0.11948555039E+02 -0.62545932717E+01 -0.12081949847E+04  0.12082719102E+04  0.19999974495E+01 0.  0.
        -13    1    3    3    0    0  0.11948555039E+02  0.62545932717E+01 -0.36532009517E+02  0.38942095319E+02  0.10566000000E+00 0.  1.
         13    1    4    4    0    0 -0.28973332357E+01 -0.11220373298E+01 -0.25775489284E+03  0.25777363995E+03  0.10566000000E+00 0. -1.
        -13    1    4    4    0    0 -0.60354609131E+01 -0.39247264628E+01 -0.60277450777E+03  0.60281750858E+03  0.10566000000E+00 0.  1.
        -14    1    4    4    0    0 -0.30157608899E+01 -0.12078294790E+01 -0.34766558408E+03  0.34768076164E+03  0.00000000000E+00 0.  1.
<mgrwt>
<rscale>  0 0.78724109E+02</rscale>
<asrwt>0</asrwt>
<pdfrwt beam="1">  1        2 0.19168677E+00 0.78724109E+02</pdfrwt>
<pdfrwt beam="2">  1       -1 0.19130956E-03 0.78724109E+02</pdfrwt>
<totfact> 0.36353746E+05</totfact>
</mgrwt>
</event>
<event>
 8    1  0.2603554E-016  0.7835928E+02  0.7818608E-02  0.1333773E+00
          2   -1    0    0  501    0  0.00000000000E+00  0.00000000000E+00  0.25810808816E+02  0.25810808942E+02  0.25500000000E-02 0. -1.
         -1   -1    0    0    0  501 -0.00000000000E+00 -0.00000000000E+00 -0.59472914372E+02  0.59472914585E+02  0.50400000000E-02 0.  1.
         24    2    1    2    0    0  0.00000000000E+00  0.00000000000E+00 -0.33662105556E+02  0.85283723527E+02  0.78359276082E+02 0.  0.
         66    2    3    3    0    0 -0.26837551431E+02 -0.10413864383E+02  0.12042575750E+02  0.31268616423E+02  0.20000010282E+01 0.  0.
        -13    1    3    3    0    0  0.26837551431E+02  0.10413864383E+02 -0.45704681306E+02  0.54015107104E+02  0.10566000000E+00 0.  1.
         13    1    4    4    0    0 -0.96525536720E+01 -0.32577435816E+01  0.35956065150E+01  0.10803899105E+02  0.10566000000E+00 0.  1.
        -13    1    4    4    0    0 -0.11485313716E+02 -0.43819075930E+01  0.58532907820E+01  0.13615642560E+02  0.10566000000E+00 0. -1.
        -14    1    4    4    0    0 -0.56996840424E+01 -0.27742132085E+01  0.25936784527E+01  0.68490747569E+01  0.00000000000E+00 0.  1.
<mgrwt>
<rscale>  0 0.78359276E+02</rscale>
<asrwt>0</asrwt>
<pdfrwt beam="1">  1        2 0.39708937E-02 0.78359276E+02</pdfrwt>
<pdfrwt beam="2">  1       -1 0.91496792E-02 0.78359276E+02</pdfrwt>
<totfact> 0.13848743E+05</totfact>
</mgrwt>
</event>
<event>
 8    1  0.2603554E-016  0.8363573E+02  0.7818608E-02  0.1319039E+00
         -1   -1    0    0    0  501 -0.00000000000E+00  0.00000000000E+00  0.40338485409E+01  0.40338516895E+01  0.50400000000E-02 0.  1.
          2   -1    0    0  501    0  0.00000000000E+00 -0.00000000000E+00 -0.43351478747E+03  0.43351478747E+03  0.25500000000E-02 0. -1.
         24    2    1    2    0    0  0.44408920985E-15  0.00000000000E+00 -0.42948093893E+03  0.43754863916E+03  0.83635726418E+02 0.  0.
         66    2    3    3    0    0 -0.30935658509E+01 -0.40533453427E+02 -0.26563846936E+03  0.26873839956E+03  0.19999999411E+01 0.  0.
        -13    1    3    3    0    0  0.30935658509E+01  0.40533453427E+02 -0.16384246957E+03  0.16881023960E+03  0.10566000000E+00 0.  1.
         13    1    4    4    0    0 -0.10577220858E+00 -0.10535560713E+02 -0.69008806916E+02  0.69808565544E+02  0.10566000000E+00 0. -1.
        -13    1    4    4    0    0 -0.33773982246E+00 -0.75940636528E+01 -0.50419323550E+02  0.50989246143E+02  0.10566000000E+00 0.  1.
         14    1    4    4    0    0 -0.26500538198E+01 -0.22403829061E+02 -0.14621033889E+03  0.14794058788E+03  0.00000000000E+00 0. -1.
<mgrwt>
<rscale>  0 0.83635726E+02</rscale>
<asrwt>0</asrwt>
<pdfrwt beam="1">  1        2 0.66694546E-01 0.83635726E+02</pdfrwt>
<pdfrwt beam="2">  1       -1 0.62059267E-03 0.83635726E+02</pdfrwt>
<totfact> 0.25861479E+05</totfact>
</mgrwt>
</event>
<event>
 8    1  0.2603554E-016  0.8030492E+02  0.7818608E-02  0.1328188E+00
         -1   -1    0    0    0  501 -0.00000000000E+00  0.00000000000E+00  0.28771904799E+01  0.28771948942E+01  0.50400000000E-02 0.  1.
          2   -1    0    0  501    0  0.00000000000E+00 -0.00000000000E+00 -0.56034486880E+03  0.56034486881E+03  0.25500000000E-02 0. -1.
         24    2    1    2    0    0  0.71054273576E-14 -0.44408920985E-15 -0.55746767832E+03  0.56322206370E+03  0.80304923055E+02 0.  0.
         66    2    3    3    0    0  0.39080178979E+02 -0.33048368558E+01 -0.33843171368E+03  0.34070252005E+03  0.20000023517E+01 0.  0.
        -13    1    3    3    0    0 -0.39080178979E+02  0.33048368558E+01 -0.21903596465E+03  0.22251954366E+03  0.10566000000E+00 0.  1.
         13    1    4    4    0    0  0.51524208079E+01 -0.40231648671E+00 -0.47404725565E+02  0.47685726048E+02  0.10566000000E+00 0. -1.
        -13    1    4    4    0    0  0.45280998492E+01 -0.84111214832E+00 -0.42012906076E+02  0.42264720499E+02  0.10566000000E+00 0.  1.
         14    1    4    4    0    0  0.29399658322E+02 -0.20614082207E+01 -0.24901408203E+03  0.25075207350E+03  0.00000000000E+00 0. -1.
<mgrwt>
<rscale>  0 0.80304923E+02</rscale>
<asrwt>0</asrwt>
<pdfrwt beam="1">  1        2 0.86206816E-01 0.80304923E+02</pdfrwt>
<pdfrwt beam="2">  1       -1 0.44264548E-03 0.80304923E+02</pdfrwt>
<totfact> 0.31226898E+05</totfact>
</mgrwt>
</event>
<event>
 8    1  0.2603554E-016  0.7446183E+02  0.7818608E-02  0.1345546E+00
          2   -1    0    0  501    0  0.00000000000E+00  0.00000000000E+00  0.27516376403E+03  0.27516376404E+03  0.25500000000E-02 0. -1.
         -1   -1    0    0    0  501 -0.00000000000E+00 -0.00000000000E+00 -0.50375116924E+01  0.50375142136E+01  0.50400000000E-02 0.  1.
         24    2    1    2    0    0  0.00000000000E+00  0.00000000000E+00  0.27012625234E+03  0.28020127826E+03  0.74461830048E+02 0.  0.
         66    2    3    3    0    0 -0.17373085984E+02  0.31570509615E+02  0.16997889045E+03  0.17376807643E+03  0.19999983064E+01 0.  0.
        -13    1    3    3    0    0  0.17373085984E+02 -0.31570509615E+02  0.10014736189E+03  0.10643320183E+03  0.10566000000E+00 0.  1.
         13    1    4    4    0    0 -0.48025764641E+01  0.93478285922E+01  0.50880639355E+02  0.51954761719E+02  0.10566000000E+00 0. -1.
        -13    1    4    4    0    0 -0.48245886034E+01  0.71256240205E+01  0.40593800329E+02  0.41496011399E+02  0.10566000000E+00 0.  1.
        -14    1    4    4    0    0 -0.77459209163E+01  0.15097057003E+02  0.78504450769E+02  0.80317303313E+02  0.00000000000E+00 0.  1.
<mgrwt>
<rscale>  0 0.74461830E+02</rscale>
<asrwt>0</asrwt>
<pdfrwt beam="1">  1        2 0.42332891E-01 0.74461830E+02</pdfrwt>
<pdfrwt beam="2">  1       -1 0.77500192E-03 0.74461830E+02</pdfrwt>
<totfact> 0.29807210E+05</totfact>
</mgrwt>
</event>
<event>
 8    1  0.2603554E-016  0.7750413E+02  0.7818608E-02  0.1336287E+00
         -1   -1    0    0    0  501 -0.00000000000E+00  0.00000000000E+00  0.42949135498E+01  0.42949165070E+01  0.50400000000E-02 0.  1.
          2   -1    0    0  501    0  0.00000000000E+00 -0.00000000000E+00 -0.34965127503E+03  0.34965127504E+03  0.25500000000E-02 0. -1.
         24    2    1    2    0    0  0.00000000000E+00 -0.88817841970E-15 -0.34535636148E+03  0.35394619155E+03  0.77504129537E+02 0.  0.
         66    2    3    3    0    0 -0.23458016644E+02  0.35579796012E+01 -0.31256838332E+03  0.31347397343E+03  0.20000000887E+01 0.  0.
        -13    1    3    3    0    0  0.23458016644E+02 -0.35579796012E+01 -0.32787978160E+02  0.40472218120E+02  0.10566000000E+00 0.  1.
         13    1    4    4    0    0 -0.92100645893E+01  0.19806684939E+01 -0.12915311576E+03  0.12949628107E+03  0.10566000000E+00 0. -1.
        -13    1    4    4    0    0 -0.96162212426E+01  0.71524588915E+00 -0.12768899056E+03  0.12805261716E+03  0.10566000000E+00 0.  1.
         14    1    4    4    0    0 -0.46317308122E+01  0.86206521818E+00 -0.55726277000E+02  0.55925075191E+02  0.00000000000E+00 0. -1.
<mgrwt>
<rscale>  0 0.77504130E+02</rscale>
<asrwt>0</asrwt>
<pdfrwt beam="1">  1        2 0.53792481E-01 0.77504130E+02</pdfrwt>
<pdfrwt beam="2">  1       -1 0.66075644E-03 0.77504130E+02</pdfrwt>
<totfact> 0.29265629E+05</totfact>
</mgrwt>
</event>
<event>
 8    1  0.2603554E-016  0.7900112E+02  0.7818608E-02  0.1331910E+00
         -1   -1    0    0    0  501 -0.00000000000E+00  0.00000000000E+00  0.12670059594E+03  0.12670059604E+03  0.50400000000E-02 0.  1.
          2   -1    0    0  501    0  0.00000000000E+00 -0.00000000000E+00 -0.12314812752E+02  0.12314813016E+02  0.25500000000E-02 0. -1.
         24    2    1    2    0    0  0.71054273576E-14  0.44408920985E-15  0.11438578319E+03  0.13901540906E+03  0.79001117458E+02 0.  0.
         66    2    3    3    0    0  0.33649936967E+02  0.19530768566E+01  0.21074607265E+02  0.39802912448E+02  0.20000002196E+01 0.  0.
        -13    1    3    3    0    0 -0.33649936967E+02 -0.19530768566E+01  0.93311175922E+02  0.99212496607E+02  0.10566000000E+00 0.  1.
         13    1    4    4    0    0  0.22539215613E+02  0.11907740812E+01  0.14621991337E+02  0.26893270125E+02  0.10566000000E+00 0. -1.
        -13    1    4    4    0    0  0.10503337314E+02  0.56991278875E+00  0.58699477813E+01  0.12046258602E+02  0.10566000000E+00 0.  1.
        -14    1    4    4    0    0  0.60738404034E+00  0.19238998661E+00  0.58266814706E+00  0.86338372060E+00  0.00000000000E+00 0.  1.
<mgrwt>
<rscale>  0 0.79001117E+02</rscale>
<asrwt>0</asrwt>
<pdfrwt beam="1">  1        2 0.18945866E-02 0.79001117E+02</pdfrwt>
<pdfrwt beam="2">  1       -1 0.19492399E-01 0.79001117E+02</pdfrwt>
<totfact> 0.11602623E+05</totfact>
</mgrwt>
</event>
<event>
 8    1  0.2603554E-016  0.8110951E+02  0.7818608E-02  0.1325932E+00
          2   -1    0    0  501    0  0.00000000000E+00  0.00000000000E+00  0.66359909753E+02  0.66359909802E+02  0.25500000000E-02 0. -1.
         -1   -1    0    0    0  501 -0.00000000000E+00 -0.00000000000E+00 -0.24784363350E+02  0.24784363862E+02  0.50400000000E-02 0.  1.
         24    2    1    2    0    0 -0.71054273576E-14 -0.17763568394E-14  0.41575546403E+02  0.91144273665E+02  0.81109509696E+02 0.  0.
         66    2    3    3    0    0  0.39459535399E+02  0.92286581775E+01  0.21562602482E+02  0.45947457913E+02  0.19999992941E+01 0.  0.
        -13    1    3    3    0    0 -0.39459535399E+02 -0.92286581775E+01  0.20012943921E+02  0.45196815752E+02  0.10566000000E+00 0.  1.
         13    1    4    4    0    0  0.12431003393E+02  0.33374698898E+01  0.74416201902E+01  0.14868000057E+02  0.10566000000E+00 0. -1.
        -13    1    4    4    0    0  0.10749951282E+02  0.19877825868E+01  0.60556350623E+01  0.12497784292E+02  0.10566000000E+00 0.  1.
        -14    1    4    4    0    0  0.16278580725E+02  0.39034057009E+01  0.80653472300E+01  0.18581673563E+02  0.00000000000E+00 0.  1.
<mgrwt>
<rscale>  0 0.81109510E+02</rscale>
<asrwt>0</asrwt>
<pdfrwt beam="1">  1        2 0.10209217E-01 0.81109510E+02</pdfrwt>
<pdfrwt beam="2">  1       -1 0.38129790E-02 0.81109510E+02</pdfrwt>
<totfact> 0.15354515E+05</totfact>
</mgrwt>
</event>
<event>
 8    1  0.2603554E-016  0.8378838E+02  0.7818608E-02  0.1318632E+00
         -1   -1    0    0    0  501 -0.00000000000E+00  0.00000000000E+00  0.27550865297E+01  0.27550911396E+01  0.50400000000E-02 0.  1.
          2   -1    0    0  501    0  0.00000000000E+00 -0.00000000000E+00 -0.63704780625E+03  0.63704780626E+03  0.25500000000E-02 0. -1.
         24    2    1    2    0    0  0.00000000000E+00  0.88817841970E-15 -0.63429271972E+03  0.63980289740E+03  0.83788383590E+02 0.  0.
         66    2    3    3    0    0  0.22975250432E+02  0.78770168597E+01 -0.57775668019E+03  0.57827043071E+03  0.19999993621E+01 0.  0.
        -13    1    3    3    0    0 -0.22975250432E+02 -0.78770168597E+01 -0.56536039530E+02  0.61532466689E+02  0.10566000000E+00 0.  1.
         13    1    4    4    0    0  0.75687694235E+01  0.27430454759E+01 -0.20538378301E+03  0.20554152879E+03  0.10566000000E+00 0. -1.
        -13    1    4    4    0    0  0.29312627898E+00  0.57632483281E-01 -0.48319149317E+01  0.48422939256E+01  0.10566000000E+00 0.  1.
         14    1    4    4    0    0  0.15113354730E+02  0.50763389006E+01 -0.36754098225E+03  0.36788660799E+03  0.00000000000E+00 0. -1.
<mgrwt>
<rscale>  0 0.83788384E+02</rscale>
<asrwt>0</asrwt>
<pdfrwt beam="1">  1        2 0.98007238E-01 0.83788384E+02</pdfrwt>
<pdfrwt beam="2">  1       -1 0.42386033E-03 0.83788384E+02</pdfrwt>
<totfact> 0.28973194E+05</totfact>
</mgrwt>
</event>
<event>
 8    1  0.2603554E-016  0.7947387E+02  0.7818608E-02  0.1330551E+00
          2   -1    0    0  501    0  0.00000000000E+00  0.00000000000E+00  0.15865633740E+02  0.15865633945E+02  0.25500000000E-02 0. -1.
         -1   -1    0    0    0  501 -0.00000000000E+00 -0.00000000000E+00 -0.99524808848E+02  0.99524808976E+02  0.50400000000E-02 0.  1.
         24    2    1    2    0    0  0.00000000000E+00  0.88817841970E-15 -0.83659175108E+02  0.11539044292E+03  0.79473874561E+02 0.  0.
         66    2    3    3    0    0  0.36148858715E+02  0.55022303713E+01 -0.19362592664E+02  0.41423719299E+02  0.20000000954E+01 0.  0.
        -13    1    3    3    0    0 -0.36148858715E+02 -0.55022303713E+01 -0.64296582444E+02  0.73966723623E+02  0.10566000000E+00 0.  1.
         13    1    4    4    0    0  0.28248355984E+02  0.45981025403E+01 -0.15309425635E+02  0.32457693081E+02  0.10566000000E+00 0. -1.
        -13    1    4    4    0    0  0.59014572429E+01  0.94855303911E+00 -0.33065244496E+01  0.68316336574E+01  0.10566000000E+00 0.  1.
         14    1    4    4    0    0  0.19990454880E+01 -0.44425208123E-01 -0.74664257939E+00  0.21343925608E+01  0.00000000000E+00 0. -1.
<mgrwt>
<rscale>  0 0.79473875E+02</rscale>
<asrwt>0</asrwt>
<pdfrwt beam="1">  1        2 0.24408668E-02 0.79473875E+02</pdfrwt>
<pdfrwt beam="2">  1       -1 0.15311509E-01 0.79473875E+02</pdfrwt>
<totfact> 0.12061814E+05</totfact>
</mgrwt>
</event>
<event>
 8    1  0.2603554E-016  0.7950140E+02  0.7818608E-02  0.1330472E+00
         -1   -1    0    0    0  501 -0.00000000000E+00  0.00000000000E+00  0.65664769351E+02  0.65664769545E+02  0.50400000000E-02 0.  1.
          2   -1    0    0  501    0  0.00000000000E+00 -0.00000000000E+00 -0.24063410371E+02  0.24063410507E+02  0.25500000000E-02 0. -1.
         24    2    1    2    0    0  0.00000000000E+00  0.00000000000E+00  0.41601358980E+02  0.89728180051E+02  0.79501403927E+02 0.  0.
         66    2    3    3    0    0  0.15905483924E+02  0.84361244501E+01 -0.19152685320E+02  0.26362434751E+02  0.19999991092E+01 0.  0.
        -13    1    3    3    0    0 -0.15905483924E+02 -0.84361244501E+01  0.60754044300E+02  0.63365745300E+02  0.10566000000E+00 0.  1.
         13    1    4    4    0    0  0.83357694411E+01  0.52398775147E+01 -0.11391032829E+02  0.15056831058E+02  0.10566000000E+00 0. -1.
        -13    1    4    4    0    0  0.59448719230E+01  0.25712071043E+01 -0.62034071804E+01  0.89691712458E+01  0.10566000000E+00 0.  1.
         14    1    4    4    0    0  0.16248425600E+01  0.62503983116E+00 -0.15582453103E+01  0.23364324476E+01  0.00000000000E+00 0. -1.
<mgrwt>
<rscale>  0 0.79501404E+02</rscale>
<asrwt>0</asrwt>
<pdfrwt beam="1">  1        2 0.37020632E-02 0.79501404E+02</pdfrwt>
<pdfrwt beam="2">  1       -1 0.10102272E-01 0.79501404E+02</pdfrwt>
<totfact> 0.13113339E+05</totfact>
</mgrwt>
</event>
<event>
 8    1  0.2603554E-016  0.8077550E+02  0.7818608E-02  0.1326865E+00
         -1   -1    0    0    0  501 -0.00000000000E+00  0.00000000000E+00  0.85976858529E+02  0.85976858677E+02  0.50400000000E-02 0.  1.
          2   -1    0    0  501    0  0.00000000000E+00 -0.00000000000E+00 -0.18972202330E+02  0.18972202501E+02  0.25500000000E-02 0. -1.
         24    2    1    2    0    0 -0.44408920985E-15 -0.35527136788E-14  0.67004656200E+02  0.10494906118E+03  0.80775500554E+02 0.  0.
         66    2    3    3    0    0 -0.21697049015E+01 -0.28403538261E+02 -0.36302898863E+01  0.28786239686E+02  0.19999963730E+01 0.  0.
        -13    1    3    3    0    0  0.21697049015E+01  0.28403538261E+02  0.70634946086E+02  0.76162821492E+02  0.10566000000E+00 0.  1.
         13    1    4    4    0    0 -0.20385247566E+01 -0.24705774184E+02 -0.33177987364E+01  0.25010993856E+02  0.10566000000E+00 0. -1.
        -13    1    4    4    0    0 -0.39291680844E+00 -0.18840067900E+01 -0.94149199155E-01  0.19297391820E+01  0.10566000000E+00 0.  1.
         14    1    4    4    0    0  0.26173666350E+00 -0.18137572872E+01 -0.21834195078E+00  0.18455066473E+01  0.00000000000E+00 0. -1.
<mgrwt>
<rscale>  0 0.80775501E+02</rscale>
<asrwt>0</asrwt>
<pdfrwt beam="1">  1        2 0.29188003E-02 0.80775501E+02</pdfrwt>
<pdfrwt beam="2">  1       -1 0.13227209E-01 0.80775501E+02</pdfrwt>
<totfact> 0.11945926E+05</totfact>
</mgrwt>
</event>
<event>
 8    1  0.2603554E-016  0.7046445E+02  0.7818608E-02  0.1358521E+00
          2   -1    0    0  501    0  0.00000000000E+00  0.00000000000E+00  0.61126095068E+01  0.61126100387E+01  0.25500000000E-02 0. -1.
         -1   -1    0    0    0  501 -0.00000000000E+00 -0.00000000000E+00 -0.20307359804E+03  0.20307359810E+03  0.50400000000E-02 0.  1.
         24    2    1    2    0    0  0.00000000000E+00  0.00000000000E+00 -0.19696098853E+03  0.20918620814E+03  0.70464449707E+02 0.  0.
         66    2    3    3    0    0 -0.49348132442E+01  0.34796909128E+02 -0.92528281929E+02  0.98998283942E+02  0.20000000244E+01 0.  0.
        -13    1    3    3    0    0  0.49348132442E+01 -0.34796909128E+02 -0.10443270660E+03  0.11018792420E+03  0.10566000000E+00 0.  1.
         13    1    4    4    0    0 -0.66466383871E+00  0.43180379010E+01 -0.13289783198E+02  0.13989879585E+02  0.10566000000E+00 0. -1.
        -13    1    4    4    0    0 -0.42022360518E+00  0.43918773772E+01 -0.11040433149E+02  0.11889806682E+02  0.10566000000E+00 0.  1.
        -14    1    4    4    0    0 -0.38499258003E+01  0.26086993850E+02 -0.68198065583E+02  0.73118597675E+02  0.00000000000E+00 0.  1.
<mgrwt>
<rscale>  0 0.70464450E+02</rscale>
<asrwt>0</asrwt>
<pdfrwt beam="1">  1        2 0.94040166E-03 0.70464450E+02</pdfrwt>
<pdfrwt beam="2">  1       -1 0.31242087E-01 0.70464450E+02</pdfrwt>
<totfact> 0.13680484E+05</totfact>
</mgrwt>
</event>
<event>
 8    1  0.2603554E-016  0.8094288E+02  0.7818608E-02  0.1326397E+00
         -1   -1    0    0    0  501 -0.00000000000E+00  0.00000000000E+00  0.39640465021E+01  0.39640497061E+01  0.50400000000E-02 0.  1.
          2   -1    0    0  501    0  0.00000000000E+00 -0.00000000000E+00 -0.41319815998E+03  0.41319815999E+03  0.25500000000E-02 0. -1.
         24    2    1    2    0    0  0.71054273576E-14  0.88817841970E-15 -0.40923411348E+03  0.41716220970E+03  0.80942878394E+02 0.  0.
         66    2    3    3    0    0 -0.33333230934E+02 -0.49712879915E+01 -0.31999695861E+03  0.32177301240E+03  0.19999989489E+01 0.  0.
        -13    1    3    3    0    0  0.33333230934E+02  0.49712879915E+01 -0.89237154867E+02  0.95389197301E+02  0.10566000000E+00 0.  1.
         13    1    4    4    0    0 -0.11297198608E+02 -0.98327230046E+00 -0.10661011334E+03  0.10721157098E+03  0.10566000000E+00 0. -1.
        -13    1    4    4    0    0 -0.11606844465E+01 -0.39565554494E-01 -0.98555677477E+01  0.99243203033E+01  0.10566000000E+00 0.  1.
        -14    1    4    4    0    0 -0.20875347880E+02 -0.39484501365E+01 -0.20353127752E+03  0.20463712111E+03  0.00000000000E+00 0.  1.
<mgrwt>
<rscale>  0 0.80942878E+02</rscale>
<asrwt>0</asrwt>
<pdfrwt beam="1">  1        2 0.63568914E-01 0.80942878E+02</pdfrwt>
<pdfrwt beam="2">  1       -1 0.60985388E-03 0.80942878E+02</pdfrwt>
<totfact> 0.27712995E+05</totfact>
</mgrwt>
</event>
<event>
 8    1  0.2603554E-016  0.8054237E+02  0.7818608E-02  0.1327519E+00
         -1   -1    0    0    0  501 -0.00000000000E+00  0.00000000000E+00  0.97629669668E+01  0.97629682677E+01  0.50400000000E-02 0.  1.
          2   -1    0    0  501    0  0.00000000000E+00 -0.00000000000E+00 -0.16611428187E+03  0.16611428189E+03  0.25500000000E-02 0. -1.
         24    2    1    2    0    0 -0.35527136788E-14  0.00000000000E+00 -0.15635131490E+03  0.17587725016E+03  0.80542370532E+02 0.  0.
         66    2    3    3    0    0 -0.28101220691E+02  0.18268239859E+02 -0.12687363066E+03  0.13124147724E+03  0.19999995071E+01 0.  0.
        -13    1    3    3    0    0  0.28101220691E+02 -0.18268239859E+02 -0.29477684238E+02  0.44635772918E+02  0.10566000000E+00 0.  1.
         13    1    4    4    0    0 -0.57110926091E+01  0.33099505630E+01 -0.24880398089E+02  0.25741362136E+02  0.10566000000E+00 0. -1.
        -13    1    4    4    0    0 -0.95346005146E+01  0.65210288791E+01 -0.40719194487E+02  0.42326072205E+02  0.10566000000E+00 0.  1.
        -14    1    4    4    0    0 -0.12855527567E+02  0.84372604174E+01 -0.61274038087E+02  0.63174042896E+02  0.00000000000E+00 0.  1.
<mgrwt>
<rscale>  0 0.80542371E+02</rscale>
<asrwt>0</asrwt>
<pdfrwt beam="1">  1        2 0.25556041E-01 0.80542371E+02</pdfrwt>
<pdfrwt beam="2">  1       -1 0.15019952E-02 0.80542371E+02</pdfrwt>
<totfact> 0.20342106E+05</totfact>
</mgrwt>
</event>
<event>
 8    1  0.2603554E-016  0.7979807E+02  0.7818608E-02  0.1329625E+00
          2   -1    0    0  501    0  0.00000000000E+00  0.00000000000E+00  0.60235550007E+03  0.60235550007E+03  0.25500000000E-02 0. -1.
         -1   -1    0    0    0  501 -0.00000000000E+00 -0.00000000000E+00 -0.26428441682E+01  0.26428489739E+01  0.50400000000E-02 0.  1.
         24    2    1    2    0    0  0.35527136788E-14  0.35527136788E-14  0.59971265590E+03  0.60499834904E+03  0.79798074560E+02 0.  0.
         66    2    3    3    0    0  0.29825963537E+02  0.23700785272E+02  0.38930554399E+03  0.39117019555E+03  0.19999947348E+01 0.  0.
        -13    1    3    3    0    0 -0.29825963537E+02 -0.23700785272E+02  0.21040711191E+03  0.21382815350E+03  0.10566000000E+00 0.  1.
         13    1    4    4    0    0  0.92184469394E+01  0.73794030735E+01  0.11511577396E+03  0.11571986836E+03  0.10566000000E+00 0. -1.
        -13    1    4    4    0    0  0.14372127353E+01  0.94447666970E+00  0.15279559435E+02  0.15376401308E+02  0.10566000000E+00 0. -1.
         14    1    4    4    0    0  0.19170303862E+02  0.15376905529E+02  0.25891021059E+03  0.26007392588E+03  0.00000000000E+00 0. -1.
<mgrwt>
<rscale>  0 0.79798075E+02</rscale>
<asrwt>0</asrwt>
<pdfrwt beam="1">  1        2 0.92670039E-01 0.79798075E+02</pdfrwt>
<pdfrwt beam="2">  1       -1 0.40659195E-03 0.79798075E+02</pdfrwt>
<totfact> 0.32410958E+05</totfact>
</mgrwt>
</event>
<event>
 8    1  0.2603554E-016  0.8071795E+02  0.7818608E-02  0.1327026E+00
         -1   -1    0    0    0  501 -0.00000000000E+00  0.00000000000E+00  0.47725234026E+01  0.47725260638E+01  0.50400000000E-02 0.  1.
          2   -1    0    0  501    0  0.00000000000E+00 -0.00000000000E+00 -0.34129665265E+03  0.34129665266E+03  0.25500000000E-02 0. -1.
         24    2    1    2    0    0  0.00000000000E+00  0.00000000000E+00 -0.33652412925E+03  0.34606917872E+03  0.80717946558E+02 0.  0.
         66    2    3    3    0    0 -0.20436553583E+02 -0.22785693878E+02 -0.28098565147E+03  0.28265487241E+03  0.19999987152E+01 0.  0.
        -13    1    3    3    0    0  0.20436553583E+02  0.22785693878E+02 -0.55538477776E+02  0.63414306317E+02  0.10566000000E+00 0.  1.
         13    1    4    4    0    0 -0.12225158597E+02 -0.14582314987E+02 -0.17216785193E+03  0.17321627757E+03  0.10566000000E+00 0. -1.
        -13    1    4    4    0    0 -0.28590466793E+01 -0.23003758345E+01 -0.33741970707E+02  0.33941090556E+02  0.10566000000E+00 0.  1.
        -14    1    4    4    0    0 -0.53523483072E+01 -0.59030030559E+01 -0.75075828834E+02  0.75497504280E+02  0.00000000000E+00 0.  1.
<mgrwt>
<rscale>  0 0.80717947E+02</rscale>
<asrwt>0</asrwt>
<pdfrwt beam="1">  1        2 0.52507158E-01 0.80717947E+02</pdfrwt>
<pdfrwt beam="2">  1       -1 0.73423484E-03 0.80717947E+02</pdfrwt>
<totfact> 0.26090373E+05</totfact>
</mgrwt>
</event>
<event>
 8    1  0.2603554E-016  0.8104022E+02  0.7818608E-02  0.1326125E+00
         -1   -1    0    0    0  501 -0.00000000000E+00  0.00000000000E+00  0.18024898861E+02  0.18024899566E+02  0.50400000000E-02 0.  1.
          2   -1    0    0  501    0  0.00000000000E+00 -0.00000000000E+00 -0.91089503724E+02  0.91089503760E+02  0.25500000000E-02 0. -1.
         24    2    1    2    0    0  0.00000000000E+00  0.35527136788E-14 -0.73064604863E+02  0.10911440333E+03  0.81040215506E+02 0.  0.
         66    2    3    3    0    0  0.18231263698E+02  0.29605973354E+02 -0.64506357420E+02  0.73307317468E+02  0.20000031227E+01 0.  0.
        -13    1    3    3    0    0 -0.18231263698E+02 -0.29605973354E+02 -0.85582474430E+01  0.35807085858E+02  0.10566000000E+00 0.  1.
         13    1    4    4    0    0  0.42520096230E+01  0.69988867879E+01 -0.14568383074E+02  0.16712658422E+02  0.10566000000E+00 0. -1.
        -13    1    4    4    0    0  0.60123583405E+01  0.10692054700E+02 -0.21700128174E+02  0.24927398848E+02  0.10566000000E+00 0.  1.
        -14    1    4    4    0    0  0.79668957341E+01  0.11915031866E+02 -0.28237846172E+02  0.31667260198E+02  0.00000000000E+00 0.  1.
<mgrwt>
<rscale>  0 0.81040216E+02</rscale>
<asrwt>0</asrwt>
<pdfrwt beam="1">  1        2 0.14013770E-01 0.81040216E+02</pdfrwt>
<pdfrwt beam="2">  1       -1 0.27730615E-02 0.81040216E+02</pdfrwt>
<totfact> 0.16687094E+05</totfact>
</mgrwt>
</event>
<event>
 8    1  0.2603554E-016  0.8549250E+02  0.7818608E-02  0.1314150E+00
          2   -1    0    0  501    0  0.00000000000E+00  0.00000000000E+00  0.95258672431E+02  0.95258672465E+02  0.25500000000E-02 0. -1.
         -1   -1    0    0    0  501 -0.00000000000E+00 -0.00000000000E+00 -0.19181894632E+02  0.19181895294E+02  0.50400000000E-02 0.  1.
         24    2    1    2    0    0  0.00000000000E+00  0.00000000000E+00  0.76076777800E+02  0.11444056776E+03  0.85492499254E+02 0.  0.
         66    2    3    3    0    0 -0.27651795929E+02 -0.32079939402E+02  0.30547150033E+02  0.52257752619E+02  0.20000008793E+01 0.  0.
        -13    1    3    3    0    0  0.27651795929E+02  0.32079939402E+02  0.45529627767E+02  0.62182815140E+02  0.10566000000E+00 0.  1.
         13    1    4    4    0    0 -0.13669169447E+01 -0.15447994771E+01  0.11653886606E+01  0.23715315988E+01  0.10566000000E+00 0. -1.
        -13    1    4    4    0    0 -0.11384707882E+02 -0.12955907723E+02  0.11734709884E+02  0.20861009050E+02  0.10566000000E+00 0.  1.
         14    1    4    4    0    0 -0.14900171102E+02 -0.17579232202E+02  0.17647051488E+02  0.29025211970E+02  0.00000000000E+00 0. -1.
<mgrwt>
<rscale>  0 0.85492499E+02</rscale>
<asrwt>0</asrwt>
<pdfrwt beam="1">  1        2 0.14655180E-01 0.85492499E+02</pdfrwt>
<pdfrwt beam="2">  1       -1 0.29510608E-02 0.85492499E+02</pdfrwt>
<totfact> 0.14624914E+05</totfact>
</mgrwt>
</event>
<event>
 8    1  0.2603554E-016  0.7899089E+02  0.7818608E-02  0.1331940E+00
          2   -1    0    0  501    0  0.00000000000E+00  0.00000000000E+00  0.75411692237E+03  0.75411692238E+03  0.25500000000E-02 0. -1.
         -1   -1    0    0    0  501 -0.00000000000E+00 -0.00000000000E+00 -0.20684960630E+01  0.20685022031E+01  0.50400000000E-02 0.  1.
         24    2    1    2    0    0  0.00000000000E+00 -0.35527136788E-14  0.75204842631E+03  0.75618542458E+03  0.78990890820E+02 0.  0.
         66    2    3    3    0    0 -0.12365403698E+02  0.28366317312E+02  0.61082127300E+03  0.61160786352E+03  0.20000005255E+01 0.  0.
        -13    1    3    3    0    0  0.12365403698E+02 -0.28366317312E+02  0.14122715331E+03  0.14457756106E+03  0.10566000000E+00 0.  1.
         13    1    4    4    0    0 -0.90742117174E+01  0.19321010381E+02  0.41434240852E+03  0.41489189607E+03  0.10566000000E+00 0. -1.
        -13    1    4    4    0    0 -0.48042418734E+00  0.94299284350E+00  0.25469498097E+02  0.25491695516E+02  0.10566000000E+00 0.  1.
         14    1    4    4    0    0 -0.28107677933E+01  0.81023140874E+01  0.17100936638E+03  0.17122427194E+03  0.00000000000E+00 0. -1.
<mgrwt>
<rscale>  0 0.78990891E+02</rscale>
<asrwt>0</asrwt>
<pdfrwt beam="1">  1        2 0.11601816E+00 0.78990891E+02</pdfrwt>
<pdfrwt beam="2">  1       -1 0.31823016E-03 0.78990891E+02</pdfrwt>
<totfact> 0.35129167E+05</totfact>
</mgrwt>
</event>
<event>
 8    1  0.2603554E-016  0.7278015E+02  0.7818608E-02  0.1350886E+00
          2   -1    0    0  501    0  0.00000000000E+00  0.00000000000E+00  0.10825413125E+03  0.10825413128E+03  0.25500000000E-02 0. -1.
         -1   -1    0    0    0  501 -0.00000000000E+00 -0.00000000000E+00 -0.12232674533E+02  0.12232675572E+02  0.50400000000E-02 0.  1.
         24    2    1    2    0    0  0.00000000000E+00 -0.17763568394E-14  0.96021456714E+02  0.12048680685E+03  0.72780151656E+02 0.  0.
         66    2    3    3    0    0  0.14196875495E+01 -0.10885344950E+02  0.10543597603E+03  0.10602476739E+03  0.20000030413E+01 0.  0.
        -13    1    3    3    0    0 -0.14196875495E+01  0.10885344950E+02 -0.94145193114E+01  0.14462039459E+02  0.10566000000E+00 0.  1.
         13    1    4    4    0    0  0.11187123729E+01 -0.73040981765E+01  0.70369415878E+02  0.70756393510E+02  0.10566000000E+00 0. -1.
        -13    1    4    4    0    0 -0.10760422983E+00 -0.21261994198E+00  0.57816530225E+01  0.57875263817E+01  0.10566000000E+00 0.  1.
        -14    1    4    4    0    0  0.40857940649E+00 -0.33686268316E+01  0.29284907125E+02  0.29480847497E+02  0.00000000000E+00 0.  1.
<mgrwt>
<rscale>  0 0.72780152E+02</rscale>
<asrwt>0</asrwt>
<pdfrwt beam="1">  1        2 0.16654482E-01 0.72780152E+02</pdfrwt>
<pdfrwt beam="2">  1       -1 0.18819500E-02 0.72780152E+02</pdfrwt>
<totfact> 0.23309064E+05</totfact>
</mgrwt>
</event>
<event>
 8    1  0.2603554E-016  0.7999092E+02  0.7818608E-02  0.1329077E+00
         -1   -1    0    0    0  501 -0.00000000000E+00  0.00000000000E+00  0.90701493231E+01  0.90701507234E+01  0.50400000000E-02 0.  1.
          2   -1    0    0  501    0  0.00000000000E+00 -0.00000000000E+00 -0.17636278215E+03  0.17636278217E+03  0.25500000000E-02 0. -1.
         24    2    1    2    0    0 -0.71054273576E-14  0.44408920985E-15 -0.16729263283E+03  0.18543293289E+03  0.79990922002E+02 0.  0.
         66    2    3    3    0    0 -0.27149984871E+02  0.39569131940E+01 -0.15107935477E+03  0.15356350569E+03  0.20000007465E+01 0.  0.
        -13    1    3    3    0    0  0.27149984871E+02 -0.39569131940E+01 -0.16213278058E+02  0.31869427198E+02  0.10566000000E+00 0.  1.
         13    1    4    4    0    0 -0.18567101229E+02  0.32079311006E+01 -0.10488774872E+03  0.10656678219E+03  0.10566000000E+00 0. -1.
        -13    1    4    4    0    0 -0.50635509313E+01  0.81723128329E+00 -0.26184374979E+02  0.26682205158E+02  0.10566000000E+00 0.  1.
         14    1    4    4    0    0 -0.35193327110E+01 -0.68249189891E-01 -0.20007231069E+02  0.20314518349E+02  0.00000000000E+00 0. -1.
<mgrwt>
<rscale>  0 0.79990922E+02</rscale>
<asrwt>0</asrwt>
<pdfrwt beam="1">  1        2 0.27132733E-01 0.79990922E+02</pdfrwt>
<pdfrwt beam="2">  1       -1 0.13954078E-02 0.79990922E+02</pdfrwt>
<totfact> 0.21134222E+05</totfact>
</mgrwt>
</event>
<event>
 8    1  0.2603554E-016  0.7957485E+02  0.7818608E-02  0.1330262E+00
          2   -1    0    0  501    0  0.00000000000E+00  0.00000000000E+00  0.11765765854E+02  0.11765766130E+02  0.25500000000E-02 0. -1.
         -1   -1    0    0    0  501 -0.00000000000E+00 -0.00000000000E+00 -0.13454621836E+03  0.13454621845E+03  0.50400000000E-02 0.  1.
         24    2    1    2    0    0 -0.35527136788E-14 -0.17763568394E-14 -0.12278045250E+03  0.14631198458E+03  0.79574853536E+02 0.  0.
         66    2    3    3    0    0 -0.28310766450E+02 -0.10561078297E+02 -0.13907217459E+02  0.33323364159E+02  0.20000074195E+01 0.  0.
        -13    1    3    3    0    0  0.28310766450E+02  0.10561078297E+02 -0.10887323505E+03  0.11298862042E+03  0.10566000000E+00 0.  1.
         13    1    4    4    0    0 -0.22141120804E+02 -0.83197448691E+01 -0.10363979206E+02  0.25823838099E+02  0.10566000000E+00 0. -1.
        -13    1    4    4    0    0 -0.18650282337E+01 -0.50962204140E+00 -0.70636458966E+00  0.20611064763E+01  0.10566000000E+00 0.  1.
        -14    1    4    4    0    0 -0.43046174118E+01 -0.17317113865E+01 -0.28368736634E+01  0.54384195838E+01  0.00000000000E+00 0.  1.
<mgrwt>
<rscale>  0 0.79574854E+02</rscale>
<asrwt>0</asrwt>
<pdfrwt beam="1">  1        2 0.18101179E-02 0.79574854E+02</pdfrwt>
<pdfrwt beam="2">  1       -1 0.20699417E-01 0.79574854E+02</pdfrwt>
<totfact> 0.11231882E+05</totfact>
</mgrwt>
</event>
<event>
 8    1  0.2603554E-016  0.8047475E+02  0.7818608E-02  0.1327710E+00
          2   -1    0    0  501    0  0.00000000000E+00  0.00000000000E+00  0.16227908100E+03  0.16227908102E+03  0.25500000000E-02 0. -1.
         -1   -1    0    0    0  501 -0.00000000000E+00 -0.00000000000E+00 -0.99769251681E+01  0.99769264411E+01  0.50400000000E-02 0.  1.
         24    2    1    2    0    0  0.35527136788E-14  0.00000000000E+00  0.15230215583E+03  0.17225600746E+03  0.80474750297E+02 0.  0.
         66    2    3    3    0    0 -0.28835414981E+02  0.17475203295E+02  0.12310260344E+03  0.12765232027E+03  0.20000020975E+01 0.  0.
        -13    1    3    3    0    0  0.28835414981E+02 -0.17475203295E+02  0.29199552388E+02  0.44603687191E+02  0.10566000000E+00 0.  1.
         13    1    4    4    0    0 -0.15980523614E+02  0.98445206320E+01  0.68850009082E+02  0.71362641740E+02  0.10566000000E+00 0. -1.
        -13    1    4    4    0    0 -0.10624627953E+02  0.60445057713E+01  0.42533879821E+02  0.44255630894E+02  0.10566000000E+00 0.  1.
         14    1    4    4    0    0 -0.22302634138E+01  0.15861768913E+01  0.11718714540E+02  0.12034047635E+02  0.00000000000E+00 0. -1.
<mgrwt>
<rscale>  0 0.80474750E+02</rscale>
<asrwt>0</asrwt>
<pdfrwt beam="1">  1        2 0.24966015E-01 0.80474750E+02</pdfrwt>
<pdfrwt beam="2">  1       -1 0.15349115E-02 0.80474750E+02</pdfrwt>
<totfact> 0.20230504E+05</totfact>
</mgrwt>
</event>
<event>
 8    1  0.2603554E-016  0.8120176E+02  0.7818608E-02  0.1325675E+00
         -1   -1    0    0    0  501 -0.00000000000E+00  0.00000000000E+00  0.35895512582E+02  0.35895512936E+02  0.50400000000E-02 0.  1.
          2   -1    0    0  501    0  0.00000000000E+00 -0.00000000000E+00 -0.45923050497E+02  0.45923050568E+02  0.25500000000E-02 0. -1.
         24    2    1    2    0    0 -0.17763568394E-14  0.00000000000E+00 -0.10027537915E+02  0.81818563504E+02  0.81201759939E+02 0.  0.
         66    2    3    3    0    0 -0.14037862648E+02 -0.34467754813E+02 -0.21305573380E+02  0.42930352468E+02  0.19999990915E+01 0.  0.
        -13    1    3    3    0    0  0.14037862648E+02  0.34467754813E+02  0.11278035465E+02  0.38888211036E+02  0.10566000000E+00 0.  1.
         13    1    4    4    0    0 -0.35190910975E+01 -0.88086253342E+01 -0.47770798197E+01  0.10621089307E+02  0.10566000000E+00 0. -1.
        -13    1    4    4    0    0 -0.10292100550E+01 -0.21269785175E+01 -0.10552111229E+01  0.25899701737E+01  0.10566000000E+00 0.  1.
         14    1    4    4    0    0 -0.94895614958E+01 -0.23532150961E+02 -0.15473282438E+02  0.29719292987E+02  0.00000000000E+00 0. -1.
<mgrwt>
<rscale>  0 0.81201760E+02</rscale>
<asrwt>0</asrwt>
<pdfrwt beam="1">  1        2 0.70650848E-02 0.81201760E+02</pdfrwt>
<pdfrwt beam="2">  1       -1 0.55223866E-02 0.81201760E+02</pdfrwt>
<totfact> 0.14082477E+05</totfact>
</mgrwt>
</event>
<event>
 8    1  0.2603554E-016  0.7958891E+02  0.7818608E-02  0.1330222E+00
          2   -1    0    0  501    0  0.00000000000E+00  0.00000000000E+00  0.19599347585E+03  0.19599347587E+03  0.25500000000E-02 0. -1.
         -1   -1    0    0    0  501 -0.00000000000E+00 -0.00000000000E+00 -0.80798524869E+01  0.80798540588E+01  0.50400000000E-02 0.  1.
         24    2    1    2    0    0 -0.17763568394E-14  0.00000000000E+00  0.18791362336E+03  0.20407332992E+03  0.79588907150E+02 0.  0.
         66    2    3    3    0    0  0.13018679435E+02  0.35657667026E+02  0.12442381869E+03  0.13010089118E+03  0.19999993011E+01 0.  0.
        -13    1    3    3    0    0 -0.13018679435E+02 -0.35657667026E+02  0.63489804670E+02  0.73972438740E+02  0.10566000000E+00 0.  1.
         13    1    4    4    0    0  0.11080953733E+02  0.29971693028E+02  0.10570614589E+03  0.11043047750E+03  0.10566000000E+00 0. -1.
        -13    1    4    4    0    0  0.34226079213E+00  0.50209674084E+00  0.22158754663E+01  0.23001112375E+01  0.10566000000E+00 0.  1.
         14    1    4    4    0    0  0.15954649094E+01  0.51838772575E+01  0.16501797335E+02  0.17370302444E+02  0.00000000000E+00 0. -1.
<mgrwt>
<rscale>  0 0.79588907E+02</rscale>
<asrwt>0</asrwt>
<pdfrwt beam="1">  1        2 0.30152844E-01 0.79588907E+02</pdfrwt>
<pdfrwt beam="2">  1       -1 0.12430543E-02 0.79588907E+02</pdfrwt>
<totfact> 0.22204223E+05</totfact>
</mgrwt>
</event>
<event>
 8    1  0.2603554E-016  0.7985091E+02  0.7818608E-02  0.1329475E+00
         -1   -1    0    0    0  501 -0.00000000000E+00  0.00000000000E+00  0.31829938234E+03  0.31829938238E+03  0.50400000000E-02 0.  1.
          2   -1    0    0  501    0  0.00000000000E+00 -0.00000000000E+00 -0.50079951702E+01  0.50079958194E+01  0.25500000000E-02 0. -1.
         24    2    1    2    0    0  0.22204460493E-15  0.00000000000E+00  0.31329138717E+03  0.32330737820E+03  0.79850908094E+02 0.  0.
         66    2    3    3    0    0  0.16420514019E+01 -0.38253872245E+02  0.11129830800E+03  0.11771732428E+03  0.19999992964E+01 0.  0.
        -13    1    3    3    0    0 -0.16420514019E+01  0.38253872245E+02  0.20199307917E+03  0.20559005392E+03  0.10566000000E+00 0.  1.
         13    1    4    4    0    0 -0.41055380352E-01 -0.31824477987E+01  0.89070799722E+01  0.94592228646E+01  0.10566000000E+00 0. -1.
        -13    1    4    4    0    0 -0.34905106653E+00 -0.72251577384E+01  0.21018675075E+02  0.22228823786E+02  0.10566000000E+00 0.  1.
         14    1    4    4    0    0  0.20321578488E+01 -0.27846266708E+02  0.81372552957E+02  0.86029277631E+02  0.00000000000E+00 0. -1.
<mgrwt>
<rscale>  0 0.79850908E+02</rscale>
<asrwt>0</asrwt>
<pdfrwt beam="1">  1        2 0.77046080E-03 0.79850908E+02</pdfrwt>
<pdfrwt beam="2">  1       -1 0.48969139E-01 0.79850908E+02</pdfrwt>
<totfact> 0.84739580E+04</totfact>
</mgrwt>
</event>
<event>
 8    1  0.2603554E-016  0.7989482E+02  0.7818608E-02  0.1329350E+00
         -1   -1    0    0    0  501 -0.00000000000E+00  0.00000000000E+00  0.12771811039E+01  0.12771910482E+01  0.50400000000E-02 0.  1.
          2   -1    0    0  501    0  0.00000000000E+00 -0.00000000000E+00 -0.12494620895E+04  0.12494620896E+04  0.25500000000E-02 0. -1.
         24    2    1    2    0    0  0.00000000000E+00 -0.17763568394E-14 -0.12481849084E+04  0.12507392806E+04  0.79894820640E+02 0.  0.
         66    2    3    3    0    0  0.19604635549E+02 -0.13016776823E+02 -0.11293383357E+04  0.11295852578E+04  0.20000082971E+01 0.  0.
        -13    1    3    3    0    0 -0.19604635549E+02  0.13016776823E+02 -0.11884657279E+03  0.12115402281E+03  0.10566000000E+00 0.  1.
         13    1    4    4    0    0  0.13724337922E+02 -0.94894138800E+01 -0.76651602537E+03  0.76669761623E+03  0.10566000000E+00 0. -1.
        -13    1    4    4    0    0  0.57527090071E+01 -0.35066982531E+01 -0.35136080876E+03  0.35142541128E+03  0.10566000000E+00 0.  1.
         14    1    4    4    0    0  0.12758862076E+00 -0.20664689484E-01 -0.11461501523E+02  0.11462230282E+02  0.00000000000E+00 0. -1.
<mgrwt>
<rscale>  0 0.79894821E+02</rscale>
<asrwt>0</asrwt>
<pdfrwt beam="1">  1        2 0.19222396E+00 0.79894821E+02</pdfrwt>
<pdfrwt beam="2">  1       -1 0.19649117E-03 0.79894821E+02</pdfrwt>
<totfact> 0.34973282E+05</totfact>
</mgrwt>
</event>
<event>
 8    1  0.2603554E-016  0.7614313E+02  0.7818608E-02  0.1340367E+00
         -1   -1    0    0    0  501 -0.00000000000E+00  0.00000000000E+00  0.40497223575E+02  0.40497223889E+02  0.50400000000E-02 0.  1.
          2   -1    0    0  501    0  0.00000000000E+00 -0.00000000000E+00 -0.35791200002E+02  0.35791200093E+02  0.25500000000E-02 0. -1.
         24    2    1    2    0    0  0.00000000000E+00  0.27755575616E-16  0.47060235729E+01  0.76288423982E+02  0.76143134791E+02 0.  0.
         66    2    3    3    0    0  0.23635199290E+02 -0.17442446947E+00 -0.27514773578E+02  0.36327893424E+02  0.20000015494E+01 0.  0.
        -13    1    3    3    0    0 -0.23635199290E+02  0.17442446947E+00  0.32220797151E+02  0.39960530558E+02  0.10566000000E+00 0.  1.
         13    1    4    4    0    0  0.23371769351E+01 -0.20955005772E+00 -0.26199898184E+01  0.35187807458E+01  0.10566000000E+00 0. -1.
        -13    1    4    4    0    0  0.29215075299E+01  0.58408742596E+00 -0.32480128754E+01  0.44087544775E+01  0.10566000000E+00 0.  1.
         14    1    4    4    0    0  0.18376514825E+02 -0.54896183771E+00 -0.21646770885E+02  0.28400358201E+02  0.00000000000E+00 0. -1.
<mgrwt>
<rscale>  0 0.76143135E+02</rscale>
<asrwt>0</asrwt>
<pdfrwt beam="1">  1        2 0.55063384E-02 0.76143135E+02</pdfrwt>
<pdfrwt beam="2">  1       -1 0.62303422E-02 0.76143135E+02</pdfrwt>
<totfact> 0.15978915E+05</totfact>
</mgrwt>
</event>
<event>
 8    1  0.2603554E-016  0.8096238E+02  0.7818608E-02  0.1326342E+00
          2   -1    0    0  501    0  0.00000000000E+00  0.00000000000E+00  0.13064057998E+03  0.13064058001E+03  0.25500000000E-02 0. -1.
         -1   -1    0    0    0  501 -0.00000000000E+00 -0.00000000000E+00 -0.12543778625E+02  0.12543779638E+02  0.50400000000E-02 0.  1.
         24    2    1    2    0    0 -0.35527136788E-14  0.00000000000E+00  0.11809680136E+03  0.14318435965E+03  0.80962376177E+02 0.  0.
         66    2    3    3    0    0 -0.21133609377E+02  0.12186180251E+02  0.11616125789E+03  0.11871213198E+03  0.20000025757E+01 0.  0.
        -13    1    3    3    0    0  0.21133609377E+02 -0.12186180251E+02  0.19355434696E+01  0.24472227667E+02  0.10566000000E+00 0.  1.
         13    1    4    4    0    0 -0.16323500623E+02  0.99794816253E+01  0.90344168164E+02  0.92347856561E+02  0.10566000000E+00 0. -1.
        -13    1    4    4    0    0 -0.26431470634E+01  0.86708495708E+00  0.12590366758E+02  0.12894439183E+02  0.10566000000E+00 0.  1.
         14    1    4    4    0    0 -0.21669616910E+01  0.13396136687E+01  0.13226722968E+02  0.13469836236E+02  0.00000000000E+00 0. -1.
<mgrwt>
<rscale>  0 0.80962376E+02</rscale>
<asrwt>0</asrwt>
<pdfrwt beam="1">  1        2 0.20098550E-01 0.80962376E+02</pdfrwt>
<pdfrwt beam="2">  1       -1 0.19298122E-02 0.80962376E+02</pdfrwt>
<totfact> 0.18574546E+05</totfact>
</mgrwt>
</event>
<event>
 8    1  0.2603554E-016  0.7967903E+02  0.7818608E-02  0.1329965E+00
         -1   -1    0    0    0  501 -0.00000000000E+00  0.00000000000E+00  0.27053414439E+01  0.27053461386E+01  0.50400000000E-02 0.  1.
          2   -1    0    0  501    0  0.00000000000E+00 -0.00000000000E+00 -0.58668585833E+03  0.58668585834E+03  0.25500000000E-02 0. -1.
         24    2    1    2    0    0  0.00000000000E+00  0.00000000000E+00 -0.58398051689E+03  0.58939120448E+03  0.79679029920E+02 0.  0.
         66    2    3    3    0    0  0.20168648225E+02  0.16801182631E+02 -0.51360786692E+03  0.51428211623E+03  0.20000017447E+01 0.  0.
        -13    1    3    3    0    0 -0.20168648225E+02 -0.16801182631E+02 -0.70372649970E+02  0.75109088244E+02  0.10566000000E+00 0.  1.
         13    1    4    4    0    0  0.76116512719E+00  0.78573620628E+00 -0.22296075774E+02  0.22323147464E+02  0.10566000000E+00 0. -1.
        -13    1    4    4    0    0  0.42737665577E+01  0.45168321706E+01 -0.12219576969E+03  0.12235392984E+03  0.10566000000E+00 0.  1.
        -14    1    4    4    0    0  0.15133716540E+02  0.11498614254E+02 -0.36911602145E+03  0.36960503893E+03  0.00000000000E+00 0.  1.
<mgrwt>
<rscale>  0 0.79679030E+02</rscale>
<asrwt>0</asrwt>
<pdfrwt beam="1">  1        2 0.90259262E-01 0.79679030E+02</pdfrwt>
<pdfrwt beam="2">  1       -1 0.41620721E-03 0.79679030E+02</pdfrwt>
<totfact> 0.32297181E+05</totfact>
</mgrwt>
</event>
<event>
 8    1  0.2603554E-016  0.8693208E+02  0.7818608E-02  0.1310456E+00
         -1   -1    0    0    0  501 -0.00000000000E+00  0.00000000000E+00  0.32632311030E+01  0.32632349951E+01  0.50400000000E-02 0.  1.
          2   -1    0    0  501    0  0.00000000000E+00 -0.00000000000E+00 -0.57896464211E+03  0.57896464211E+03  0.25500000000E-02 0. -1.
         24    2    1    2    0    0  0.00000000000E+00  0.00000000000E+00 -0.57570141100E+03  0.58222787711E+03  0.86932078368E+02 0.  0.
         66    2    3    3    0    0  0.43297804390E+01  0.39947176515E+02 -0.39861644116E+03  0.40064147448E+03  0.20000002669E+01 0.  0.
        -13    1    3    3    0    0 -0.43297804390E+01 -0.39947176515E+02 -0.17708496984E+03  0.18158640262E+03  0.10566000000E+00 0.  1.
         13    1    4    4    0    0  0.57510107387E+00  0.48571735553E+01 -0.45320432351E+02  0.45583721093E+02  0.10566000000E+00 0.  1.
        -13    1    4    4    0    0  0.35049729975E+01  0.27185248846E+02 -0.27119895383E+03  0.27258064186E+03  0.10566000000E+00 0. -1.
        -14    1    4    4    0    0  0.24970636761E+00  0.79047541136E+01 -0.82097054977E+02  0.82477111532E+02  0.00000000000E+00 0.  1.
<mgrwt>
<rscale>  0 0.86932078E+02</rscale>
<asrwt>0</asrwt>
<pdfrwt beam="1">  1        2 0.89071402E-01 0.86932078E+02</pdfrwt>
<pdfrwt beam="2">  1       -1 0.50203631E-03 0.86932078E+02</pdfrwt>
<totfact> 0.25624370E+05</totfact>
</mgrwt>
</event>
<event>
 8    1  0.2603554E-016  0.8034752E+02  0.7818608E-02  0.1328068E+00
         -1   -1    0    0    0  501 -0.00000000000E+00  0.00000000000E+00  0.10142508886E+02  0.10142510139E+02  0.50400000000E-02 0.  1.
          2   -1    0    0  501    0  0.00000000000E+00 -0.00000000000E+00 -0.15912540971E+03  0.15912540973E+03  0.25500000000E-02 0. -1.
         24    2    1    2    0    0 -0.35527136788E-14 -0.35527136788E-14 -0.14898290082E+03  0.16926791987E+03  0.80347519931E+02 0.  0.
         66    2    3    3    0    0  0.25174306884E+02 -0.21709743352E+02 -0.12196706303E+03  0.12643189135E+03  0.20000007571E+01 0.  0.
        -13    1    3    3    0    0 -0.25174306884E+02  0.21709743352E+02 -0.27015837796E+02  0.42836028520E+02  0.10566000000E+00 0.  1.
         13    1    4    4    0    0  0.58795741031E+01 -0.50832279345E+01 -0.26949772785E+02  0.28048351379E+02  0.10566000000E+00 0. -1.
        -13    1    4    4    0    0  0.32867473206E+01 -0.36048340098E+01 -0.18433169460E+02  0.19068047529E+02  0.10566000000E+00 0.  1.
         14    1    4    4    0    0  0.16007985461E+02 -0.13021681408E+02 -0.76584120782E+02  0.79315492441E+02  0.00000000000E+00 0. -1.
<mgrwt>
<rscale>  0 0.80347520E+02</rscale>
<asrwt>0</asrwt>
<pdfrwt beam="1">  1        2 0.24480831E-01 0.80347520E+02</pdfrwt>
<pdfrwt beam="2">  1       -1 0.15603862E-02 0.80347520E+02</pdfrwt>
<totfact> 0.20184861E+05</totfact>
</mgrwt>
</event>
<event>
 8    1  0.2603554E-016  0.8019824E+02  0.7818608E-02  0.1328490E+00
          2   -1    0    0  501    0  0.00000000000E+00  0.00000000000E+00  0.12440041768E+03  0.12440041770E+03  0.25500000000E-02 0. -1.
         -1   -1    0    0    0  501 -0.00000000000E+00 -0.00000000000E+00 -0.12925513805E+02  0.12925514787E+02  0.50400000000E-02 0.  1.
         24    2    1    2    0    0  0.00000000000E+00 -0.35527136788E-14  0.11147490387E+03  0.13732593249E+03  0.80198239015E+02 0.  0.
         66    2    3    3    0    0  0.22915101542E+02  0.30044419175E+02  0.32916060842E+02  0.50152129175E+02  0.19999992952E+01 0.  0.
        -13    1    3    3    0    0 -0.22915101542E+02 -0.30044419175E+02  0.78558843032E+02  0.87173803318E+02  0.10566000000E+00 0.  1.
         13    1    4    4    0    0  0.19836239979E+02  0.25478976754E+02  0.27341645483E+02  0.42311126370E+02  0.10566000000E+00 0. -1.
        -13    1    4    4    0    0  0.14985201834E+01  0.20475735818E+01  0.26735009151E+01  0.36873963025E+01  0.10566000000E+00 0.  1.
         14    1    4    4    0    0  0.15803413799E+01  0.25178688388E+01  0.29009144436E+01  0.41536065023E+01  0.00000000000E+00 0. -1.
<mgrwt>
<rscale>  0 0.80198239E+02</rscale>
<asrwt>0</asrwt>
<pdfrwt beam="1">  1        2 0.19138525E-01 0.80198239E+02</pdfrwt>
<pdfrwt beam="2">  1       -1 0.19885407E-02 0.80198239E+02</pdfrwt>
<totfact> 0.18766311E+05</totfact>
</mgrwt>
</event>
<event>
 8    1  0.2603554E-016  0.7886694E+02  0.7818608E-02  0.1332298E+00
         -1   -1    0    0    0  501 -0.00000000000E+00  0.00000000000E+00  0.25893394514E+01  0.25893443565E+01  0.50400000000E-02 0.  1.
          2   -1    0    0  501    0  0.00000000000E+00 -0.00000000000E+00 -0.60053808315E+03  0.60053808316E+03  0.25500000000E-02 0. -1.
         24    2    1    2    0    0  0.00000000000E+00  0.00000000000E+00 -0.59794874370E+03  0.60312742751E+03  0.78866936840E+02 0.  0.
         66    2    3    3    0    0  0.18179148266E+02  0.16198625061E+02 -0.53612667724E+03  0.53668304513E+03  0.19999976438E+01 0.  0.
        -13    1    3    3    0    0 -0.18179148266E+02 -0.16198625061E+02 -0.61822066457E+02  0.66444382385E+02  0.10566000000E+00 0.  1.
         13    1    4    4    0    0  0.32496821144E+01  0.22948111318E+01 -0.87592800963E+02  0.87683159937E+02  0.10566000000E+00 0. -1.
        -13    1    4    4    0    0  0.12265132498E+02  0.10773660691E+02 -0.35110091066E+03  0.35148024962E+03  0.10566000000E+00 0.  1.
        -14    1    4    4    0    0  0.26643336537E+01  0.31301532376E+01 -0.97432965619E+02  0.97519635574E+02  0.00000000000E+00 0.  1.
<mgrwt>
<rscale>  0 0.78866937E+02</rscale>
<asrwt>0</asrwt>
<pdfrwt beam="1">  1        2 0.92390364E-01 0.78866937E+02</pdfrwt>
<pdfrwt beam="2">  1       -1 0.39836077E-03 0.78866937E+02</pdfrwt>
<totfact> 0.33387255E+05</totfact>
</mgrwt>
</event>
<event>
 8    1  0.2603554E-016  0.7836993E+02  0.7818608E-02  0.1333742E+00
         -1   -1    0    0    0  501 -0.00000000000E+00  0.00000000000E+00  0.24774099160E+02  0.24774099672E+02  0.50400000000E-02 0.  1.
          2   -1    0    0  501    0  0.00000000000E+00 -0.00000000000E+00 -0.61978500531E+02  0.61978500584E+02  0.25500000000E-02 0. -1.
         24    2    1    2    0    0  0.71054273576E-14  0.17763568394E-14 -0.37204401371E+02  0.86752600256E+02  0.78369931541E+02 0.  0.
         66    2    3    3    0    0  0.28313210166E+02  0.10682855377E+02 -0.46126157195E+02  0.55203112782E+02  0.20000035791E+01 0.  0.
        -13    1    3    3    0    0 -0.28313210166E+02 -0.10682855377E+02  0.89217558236E+01  0.31549487474E+02  0.10566000000E+00 0.  1.
         13    1    4    4    0    0  0.70618542986E+01  0.29403157625E+01 -0.11463350446E+02  0.13781683874E+02  0.10566000000E+00 0. -1.
        -13    1    4    4    0    0  0.30744456484E+00  0.28319147846E+00 -0.48704085389E+00  0.65045553490E+00  0.10566000000E+00 0.  1.
        -14    1    4    4    0    0  0.20943911302E+02  0.74593481357E+01 -0.34175765895E+02  0.40770973372E+02  0.00000000000E+00 0.  1.
<mgrwt>
<rscale>  0 0.78369932E+02</rscale>
<asrwt>0</asrwt>
<pdfrwt beam="1">  1        2 0.95351540E-02 0.78369932E+02</pdfrwt>
<pdfrwt beam="2">  1       -1 0.38113999E-02 0.78369932E+02</pdfrwt>
<totfact> 0.16585131E+05</totfact>
</mgrwt>
</event>
<event>
 8    1  0.2603554E-016  0.8110301E+02  0.7818608E-02  0.1325950E+00
          2   -1    0    0  501    0  0.00000000000E+00  0.00000000000E+00  0.28095584160E+02  0.28095584275E+02  0.25500000000E-02 0. -1.
         -1   -1    0    0    0  501 -0.00000000000E+00 -0.00000000000E+00 -0.58529649039E+02  0.58529649256E+02  0.50400000000E-02 0.  1.
         24    2    1    2    0    0  0.35527136788E-14  0.44408920985E-15 -0.30434064879E+02  0.86625233531E+02  0.81103013380E+02 0.  0.
         66    2    3    3    0    0  0.31357352383E+02  0.37762504764E+01  0.11897229535E+02  0.33809579915E+02  0.20000018223E+01 0.  0.
        -13    1    3    3    0    0 -0.31357352383E+02 -0.37762504764E+01 -0.42331294414E+02  0.52815653616E+02  0.10566000000E+00 0.  1.
         13    1    4    4    0    0  0.45313292793E+01  0.77660566262E+00  0.17669396269E+01  0.49263882382E+01  0.10566000000E+00 0. -1.
        -13    1    4    4    0    0  0.22639390574E+02  0.18986298951E+01  0.84586724096E+01  0.24242671140E+02  0.10566000000E+00 0.  1.
        -14    1    4    4    0    0  0.41866325293E+01  0.11010149188E+01  0.16716174982E+01  0.46405205362E+01  0.00000000000E+00 0.  1.
<mgrwt>
<rscale>  0 0.81103013E+02</rscale>
<asrwt>0</asrwt>
<pdfrwt beam="1">  1        2 0.43223976E-02 0.81103013E+02</pdfrwt>
<pdfrwt beam="2">  1       -1 0.90045614E-02 0.81103013E+02</pdfrwt>
<totfact> 0.12779975E+05</totfact>
</mgrwt>
</event>
<event>
 8    1  0.2603554E-016  0.8264515E+02  0.7818608E-02  0.1321708E+00
         -1   -1    0    0    0  501 -0.00000000000E+00  0.00000000000E+00  0.38406770970E+02  0.38406771301E+02  0.50400000000E-02 0.  1.
          2   -1    0    0  501    0  0.00000000000E+00 -0.00000000000E+00 -0.44459747401E+02  0.44459747474E+02  0.25500000000E-02 0. -1.
         24    2    1    2    0    0  0.00000000000E+00  0.00000000000E+00 -0.60529764304E+01  0.82866518775E+02  0.82645153580E+02 0.  0.
         66    2    3    3    0    0 -0.18375969970E+02 -0.20084238757E+02 -0.34167799189E+02  0.43732041117E+02  0.19999999996E+01 0.  0.
        -13    1    3    3    0    0  0.18375969970E+02  0.20084238757E+02  0.28114822759E+02  0.39134477658E+02  0.10566000000E+00 0.  1.
         13    1    4    4    0    0 -0.10053319686E+02 -0.10556823592E+02 -0.19708984576E+02  0.24514709832E+02  0.10566000000E+00 0. -1.
        -13    1    4    4    0    0 -0.33690628167E+01 -0.36897074270E+01 -0.59808798274E+01  0.77940113360E+01  0.10566000000E+00 0.  1.
        -14    1    4    4    0    0 -0.49535874672E+01 -0.58377077377E+01 -0.84779347852E+01  0.11423319949E+02  0.00000000000E+00 0.  1.
<mgrwt>
<rscale>  0 0.82645154E+02</rscale>
<asrwt>0</asrwt>
<pdfrwt beam="1">  1        2 0.68399612E-02 0.82645154E+02</pdfrwt>
<pdfrwt beam="2">  1       -1 0.59087340E-02 0.82645154E+02</pdfrwt>
<totfact> 0.13321338E+05</totfact>
</mgrwt>
</event>
<event>
 8    1  0.2603554E-016  0.7964553E+02  0.7818608E-02  0.1330060E+00
          2   -1    0    0  501    0  0.00000000000E+00  0.00000000000E+00  0.35703184248E+03  0.35703184249E+03  0.25500000000E-02 0. -1.
         -1   -1    0    0    0  501 -0.00000000000E+00 -0.00000000000E+00 -0.44417668966E+01  0.44417697560E+01  0.50400000000E-02 0.  1.
         24    2    1    2    0    0  0.17763568394E-14  0.35527136788E-14  0.35259007558E+03  0.36147361225E+03  0.79645533143E+02 0.  0.
         66    2    3    3    0    0 -0.15983847675E+02  0.12663042792E+02  0.33151553129E+03  0.33214813492E+03  0.20000011895E+01 0.  0.
        -13    1    3    3    0    0  0.15983847675E+02 -0.12663042792E+02  0.21074544298E+02  0.29325477330E+02  0.10566000000E+00 0.  1.
         13    1    4    4    0    0 -0.16975098500E+01  0.15733454854E+01  0.30025070081E+02  0.30114331358E+02  0.10566000000E+00 0.  1.
        -13    1    4    4    0    0 -0.37916618478E+01  0.24730427164E+01  0.77155610484E+02  0.77288369325E+02  0.10566000000E+00 0. -1.
         14    1    4    4    0    0 -0.10494675977E+02  0.86166545900E+01  0.22433485072E+03  0.22474543423E+03  0.00000000000E+00 0. -1.
<mgrwt>
<rscale>  0 0.79645533E+02</rscale>
<asrwt>0</asrwt>
<pdfrwt beam="1">  1        2 0.54927986E-01 0.79645533E+02</pdfrwt>
<pdfrwt beam="2">  1       -1 0.68334885E-03 0.79645533E+02</pdfrwt>
<totfact> 0.27458436E+05</totfact>
</mgrwt>
</event>
<event>
 8    1  0.2603554E-016  0.7723605E+02  0.7818608E-02  0.1337083E+00
         -1   -1    0    0    0  501 -0.00000000000E+00  0.00000000000E+00  0.33807717005E+03  0.33807717009E+03  0.50400000000E-02 0.  1.
          2   -1    0    0  501    0  0.00000000000E+00 -0.00000000000E+00 -0.44112760823E+01  0.44112768193E+01  0.25500000000E-02 0. -1.
         24    2    1    2    0    0 -0.71054273576E-14 -0.88817841970E-15  0.33366589397E+03  0.34248844691E+03  0.77236050309E+02 0.  0.
         66    2    3    3    0    0  0.36911554897E+02  0.63887517400E+01  0.12580618542E+03  0.13128014064E+03  0.20000008300E+01 0.  0.
        -13    1    3    3    0    0 -0.36911554897E+02 -0.63887517400E+01  0.20785970855E+03  0.21120830627E+03  0.10566000000E+00 0.  1.
         13    1    4    4    0    0  0.19955738092E+02  0.33093166969E+01  0.69094537622E+02  0.71994786985E+02  0.10566000000E+00 0. -1.
        -13    1    4    4    0    0  0.16188273430E+02  0.27353428766E+01  0.54494750373E+02  0.56914244962E+02  0.10566000000E+00 0.  1.
        -14    1    4    4    0    0  0.76754337463E+00  0.34409216661E+00  0.22168974245E+01  0.23711086947E+01  0.00000000000E+00 0.  1.
<mgrwt>
<rscale>  0 0.77236050E+02</rscale>
<asrwt>0</asrwt>
<pdfrwt beam="1">  1        2 0.67865788E-03 0.77236050E+02</pdfrwt>
<pdfrwt beam="2">  1       -1 0.52011875E-01 0.77236050E+02</pdfrwt>
<totfact> 0.89907355E+04</totfact>
</mgrwt>
</event>
<event>
 8    1  0.2603554E-016  0.8009123E+02  0.7818608E-02  0.1328793E+00
         -1   -1    0    0    0  501 -0.00000000000E+00  0.00000000000E+00  0.52299518600E+01  0.52299542885E+01  0.50400000000E-02 0.  1.
          2   -1    0    0  501    0  0.00000000000E+00 -0.00000000000E+00 -0.30662820591E+03  0.30662820592E+03  0.25500000000E-02 0. -1.
         24    2    1    2    0    0  0.35527136788E-14  0.00000000000E+00 -0.30139825405E+03  0.31185816021E+03  0.80091226389E+02 0.  0.
         66    2    3    3    0    0 -0.22822561278E+02 -0.16930899071E+02 -0.26052037988E+03  0.26207325881E+03  0.20000008089E+01 0.  0.
        -13    1    3    3    0    0  0.22822561278E+02  0.16930899071E+02 -0.40877874167E+02  0.49784901397E+02  0.10566000000E+00 0.  1.
         13    1    4    4    0    0 -0.18140704199E+02 -0.13116040909E+02 -0.20416641496E+03  0.20538999936E+03  0.10566000000E+00 0. -1.
        -13    1    4    4    0    0 -0.35045494106E+01 -0.27312273200E+01 -0.37785821445E+02  0.38046299893E+02  0.10566000000E+00 0.  1.
         14    1    4    4    0    0 -0.11773076690E+01 -0.10836308429E+01 -0.18568143480E+02  0.18636959555E+02  0.00000000000E+00 0. -1.
<mgrwt>
<rscale>  0 0.80091226E+02</rscale>
<asrwt>0</asrwt>
<pdfrwt beam="1">  1        2 0.47173556E-01 0.80091226E+02</pdfrwt>
<pdfrwt beam="2">  1       -1 0.80460841E-03 0.80091226E+02</pdfrwt>
<totfact> 0.25620263E+05</totfact>
</mgrwt>
</event>
<event>
 8    1  0.2603554E-016  0.7896556E+02  0.7818608E-02  0.1332013E+00
         -1   -1    0    0    0  501 -0.00000000000E+00  0.00000000000E+00  0.39870657538E+01  0.39870689393E+01  0.50400000000E-02 0.  1.
          2   -1    0    0  501    0  0.00000000000E+00 -0.00000000000E+00 -0.39098657206E+03  0.39098657207E+03  0.25500000000E-02 0. -1.
         24    2    1    2    0    0  0.00000000000E+00  0.00000000000E+00 -0.38699950631E+03  0.39497364101E+03  0.78965557109E+02 0.  0.
         66    2    3    3    0    0 -0.30296611138E+02  0.22462577276E+02 -0.25161753628E+03  0.25443631146E+03  0.20000002857E+01 0.  0.
        -13    1    3    3    0    0  0.30296611138E+02 -0.22462577276E+02 -0.13538197002E+03  0.14053732955E+03  0.10566000000E+00 0.  1.
         13    1    4    4    0    0 -0.10081037588E+01  0.76115324660E+00 -0.80742873814E+01  0.81731822570E+01  0.10566000000E+00 0.  1.
        -13    1    4    4    0    0 -0.14589262366E+02  0.11470930884E+02 -0.11882805325E+03  0.12026864195E+03  0.10566000000E+00 0.  1.
         14    1    4    4    0    0 -0.14699245013E+02  0.10230493145E+02 -0.12471519565E+03  0.12599448726E+03  0.00000000000E+00 0. -1.
<mgrwt>
<rscale>  0 0.78965557E+02</rscale>
<asrwt>0</asrwt>
<pdfrwt beam="1">  1        2 0.60151750E-01 0.78965557E+02</pdfrwt>
<pdfrwt beam="2">  1       -1 0.61339529E-03 0.78965557E+02</pdfrwt>
<totfact> 0.28997664E+05</totfact>
</mgrwt>
</event>
<event>
 8    1  0.2603554E-016  0.7768185E+02  0.7818608E-02  0.1335762E+00
          2   -1    0    0  501    0  0.00000000000E+00  0.00000000000E+00  0.13952186845E+03  0.13952186847E+03  0.25500000000E-02 0. -1.
         -1   -1    0    0    0  501 -0.00000000000E+00 -0.00000000000E+00 -0.10812765872E+02  0.10812767047E+02  0.50400000000E-02 0.  1.
         24    2    1    2    0    0  0.00000000000E+00  0.00000000000E+00  0.12870910257E+03  0.15033463552E+03  0.77681848269E+02 0.  0.
         66    2    3    3    0    0 -0.36282189361E+02 -0.13537728779E+02  0.59296989387E+02  0.70850549144E+02  0.19999995718E+01 0.  0.
        -13    1    3    3    0    0  0.36282189361E+02  0.13537728779E+02  0.69412113187E+02  0.79484086373E+02  0.10566000000E+00 0.  1.
         13    1    4    4    0    0 -0.10151763472E+02 -0.43798121826E+01  0.16773958197E+02  0.20090243751E+02  0.10566000000E+00 0. -1.
        -13    1    4    4    0    0 -0.15145056144E+02 -0.58461673837E+01  0.25639417875E+02  0.30347014873E+02  0.10566000000E+00 0.  1.
         14    1    4    4    0    0 -0.10985369745E+02 -0.33117492131E+01  0.16883613315E+02  0.20413290520E+02  0.00000000000E+00 0. -1.
<mgrwt>
<rscale>  0 0.77681848E+02</rscale>
<asrwt>0</asrwt>
<pdfrwt beam="1">  1        2 0.21464901E-01 0.77681848E+02</pdfrwt>
<pdfrwt beam="2">  1       -1 0.16635027E-02 0.77681848E+02</pdfrwt>
<totfact> 0.21161204E+05</totfact>
</mgrwt>
</event>
<event>
 8    1  0.2603554E-016  0.8045093E+02  0.7818608E-02  0.1327777E+00
         -1   -1    0    0    0  501 -0.00000000000E+00  0.00000000000E+00  0.44012961203E+01  0.44012990060E+01  0.50400000000E-02 0.  1.
          2   -1    0    0  501    0  0.00000000000E+00 -0.00000000000E+00 -0.36763882989E+03  0.36763882990E+03  0.25500000000E-02 0. -1.
         24    2    1    2    0    0  0.00000000000E+00  0.00000000000E+00 -0.36323753377E+03  0.37204012890E+03  0.80450926510E+02 0.  0.
         66    2    3    3    0    0  0.21646401349E+02  0.17701341963E+02 -0.31529435038E+03  0.31653819925E+03  0.19999998411E+01 0.  0.
        -13    1    3    3    0    0 -0.21646401349E+02 -0.17701341963E+02 -0.47943183385E+02  0.55501929658E+02  0.10566000000E+00 0.  1.
         13    1    4    4    0    0  0.59079984838E+01  0.41169837742E+01 -0.82144094018E+02  0.82459185950E+02  0.10566000000E+00 0. -1.
        -13    1    4    4    0    0  0.37010820602E+01  0.25579089308E+01 -0.52898880695E+02  0.53089958083E+02  0.10566000000E+00 0.  1.
        -14    1    4    4    0    0  0.12037320805E+02  0.11026449258E+02 -0.18025137567E+03  0.18098905521E+03  0.00000000000E+00 0.  1.
<mgrwt>
<rscale>  0 0.80450927E+02</rscale>
<asrwt>0</asrwt>
<pdfrwt beam="1">  1        2 0.56559796E-01 0.80450927E+02</pdfrwt>
<pdfrwt beam="2">  1       -1 0.67712299E-03 0.80450927E+02</pdfrwt>
<totfact> 0.27024740E+05</totfact>
</mgrwt>
</event>
<event>
 8    1  0.2603554E-016  0.8067883E+02  0.7818608E-02  0.1327136E+00
          2   -1    0    0  501    0  0.00000000000E+00  0.00000000000E+00  0.15279107780E+03  0.15279107782E+03  0.25500000000E-02 0. -1.
         -1   -1    0    0    0  501 -0.00000000000E+00 -0.00000000000E+00 -0.10650282632E+02  0.10650283825E+02  0.50400000000E-02 0.  1.
         24    2    1    2    0    0  0.00000000000E+00 -0.44408920985E-15  0.14214079517E+03  0.16344136165E+03  0.80678826502E+02 0.  0.
         66    2    3    3    0    0 -0.19594817821E+02 -0.34008753201E+01  0.14215496055E+03  0.14355331994E+03  0.20000045408E+01 0.  0.
        -13    1    3    3    0    0  0.19594817821E+02  0.34008753201E+01 -0.14165378229E-01  0.19888041711E+02  0.10566000000E+00 0.  1.
         13    1    4    4    0    0 -0.15090149780E+02 -0.25549890985E+01  0.10655720500E+03  0.10765077654E+03  0.10566000000E+00 0. -1.
        -13    1    4    4    0    0 -0.20292845841E+01 -0.66825409263E+00  0.13961128811E+02  0.14124051868E+02  0.10566000000E+00 0.  1.
         14    1    4    4    0    0 -0.24753834575E+01 -0.17763212897E+00  0.21636626738E+02  0.21778491523E+02  0.00000000000E+00 0. -1.
<mgrwt>
<rscale>  0 0.80678827E+02</rscale>
<asrwt>0</asrwt>
<pdfrwt beam="1">  1        2 0.23506319E-01 0.80678827E+02</pdfrwt>
<pdfrwt beam="2">  1       -1 0.16385052E-02 0.80678827E+02</pdfrwt>
<totfact> 0.19702897E+05</totfact>
</mgrwt>
</event>
<event>
 8    1  0.2603554E-016  0.7911371E+02  0.7818608E-02  0.1331586E+00
         -1   -1    0    0    0  501 -0.00000000000E+00  0.00000000000E+00  0.92476458685E+01  0.92476472419E+01  0.50400000000E-02 0.  1.
          2   -1    0    0  501    0  0.00000000000E+00 -0.00000000000E+00 -0.16920466735E+03  0.16920466737E+03  0.25500000000E-02 0. -1.
         24    2    1    2    0    0 -0.17763568394E-14 -0.71054273576E-14 -0.15995702148E+03  0.17845231461E+03  0.79113714796E+02 0.  0.
         66    2    3    3    0    0  0.15603230426E+02  0.34840032386E+02 -0.56866389753E+02  0.68520616859E+02  0.19999987002E+01 0.  0.
        -13    1    3    3    0    0 -0.15603230426E+02 -0.34840032386E+02 -0.10309063173E+03  0.10993169775E+03  0.10566000000E+00 0.  1.
         13    1    4    4    0    0  0.10470336609E+02  0.21369124837E+02 -0.35397995330E+02  0.42653214210E+02  0.10566000000E+00 0. -1.
        -13    1    4    4    0    0  0.32747175918E+01  0.78953548581E+01 -0.12387126595E+02  0.15050331324E+02  0.10566000000E+00 0.  1.
         14    1    4    4    0    0  0.18581762251E+01  0.55755526917E+01 -0.90812678270E+01  0.10817071325E+02  0.00000000000E+00 0. -1.
<mgrwt>
<rscale>  0 0.79113715E+02</rscale>
<asrwt>0</asrwt>
<pdfrwt beam="1">  1        2 0.26031485E-01 0.79113715E+02</pdfrwt>
<pdfrwt beam="2">  1       -1 0.14227150E-02 0.79113715E+02</pdfrwt>
<totfact> 0.21459976E+05</totfact>
</mgrwt>
</event>
<event>
 8    1  0.2603554E-016  0.7876199E+02  0.7818608E-02  0.1332602E+00
          2   -1    0    0  501    0  0.00000000000E+00  0.00000000000E+00  0.51645890328E+02  0.51645890391E+02  0.25500000000E-02 0. -1.
         -1   -1    0    0    0  501 -0.00000000000E+00 -0.00000000000E+00 -0.30028774272E+02  0.30028774695E+02  0.50400000000E-02 0.  1.
         24    2    1    2    0    0  0.17763568394E-14 -0.35527136788E-14  0.21617116056E+02  0.81674665086E+02  0.78761990899E+02 0.  0.
         66    2    3    3    0    0  0.15564965784E+02 -0.27138431929E+02  0.35575150717E+02  0.47416811343E+02  0.20000005003E+01 0.  0.
        -13    1    3    3    0    0 -0.15564965784E+02  0.27138431929E+02 -0.13958034661E+02  0.34257853743E+02  0.10566000000E+00 0.  1.
         13    1    4    4    0    0  0.12450812275E+02 -0.22370198118E+02  0.29102553742E+02  0.38761040859E+02  0.10566000000E+00 0. -1.
        -13    1    4    4    0    0  0.31417443612E+01 -0.47625502599E+01  0.63832890520E+01  0.85621250730E+01  0.10566000000E+00 0.  1.
         14    1    4    4    0    0 -0.27590852374E-01 -0.56835510614E-02  0.89307922838E-01  0.93645410827E-01  0.00000000000E+00 0. -1.
<mgrwt>
<rscale>  0 0.78761991E+02</rscale>
<asrwt>0</asrwt>
<pdfrwt beam="1">  1        2 0.79455215E-02 0.78761991E+02</pdfrwt>
<pdfrwt beam="2">  1       -1 0.46198116E-02 0.78761991E+02</pdfrwt>
<totfact> 0.15704542E+05</totfact>
</mgrwt>
</event>
<event>
 8    1  0.2603554E-016  0.7995971E+02  0.7818608E-02  0.1329166E+00
          2   -1    0    0  501    0  0.00000000000E+00  0.00000000000E+00  0.11012334017E+03  0.11012334020E+03  0.25500000000E-02 0. -1.
         -1   -1    0    0    0  501 -0.00000000000E+00 -0.00000000000E+00 -0.14514531948E+02  0.14514532823E+02  0.50400000000E-02 0.  1.
         24    2    1    2    0    0  0.00000000000E+00 -0.88817841970E-15  0.95608808223E+02  0.12463787302E+03  0.79959709743E+02 0.  0.
         66    2    3    3    0    0 -0.95926805707E+01  0.66924869305E+01  0.10738563433E+03  0.10803926769E+03  0.19999997100E+01 0.  0.
        -13    1    3    3    0    0  0.95926805707E+01 -0.66924869305E+01 -0.11776826112E+02  0.16598605338E+02  0.10566000000E+00 0.  1.
         13    1    4    4    0    0 -0.71085409649E+01  0.47319558239E+01  0.77086820777E+02  0.77558441592E+02  0.10566000000E+00 0. -1.
        -13    1    4    4    0    0 -0.11226040357E+01  0.15052087187E+01  0.18323150317E+02  0.18419416241E+02  0.10566000000E+00 0.  1.
        -14    1    4    4    0    0 -0.13615355701E+01  0.45532238790E+00  0.11975663241E+02  0.12061409853E+02  0.00000000000E+00 0.  1.
<mgrwt>
<rscale>  0 0.79959710E+02</rscale>
<asrwt>0</asrwt>
<pdfrwt beam="1">  1        2 0.16942052E-01 0.79959710E+02</pdfrwt>
<pdfrwt beam="2">  1       -1 0.22330050E-02 0.79959710E+02</pdfrwt>
<totfact> 0.18244242E+05</totfact>
</mgrwt>
</event>
<event>
 8    1  0.2603554E-016  0.8090542E+02  0.7818608E-02  0.1326501E+00
          2   -1    0    0  501    0  0.00000000000E+00  0.00000000000E+00  0.60142568831E+03  0.60142568832E+03  0.25500000000E-02 0. -1.
         -1   -1    0    0    0  501 -0.00000000000E+00 -0.00000000000E+00 -0.27209022799E+01  0.27209069478E+01  0.50400000000E-02 0.  1.
         24    2    1    2    0    0  0.00000000000E+00  0.00000000000E+00  0.59870478603E+03  0.60414659526E+03  0.80905424743E+02 0.  0.
         66    2    3    3    0    0 -0.21448752061E+02 -0.14164055129E+02  0.53255195871E+03  0.53317563536E+03  0.19999992231E+01 0.  0.
        -13    1    3    3    0    0  0.21448752061E+02  0.14164055129E+02  0.66152827325E+02  0.70970959905E+02  0.10566000000E+00 0.  1.
         13    1    4    4    0    0 -0.10516619712E+01 -0.67140480730E+00  0.20344896234E+02  0.20383393832E+02  0.10566000000E+00 0. -1.
        -13    1    4    4    0    0 -0.44523806977E+00 -0.36856145780E+00  0.93775616792E+01  0.93959513392E+01  0.10566000000E+00 0.  1.
         14    1    4    4    0    0 -0.19951852020E+02 -0.13124088863E+02  0.50282950079E+03  0.50339629019E+03  0.00000000000E+00 0. -1.
<mgrwt>
<rscale>  0 0.80905425E+02</rscale>
<asrwt>0</asrwt>
<pdfrwt beam="1">  1        2 0.92527085E-01 0.80905425E+02</pdfrwt>
<pdfrwt beam="2">  1       -1 0.41860046E-03 0.80905425E+02</pdfrwt>
<totfact> 0.31255391E+05</totfact>
</mgrwt>
</event>
<event>
 8    1  0.2603554E-016  0.8071378E+02  0.7818608E-02  0.1327038E+00
          2   -1    0    0  501    0  0.00000000000E+00  0.00000000000E+00  0.38617044903E+03  0.38617044904E+03  0.25500000000E-02 0. -1.
         -1   -1    0    0    0  501 -0.00000000000E+00 -0.00000000000E+00 -0.42175101551E+01  0.42175131665E+01  0.50400000000E-02 0.  1.
         24    2    1    2    0    0  0.00000000000E+00  0.00000000000E+00  0.38195293888E+03  0.39038796221E+03  0.80713775277E+02 0.  0.
         66    2    3    3    0    0  0.38735972242E+02 -0.35374257837E+01  0.24266366489E+03  0.24576949196E+03  0.19999975647E+01 0.  0.
        -13    1    3    3    0    0 -0.38735972242E+02  0.35374257837E+01  0.13928927399E+03  0.14461847025E+03  0.10566000000E+00 0.  1.
         13    1    4    4    0    0  0.27701892687E+02 -0.28341664765E+01  0.17539571964E+03  0.17759250263E+03  0.10566000000E+00 0. -1.
        -13    1    4    4    0    0  0.30323924986E+01 -0.28817203854E-01  0.20836033340E+02  0.21055823045E+02  0.10566000000E+00 0.  1.
         14    1    4    4    0    0  0.80016870568E+01 -0.67444210336E+00  0.46431911910E+02  0.47121166280E+02  0.00000000000E+00 0. -1.
<mgrwt>
<rscale>  0 0.80713775E+02</rscale>
<asrwt>0</asrwt>
<pdfrwt beam="1">  1        2 0.59410814E-01 0.80713775E+02</pdfrwt>
<pdfrwt beam="2">  1       -1 0.64884822E-03 0.80713775E+02</pdfrwt>
<totfact> 0.27266081E+05</totfact>
</mgrwt>
</event>
<event>
 8    1  0.2603554E-016  0.7962276E+02  0.7818608E-02  0.1330125E+00
         -1   -1    0    0    0  501 -0.00000000000E+00  0.00000000000E+00  0.32087717992E+01  0.32087757573E+01  0.50400000000E-02 0.  1.
          2   -1    0    0  501    0  0.00000000000E+00 -0.00000000000E+00 -0.49394129410E+03  0.49394129411E+03  0.25500000000E-02 0. -1.
         24    2    1    2    0    0 -0.35527136788E-14 -0.35527136788E-14 -0.49073252230E+03  0.49715006986E+03  0.79622757563E+02 0.  0.
         66    2    3    3    0    0  0.23943563350E+02  0.23860487718E+02 -0.37654027404E+03  0.37805977711E+03  0.19999995895E+01 0.  0.
        -13    1    3    3    0    0 -0.23943563350E+02 -0.23860487718E+02 -0.11419224826E+03  0.11909029275E+03  0.10566000000E+00 0.  1.
         13    1    4    4    0    0  0.11522782154E+02  0.10753537991E+02 -0.17497935743E+03  0.17568779064E+03  0.10566000000E+00 0. -1.
        -13    1    4    4    0    0  0.43614104554E+01  0.53513363645E+01 -0.73544013810E+02  0.73867393573E+02  0.10566000000E+00 0.  1.
        -14    1    4    4    0    0  0.80593707410E+01  0.77556133627E+01 -0.12801690279E+03  0.12850459290E+03  0.00000000000E+00 0.  1.
<mgrwt>
<rscale>  0 0.79622758E+02</rscale>
<asrwt>0</asrwt>
<pdfrwt beam="1">  1        2 0.75990908E-01 0.79622758E+02</pdfrwt>
<pdfrwt beam="2">  1       -1 0.49365790E-03 0.79622758E+02</pdfrwt>
<totfact> 0.30708789E+05</totfact>
</mgrwt>
</event>
<event>
 8    1  0.2603554E-016  0.8036733E+02  0.7818608E-02  0.1328012E+00
         -1   -1    0    0    0  501 -0.00000000000E+00  0.00000000000E+00  0.31851130983E+02  0.31851131382E+02  0.50400000000E-02 0.  1.
          2   -1    0    0  501    0  0.00000000000E+00 -0.00000000000E+00 -0.50696064803E+02  0.50696064867E+02  0.25500000000E-02 0. -1.
         24    2    1    2    0    0  0.00000000000E+00  0.00000000000E+00 -0.18844933819E+02  0.82547196249E+02  0.80367332156E+02 0.  0.
         66    2    3    3    0    0  0.35677614767E+02  0.10601906751E+02 -0.24918096580E+02  0.44835300352E+02  0.19999995654E+01 0.  0.
        -13    1    3    3    0    0 -0.35677614767E+02 -0.10601906751E+02  0.60731627608E+01  0.37711895897E+02  0.10566000000E+00 0.  1.
         13    1    4    4    0    0  0.19740700252E+02  0.64996274782E+01 -0.13975594161E+02  0.25045334895E+02  0.10566000000E+00 0. -1.
        -13    1    4    4    0    0  0.84850206117E+01  0.22387730404E+01 -0.64496993201E+01  0.10891164532E+02  0.10566000000E+00 0.  1.
         14    1    4    4    0    0  0.74518939026E+01  0.18635062329E+01 -0.44928030983E+01  0.88988009247E+01  0.00000000000E+00 0. -1.
<mgrwt>
<rscale>  0 0.80367332E+02</rscale>
<asrwt>0</asrwt>
<pdfrwt beam="1">  1        2 0.77993946E-02 0.80367332E+02</pdfrwt>
<pdfrwt beam="2">  1       -1 0.49001741E-02 0.80367332E+02</pdfrwt>
<totfact> 0.14801255E+05</totfact>
</mgrwt>
</event>
<event>
 8    1  0.2603554E-016  0.7860838E+02  0.7818608E-02  0.1333048E+00
         -1   -1    0    0    0  501 -0.00000000000E+00  0.00000000000E+00  0.83452333413E+01  0.83452348633E+01  0.50400000000E-02 0.  1.
          2   -1    0    0  501    0  0.00000000000E+00 -0.00000000000E+00 -0.18511394215E+03  0.18511394216E+03  0.25500000000E-02 0. -1.
         24    2    1    2    0    0  0.00000000000E+00  0.10061396161E-15 -0.17676870880E+03  0.19345917703E+03  0.78608375911E+02 0.  0.
         66    2    3    3    0    0  0.24522252820E+02  0.12124693843E-01 -0.16395489044E+03  0.16579067263E+03  0.20000003038E+01 0.  0.
        -13    1    3    3    0    0 -0.24522252820E+02 -0.12124693843E-01 -0.12813818361E+02  0.27668504394E+02  0.10566000000E+00 0.  1.
         13    1    4    4    0    0  0.63401380411E+01 -0.69515369202E+00 -0.40780490257E+02  0.41276387181E+02  0.10566000000E+00 0. -1.
        -13    1    4    4    0    0  0.37387378230E+01  0.19507064167E+00 -0.23090005020E+02  0.23391787211E+02  0.10566000000E+00 0. -1.
         14    1    4    4    0    0  0.14443376956E+02  0.51220774419E+00 -0.10008439517E+03  0.10112249824E+03  0.00000000000E+00 0. -1.
<mgrwt>
<rscale>  0 0.78608376E+02</rscale>
<asrwt>0</asrwt>
<pdfrwt beam="1">  1        2 0.28479065E-01 0.78608376E+02</pdfrwt>
<pdfrwt beam="2">  1       -1 0.12838823E-02 0.78608376E+02</pdfrwt>
<totfact> 0.22496845E+05</totfact>
</mgrwt>
</event>
<event>
 8    1  0.2603554E-016  0.7781926E+02  0.7818608E-02  0.1335356E+00
          2   -1    0    0  501    0  0.00000000000E+00  0.00000000000E+00  0.21105764662E+01  0.21105780067E+01  0.25500000000E-02 0. -1.
         -1   -1    0    0    0  501 -0.00000000000E+00 -0.00000000000E+00 -0.71731998064E+03  0.71731998066E+03  0.50400000000E-02 0.  1.
         24    2    1    2    0    0  0.88817841970E-15 -0.71054273576E-14 -0.71520940417E+03  0.71943055866E+03  0.77819258037E+02 0.  0.
         66    2    3    3    0    0  0.62390566592E+01  0.34181539393E+02 -0.51920288634E+03  0.52036808189E+03  0.19999999692E+01 0.  0.
        -13    1    3    3    0    0 -0.62390566592E+01 -0.34181539393E+02 -0.19600651783E+03  0.19906247678E+03  0.10566000000E+00 0.  1.
         13    1    4    4    0    0  0.50749781768E+00  0.41363425310E+01 -0.65251568702E+02  0.65384595018E+02  0.10566000000E+00 0. -1.
        -13    1    4    4    0    0  0.20863009707E+01  0.84624301161E+01 -0.13769965139E+03  0.13797525333E+03  0.10566000000E+00 0.  1.
         14    1    4    4    0    0  0.36452578708E+01  0.21582766746E+02 -0.31625166625E+03  0.31700823354E+03  0.00000000000E+00 0. -1.
<mgrwt>
<rscale>  0 0.77819258E+02</rscale>
<asrwt>0</asrwt>
<pdfrwt beam="1">  1        2 0.32470476E-03 0.77819258E+02</pdfrwt>
<pdfrwt beam="2">  1       -1 0.11035673E+00 0.77819258E+02</pdfrwt>
<totfact> 0.54897884E+04</totfact>
</mgrwt>
</event>
<event>
 8    1  0.2603554E-016  0.7952152E+02  0.7818608E-02  0.1330415E+00
          2   -1    0    0  501    0  0.00000000000E+00  0.00000000000E+00  0.97902521197E+02  0.97902521230E+02  0.25500000000E-02 0. -1.
         -1   -1    0    0    0  501 -0.00000000000E+00 -0.00000000000E+00 -0.16147879495E+02  0.16147880281E+02  0.50400000000E-02 0.  1.
         24    2    1    2    0    0  0.00000000000E+00  0.00000000000E+00  0.81754641702E+02  0.11405040151E+03  0.79521523156E+02 0.  0.
         66    2    3    3    0    0 -0.25452186196E+02  0.29668838106E+02  0.51131277806E+02  0.64393022231E+02  0.20000013056E+01 0.  0.
        -13    1    3    3    0    0  0.25452186196E+02 -0.29668838106E+02  0.30623363896E+02  0.49657379281E+02  0.10566000000E+00 0.  1.
         13    1    4    4    0    0 -0.12392559059E+02  0.13526541197E+02  0.23788505080E+02  0.30040755230E+02  0.10566000000E+00 0. -1.
        -13    1    4    4    0    0 -0.19829674124E+01  0.25532440644E+01  0.36229427566E+01  0.48567574846E+01  0.10566000000E+00 0.  1.
        -14    1    4    4    0    0 -0.11076659724E+02  0.13589052844E+02  0.23719829969E+02  0.29495509516E+02  0.00000000000E+00 0.  1.
<mgrwt>
<rscale>  0 0.79521523E+02</rscale>
<asrwt>0</asrwt>
<pdfrwt beam="1">  1        2 0.15061926E-01 0.79521523E+02</pdfrwt>
<pdfrwt beam="2">  1       -1 0.24842892E-02 0.79521523E+02</pdfrwt>
<totfact> 0.17906931E+05</totfact>
</mgrwt>
</event>
<event>
 8    1  0.2603554E-016  0.7952914E+02  0.7818608E-02  0.1330393E+00
          2   -1    0    0  501    0  0.00000000000E+00  0.00000000000E+00  0.51421123302E+03  0.51421123303E+03  0.25500000000E-02 0. -1.
         -1   -1    0    0    0  501 -0.00000000000E+00 -0.00000000000E+00 -0.30750395343E+01  0.30750436645E+01  0.50400000000E-02 0.  1.
         24    2    1    2    0    0 -0.88817841970E-15  0.35527136788E-14  0.51113619349E+03  0.51728627669E+03  0.79529137815E+02 0.  0.
         66    2    3    3    0    0  0.58893802804E+01  0.25034262855E+02  0.45278211382E+03  0.45351630810E+03  0.19999994654E+01 0.  0.
        -13    1    3    3    0    0 -0.58893802804E+01 -0.25034262855E+02  0.58354079666E+02  0.63769968594E+02  0.10566000000E+00 0.  1.
         13    1    4    4    0    0  0.17771263918E+01  0.89292413776E+01  0.15896053372E+03  0.15922107893E+03  0.10566000000E+00 0. -1.
        -13    1    4    4    0    0 -0.93027850427E-01  0.59986973264E+00  0.91997137675E+01  0.92203251199E+01  0.10566000000E+00 0. -1.
        -14    1    4    4    0    0  0.42052817391E+01  0.15505151745E+02  0.28462186634E+03  0.28507490405E+03  0.00000000000E+00 0.  1.
<mgrwt>
<rscale>  0 0.79529138E+02</rscale>
<asrwt>0</asrwt>
<pdfrwt beam="1">  1        2 0.79109455E-01 0.79529138E+02</pdfrwt>
<pdfrwt beam="2">  1       -1 0.47308312E-03 0.79529138E+02</pdfrwt>
<totfact> 0.31198311E+05</totfact>
</mgrwt>
</event>
<event>
 8    1  0.2603554E-016  0.7985248E+02  0.7818608E-02  0.1329471E+00
          2   -1    0    0  501    0  0.00000000000E+00  0.00000000000E+00  0.12010420848E+04  0.12010420848E+04  0.25500000000E-02 0. -1.
         -1   -1    0    0    0  501 -0.00000000000E+00 -0.00000000000E+00 -0.13272632195E+01  0.13272727887E+01  0.50400000000E-02 0.  1.
         24    2    1    2    0    0  0.00000000000E+00  0.00000000000E+00  0.11997148215E+04  0.12023693575E+04  0.79852482457E+02 0.  0.
         66    2    3    3    0    0  0.87606763770E+01  0.21609882158E+02  0.10877671952E+04  0.10880189371E+04  0.20000019401E+01 0.  0.
        -13    1    3    3    0    0 -0.87606763770E+01 -0.21609882158E+02  0.11194762635E+03  0.11435042049E+03  0.10566000000E+00 0.  1.
         13    1    4    4    0    0  0.37196583589E+01  0.86652194991E+01  0.44881053270E+03  0.44890959815E+03  0.10566000000E+00 0. -1.
        -13    1    4    4    0    0  0.34096665941E+01  0.93281184912E+01  0.42650763965E+03  0.42662327346E+03  0.10566000000E+00 0.  1.
        -14    1    4    4    0    0  0.16313514240E+01  0.36165441678E+01  0.21244902284E+03  0.21248606544E+03  0.00000000000E+00 0.  1.
<mgrwt>
<rscale>  0 0.79852482E+02</rscale>
<asrwt>0</asrwt>
<pdfrwt beam="1">  1        2 0.18477609E+00 0.79852482E+02</pdfrwt>
<pdfrwt beam="2">  1       -1 0.20419466E-03 0.79852482E+02</pdfrwt>
<totfact> 0.35202965E+05</totfact>
</mgrwt>
</event>
<event>
 8    1  0.2603554E-016  0.7800028E+02  0.7818608E-02  0.1334824E+00
          2   -1    0    0  501    0  0.00000000000E+00  0.00000000000E+00  0.54868369479E+01  0.54868375405E+01  0.25500000000E-02 0. -1.
         -1   -1    0    0    0  501 -0.00000000000E+00 -0.00000000000E+00 -0.27721087203E+03  0.27721087208E+03  0.50400000000E-02 0.  1.
         24    2    1    2    0    0  0.44408920985E-15  0.71054273576E-14 -0.27172403508E+03  0.28269770962E+03  0.78000280647E+02 0.  0.
         66    2    3    3    0    0  0.26709194786E+01  0.38876332713E+02 -0.13852144972E+03  0.14391210890E+03  0.19999996025E+01 0.  0.
        -13    1    3    3    0    0 -0.26709194786E+01 -0.38876332713E+02 -0.13320258536E+03  0.13878560072E+03  0.10566000000E+00 0.  1.
         13    1    4    4    0    0  0.18214495119E+01  0.26794578367E+02 -0.97243037429E+02  0.10088352988E+03  0.10566000000E+00 0. -1.
        -13    1    4    4    0    0  0.27082407002E+00  0.46339638039E+01 -0.17407789807E+02  0.18016361348E+02  0.10566000000E+00 0.  1.
         14    1    4    4    0    0  0.57864589671E+00  0.74477905417E+01 -0.23870622487E+02  0.25012217673E+02  0.00000000000E+00 0. -1.
<mgrwt>
<rscale>  0 0.78000281E+02</rscale>
<asrwt>0</asrwt>
<pdfrwt beam="1">  1        2 0.84412902E-03 0.78000281E+02</pdfrwt>
<pdfrwt beam="2">  1       -1 0.42647816E-01 0.78000281E+02</pdfrwt>
<totfact> 0.95128072E+04</totfact>
</mgrwt>
</event>
<event>
 8    1  0.2603554E-016  0.8413383E+02  0.7818608E-02  0.1317713E+00
          2   -1    0    0  501    0  0.00000000000E+00  0.00000000000E+00  0.10445060681E+03  0.10445060684E+03  0.25500000000E-02 0. -1.
         -1   -1    0    0    0  501 -0.00000000000E+00 -0.00000000000E+00 -0.16942222943E+02  0.16942223692E+02  0.50400000000E-02 0.  1.
         24    2    1    2    0    0  0.00000000000E+00  0.00000000000E+00  0.87508383865E+02  0.12139283053E+03  0.84133834203E+02 0.  0.
         66    2    3    3    0    0  0.36007442337E+02 -0.21191475990E+02  0.37010354200E+02  0.55851418261E+02  0.20000113594E+01 0.  0.
        -13    1    3    3    0    0 -0.36007442337E+02  0.21191475990E+02  0.50498029665E+02  0.65541412270E+02  0.10566000000E+00 0.  1.
         13    1    4    4    0    0  0.97256227319E+01 -0.51364791750E+01  0.10391385807E+02  0.15131530618E+02  0.10566000000E+00 0. -1.
        -13    1    4    4    0    0  0.15721785024E+02 -0.90911975662E+01  0.16003158732E+02  0.24206128376E+02  0.10566000000E+00 0. -1.
         14    1    4    4    0    0  0.10560034581E+02 -0.69637992493E+01  0.10615809662E+02  0.16513759267E+02  0.00000000000E+00 0. -1.
<mgrwt>
<rscale>  0 0.84133834E+02</rscale>
<asrwt>0</asrwt>
<pdfrwt beam="1">  1        2 0.16069324E-01 0.84133834E+02</pdfrwt>
<pdfrwt beam="2">  1       -1 0.26064959E-02 0.84133834E+02</pdfrwt>
<totfact> 0.15675428E+05</totfact>
</mgrwt>
</event>
<event>
 8    1  0.2603554E-016  0.7902812E+02  0.7818608E-02  0.1331832E+00
          2   -1    0    0  501    0  0.00000000000E+00  0.00000000000E+00  0.18723126486E+04  0.18723126486E+04  0.25500000000E-02 0. -1.
         -1   -1    0    0    0  501 -0.00000000000E+00 -0.00000000000E+00 -0.83391346919E+00  0.83392869941E+00  0.50400000000E-02 0.  1.
         24    2    1    2    0    0  0.00000000000E+00 -0.44408920985E-15  0.18714787352E+04  0.18731465773E+04  0.79028121630E+02 0.  0.
         66    2    3    3    0    0 -0.13099205957E+02  0.24975017699E+01  0.18173253452E+04  0.18173753704E+04  0.20000001501E+01 0.  0.
        -13    1    3    3    0    0  0.13099205957E+02 -0.24975017699E+01  0.54153389978E+02  0.55771206925E+02  0.10566000000E+00 0.  1.
         13    1    4    4    0    0 -0.57486708367E+01  0.13539297743E+01  0.72809449175E+03  0.72811845219E+03  0.10566000000E+00 0. -1.
        -13    1    4    4    0    0 -0.59929112006E+01  0.10886865681E+01  0.94622793499E+03  0.94624754496E+03  0.10566000000E+00 0.  1.
        -14    1    4    4    0    0 -0.13576239201E+01  0.54885427531E-01  0.14300291846E+03  0.14300937327E+03  0.00000000000E+00 0.  1.
<mgrwt>
<rscale>  0 0.79028122E+02</rscale>
<asrwt>0</asrwt>
<pdfrwt beam="1">  1        2 0.28804692E+00 0.79028122E+02</pdfrwt>
<pdfrwt beam="2">  1       -1 0.12829608E-03 0.79028122E+02</pdfrwt>
<totfact> 0.30310077E+05</totfact>
</mgrwt>
</event>
<event>
 8    1  0.2603554E-016  0.7550311E+02  0.7818608E-02  0.1342320E+00
          2   -1    0    0  501    0  0.00000000000E+00  0.00000000000E+00  0.87841121285E+02  0.87841121322E+02  0.25500000000E-02 0. -1.
         -1   -1    0    0    0  501 -0.00000000000E+00 -0.00000000000E+00 -0.16224518563E+02  0.16224519346E+02  0.50400000000E-02 0.  1.
         24    2    1    2    0    0  0.00000000000E+00 -0.35527136788E-14  0.71616602722E+02  0.10406564067E+03  0.75503111077E+02 0.  0.
         66    2    3    3    0    0  0.12046561817E+02 -0.25287993454E+02  0.70662895358E+02  0.76038457679E+02  0.20000003508E+01 0.  0.
        -13    1    3    3    0    0 -0.12046561817E+02  0.25287993454E+02  0.95370736452E+00  0.28027182989E+02  0.10566000000E+00 0.  1.
         13    1    4    4    0    0  0.10163379621E+02 -0.21509307192E+02  0.59908181112E+02  0.64458869905E+02  0.10566000000E+00 0. -1.
        -13    1    4    4    0    0  0.18758697564E+01 -0.37932310257E+01  0.10455060554E+02  0.11279492196E+02  0.10566000000E+00 0.  1.
        -14    1    4    4    0    0  0.73124392183E-02  0.14544763947E-01  0.29965369142E+00  0.30009557928E+00  0.00000000000E+00 0.  1.
<mgrwt>
<rscale>  0 0.75503111E+02</rscale>
<asrwt>0</asrwt>
<pdfrwt beam="1">  1        2 0.13514019E-01 0.75503111E+02</pdfrwt>
<pdfrwt beam="2">  1       -1 0.24960798E-02 0.75503111E+02</pdfrwt>
<totfact> 0.19977107E+05</totfact>
</mgrwt>
</event>
<event>
 8    1  0.2603554E-016  0.8066949E+02  0.7818608E-02  0.1327162E+00
         -1   -1    0    0    0  501 -0.00000000000E+00  0.00000000000E+00  0.32778614260E+01  0.32778653007E+01  0.50400000000E-02 0.  1.
          2   -1    0    0  501    0  0.00000000000E+00 -0.00000000000E+00 -0.49632690107E+03  0.49632690108E+03  0.25500000000E-02 0. -1.
         24    2    1    2    0    0  0.00000000000E+00  0.35527136788E-14 -0.49304903965E+03  0.49960476638E+03  0.80669492951E+02 0.  0.
         66    2    3    3    0    0 -0.53801008617E+01 -0.21009939490E+02 -0.45711097149E+03  0.45762954810E+03  0.19999989647E+01 0.  0.
        -13    1    3    3    0    0  0.53801008617E+01  0.21009939490E+02 -0.35938068154E+02  0.41975218277E+02  0.10566000000E+00 0.  1.
         13    1    4    4    0    0 -0.11628326511E+01 -0.33037678886E+01 -0.74602854189E+02  0.74685099446E+02  0.10566000000E+00 0. -1.
        -13    1    4    4    0    0 -0.91243425824E+00 -0.28229035411E+01 -0.51616703546E+02  0.51701997734E+02  0.10566000000E+00 0.  1.
        -14    1    4    4    0    0 -0.33048339523E+01 -0.14883268061E+02 -0.33089141376E+03  0.33124245092E+03  0.00000000000E+00 0.  1.
<mgrwt>
<rscale>  0 0.80669493E+02</rscale>
<asrwt>0</asrwt>
<pdfrwt beam="1">  1        2 0.76357925E-01 0.80669493E+02</pdfrwt>
<pdfrwt beam="2">  1       -1 0.50428707E-03 0.80669493E+02</pdfrwt>
<totfact> 0.29726685E+05</totfact>
</mgrwt>
</event>
<event>
 8    1  0.2603554E-016  0.8120697E+02  0.7818608E-02  0.1325661E+00
         -1   -1    0    0    0  501 -0.00000000000E+00  0.00000000000E+00  0.75533618030E+01  0.75533634845E+01  0.50400000000E-02 0.  1.
          2   -1    0    0  501    0  0.00000000000E+00 -0.00000000000E+00 -0.21826607212E+03  0.21826607213E+03  0.25500000000E-02 0. -1.
         24    2    1    2    0    0  0.00000000000E+00  0.00000000000E+00 -0.21071271031E+03  0.22581943562E+03  0.81206965306E+02 0.  0.
         66    2    3    3    0    0  0.38892537849E+02  0.22370971950E+01 -0.13700422878E+03  0.14244926399E+03  0.20000003083E+01 0.  0.
        -13    1    3    3    0    0 -0.38892537849E+02 -0.22370971950E+01 -0.73708481530E+02  0.83370171630E+02  0.10566000000E+00 0.  1.
         13    1    4    4    0    0  0.74688395212E+00  0.25730658333E+00 -0.29557206680E+01  0.30612891106E+01  0.10566000000E+00 0.  1.
        -13    1    4    4    0    0  0.31865654981E+02  0.19967109741E+01 -0.11249421263E+03  0.11693744422E+03  0.10566000000E+00 0. -1.
        -14    1    4    4    0    0  0.62799989158E+01 -0.16920362458E-01 -0.21554295489E+02  0.22450530655E+02  0.00000000000E+00 0.  1.
<mgrwt>
<rscale>  0 0.81206965E+02</rscale>
<asrwt>0</asrwt>
<pdfrwt beam="1">  1        2 0.33579391E-01 0.81206965E+02</pdfrwt>
<pdfrwt beam="2">  1       -1 0.11620560E-02 0.81206965E+02</pdfrwt>
<totfact> 0.21863153E+05</totfact>
</mgrwt>
</event>
<event>
 8    1  0.2603554E-016  0.7321952E+02  0.7818608E-02  0.1349475E+00
          2   -1    0    0  501    0  0.00000000000E+00  0.00000000000E+00  0.77744623511E+02  0.77744623553E+02  0.25500000000E-02 0. -1.
         -1   -1    0    0    0  501 -0.00000000000E+00 -0.00000000000E+00 -0.17239449635E+02  0.17239450372E+02  0.50400000000E-02 0.  1.
         24    2    1    2    0    0  0.71054273576E-14 -0.88817841970E-15  0.60505173876E+02  0.94984073925E+02  0.73219520850E+02 0.  0.
         66    2    3    3    0    0 -0.35871252321E+02  0.68352903920E+01  0.33117756239E+02  0.49338156838E+02  0.20000010301E+01 0.  0.
        -13    1    3    3    0    0  0.35871252321E+02 -0.68352903920E+01  0.27387417638E+02  0.45645917087E+02  0.10566000000E+00 0.  1.
         13    1    4    4    0    0 -0.20964374013E+02  0.47136020380E+01  0.19659171680E+02  0.29124168952E+02  0.10566000000E+00 0. -1.
        -13    1    4    4    0    0 -0.29028052576E+01  0.40193561945E+00  0.30768625286E+01  0.42504208805E+01  0.10566000000E+00 0.  1.
        -14    1    4    4    0    0 -0.12004073050E+02  0.17197527345E+01  0.10381722030E+02  0.15963567006E+02  0.00000000000E+00 0.  1.
<mgrwt>
<rscale>  0 0.73219521E+02</rscale>
<asrwt>0</asrwt>
<pdfrwt beam="1">  1        2 0.11960711E-01 0.73219521E+02</pdfrwt>
<pdfrwt beam="2">  1       -1 0.26522231E-02 0.73219521E+02</pdfrwt>
<totfact> 0.21016144E+05</totfact>
</mgrwt>
</event>
<event>
 8    1  0.2603554E-016  0.7958756E+02  0.7818608E-02  0.1330226E+00
          2   -1    0    0  501    0  0.00000000000E+00  0.00000000000E+00  0.14421464521E+02  0.14421464746E+02  0.25500000000E-02 0. -1.
         -1   -1    0    0    0  501 -0.00000000000E+00 -0.00000000000E+00 -0.10980472853E+03  0.10980472865E+03  0.50400000000E-02 0.  1.
         24    2    1    2    0    0 -0.22204460493E-15 -0.35527136788E-14 -0.95383264011E+02  0.12422619339E+03  0.79587562292E+02 0.  0.
         66    2    3    3    0    0  0.13866187080E+01  0.30918597479E+02 -0.87417295872E+01  0.32222666109E+02  0.19999983675E+01 0.  0.
        -13    1    3    3    0    0 -0.13866187080E+01 -0.30918597479E+02 -0.86641534423E+02  0.92003527284E+02  0.10566000000E+00 0.  1.
         13    1    4    4    0    0  0.12650621279E+01  0.25180124066E+02 -0.71399774498E+01  0.26203615632E+02  0.10566000000E+00 0. -1.
        -13    1    4    4    0    0  0.96268996811E-01  0.28877479358E+01 -0.37510598641E+00  0.29155144310E+01  0.10566000000E+00 0.  1.
        -14    1    4    4    0    0  0.25287583247E-01  0.28507254772E+01 -0.12266461510E+01  0.31035360459E+01  0.00000000000E+00 0.  1.
<mgrwt>
<rscale>  0 0.79587562E+02</rscale>
<asrwt>0</asrwt>
<pdfrwt beam="1">  1        2 0.22186869E-02 0.79587562E+02</pdfrwt>
<pdfrwt beam="2">  1       -1 0.16893035E-01 0.79587562E+02</pdfrwt>
<totfact> 0.11765332E+05</totfact>
</mgrwt>
</event>
<event>
 8    1  0.2603554E-016  0.8036884E+02  0.7818608E-02  0.1328008E+00
         -1   -1    0    0    0  501 -0.00000000000E+00  0.00000000000E+00  0.17532342443E+03  0.17532342451E+03  0.50400000000E-02 0.  1.
          2   -1    0    0  501    0  0.00000000000E+00 -0.00000000000E+00 -0.92103362178E+01  0.92103365708E+01  0.25500000000E-02 0. -1.
         24    2    1    2    0    0  0.35527136788E-14 -0.35527136788E-14  0.16611308822E+03  0.18453376108E+03  0.80368842847E+02 0.  0.
         66    2    3    3    0    0 -0.19748788317E+02  0.26408730435E+02  0.30480509873E+02  0.44949939826E+02  0.19999812573E+01 0.  0.
        -13    1    3    3    0    0  0.19748788317E+02 -0.26408730435E+02  0.13563257834E+03  0.13958382125E+03  0.10566000000E+00 0.  1.
         13    1    4    4    0    0 -0.94489089390E+01  0.11718933598E+02  0.14362203217E+02  0.20806232962E+02  0.10566000000E+00 0. -1.
        -13    1    4    4    0    0 -0.76936983928E+01  0.11342441095E+02  0.12860068990E+02  0.18794587078E+02  0.10566000000E+00 0.  1.
        -14    1    4    4    0    0 -0.26061809848E+01  0.33473557426E+01  0.32582376662E+01  0.53491197858E+01  0.00000000000E+00 0.  1.
<mgrwt>
<rscale>  0 0.80368843E+02</rscale>
<asrwt>0</asrwt>
<pdfrwt beam="1">  1        2 0.14169749E-02 0.80368843E+02</pdfrwt>
<pdfrwt beam="2">  1       -1 0.26972834E-01 0.80368843E+02</pdfrwt>
<totfact> 0.10228493E+05</totfact>
</mgrwt>
</event>
<event>
 8    1  0.2603554E-016  0.8174221E+02  0.7818608E-02  0.1324179E+00
         -1   -1    0    0    0  501 -0.00000000000E+00  0.00000000000E+00  0.13328283828E+02  0.13328284781E+02  0.50400000000E-02 0.  1.
          2   -1    0    0  501    0  0.00000000000E+00 -0.00000000000E+00 -0.12533101256E+03  0.12533101259E+03  0.25500000000E-02 0. -1.
         24    2    1    2    0    0  0.00000000000E+00  0.35527136788E-14 -0.11200272873E+03  0.13865929737E+03  0.81742213715E+02 0.  0.
         66    2    3    3    0    0  0.10228394525E+02 -0.27919431954E+02 -0.10354111274E+03  0.10774449760E+03  0.20000004181E+01 0.  0.
        -13    1    3    3    0    0 -0.10228394525E+02  0.27919431954E+02 -0.84616159947E+01  0.30914799764E+02  0.10566000000E+00 0.  1.
         13    1    4    4    0    0  0.47382363155E+01 -0.11509382211E+02 -0.40983665123E+02  0.42832099332E+02  0.10566000000E+00 0. -1.
        -13    1    4    4    0    0  0.45031993871E+01 -0.13421711473E+02 -0.49888005383E+02  0.51857934675E+02  0.10566000000E+00 0.  1.
         14    1    4    4    0    0  0.98695882252E+00 -0.29883382696E+01 -0.12669442230E+02  0.13054463595E+02  0.00000000000E+00 0. -1.
<mgrwt>
<rscale>  0 0.81742214E+02</rscale>
<asrwt>0</asrwt>
<pdfrwt beam="1">  1        2 0.19281694E-01 0.81742214E+02</pdfrwt>
<pdfrwt beam="2">  1       -1 0.20505054E-02 0.81742214E+02</pdfrwt>
<totfact> 0.17876024E+05</totfact>
</mgrwt>
</event>
<event>
 8    1  0.2603554E-016  0.8054159E+02  0.7818608E-02  0.1327521E+00
         -1   -1    0    0    0  501 -0.00000000000E+00  0.00000000000E+00  0.16140919941E+03  0.16140919949E+03  0.50400000000E-02 0.  1.
          2   -1    0    0  501    0  0.00000000000E+00 -0.00000000000E+00 -0.10047362250E+02  0.10047362574E+02  0.25500000000E-02 0. -1.
         24    2    1    2    0    0  0.35527136788E-14 -0.88817841970E-15  0.15136183716E+03  0.17145656206E+03  0.80541585072E+02 0.  0.
         66    2    3    3    0    0 -0.27015431212E+02  0.33508326994E+01  0.12624909531E+02  0.30074074267E+02  0.19999997497E+01 0.  0.
        -13    1    3    3    0    0  0.27015431212E+02 -0.33508326994E+01  0.13873692763E+03  0.14138248780E+03  0.10566000000E+00 0.  1.
         13    1    4    4    0    0 -0.34247853595E+01  0.53936450597E+00  0.10369631618E+01  0.36202935604E+01  0.10566000000E+00 0. -1.
        -13    1    4    4    0    0 -0.14387923939E+02  0.13085693149E+01  0.73845615103E+01  0.16225523771E+02  0.10566000000E+00 0.  1.
         14    1    4    4    0    0 -0.92027219133E+01  0.15028988785E+01  0.42033848585E+01  0.10228256935E+02  0.00000000000E+00 0. -1.
<mgrwt>
<rscale>  0 0.80541585E+02</rscale>
<asrwt>0</asrwt>
<pdfrwt beam="1">  1        2 0.15457481E-02 0.80541585E+02</pdfrwt>
<pdfrwt beam="2">  1       -1 0.24832184E-01 0.80541585E+02</pdfrwt>
<totfact> 0.10404297E+05</totfact>
</mgrwt>
</event>
<event>
 8    1  0.2603554E-016  0.7579902E+02  0.7818608E-02  0.1341414E+00
          2   -1    0    0  501    0  0.00000000000E+00  0.00000000000E+00  0.62756471138E+03  0.62756471139E+03  0.25500000000E-02 0. -1.
         -1   -1    0    0    0  501 -0.00000000000E+00 -0.00000000000E+00 -0.22888017529E+01  0.22888073020E+01  0.50400000000E-02 0.  1.
         24    2    1    2    0    0  0.00000000000E+00 -0.35527136788E-14  0.62527590963E+03  0.62985351869E+03  0.75799022703E+02 0.  0.
         66    2    3    3    0    0 -0.14377941006E+02  0.24740017982E+02  0.51902061681E+03  0.51981265313E+03  0.20000002505E+01 0.  0.
        -13    1    3    3    0    0  0.14377941006E+02 -0.24740017982E+02  0.10625529282E+03  0.11004086556E+03  0.10566000000E+00 0.  1.
         13    1    4    4    0    0 -0.36552669941E+01  0.65789448629E+01  0.12878785836E+03  0.12900762426E+03  0.10566000000E+00 0.  1.
        -13    1    4    4    0    0 -0.51269580953E+01  0.10107661115E+02  0.21095557627E+03  0.21125983252E+03  0.10566000000E+00 0. -1.
         14    1    4    4    0    0 -0.55957159170E+01  0.80534120035E+01  0.17927718218E+03  0.17954519635E+03  0.00000000000E+00 0. -1.
<mgrwt>
<rscale>  0 0.75799023E+02</rscale>
<asrwt>0</asrwt>
<pdfrwt beam="1">  1        2 0.96548249E-01 0.75799023E+02</pdfrwt>
<pdfrwt beam="2">  1       -1 0.35212439E-03 0.75799023E+02</pdfrwt>
<totfact> 0.37449230E+05</totfact>
</mgrwt>
</event>
<event>
 8    1  0.2603554E-016  0.8094210E+02  0.7818608E-02  0.1326399E+00
          2   -1    0    0  501    0  0.00000000000E+00  0.00000000000E+00  0.25843383251E+02  0.25843383376E+02  0.25500000000E-02 0. -1.
         -1   -1    0    0    0  501 -0.00000000000E+00 -0.00000000000E+00 -0.63378153904E+02  0.63378154105E+02  0.50400000000E-02 0.  1.
         24    2    1    2    0    0  0.00000000000E+00  0.35527136788E-14 -0.37534770654E+02  0.89221537481E+02  0.80942101174E+02 0.  0.
         66    2    3    3    0    0 -0.20550981559E+02 -0.26354993984E+02  0.63323824218E+01  0.34073855446E+02  0.20000017175E+01 0.  0.
        -13    1    3    3    0    0  0.20550981559E+02  0.26354993984E+02 -0.43867153075E+02  0.55147682036E+02  0.10566000000E+00 0.  1.
         13    1    4    4    0    0 -0.12787840342E+02 -0.16718895725E+02  0.43202219964E+01  0.21487806240E+02  0.10566000000E+00 0. -1.
        -13    1    4    4    0    0 -0.74216546647E+01 -0.93774631356E+01  0.17581092224E+01  0.12088005828E+02  0.10566000000E+00 0.  1.
         14    1    4    4    0    0 -0.34148655225E+00 -0.25863512329E+00  0.25405120300E+00  0.49804337775E+00  0.00000000000E+00 0. -1.
<mgrwt>
<rscale>  0 0.80942101E+02</rscale>
<asrwt>0</asrwt>
<pdfrwt beam="1">  1        2 0.39759052E-02 0.80942101E+02</pdfrwt>
<pdfrwt beam="2">  1       -1 0.97504852E-02 0.80942101E+02</pdfrwt>
<totfact> 0.12639914E+05</totfact>
</mgrwt>
</event>
<event>
 8    1  0.2603554E-016  0.7999306E+02  0.7818608E-02  0.1329071E+00
         -1   -1    0    0    0  501 -0.00000000000E+00  0.00000000000E+00  0.15953954066E+01  0.15954033675E+01  0.50400000000E-02 0.  1.
          2   -1    0    0  501    0  0.00000000000E+00 -0.00000000000E+00 -0.10027096278E+04  0.10027096278E+04  0.25500000000E-02 0. -1.
         24    2    1    2    0    0  0.00000000000E+00 -0.88817841970E-15 -0.10011142324E+04  0.10043050312E+04  0.79993058038E+02 0.  0.
         66    2    3    3    0    0 -0.11357729434E+02  0.63379535790E+01 -0.97539624086E+03  0.97548500470E+03  0.20000065349E+01 0.  0.
        -13    1    3    3    0    0  0.11357729434E+02 -0.63379535790E+01 -0.25717991519E+02  0.28820026462E+02  0.10566000000E+00 0.  1.
         13    1    4    4    0    0 -0.24446040340E+01  0.20343338520E+01 -0.28354258595E+03  0.28356044120E+03  0.10566000000E+00 0. -1.
        -13    1    4    4    0    0 -0.98828435093E+00  0.40001980755E+00 -0.76043474169E+02  0.76051021357E+02  0.10566000000E+00 0. -1.
         14    1    4    4    0    0 -0.79248410492E+01  0.39035999194E+01 -0.61581018075E+03  0.61587354214E+03  0.00000000000E+00 0. -1.
<mgrwt>
<rscale>  0 0.79993058E+02</rscale>
<asrwt>0</asrwt>
<pdfrwt beam="1">  1        2 0.15426252E+00 0.79993058E+02</pdfrwt>
<pdfrwt beam="2">  1       -1 0.24544686E-03 0.79993058E+02</pdfrwt>
<totfact> 0.35243012E+05</totfact>
</mgrwt>
</event>
<event>
 8    1  0.2603554E-016  0.8381403E+02  0.7818608E-02  0.1318563E+00
         -1   -1    0    0    0  501 -0.00000000000E+00  0.00000000000E+00  0.13567866050E+03  0.13567866059E+03  0.50400000000E-02 0.  1.
          2   -1    0    0  501    0  0.00000000000E+00 -0.00000000000E+00 -0.12943802999E+02  0.12943803250E+02  0.25500000000E-02 0. -1.
         24    2    1    2    0    0 -0.44408920985E-15 -0.71054273576E-14  0.12273485750E+03  0.14862246384E+03  0.83814029333E+02 0.  0.
         66    2    3    3    0    0 -0.38650822265E+01 -0.38598437173E+02  0.33397717314E+02  0.51226806888E+02  0.20000023356E+01 0.  0.
        -13    1    3    3    0    0  0.38650822265E+01  0.38598437173E+02  0.89337140189E+02  0.97395656956E+02  0.10566000000E+00 0.  1.
         13    1    4    4    0    0 -0.34249379513E+00 -0.48965383257E+01  0.43563974264E+01  0.65637452835E+01  0.10566000000E+00 0. -1.
        -13    1    4    4    0    0 -0.22243107546E+01 -0.19904079417E+02  0.16025112322E+02  0.25650249994E+02  0.10566000000E+00 0.  1.
         14    1    4    4    0    0 -0.12982776768E+01 -0.13797819431E+02  0.13016207566E+02  0.19012811611E+02  0.00000000000E+00 0. -1.
<mgrwt>
<rscale>  0 0.83814029E+02</rscale>
<asrwt>0</asrwt>
<pdfrwt beam="1">  1        2 0.19913544E-02 0.83814029E+02</pdfrwt>
<pdfrwt beam="2">  1       -1 0.20873640E-01 0.83814029E+02</pdfrwt>
<totfact> 0.98346249E+04</totfact>
</mgrwt>
</event>
<event>
 8    1  0.2603554E-016  0.8095542E+02  0.7818608E-02  0.1326362E+00
          2   -1    0    0  501    0  0.00000000000E+00  0.00000000000E+00  0.86406287734E+02  0.86406287772E+02  0.25500000000E-02 0. -1.
         -1   -1    0    0    0  501 -0.00000000000E+00 -0.00000000000E+00 -0.18962104201E+02  0.18962104871E+02  0.50400000000E-02 0.  1.
         24    2    1    2    0    0  0.00000000000E+00  0.00000000000E+00  0.67444183533E+02  0.10536839264E+03  0.80955421533E+02 0.  0.
         66    2    3    3    0    0  0.61228060768E+00  0.15427426221E+02  0.82408798450E+02  0.83866503632E+02  0.20000005420E+01 0.  0.
        -13    1    3    3    0    0 -0.61228060768E+00 -0.15427426221E+02 -0.14964614917E+02  0.21501889010E+02  0.10566000000E+00 0.  1.
         13    1    4    4    0    0 -0.43283150426E-01  0.67923045161E+01  0.40634476889E+02  0.41198411985E+02  0.10566000000E+00 0. -1.
        -13    1    4    4    0    0  0.13259214756E+00  0.34015326584E+01  0.14956806229E+02  0.15339661721E+02  0.10566000000E+00 0.  1.
        -14    1    4    4    0    0  0.52297161054E+00  0.52335890463E+01  0.26817515332E+02  0.27328429926E+02  0.00000000000E+00 0.  1.
<mgrwt>
<rscale>  0 0.80955422E+02</rscale>
<asrwt>0</asrwt>
<pdfrwt beam="1">  1        2 0.13293275E-01 0.80955422E+02</pdfrwt>
<pdfrwt beam="2">  1       -1 0.29172468E-02 0.80955422E+02</pdfrwt>
<totfact> 0.16498773E+05</totfact>
</mgrwt>
</event>
<event>
 8    1  0.2603554E-016  0.7835013E+02  0.7818608E-02  0.1333800E+00
          2   -1    0    0  501    0  0.00000000000E+00  0.00000000000E+00  0.74795643133E+03  0.74795643133E+03  0.25500000000E-02 0. -1.
         -1   -1    0    0    0  501 -0.00000000000E+00 -0.00000000000E+00 -0.20518352831E+01  0.20518414731E+01  0.50400000000E-02 0.  1.
         24    2    1    2    0    0  0.00000000000E+00 -0.17763568394E-14  0.74590459604E+03  0.75000827280E+03  0.78350130030E+02 0.  0.
         66    2    3    3    0    0 -0.13519781671E+02  0.81615752837E+01  0.71611074432E+03  0.71628764748E+03  0.19999994235E+01 0.  0.
        -13    1    3    3    0    0  0.13519781671E+02 -0.81615752837E+01  0.29793851725E+02  0.33720625323E+02  0.10566000000E+00 0.  1.
         13    1    4    4    0    0 -0.40734760654E+01  0.22206710282E+01  0.20791359052E+03  0.20796537422E+03  0.10566000000E+00 0. -1.
        -13    1    4    4    0    0 -0.79075437502E+01  0.42016524703E+01  0.40196919436E+03  0.40206893377E+03  0.10566000000E+00 0.  1.
        -14    1    4    4    0    0 -0.15387618554E+01  0.17392517853E+01  0.10622795944E+03  0.10625333948E+03  0.00000000000E+00 0.  1.
<mgrwt>
<rscale>  0 0.78350130E+02</rscale>
<asrwt>0</asrwt>
<pdfrwt beam="1">  1        2 0.11507029E+00 0.78350130E+02</pdfrwt>
<pdfrwt beam="2">  1       -1 0.31566725E-03 0.78350130E+02</pdfrwt>
<totfact> 0.35820266E+05</totfact>
</mgrwt>
</event>
<event>
 8    1  0.2603554E-016  0.8147556E+02  0.7818608E-02  0.1324915E+00
         -1   -1    0    0    0  501 -0.00000000000E+00  0.00000000000E+00  0.24446626761E+02  0.24446627280E+02  0.50400000000E-02 0.  1.
          2   -1    0    0  501    0  0.00000000000E+00 -0.00000000000E+00 -0.67885312137E+02  0.67885312185E+02  0.25500000000E-02 0. -1.
         24    2    1    2    0    0  0.35527136788E-14  0.00000000000E+00 -0.43438685377E+02  0.92331939466E+02  0.81475564792E+02 0.  0.
         66    2    3    3    0    0  0.27529077806E+02 -0.64744832595E+01 -0.54923046410E+02  0.61808657029E+02  0.19999995888E+01 0.  0.
        -13    1    3    3    0    0 -0.27529077806E+02  0.64744832595E+01  0.11484361034E+02  0.30523282437E+02  0.10566000000E+00 0.  1.
         13    1    4    4    0    0  0.13817673051E+02 -0.39080114745E+01 -0.27970639769E+02  0.31441509113E+02  0.10566000000E+00 0. -1.
        -13    1    4    4    0    0  0.10106035722E+01 -0.46262487887E+00 -0.21762224531E+01  0.24459046505E+01  0.10566000000E+00 0.  1.
        -14    1    4    4    0    0  0.12700801183E+02 -0.21038469062E+01 -0.24776184189E+02  0.27921243265E+02  0.00000000000E+00 0.  1.
<mgrwt>
<rscale>  0 0.81475565E+02</rscale>
<asrwt>0</asrwt>
<pdfrwt beam="1">  1        2 0.10443894E-01 0.81475565E+02</pdfrwt>
<pdfrwt beam="2">  1       -1 0.37610196E-02 0.81475565E+02</pdfrwt>
<totfact> 0.15251457E+05</totfact>
</mgrwt>
</event>
<event>
 8    1  0.2603554E-016  0.7943124E+02  0.7818608E-02  0.1330673E+00
          2   -1    0    0  501    0  0.00000000000E+00  0.00000000000E+00  0.12953575311E+04  0.12953575311E+04  0.25500000000E-02 0. -1.
         -1   -1    0    0    0  501 -0.00000000000E+00 -0.00000000000E+00 -0.12176744722E+01  0.12176849025E+01  0.50400000000E-02 0.  1.
         24    2    1    2    0    0  0.00000000000E+00  0.00000000000E+00  0.12941398566E+04  0.12965752160E+04  0.79431242253E+02 0.  0.
         66    2    3    3    0    0 -0.19283705054E+02  0.13170441135E+02  0.11713517258E+04  0.11715861843E+04  0.20000008855E+01 0.  0.
        -13    1    3    3    0    0  0.19283705054E+02 -0.13170441135E+02  0.12278813087E+03  0.12498903171E+03  0.10566000000E+00 0.  1.
         13    1    4    4    0    0 -0.83356965255E+01  0.52743831344E+01  0.49492855299E+03  0.49502685451E+03  0.10566000000E+00 0. -1.
        -13    1    4    4    0    0 -0.99645861755E+01  0.75600257967E+01  0.61247328681E+03  0.61260099999E+03  0.10566000000E+00 0.  1.
        -14    1    4    4    0    0 -0.98342235261E+00  0.33603220424E+00  0.63949885971E+02  0.63958329816E+02  0.00000000000E+00 0.  1.
<mgrwt>
<rscale>  0 0.79431242E+02</rscale>
<asrwt>0</asrwt>
<pdfrwt beam="1">  1        2 0.19928489E+00 0.79431242E+02</pdfrwt>
<pdfrwt beam="2">  1       -1 0.18733617E-03 0.79431242E+02</pdfrwt>
<totfact> 0.35288362E+05</totfact>
</mgrwt>
</event>
<event>
 8    1  0.2603554E-016  0.8905522E+02  0.7818608E-02  0.1305156E+00
         -1   -1    0    0    0  501 -0.00000000000E+00  0.00000000000E+00  0.17952529377E+02  0.17952530084E+02  0.50400000000E-02 0.  1.
          2   -1    0    0  501    0  0.00000000000E+00 -0.00000000000E+00 -0.11044170839E+03  0.11044170842E+03  0.25500000000E-02 0. -1.
         24    2    1    2    0    0  0.00000000000E+00  0.00000000000E+00 -0.92489179017E+02  0.12839423851E+03  0.89055220210E+02 0.  0.
         66    2    3    3    0    0  0.27198140660E+02 -0.29337822603E+02 -0.74381959654E+02  0.84481492664E+02  0.19999975623E+01 0.  0.
        -13    1    3    3    0    0 -0.27198140660E+02  0.29337822603E+02 -0.18107219363E+02  0.43912745843E+02  0.10566000000E+00 0.  1.
         13    1    4    4    0    0  0.32035802817E+01 -0.32647687886E+01 -0.77536908529E+01  0.90029177349E+01  0.10566000000E+00 0. -1.
        -13    1    4    4    0    0  0.10784485104E+02 -0.10799123726E+02 -0.29455616578E+02  0.33174850478E+02  0.10566000000E+00 0.  1.
        -14    1    4    4    0    0  0.13210075274E+02 -0.15273930089E+02 -0.37172652223E+02  0.42303724451E+02  0.00000000000E+00 0.  1.
<mgrwt>
<rscale>  0 0.89055220E+02</rscale>
<asrwt>0</asrwt>
<pdfrwt beam="1">  1        2 0.16991032E-01 0.89055220E+02</pdfrwt>
<pdfrwt beam="2">  1       -1 0.27619277E-02 0.89055220E+02</pdfrwt>
<totfact> 0.13667277E+05</totfact>
</mgrwt>
</event>
<event>
 8    1  0.2603554E-016  0.8004826E+02  0.7818608E-02  0.1328915E+00
          2   -1    0    0  501    0  0.00000000000E+00  0.00000000000E+00  0.10409093144E+04  0.10409093144E+04  0.25500000000E-02 0. -1.
         -1   -1    0    0    0  501 -0.00000000000E+00 -0.00000000000E+00 -0.15389683416E+01  0.15389765944E+01  0.50400000000E-02 0.  1.
         24    2    1    2    0    0  0.35527136788E-14  0.00000000000E+00  0.10393703461E+04  0.10424482910E+04  0.80048255061E+02 0.  0.
         66    2    3    3    0    0 -0.20134431467E+02  0.18553056038E+01  0.96945169705E+03  0.96966459686E+03  0.19999996516E+01 0.  0.
        -13    1    3    3    0    0  0.20134431467E+02 -0.18553056038E+01  0.69918649025E+02  0.72783694155E+02  0.10566000000E+00 0.  1.
         13    1    4    4    0    0 -0.13080533424E+02  0.79870024628E+00  0.62772165346E+03  0.62785844237E+03  0.10566000000E+00 0. -1.
        -13    1    4    4    0    0 -0.35533008462E+01  0.10158946789E+01  0.18644124974E+03  0.18647790421E+03  0.10566000000E+00 0.  1.
        -14    1    4    4    0    0 -0.35005971975E+01  0.40710678697E-01  0.15528879385E+03  0.15532825028E+03  0.00000000000E+00 0.  1.
<mgrwt>
<rscale>  0 0.80048255E+02</rscale>
<asrwt>0</asrwt>
<pdfrwt beam="1">  1        2 0.16014053E+00 0.80048255E+02</pdfrwt>
<pdfrwt beam="2">  1       -1 0.23676406E-03 0.80048255E+02</pdfrwt>
<totfact> 0.35214671E+05</totfact>
</mgrwt>
</event>
<event>
 8    1  0.2603554E-016  0.6970630E+02  0.7818608E-02  0.1361095E+00
          2   -1    0    0  501    0  0.00000000000E+00  0.00000000000E+00  0.31390375803E+02  0.31390375907E+02  0.25500000000E-02 0. -1.
         -1   -1    0    0    0  501 -0.00000000000E+00 -0.00000000000E+00 -0.38697909233E+02  0.38697909561E+02  0.50400000000E-02 0.  1.
         24    2    1    2    0    0  0.35527136788E-14  0.35527136788E-14 -0.73075334300E+01  0.70088285468E+02  0.69706296093E+02 0.  0.
         66    2    3    3    0    0  0.19000528369E+02  0.11528438643E+02  0.23300828770E+02  0.32262262990E+02  0.20000040053E+01 0.  0.
        -13    1    3    3    0    0 -0.19000528369E+02 -0.11528438643E+02 -0.30608362200E+02  0.37826022477E+02  0.10566000000E+00 0.  1.
         13    1    4    4    0    0  0.36182153485E+01  0.25351267523E+01  0.40294253193E+01  0.59804500163E+01  0.10566000000E+00 0.  1.
        -13    1    4    4    0    0  0.68609555355E+00  0.68172862031E+00  0.83003236519E+00  0.12789053066E+01  0.10566000000E+00 0.  1.
         14    1    4    4    0    0  0.14696217467E+02  0.83115832708E+01  0.18441371086E+02  0.25002907667E+02  0.00000000000E+00 0. -1.
<mgrwt>
<rscale>  0 0.69706296E+02</rscale>
<asrwt>0</asrwt>
<pdfrwt beam="1">  1        2 0.48292886E-02 0.69706296E+02</pdfrwt>
<pdfrwt beam="2">  1       -1 0.59535246E-02 0.69706296E+02</pdfrwt>
<totfact> 0.19859406E+05</totfact>
</mgrwt>
</event>
<event>
 8    1  0.2603554E-016  0.7303856E+02  0.7818608E-02  0.1350055E+00
         -1   -1    0    0    0  501 -0.00000000000E+00  0.00000000000E+00  0.26622436239E+02  0.26622436716E+02  0.50400000000E-02 0.  1.
          2   -1    0    0  501    0  0.00000000000E+00 -0.00000000000E+00 -0.50095261056E+02  0.50095261121E+02  0.25500000000E-02 0. -1.
         24    2    1    2    0    0 -0.17763568394E-14  0.71054273576E-14 -0.23472824818E+02  0.76717697837E+02  0.73038562804E+02 0.  0.
         66    2    3    3    0    0  0.14416597725E+02 -0.33148518366E+02 -0.64943216033E+01  0.36780956667E+02  0.20000001016E+01 0.  0.
        -13    1    3    3    0    0 -0.14416597725E+02  0.33148518366E+02 -0.16978503214E+02  0.39936741170E+02  0.10566000000E+00 0.  1.
         13    1    4    4    0    0  0.12968507683E+02 -0.28770899957E+02 -0.57918038567E+01  0.32085869660E+02  0.10566000000E+00 0. -1.
        -13    1    4    4    0    0  0.17828141410E+00 -0.11107886772E+01 -0.28520151764E+00  0.11653925044E+01  0.10566000000E+00 0.  1.
        -14    1    4    4    0    0  0.12698086281E+01 -0.32668297316E+01 -0.41731622888E+00  0.35296945027E+01  0.00000000000E+00 0.  1.
<mgrwt>
<rscale>  0 0.73038563E+02</rscale>
<asrwt>0</asrwt>
<pdfrwt beam="1">  1        2 0.77069632E-02 0.73038563E+02</pdfrwt>
<pdfrwt beam="2">  1       -1 0.40957595E-02 0.73038563E+02</pdfrwt>
<totfact> 0.19148374E+05</totfact>
</mgrwt>
</event>
<event>
 8    1  0.2603554E-016  0.7643207E+02  0.7818608E-02  0.1339493E+00
          2   -1    0    0  501    0  0.00000000000E+00  0.00000000000E+00  0.56585611565E+02  0.56585611622E+02  0.25500000000E-02 0. -1.
         -1   -1    0    0    0  501 -0.00000000000E+00 -0.00000000000E+00 -0.25809835355E+02  0.25809835847E+02  0.50400000000E-02 0.  1.
         24    2    1    2    0    0 -0.22204460493E-15  0.00000000000E+00  0.30775776210E+02  0.82395447470E+02  0.76432070248E+02 0.  0.
         66    2    3    3    0    0  0.10010803448E+01  0.30275215527E+02  0.40469523260E+02  0.50590247690E+02  0.20000028556E+01 0.  0.
        -13    1    3    3    0    0 -0.10010803448E+01 -0.30275215527E+02 -0.96937470499E+01  0.31805199779E+02  0.10566000000E+00 0.  1.
         13    1    4    4    0    0  0.22886392572E+00  0.11340882517E+02  0.15765302977E+02  0.19422253653E+02  0.10566000000E+00 0. -1.
        -13    1    4    4    0    0  0.10306772896E+00  0.12233821718E+02  0.15012518258E+02  0.19366566171E+02  0.10566000000E+00 0.  1.
        -14    1    4    4    0    0  0.66914869015E+00  0.67005112924E+01  0.96917020243E+01  0.11801427866E+02  0.00000000000E+00 0.  1.
<mgrwt>
<rscale>  0 0.76432070E+02</rscale>
<asrwt>0</asrwt>
<pdfrwt beam="1">  1        2 0.87054786E-02 0.76432070E+02</pdfrwt>
<pdfrwt beam="2">  1       -1 0.39707440E-02 0.76432070E+02</pdfrwt>
<totfact> 0.17386716E+05</totfact>
</mgrwt>
</event>
<event>
 8    1  0.2603554E-016  0.7925143E+02  0.7818608E-02  0.1331189E+00
         -1   -1    0    0    0  501 -0.00000000000E+00  0.00000000000E+00  0.37143296762E+01  0.37143330956E+01  0.50400000000E-02 0.  1.
          2   -1    0    0  501    0  0.00000000000E+00 -0.00000000000E+00 -0.42274018235E+03  0.42274018235E+03  0.25500000000E-02 0. -1.
         24    2    1    2    0    0  0.00000000000E+00  0.35527136788E-14 -0.41902585267E+03  0.42645451545E+03  0.79251426117E+02 0.  0.
         66    2    3    3    0    0 -0.10313342664E+02 -0.24187905636E+02 -0.36898020504E+03  0.36992135857E+03  0.19999998279E+01 0.  0.
        -13    1    3    3    0    0  0.10313342664E+02  0.24187905636E+02 -0.50045647627E+02  0.56533156876E+02  0.10566000000E+00 0.  1.
         13    1    4    4    0    0 -0.10066256419E+01 -0.37105856243E+01 -0.56296926524E+02  0.56428156455E+02  0.10566000000E+00 0. -1.
        -13    1    4    4    0    0 -0.13766275526E+01 -0.40476841474E+01 -0.59038540293E+02  0.59193236559E+02  0.10566000000E+00 0.  1.
         14    1    4    4    0    0 -0.79300894690E+01 -0.16429635864E+02 -0.25364473823E+03  0.25429996556E+03  0.00000000000E+00 0. -1.
<mgrwt>
<rscale>  0 0.79251426E+02</rscale>
<asrwt>0</asrwt>
<pdfrwt beam="1">  1        2 0.65036913E-01 0.79251426E+02</pdfrwt>
<pdfrwt beam="2">  1       -1 0.57143593E-03 0.79251426E+02</pdfrwt>
<totfact> 0.29515711E+05</totfact>
</mgrwt>
</event>
<event>
 8    1  0.2603554E-016  0.8053876E+02  0.7818608E-02  0.1327529E+00
         -1   -1    0    0    0  501 -0.00000000000E+00  0.00000000000E+00  0.23042107771E+01  0.23042162891E+01  0.50400000000E-02 0.  1.
          2   -1    0    0  501    0  0.00000000000E+00 -0.00000000000E+00 -0.70376421587E+03  0.70376421588E+03  0.25500000000E-02 0. -1.
         24    2    1    2    0    0  0.00000000000E+00  0.00000000000E+00 -0.70146000510E+03  0.70606843217E+03  0.80538761806E+02 0.  0.
         66    2    3    3    0    0  0.23515866242E+02  0.27731375181E+02 -0.50218097521E+03  0.50349951044E+03  0.20000031385E+01 0.  0.
        -13    1    3    3    0    0 -0.23515866242E+02 -0.27731375181E+02 -0.19927902989E+03  0.20256892173E+03  0.10566000000E+00 0.  1.
         13    1    4    4    0    0  0.42599751972E+00  0.48013955828E+00 -0.92797728280E+01  0.93025456547E+01  0.10566000000E+00 0. -1.
        -13    1    4    4    0    0  0.14920108448E+02  0.17653285035E+02 -0.33069207728E+03  0.33149888273E+03  0.10566000000E+00 0.  1.
        -14    1    4    4    0    0  0.81697602747E+01  0.95979505879E+01 -0.16220912510E+03  0.16269808206E+03  0.00000000000E+00 0.  1.
<mgrwt>
<rscale>  0 0.80538762E+02</rscale>
<asrwt>0</asrwt>
<pdfrwt beam="1">  1        2 0.10827125E+00 0.80538762E+02</pdfrwt>
<pdfrwt beam="2">  1       -1 0.35449495E-03 0.80538762E+02</pdfrwt>
<totfact> 0.32913114E+05</totfact>
</mgrwt>
</event>
<event>
 8    1  0.2603554E-016  0.7887537E+02  0.7818608E-02  0.1332274E+00
          2   -1    0    0  501    0  0.00000000000E+00  0.00000000000E+00  0.50788703723E+02  0.50788703787E+02  0.25500000000E-02 0. -1.
         -1   -1    0    0    0  501 -0.00000000000E+00 -0.00000000000E+00 -0.30623560326E+02  0.30623560741E+02  0.50400000000E-02 0.  1.
         24    2    1    2    0    0  0.00000000000E+00  0.17763568394E-14  0.20165143397E+02  0.81412264528E+02  0.78875368825E+02 0.  0.
         66    2    3    3    0    0 -0.21205989124E+02  0.80545929283E+01  0.43355383258E+02  0.48972029775E+02  0.20000002113E+01 0.  0.
        -13    1    3    3    0    0  0.21205989124E+02 -0.80545929283E+01 -0.23190239861E+02  0.32440234753E+02  0.10566000000E+00 0.  1.
         13    1    4    4    0    0 -0.17909782828E+01  0.74178339184E+00  0.46685078260E+01  0.50560829866E+01  0.10566000000E+00 0. -1.
        -13    1    4    4    0    0 -0.17855472526E+02  0.68736767261E+01  0.36252441848E+02  0.40991658112E+02  0.10566000000E+00 0.  1.
        -14    1    4    4    0    0 -0.15595383159E+01  0.43913281036E+00  0.24344335842E+01  0.29242886759E+01  0.00000000000E+00 0.  1.
<mgrwt>
<rscale>  0 0.78875369E+02</rscale>
<asrwt>0</asrwt>
<pdfrwt beam="1">  1        2 0.78136467E-02 0.78875369E+02</pdfrwt>
<pdfrwt beam="2">  1       -1 0.47113171E-02 0.78875369E+02</pdfrwt>
<totfact> 0.15586064E+05</totfact>
</mgrwt>
</event>
<event>
 8    1  0.2603554E-016  0.7066316E+02  0.7818608E-02  0.1357852E+00
          2   -1    0    0  501    0  0.00000000000E+00  0.00000000000E+00  0.21847402804E+02  0.21847402953E+02  0.25500000000E-02 0. -1.
         -1   -1    0    0    0  501 -0.00000000000E+00 -0.00000000000E+00 -0.57138165627E+02  0.57138165849E+02  0.50400000000E-02 0.  1.
         24    2    1    2    0    0  0.00000000000E+00  0.00000000000E+00 -0.35290762823E+02  0.78985568802E+02  0.70663159696E+02 0.  0.
         66    2    3    3    0    0  0.28027334971E+02 -0.77595721939E+01  0.47120524837E+01  0.29528730420E+02  0.20000038397E+01 0.  0.
        -13    1    3    3    0    0 -0.28027334971E+02  0.77595721939E+01 -0.40002815307E+02  0.49456838382E+02  0.10566000000E+00 0.  1.
         13    1    4    4    0    0  0.19956288232E+02 -0.57702248024E+01  0.33064416430E+01  0.21035509375E+02  0.10566000000E+00 0. -1.
        -13    1    4    4    0    0  0.16963394860E+01 -0.23033716185E-01  0.40681528591E+00  0.17477874346E+01  0.10566000000E+00 0.  1.
        -14    1    4    4    0    0  0.63747072531E+01 -0.19663136753E+01  0.99879555478E+00  0.67454336104E+01  0.00000000000E+00 0.  1.
<mgrwt>
<rscale>  0 0.70663160E+02</rscale>
<asrwt>0</asrwt>
<pdfrwt beam="1">  1        2 0.33611389E-02 0.70663160E+02</pdfrwt>
<pdfrwt beam="2">  1       -1 0.87904870E-02 0.70663160E+02</pdfrwt>
<totfact> 0.17930749E+05</totfact>
</mgrwt>
</event>
<event>
 8    1  0.2603554E-016  0.7782565E+02  0.7818608E-02  0.1335338E+00
         -1   -1    0    0    0  501 -0.00000000000E+00  0.00000000000E+00  0.38206200385E+03  0.38206200388E+03  0.50400000000E-02 0.  1.
          2   -1    0    0  501    0  0.00000000000E+00 -0.00000000000E+00 -0.39632511083E+01  0.39632519287E+01  0.25500000000E-02 0. -1.
         24    2    1    2    0    0  0.00000000000E+00  0.00000000000E+00  0.37809875274E+03  0.38602525581E+03  0.77825646800E+02 0.  0.
         66    2    3    3    0    0 -0.42999677364E+01 -0.38608649512E+02  0.18046131846E+03  0.18460608062E+03  0.20000009010E+01 0.  0.
        -13    1    3    3    0    0  0.42999677364E+01  0.38608649512E+02  0.19763743429E+03  0.20141917519E+03  0.10566000000E+00 0.  1.
         13    1    4    4    0    0 -0.93315317477E+00 -0.14985125682E+02  0.70240026403E+02  0.71826855978E+02  0.10566000000E+00 0. -1.
        -13    1    4    4    0    0 -0.30976669588E+00 -0.32825647742E+01  0.13893663896E+02  0.14279924628E+02  0.10566000000E+00 0.  1.
         14    1    4    4    0    0 -0.30570478658E+01 -0.20340959056E+02  0.96327628157E+02  0.98499300014E+02  0.00000000000E+00 0. -1.
<mgrwt>
<rscale>  0 0.77825647E+02</rscale>
<asrwt>0</asrwt>
<pdfrwt beam="1">  1        2 0.60973115E-03 0.77825647E+02</pdfrwt>
<pdfrwt beam="2">  1       -1 0.58778756E-01 0.77825647E+02</pdfrwt>
<totfact> 0.83264820E+04</totfact>
</mgrwt>
</event>
<event>
 8    1  0.2603554E-016  0.7968219E+02  0.7818608E-02  0.1329956E+00
          2   -1    0    0  501    0  0.00000000000E+00  0.00000000000E+00  0.32952564850E+03  0.32952564851E+03  0.25500000000E-02 0. -1.
         -1   -1    0    0    0  501 -0.00000000000E+00 -0.00000000000E+00 -0.48169611148E+01  0.48169637515E+01  0.50400000000E-02 0.  1.
         24    2    1    2    0    0  0.00000000000E+00  0.00000000000E+00  0.32470868738E+03  0.33434261226E+03  0.79682185652E+02 0.  0.
         66    2    3    3    0    0  0.30760743347E+02 -0.11648588302E+02  0.25659865025E+03  0.25870597257E+03  0.19999985638E+01 0.  0.
        -13    1    3    3    0    0 -0.30760743347E+02  0.11648588302E+02  0.68110037135E+02  0.75636639688E+02  0.10566000000E+00 0.  1.
         13    1    4    4    0    0  0.68831583222E+01 -0.27402096975E+01  0.61737314933E+02  0.62180333200E+02  0.10566000000E+00 0. -1.
        -13    1    4    4    0    0  0.16124599693E+02 -0.53892815113E+01  0.13188192015E+03  0.13297330220E+03  0.10566000000E+00 0.  1.
        -14    1    4    4    0    0  0.77529853319E+01 -0.35190970933E+01  0.62979415163E+02  0.63552337173E+02  0.00000000000E+00 0.  1.
<mgrwt>
<rscale>  0 0.79682186E+02</rscale>
<asrwt>0</asrwt>
<pdfrwt beam="1">  1        2 0.50696261E-01 0.79682186E+02</pdfrwt>
<pdfrwt beam="2">  1       -1 0.74107104E-03 0.79682186E+02</pdfrwt>
<totfact> 0.26649755E+05</totfact>
</mgrwt>
</event>
<event>
 8    1  0.2603554E-016  0.8003315E+02  0.7818608E-02  0.1328957E+00
         -1   -1    0    0    0  501 -0.00000000000E+00  0.00000000000E+00  0.13036076522E+03  0.13036076532E+03  0.50400000000E-02 0.  1.
          2   -1    0    0  501    0  0.00000000000E+00 -0.00000000000E+00 -0.12283806081E+02  0.12283806345E+02  0.25500000000E-02 0. -1.
         24    2    1    2    0    0  0.00000000000E+00  0.00000000000E+00  0.11807695914E+03  0.14264457167E+03  0.80033152790E+02 0.  0.
         66    2    3    3    0    0  0.18552383211E+02  0.20718455506E+02  0.78548677553E+01  0.28967986939E+02  0.19999996179E+01 0.  0.
        -13    1    3    3    0    0 -0.18552383211E+02 -0.20718455506E+02  0.11022209139E+03  0.11367658473E+03  0.10566000000E+00 0.  1.
         13    1    4    4    0    0  0.63665430366E+01  0.83153574308E+01  0.27459577437E+01  0.10827256689E+02  0.10566000000E+00 0.  1.
        -13    1    4    4    0    0  0.57844259674E+01  0.58841636242E+01  0.28378658810E+01  0.87262599161E+01  0.10566000000E+00 0. -1.
         14    1    4    4    0    0  0.64014142072E+01  0.65189344514E+01  0.22710441306E+01  0.94144703344E+01  0.00000000000E+00 0. -1.
<mgrwt>
<rscale>  0 0.80033153E+02</rscale>
<asrwt>0</asrwt>
<pdfrwt beam="1">  1        2 0.18898164E-02 0.80033153E+02</pdfrwt>
<pdfrwt beam="2">  1       -1 0.20055502E-01 0.80033153E+02</pdfrwt>
<totfact> 0.11154758E+05</totfact>
</mgrwt>
</event>
<event>
 8    1  0.2603554E-016  0.8079726E+02  0.7818608E-02  0.1326804E+00
         -1   -1    0    0    0  501 -0.00000000000E+00  0.00000000000E+00  0.25208795900E+01  0.25208846283E+01  0.50400000000E-02 0.  1.
          2   -1    0    0  501    0  0.00000000000E+00 -0.00000000000E+00 -0.64741196256E+03  0.64741196256E+03  0.25500000000E-02 0. -1.
         24    2    1    2    0    0  0.00000000000E+00  0.00000000000E+00 -0.64489108297E+03  0.64993284719E+03  0.80797258410E+02 0.  0.
         66    2    3    3    0    0  0.13416421937E+02  0.91674908927E+01 -0.61994424610E+03  0.62016039179E+03  0.20000012668E+01 0.  0.
        -13    1    3    3    0    0 -0.13416421937E+02 -0.91674908927E+01 -0.24946836863E+02  0.29772455397E+02  0.10566000000E+00 0.  1.
         13    1    4    4    0    0  0.56336200233E+01  0.33252440505E+01 -0.26401180788E+03  0.26409286395E+03  0.10566000000E+00 0. -1.
        -13    1    4    4    0    0  0.17970997711E+01  0.11452300763E+01 -0.96271818896E+02  0.96295458860E+02  0.10566000000E+00 0.  1.
         14    1    4    4    0    0  0.59857021425E+01  0.46970167659E+01 -0.25966061933E+03  0.25977206899E+03  0.00000000000E+00 0. -1.
<mgrwt>
<rscale>  0 0.80797258E+02</rscale>
<asrwt>0</asrwt>
<pdfrwt beam="1">  1        2 0.99601708E-01 0.80797258E+02</pdfrwt>
<pdfrwt beam="2">  1       -1 0.38782853E-03 0.80797258E+02</pdfrwt>
<totfact> 0.31987792E+05</totfact>
</mgrwt>
</event>
<event>
 8    1  0.2603554E-016  0.8442736E+02  0.7818608E-02  0.1316937E+00
          2   -1    0    0  501    0  0.00000000000E+00  0.00000000000E+00  0.31520242383E+03  0.31520242384E+03  0.25500000000E-02 0. -1.
         -1   -1    0    0    0  501 -0.00000000000E+00 -0.00000000000E+00 -0.56534920197E+01  0.56534942663E+01  0.50400000000E-02 0.  1.
         24    2    1    2    0    0  0.44408920985E-15 -0.35527136788E-14  0.30954893181E+03  0.32085591811E+03  0.84427359304E+02 0.  0.
         66    2    3    3    0    0 -0.32654883699E+01 -0.28884479208E+02  0.27106899420E+03  0.27263047548E+03  0.19999985662E+01 0.  0.
        -13    1    3    3    0    0  0.32654883699E+01  0.28884479208E+02  0.38479937614E+02  0.48225442623E+02  0.10566000000E+00 0.  1.
         13    1    4    4    0    0 -0.10586581194E+01 -0.16259707723E+02  0.14853853826E+03  0.14942960672E+03  0.10566000000E+00 0.  1.
        -13    1    4    4    0    0 -0.15467492080E+01 -0.10302583112E+02  0.98533099207E+02  0.99082382164E+02  0.10566000000E+00 0. -1.
        -14    1    4    4    0    0 -0.66008104240E+00 -0.23221883731E+01  0.23997356726E+02  0.24118486596E+02  0.00000000000E+00 0.  1.
<mgrwt>
<rscale>  0 0.84427359E+02</rscale>
<asrwt>0</asrwt>
<pdfrwt beam="1">  1        2 0.48492689E-01 0.84427359E+02</pdfrwt>
<pdfrwt beam="2">  1       -1 0.86976803E-03 0.84427359E+02</pdfrwt>
<totfact> 0.22529712E+05</totfact>
</mgrwt>
</event>
<event>
 8    1  0.2603554E-016  0.8003401E+02  0.7818608E-02  0.1328955E+00
          2   -1    0    0  501    0  0.00000000000E+00  0.00000000000E+00  0.19065754726E+03  0.19065754728E+03  0.25500000000E-02 0. -1.
         -1   -1    0    0    0  501 -0.00000000000E+00 -0.00000000000E+00 -0.83991467355E+01  0.83991482476E+01  0.50400000000E-02 0.  1.
         24    2    1    2    0    0 -0.71054273576E-14  0.00000000000E+00  0.18225840053E+03  0.19905669553E+03  0.80034014466E+02 0.  0.
         66    2    3    3    0    0  0.38332611396E+02 -0.96303445595E+01  0.76011621232E+02  0.85696553028E+02  0.20000014411E+01 0.  0.
        -13    1    3    3    0    0 -0.38332611396E+02  0.96303445595E+01  0.10624677929E+03  0.11336014250E+03  0.10566000000E+00 0.  1.
         13    1    4    4    0    0  0.54442023452E+01 -0.16872836434E+01  0.10153915749E+02  0.11644717015E+02  0.10566000000E+00 0. -1.
        -13    1    4    4    0    0  0.16330838568E+02 -0.33279546184E+01  0.32956178490E+02  0.36930914353E+02  0.10566000000E+00 0.  1.
        -14    1    4    4    0    0  0.16557570483E+02 -0.46151062978E+01  0.32901526992E+02  0.37120921660E+02  0.00000000000E+00 0.  1.
<mgrwt>
<rscale>  0 0.80034014E+02</rscale>
<asrwt>0</asrwt>
<pdfrwt beam="1">  1        2 0.29331930E-01 0.80034014E+02</pdfrwt>
<pdfrwt beam="2">  1       -1 0.12921765E-02 0.80034014E+02</pdfrwt>
<totfact> 0.21672480E+05</totfact>
</mgrwt>
</event>
<event>
 8    1  0.2603554E-016  0.7960910E+02  0.7818608E-02  0.1330164E+00
         -1   -1    0    0    0  501 -0.00000000000E+00  0.00000000000E+00  0.60238936575E+02  0.60238936786E+02  0.50400000000E-02 0.  1.
          2   -1    0    0  501    0  0.00000000000E+00 -0.00000000000E+00 -0.26301960500E+02  0.26301960624E+02  0.25500000000E-02 0. -1.
         24    2    1    2    0    0  0.35527136788E-14  0.22204460493E-15  0.33936976074E+02  0.86540897409E+02  0.79609098597E+02 0.  0.
         66    2    3    3    0    0 -0.23690529812E+02 -0.19939300746E+01 -0.17691135621E+02  0.29701738011E+02  0.20000003488E+01 0.  0.
        -13    1    3    3    0    0  0.23690529812E+02  0.19939300746E+01  0.51628111695E+02  0.56839159399E+02  0.10566000000E+00 0.  1.
         13    1    4    4    0    0 -0.10544271351E+02 -0.14047992020E+01 -0.70033813282E+01  0.12736311600E+02  0.10566000000E+00 0. -1.
        -13    1    4    4    0    0 -0.16400309526E+01  0.43875212196E-01 -0.11437027048E+01  0.20027097824E+01  0.10566000000E+00 0.  1.
        -14    1    4    4    0    0 -0.11506227508E+02 -0.63300608475E+00 -0.95440515880E+01  0.14962716628E+02  0.00000000000E+00 0.  1.
<mgrwt>
<rscale>  0 0.79609099E+02</rscale>
<asrwt>0</asrwt>
<pdfrwt beam="1">  1        2 0.40464555E-02 0.79609099E+02</pdfrwt>
<pdfrwt beam="2">  1       -1 0.92675287E-02 0.79609099E+02</pdfrwt>
<totfact> 0.13293470E+05</totfact>
</mgrwt>
</event>
<event>
 8    1  0.2603554E-016  0.8329411E+02  0.7818608E-02  0.1319955E+00
          2   -1    0    0  501    0  0.00000000000E+00  0.00000000000E+00  0.50088740114E+02  0.50088740179E+02  0.25500000000E-02 0. -1.
         -1   -1    0    0    0  501 -0.00000000000E+00 -0.00000000000E+00 -0.34628081811E+02  0.34628082178E+02  0.50400000000E-02 0.  1.
         24    2    1    2    0    0  0.11102230246E-15 -0.71054273576E-14  0.15460658303E+02  0.84716822356E+02  0.83294105644E+02 0.  0.
         66    2    3    3    0    0 -0.69471141909E+00  0.37838909414E+02  0.25357183337E+02  0.45598820600E+02  0.20000009306E+01 0.  0.
        -13    1    3    3    0    0  0.69471141909E+00 -0.37838909414E+02 -0.98965250343E+01  0.39118001756E+02  0.10566000000E+00 0.  1.
         13    1    4    4    0    0 -0.72736748590E-01  0.17827240171E+02  0.11510340708E+02  0.21220624166E+02  0.10566000000E+00 0. -1.
        -13    1    4    4    0    0 -0.65388049309E+00  0.13327158375E+02  0.85311676580E+01  0.15837698560E+02  0.10566000000E+00 0.  1.
        -14    1    4    4    0    0  0.31905822584E-01  0.66845108683E+01  0.53156749711E+01  0.85404978735E+01  0.00000000000E+00 0.  1.
<mgrwt>
<rscale>  0 0.83294106E+02</rscale>
<asrwt>0</asrwt>
<pdfrwt beam="1">  1        2 0.77059601E-02 0.83294106E+02</pdfrwt>
<pdfrwt beam="2">  1       -1 0.53273972E-02 0.83294106E+02</pdfrwt>
<totfact> 0.13380291E+05</totfact>
</mgrwt>
</event>
<event>
 8    1  0.2603554E-016  0.7998591E+02  0.7818608E-02  0.1329091E+00
          2   -1    0    0  501    0  0.00000000000E+00  0.00000000000E+00  0.53128004044E+01  0.53128010164E+01  0.25500000000E-02 0. -1.
         -1   -1    0    0    0  501 -0.00000000000E+00 -0.00000000000E+00 -0.30105334211E+03  0.30105334215E+03  0.50400000000E-02 0.  1.
         24    2    1    2    0    0 -0.71054273576E-14  0.00000000000E+00 -0.29574054171E+03  0.30636614317E+03  0.79985909208E+02 0.  0.
         66    2    3    3    0    0 -0.38807765086E+02  0.95182151488E+01 -0.15137204885E+03  0.15656990842E+03  0.19999999781E+01 0.  0.
        -13    1    3    3    0    0  0.38807765086E+02 -0.95182151488E+01 -0.14436849286E+03  0.14979623475E+03  0.10566000000E+00 0.  1.
         13    1    4    4    0    0 -0.18324012630E+02  0.49175761793E+01 -0.69406005255E+02  0.71952461555E+02  0.10566000000E+00 0. -1.
        -13    1    4    4    0    0 -0.12455765063E+02  0.32412535278E+01 -0.50888503666E+02  0.52490978055E+02  0.10566000000E+00 0.  1.
         14    1    4    4    0    0 -0.80279873928E+01  0.13593854417E+01 -0.31077539928E+02  0.32126468812E+02  0.00000000000E+00 0. -1.
<mgrwt>
<rscale>  0 0.79985909E+02</rscale>
<asrwt>0</asrwt>
<pdfrwt beam="1">  1        2 0.81735419E-03 0.79985909E+02</pdfrwt>
<pdfrwt beam="2">  1       -1 0.46315886E-01 0.79985909E+02</pdfrwt>
<totfact> 0.86348597E+04</totfact>
</mgrwt>
</event>
<event>
 8    1  0.2603554E-016  0.8024842E+02  0.7818608E-02  0.1328348E+00
          2   -1    0    0  501    0  0.00000000000E+00  0.00000000000E+00  0.71531503513E+01  0.71531508058E+01  0.25500000000E-02 0. -1.
         -1   -1    0    0    0  501 -0.00000000000E+00 -0.00000000000E+00 -0.22506899077E+03  0.22506899083E+03  0.50400000000E-02 0.  1.
         24    2    1    2    0    0  0.00000000000E+00  0.00000000000E+00 -0.21791584042E+03  0.23222214164E+03  0.80248424028E+02 0.  0.
         66    2    3    3    0    0 -0.29305910167E+01 -0.36930040417E+02 -0.15343648704E+03  0.15785807487E+03  0.19999995856E+01 0.  0.
        -13    1    3    3    0    0  0.29305910167E+01  0.36930040417E+02 -0.64479353382E+02  0.74364066763E+02  0.10566000000E+00 0.  1.
         13    1    4    4    0    0 -0.23568987889E+01 -0.22737441304E+02 -0.93179396448E+02  0.95942468675E+02  0.10566000000E+00 0. -1.
        -13    1    4    4    0    0 -0.39806842361E+00 -0.13728343854E+02 -0.57878702644E+02  0.59485975383E+02  0.10566000000E+00 0.  1.
         14    1    4    4    0    0 -0.17562380418E+00 -0.46425526001E+00 -0.23783879480E+01  0.24296308152E+01  0.00000000000E+00 0. -1.
<mgrwt>
<rscale>  0 0.80248424E+02</rscale>
<asrwt>0</asrwt>
<pdfrwt beam="1">  1        2 0.11004849E-02 0.80248424E+02</pdfrwt>
<pdfrwt beam="2">  1       -1 0.34625993E-01 0.80248424E+02</pdfrwt>
<totfact> 0.95214596E+04</totfact>
</mgrwt>
</event>
<event>
 8    1  0.2603554E-016  0.7942910E+02  0.7818608E-02  0.1330679E+00
          2   -1    0    0  501    0  0.00000000000E+00  0.00000000000E+00  0.90989269506E+01  0.90989273079E+01  0.25500000000E-02 0. -1.
         -1   -1    0    0    0  501 -0.00000000000E+00 -0.00000000000E+00 -0.17334410708E+03  0.17334410715E+03  0.50400000000E-02 0.  1.
         24    2    1    2    0    0  0.00000000000E+00  0.00000000000E+00 -0.16424518013E+03  0.18244303446E+03  0.79429098117E+02 0.  0.
         66    2    3    3    0    0  0.10050197983E+01  0.39584243513E+02 -0.75960879771E+02  0.85685340953E+02  0.19999998314E+01 0.  0.
        -13    1    3    3    0    0 -0.10050197983E+01 -0.39584243513E+02 -0.88284300358E+02  0.96757693508E+02  0.10566000000E+00 0.  1.
         13    1    4    4    0    0  0.97116909544E+00  0.28780626484E+02 -0.54208096516E+02  0.61382379574E+02  0.10566000000E+00 0. -1.
        -13    1    4    4    0    0  0.60076507594E-01  0.17742746828E+01 -0.29518454326E+01  0.34461885222E+01  0.10566000000E+00 0.  1.
         14    1    4    4    0    0 -0.26225804761E-01  0.90293423455E+01 -0.18800937822E+02  0.20856772857E+02  0.00000000000E+00 0. -1.
<mgrwt>
<rscale>  0 0.79429098E+02</rscale>
<asrwt>0</asrwt>
<pdfrwt beam="1">  1        2 0.13998351E-02 0.79429098E+02</pdfrwt>
<pdfrwt beam="2">  1       -1 0.26668322E-01 0.79429098E+02</pdfrwt>
<totfact> 0.10571577E+05</totfact>
</mgrwt>
</event>
<event>
 8    1  0.2603554E-016  0.8111080E+02  0.7818608E-02  0.1325928E+00
         -1   -1    0    0    0  501 -0.00000000000E+00  0.00000000000E+00  0.18164634884E+03  0.18164634891E+03  0.50400000000E-02 0.  1.
          2   -1    0    0  501    0  0.00000000000E+00 -0.00000000000E+00 -0.90546287255E+01  0.90546290845E+01  0.25500000000E-02 0. -1.
         24    2    1    2    0    0  0.00000000000E+00  0.00000000000E+00  0.17259172011E+03  0.19070097799E+03  0.81110795557E+02 0.  0.
         66    2    3    3    0    0  0.73064601946E+01  0.33217488368E+02  0.34519543883E+02  0.48501389713E+02  0.20000000342E+01 0.  0.
        -13    1    3    3    0    0 -0.73064601946E+01 -0.33217488368E+02  0.13807217623E+03  0.14219958828E+03  0.10566000000E+00 0.  1.
         13    1    4    4    0    0  0.76814400657E+00  0.45050381714E+01  0.45341740095E+01  0.64385799773E+01  0.10566000000E+00 0. -1.
        -13    1    4    4    0    0  0.82732234979E+00  0.24267520187E+01  0.32050966646E+01  0.41057759676E+01  0.10566000000E+00 0.  1.
         14    1    4    4    0    0  0.57109938382E+01  0.26285698178E+02  0.26780273209E+02  0.37957033768E+02  0.00000000000E+00 0. -1.
<mgrwt>
<rscale>  0 0.81110796E+02</rscale>
<asrwt>0</asrwt>
<pdfrwt beam="1">  1        2 0.13930199E-02 0.81110796E+02</pdfrwt>
<pdfrwt beam="2">  1       -1 0.27945590E-01 0.81110796E+02</pdfrwt>
<totfact> 0.98931476E+04</totfact>
</mgrwt>
</event>
<event>
 8    1  0.2603554E-016  0.7941041E+02  0.7818608E-02  0.1330733E+00
          2   -1    0    0  501    0  0.00000000000E+00  0.00000000000E+00  0.10557732168E+04  0.10557732168E+04  0.25500000000E-02 0. -1.
         -1   -1    0    0    0  501 -0.00000000000E+00 -0.00000000000E+00 -0.14932173521E+01  0.14932258577E+01  0.50400000000E-02 0.  1.
         24    2    1    2    0    0  0.00000000000E+00  0.00000000000E+00  0.10542799995E+04  0.10572664427E+04  0.79410412043E+02 0.  0.
         66    2    3    3    0    0  0.62008781972E+01  0.25044167035E+02  0.92884819667E+03  0.92920860609E+03  0.19999994288E+01 0.  0.
        -13    1    3    3    0    0 -0.62008781972E+01 -0.25044167035E+02  0.12543180279E+03  0.12805783658E+03  0.10566000000E+00 0.  1.
         13    1    4    4    0    0  0.54101046062E+00  0.44511399854E+01  0.15148592359E+03  0.15155230631E+03  0.10566000000E+00 0. -1.
        -13    1    4    4    0    0  0.14229544856E+00  0.89288593816E+00  0.39305625189E+02  0.39316164981E+02  0.10566000000E+00 0.  1.
        -14    1    4    4    0    0  0.55175722880E+01  0.19700141112E+02  0.73805664789E+03  0.73834013480E+03  0.00000000000E+00 0.  1.
<mgrwt>
<rscale>  0 0.79410412E+02</rscale>
<asrwt>0</asrwt>
<pdfrwt beam="1">  1        2 0.16242670E+00 0.79410412E+02</pdfrwt>
<pdfrwt beam="2">  1       -1 0.22972633E-03 0.79410412E+02</pdfrwt>
<totfact> 0.35957032E+05</totfact>
</mgrwt>
</event>
<event>
 8    1  0.2603554E-016  0.7880628E+02  0.7818608E-02  0.1332474E+00
         -1   -1    0    0    0  501 -0.00000000000E+00  0.00000000000E+00  0.91827359403E+01  0.91827373234E+01  0.50400000000E-02 0.  1.
          2   -1    0    0  501    0  0.00000000000E+00 -0.00000000000E+00 -0.16907894710E+03  0.16907894712E+03  0.25500000000E-02 0. -1.
         24    2    1    2    0    0  0.00000000000E+00  0.88817841970E-15 -0.15989621116E+03  0.17826168445E+03  0.78806280189E+02 0.  0.
         66    2    3    3    0    0 -0.28504120398E+02  0.71576886554E+01 -0.13928369130E+03  0.14236454632E+03  0.19999999215E+01 0.  0.
        -13    1    3    3    0    0  0.28504120398E+02 -0.71576886554E+01 -0.20612519860E+02  0.35897138125E+02  0.10566000000E+00 0.  1.
         13    1    4    4    0    0 -0.26421393736E+02  0.64550222936E+01 -0.12676814350E+03  0.12965311694E+03  0.10566000000E+00 0. -1.
        -13    1    4    4    0    0 -0.18202568449E+01  0.52658201649E+00 -0.11094960090E+02  0.11256106212E+02  0.10566000000E+00 0. -1.
         14    1    4    4    0    0 -0.26246981677E+00  0.17608434536E+00 -0.14205877084E+01  0.14553231733E+01  0.00000000000E+00 0. -1.
<mgrwt>
<rscale>  0 0.78806280E+02</rscale>
<asrwt>0</asrwt>
<pdfrwt beam="1">  1        2 0.26012143E-01 0.78806280E+02</pdfrwt>
<pdfrwt beam="2">  1       -1 0.14127288E-02 0.78806280E+02</pdfrwt>
<totfact> 0.21676633E+05</totfact>
</mgrwt>
</event>
<event>
 8    1  0.2603554E-016  0.8101002E+02  0.7818608E-02  0.1326209E+00
          2   -1    0    0  501    0  0.00000000000E+00  0.00000000000E+00  0.13298488226E+03  0.13298488229E+03  0.25500000000E-02 0. -1.
         -1   -1    0    0    0  501 -0.00000000000E+00 -0.00000000000E+00 -0.12337159039E+02  0.12337160068E+02  0.50400000000E-02 0.  1.
         24    2    1    2    0    0 -0.17763568394E-14  0.00000000000E+00  0.12064772322E+03  0.14532204235E+03  0.81010017129E+02 0.  0.
         66    2    3    3    0    0 -0.13931172530E+02 -0.27758343323E+00  0.12853957926E+03  0.12930807419E+03  0.19999984509E+01 0.  0.
        -13    1    3    3    0    0  0.13931172530E+02  0.27758343323E+00 -0.78918560368E+01  0.16013968165E+02  0.10566000000E+00 0.  1.
         13    1    4    4    0    0 -0.94359353575E+01 -0.10143861635E+00  0.79742050025E+02  0.80298523474E+02  0.10566000000E+00 0. -1.
        -13    1    4    4    0    0 -0.16627086481E+01 -0.47556802237E-01  0.21764112436E+02  0.21827840385E+02  0.10566000000E+00 0.  1.
        -14    1    4    4    0    0 -0.28325285248E+01 -0.12858801464E+00  0.27033416799E+02  0.27181710332E+02  0.00000000000E+00 0.  1.
<mgrwt>
<rscale>  0 0.81010017E+02</rscale>
<asrwt>0</asrwt>
<pdfrwt beam="1">  1        2 0.20459211E-01 0.81010017E+02</pdfrwt>
<pdfrwt beam="2">  1       -1 0.18980247E-02 0.81010017E+02</pdfrwt>
<totfact> 0.18648056E+05</totfact>
</mgrwt>
</event>
<event>
 8    1  0.2603554E-016  0.8215185E+02  0.7818608E-02  0.1323053E+00
         -1   -1    0    0    0  501 -0.00000000000E+00  0.00000000000E+00  0.44243547867E+01  0.44243576573E+01  0.50400000000E-02 0.  1.
          2   -1    0    0  501    0  0.00000000000E+00 -0.00000000000E+00 -0.38135074327E+03  0.38135074328E+03  0.25500000000E-02 0. -1.
         24    2    1    2    0    0  0.00000000000E+00  0.00000000000E+00 -0.37692638848E+03  0.38577510094E+03  0.82151848226E+02 0.  0.
         66    2    3    3    0    0  0.87393337306E+01 -0.21036577657E+02 -0.34894505599E+03  0.34969353105E+03  0.20000004091E+01 0.  0.
        -13    1    3    3    0    0 -0.87393337306E+01  0.21036577657E+02 -0.27981332492E+02  0.36081569889E+02  0.10566000000E+00 0.  1.
         13    1    4    4    0    0  0.55039581178E+00 -0.18624604891E+01 -0.28986065113E+02  0.29051244885E+02  0.10566000000E+00 0. -1.
        -13    1    4    4    0    0  0.12523957687E+01 -0.17691593560E+01 -0.37144620007E+02  0.37207961238E+02  0.10566000000E+00 0.  1.
        -14    1    4    4    0    0  0.69365421501E+01 -0.17404957812E+02 -0.28281437087E+03  0.28343432492E+03  0.00000000000E+00 0.  1.
<mgrwt>
<rscale>  0 0.82151848E+02</rscale>
<asrwt>0</asrwt>
<pdfrwt beam="1">  1        2 0.58669319E-01 0.82151848E+02</pdfrwt>
<pdfrwt beam="2">  1       -1 0.68067049E-03 0.82151848E+02</pdfrwt>
<totfact> 0.25918695E+05</totfact>
</mgrwt>
</event>
<event>
 8    1  0.2603554E-016  0.7983038E+02  0.7818608E-02  0.1329533E+00
         -1   -1    0    0    0  501 -0.00000000000E+00  0.00000000000E+00  0.74359153509E+02  0.74359153680E+02  0.50400000000E-02 0.  1.
          2   -1    0    0  501    0  0.00000000000E+00 -0.00000000000E+00 -0.21426044628E+02  0.21426044780E+02  0.25500000000E-02 0. -1.
         24    2    1    2    0    0  0.00000000000E+00  0.17763568394E-14  0.52933108881E+02  0.95785198460E+02  0.79830384116E+02 0.  0.
         66    2    3    3    0    0  0.10689705879E+02 -0.13237998447E+02 -0.16806738622E+02  0.23999601656E+02  0.20000004596E+01 0.  0.
        -13    1    3    3    0    0 -0.10689705879E+02  0.13237998447E+02  0.69739847503E+02  0.71785596804E+02  0.10566000000E+00 0.  1.
         13    1    4    4    0    0  0.19294494803E+01 -0.18846310336E+01 -0.20817535286E+01  0.34087345481E+01  0.10566000000E+00 0. -1.
        -13    1    4    4    0    0  0.52736681305E+01 -0.63573956984E+01 -0.92269902172E+01  0.12384529386E+02  0.10566000000E+00 0.  1.
        -14    1    4    4    0    0  0.34865882686E+01 -0.49959717154E+01 -0.54979948765E+01  0.82063377214E+01  0.00000000000E+00 0.  1.
<mgrwt>
<rscale>  0 0.79830384E+02</rscale>
<asrwt>0</asrwt>
<pdfrwt beam="1">  1        2 0.32963145E-02 0.79830384E+02</pdfrwt>
<pdfrwt beam="2">  1       -1 0.11439870E-01 0.79830384E+02</pdfrwt>
<totfact> 0.12665551E+05</totfact>
</mgrwt>
</event>
<event>
 8    1  0.2603554E-016  0.7898860E+02  0.7818608E-02  0.1331946E+00
          2   -1    0    0  501    0  0.00000000000E+00  0.00000000000E+00  0.69010257755E+01  0.69010262466E+01  0.25500000000E-02 0. -1.
         -1   -1    0    0    0  501 -0.00000000000E+00 -0.00000000000E+00 -0.22602433111E+03  0.22602433116E+03  0.50400000000E-02 0.  1.
         24    2    1    2    0    0  0.35527136788E-14  0.00000000000E+00 -0.21912330533E+03  0.23292535741E+03  0.78988601615E+02 0.  0.
         66    2    3    3    0    0  0.26255698981E+02  0.15828352642E+02 -0.36330650683E+02  0.47579561035E+02  0.19999932145E+01 0.  0.
        -13    1    3    3    0    0 -0.26255698981E+02 -0.15828352642E+02 -0.18279265465E+03  0.18534579638E+03  0.10566000000E+00 0.  1.
         13    1    4    4    0    0  0.92361113588E+01  0.49950648020E+01 -0.12802665818E+02  0.16558255992E+02  0.10566000000E+00 0. -1.
        -13    1    4    4    0    0  0.10664021580E+02  0.71804881369E+01 -0.15795287882E+02  0.20366223249E+02  0.10566000000E+00 0.  1.
        -14    1    4    4    0    0  0.63555660422E+01  0.36527997036E+01 -0.77326969827E+01  0.10655081793E+02  0.00000000000E+00 0.  1.
<mgrwt>
<rscale>  0 0.78988602E+02</rscale>
<asrwt>0</asrwt>
<pdfrwt beam="1">  1        2 0.10616965E-02 0.78988602E+02</pdfrwt>
<pdfrwt beam="2">  1       -1 0.34772968E-01 0.78988602E+02</pdfrwt>
<totfact> 0.98999466E+04</totfact>
</mgrwt>
</event>
<event>
 8    1  0.2603554E-016  0.8341128E+02  0.7818608E-02  0.1319640E+00
          2   -1    0    0  501    0  0.00000000000E+00  0.00000000000E+00  0.13475163342E+03  0.13475163345E+03  0.25500000000E-02 0. -1.
         -1   -1    0    0    0  501 -0.00000000000E+00 -0.00000000000E+00 -0.12907898562E+02  0.12907899546E+02  0.50400000000E-02 0.  1.
         24    2    1    2    0    0  0.35527136788E-14 -0.35527136788E-14  0.12184373486E+03  0.14765953299E+03  0.83411281966E+02 0.  0.
         66    2    3    3    0    0  0.18624929091E+02  0.17847657580E+02  0.11891562729E+03  0.12169779494E+03  0.20000035942E+01 0.  0.
        -13    1    3    3    0    0 -0.18624929091E+02 -0.17847657580E+02  0.29281075682E+01  0.25961738053E+02  0.10566000000E+00 0.  1.
         13    1    4    4    0    0  0.64632468824E+00  0.66061609710E+00  0.55407090424E+01  0.56182532836E+01  0.10566000000E+00 0. -1.
        -13    1    4    4    0    0  0.47237809399E+01  0.53366274393E+01  0.31510691943E+02  0.32306788289E+02  0.10566000000E+00 0.  1.
         14    1    4    4    0    0  0.13254823463E+02  0.11850414044E+02  0.81864226308E+02  0.83772753369E+02  0.00000000000E+00 0. -1.
<mgrwt>
<rscale>  0 0.83411282E+02</rscale>
<asrwt>0</asrwt>
<pdfrwt beam="1">  1        2 0.20731020E-01 0.83411282E+02</pdfrwt>
<pdfrwt beam="2">  1       -1 0.19858307E-02 0.83411282E+02</pdfrwt>
<totfact> 0.17321281E+05</totfact>
</mgrwt>
</event>
<event>
 8    1  0.2603554E-016  0.7927664E+02  0.7818608E-02  0.1331117E+00
         -1   -1    0    0    0  501 -0.00000000000E+00  0.00000000000E+00  0.92671518751E+02  0.92671518888E+02  0.50400000000E-02 0.  1.
          2   -1    0    0  501    0  0.00000000000E+00 -0.00000000000E+00 -0.16954467258E+02  0.16954467450E+02  0.25500000000E-02 0. -1.
         24    2    1    2    0    0  0.00000000000E+00  0.00000000000E+00  0.75717051492E+02  0.10962598634E+03  0.79276635864E+02 0.  0.
         66    2    3    3    0    0 -0.24517845939E+01  0.38256709262E+02  0.51683448817E+02  0.64379856417E+02  0.19999948393E+01 0.  0.
        -13    1    3    3    0    0  0.24517845939E+01 -0.38256709262E+02  0.24033602675E+02  0.45246129921E+02  0.10566000000E+00 0.  1.
         13    1    4    4    0    0 -0.17949620704E+00  0.45274790451E+01  0.58408632476E+01  0.73930462534E+01  0.10566000000E+00 0. -1.
        -13    1    4    4    0    0 -0.11833790403E+01  0.26423871118E+02  0.35116162197E+02  0.43963363865E+02  0.10566000000E+00 0.  1.
        -14    1    4    4    0    0 -0.10889093466E+01  0.73053590992E+01  0.10726423372E+02  0.13023446299E+02  0.00000000000E+00 0.  1.
<mgrwt>
<rscale>  0 0.79276636E+02</rscale>
<asrwt>0</asrwt>
<pdfrwt beam="1">  1        2 0.26083796E-02 0.79276636E+02</pdfrwt>
<pdfrwt beam="2">  1       -1 0.14257157E-01 0.79276636E+02</pdfrwt>
<totfact> 0.12320617E+05</totfact>
</mgrwt>
</event>
<event>
 8    1  0.2603554E-016  0.7980720E+02  0.7818608E-02  0.1329599E+00
          2   -1    0    0  501    0  0.00000000000E+00  0.00000000000E+00  0.32427870664E+04  0.32427870664E+04  0.25500000000E-02 0. -1.
         -1   -1    0    0    0  501 -0.00000000000E+00 -0.00000000000E+00 -0.49101444392E+00  0.49104030969E+00  0.50400000000E-02 0.  1.
         24    2    1    2    0    0 -0.44408920985E-15  0.00000000000E+00  0.32422960520E+04  0.32432781067E+04  0.79807198541E+02 0.  0.
         66    2    3    3    0    0 -0.20932622285E+01 -0.10383480297E+02  0.31845665470E+04  0.31845847910E+04  0.19999986389E+01 0.  0.
        -13    1    3    3    0    0  0.20932622285E+01  0.10383480297E+02  0.57729504958E+02  0.58693315774E+02  0.10566000000E+00 0.  1.
         13    1    4    4    0    0 -0.12646465627E+01 -0.90775544208E+01  0.26130222488E+04  0.26130383245E+04  0.10566000000E+00 0. -1.
        -13    1    4    4    0    0 -0.12940230028E+00 -0.33860632242E+00  0.15349123843E+03  0.15349170284E+03  0.10566000000E+00 0.  1.
         14    1    4    4    0    0 -0.69921336559E+00 -0.96731955426E+00  0.41805305980E+03  0.41805476366E+03  0.00000000000E+00 0. -1.
<mgrwt>
<rscale>  0 0.79807199E+02</rscale>
<asrwt>0</asrwt>
<pdfrwt beam="1">  1        2 0.49888145E+00 0.79807199E+02</pdfrwt>
<pdfrwt beam="2">  1       -1 0.75544017E-04 0.79807199E+02</pdfrwt>
<totfact> 0.11673925E+05</totfact>
</mgrwt>
</event>
<event>
 8    1  0.2603554E-016  0.7977478E+02  0.7818608E-02  0.1329692E+00
          2   -1    0    0  501    0  0.00000000000E+00  0.00000000000E+00  0.68445757890E+02  0.68445757938E+02  0.25500000000E-02 0. -1.
         -1   -1    0    0    0  501 -0.00000000000E+00 -0.00000000000E+00 -0.23244741312E+02  0.23244741859E+02  0.50400000000E-02 0.  1.
         24    2    1    2    0    0 -0.88817841970E-15  0.35527136788E-14  0.45201016578E+02  0.91690499796E+02  0.79774782063E+02 0.  0.
         66    2    3    3    0    0  0.74879695019E+01 -0.25687414546E+02  0.56576203121E+02  0.62616129876E+02  0.20000019269E+01 0.  0.
        -13    1    3    3    0    0 -0.74879695019E+01  0.25687414546E+02 -0.11375186543E+02  0.29074369920E+02  0.10566000000E+00 0.  1.
         13    1    4    4    0    0  0.45135576380E+01 -0.14708111929E+02  0.33214617544E+02  0.36604955152E+02  0.10566000000E+00 0. -1.
        -13    1    4    4    0    0  0.26071888376E+01 -0.77276244463E+01  0.17129280978E+02  0.18972006854E+02  0.10566000000E+00 0.  1.
        -14    1    4    4    0    0  0.36722302626E+00 -0.32516781711E+01  0.62323045992E+01  0.70391678696E+01  0.00000000000E+00 0.  1.
<mgrwt>
<rscale>  0 0.79774782E+02</rscale>
<asrwt>0</asrwt>
<pdfrwt beam="1">  1        2 0.10530116E-01 0.79774782E+02</pdfrwt>
<pdfrwt beam="2">  1       -1 0.35761142E-02 0.79774782E+02</pdfrwt>
<totfact> 0.16181657E+05</totfact>
</mgrwt>
</event>
<event>
 8    1  0.2603554E-016  0.8055013E+02  0.7818608E-02  0.1327497E+00
         -1   -1    0    0    0  501 -0.00000000000E+00  0.00000000000E+00  0.54002110663E+01  0.54002134182E+01  0.50400000000E-02 0.  1.
          2   -1    0    0  501    0  0.00000000000E+00 -0.00000000000E+00 -0.30037356104E+03  0.30037356105E+03  0.25500000000E-02 0. -1.
         24    2    1    2    0    0  0.00000000000E+00  0.22204460493E-15 -0.29497334997E+03  0.30577377446E+03  0.80550133198E+02 0.  0.
         66    2    3    3    0    0 -0.21223545424E+02 -0.17543030943E+01 -0.27723179639E+03  0.27805572354E+03  0.20000004745E+01 0.  0.
        -13    1    3    3    0    0  0.21223545424E+02  0.17543030943E+01 -0.17741553574E+02  0.27718050924E+02  0.10566000000E+00 0.  1.
         13    1    4    4    0    0 -0.70491703039E+01 -0.79878170860E+00 -0.91513261728E+02  0.91787891850E+02  0.10566000000E+00 0. -1.
        -13    1    4    4    0    0 -0.70287363152E+01  0.25208783690E+00 -0.95512831736E+02  0.95771493006E+02  0.10566000000E+00 0.  1.
        -14    1    4    4    0    0 -0.71456388053E+01 -0.12076092226E+01 -0.90205702931E+02  0.90496338684E+02  0.00000000000E+00 0.  1.
<mgrwt>
<rscale>  0 0.80550133E+02</rscale>
<asrwt>0</asrwt>
<pdfrwt beam="1">  1        2 0.46211304E-01 0.80550133E+02</pdfrwt>
<pdfrwt beam="2">  1       -1 0.83080212E-03 0.80550133E+02</pdfrwt>
<totfact> 0.25051644E+05</totfact>
</mgrwt>
</event>
<event>
 8    1  0.2603554E-016  0.8174191E+02  0.7818608E-02  0.1324180E+00
         -1   -1    0    0    0  501 -0.00000000000E+00  0.00000000000E+00  0.82478610985E+01  0.82478626384E+01  0.50400000000E-02 0.  1.
          2   -1    0    0  501    0  0.00000000000E+00 -0.00000000000E+00 -0.20252946541E+03  0.20252946542E+03  0.25500000000E-02 0. -1.
         24    2    1    2    0    0  0.44408920985E-15  0.00000000000E+00 -0.19428160431E+03  0.21077732806E+03  0.81741912456E+02 0.  0.
         66    2    3    3    0    0  0.39221120429E+01 -0.18304036117E+02 -0.19081226427E+03  0.19173873081E+03  0.19999983979E+01 0.  0.
        -13    1    3    3    0    0 -0.39221120429E+01  0.18304036117E+02 -0.34693400339E+01  0.19038597252E+02  0.10566000000E+00 0.  1.
         13    1    4    4    0    0  0.81605145917E+00 -0.51289243072E+01 -0.55484078712E+02  0.55726707772E+02  0.10566000000E+00 0. -1.
        -13    1    4    4    0    0  0.15225571597E+01 -0.35082781123E+01 -0.38357071771E+02  0.38547403473E+02  0.10566000000E+00 0.  1.
        -14    1    4    4    0    0  0.15835034240E+01 -0.96668336970E+01 -0.96971113790E+02  0.97464619562E+02  0.00000000000E+00 0.  1.
<mgrwt>
<rscale>  0 0.81741912E+02</rscale>
<asrwt>0</asrwt>
<pdfrwt beam="1">  1        2 0.31158375E-01 0.81741912E+02</pdfrwt>
<pdfrwt beam="2">  1       -1 0.12689020E-02 0.81741912E+02</pdfrwt>
<totfact> 0.20929965E+05</totfact>
</mgrwt>
</event>
<event>
 8    1  0.2603554E-016  0.7961414E+02  0.7818608E-02  0.1330150E+00
         -1   -1    0    0    0  501 -0.00000000000E+00  0.00000000000E+00  0.20486820653E+02  0.20486821273E+02  0.50400000000E-02 0.  1.
          2   -1    0    0  501    0  0.00000000000E+00 -0.00000000000E+00 -0.77347417733E+02  0.77347417775E+02  0.25500000000E-02 0. -1.
         24    2    1    2    0    0  0.00000000000E+00  0.00000000000E+00 -0.56860597081E+02  0.97834239048E+02  0.79614137122E+02 0.  0.
         66    2    3    3    0    0  0.13998853037E+02 -0.37177839738E+02 -0.25859385723E+02  0.47443308082E+02  0.19999994458E+01 0.  0.
        -13    1    3    3    0    0 -0.13998853037E+02  0.37177839738E+02 -0.31001211358E+02  0.50390930966E+02  0.10566000000E+00 0.  1.
         13    1    4    4    0    0  0.24008469147E+01 -0.67751808191E+01 -0.53548106467E+01  0.89639445635E+01  0.10566000000E+00 0. -1.
        -13    1    4    4    0    0  0.59801398461E+00 -0.21654104803E+01 -0.12048843939E+01  0.25513787865E+01  0.10566000000E+00 0.  1.
        -14    1    4    4    0    0  0.10999992138E+02 -0.28237248439E+02 -0.19299690682E+02  0.35927984732E+02  0.00000000000E+00 0.  1.
<mgrwt>
<rscale>  0 0.79614137E+02</rscale>
<asrwt>0</asrwt>
<pdfrwt beam="1">  1        2 0.11899603E-01 0.79614137E+02</pdfrwt>
<pdfrwt beam="2">  1       -1 0.31518187E-02 0.79614137E+02</pdfrwt>
<totfact> 0.16769901E+05</totfact>
</mgrwt>
</event>
<event>
 8    1  0.2603554E-016  0.7894081E+02  0.7818608E-02  0.1332084E+00
          2   -1    0    0  501    0  0.00000000000E+00  0.00000000000E+00  0.19146600750E+03  0.19146600751E+03  0.25500000000E-02 0. -1.
         -1   -1    0    0    0  501 -0.00000000000E+00 -0.00000000000E+00 -0.81367593104E+01  0.81367608713E+01  0.50400000000E-02 0.  1.
         24    2    1    2    0    0 -0.17763568394E-14  0.00000000000E+00  0.18332924819E+03  0.19960276838E+03  0.78940812679E+02 0.  0.
         66    2    3    3    0    0 -0.10055920841E+02 -0.37714844202E+02  0.10611073302E+03  0.11307970056E+03  0.19999999546E+01 0.  0.
        -13    1    3    3    0    0  0.10055920841E+02  0.37714844202E+02  0.77218515165E+02  0.86523067823E+02  0.10566000000E+00 0.  1.
         13    1    4    4    0    0 -0.52349538583E+01 -0.17851831772E+02  0.50770572382E+02  0.54071756246E+02  0.10566000000E+00 0. -1.
        -13    1    4    4    0    0 -0.55337620361E+00 -0.13393417881E+01  0.33432951575E+01  0.36453872488E+01  0.10566000000E+00 0.  1.
        -14    1    4    4    0    0 -0.42675907788E+01 -0.18523670641E+02  0.51996865481E+02  0.55362557067E+02  0.00000000000E+00 0.  1.
<mgrwt>
<rscale>  0 0.78940813E+02</rscale>
<asrwt>0</asrwt>
<pdfrwt beam="1">  1        2 0.29456306E-01 0.78940813E+02</pdfrwt>
<pdfrwt beam="2">  1       -1 0.12518094E-02 0.78940813E+02</pdfrwt>
<totfact> 0.22506263E+05</totfact>
</mgrwt>
</event>
<event>
 8    1  0.2603554E-016  0.7814926E+02  0.7818608E-02  0.1334387E+00
          2   -1    0    0  501    0  0.00000000000E+00  0.00000000000E+00  0.59273891558E+03  0.59273891558E+03  0.25500000000E-02 0. -1.
         -1   -1    0    0    0  501 -0.00000000000E+00 -0.00000000000E+00 -0.25758813858E+01  0.25758863164E+01  0.50400000000E-02 0.  1.
         24    2    1    2    0    0  0.00000000000E+00  0.00000000000E+00  0.59016303419E+03  0.59531480190E+03  0.78149257412E+02 0.  0.
         66    2    3    3    0    0  0.12170986024E+02  0.37140005521E+01  0.57649865656E+03  0.57664254759E+03  0.19999935380E+01 0.  0.
        -13    1    3    3    0    0 -0.12170986024E+02 -0.37140005521E+01  0.13664377631E+02  0.18672254309E+02  0.10566000000E+00 0.  1.
         13    1    4    4    0    0  0.56433980358E+01  0.21047149355E+01  0.26498589442E+03  0.26505435890E+03  0.10566000000E+00 0. -1.
        -13    1    4    4    0    0  0.73176770960E+00  0.47673465375E+00  0.57888054231E+02  0.57894738505E+02  0.10566000000E+00 0.  1.
        -14    1    4    4    0    0  0.57958202790E+01  0.11325509629E+01  0.25362470791E+03  0.25369345019E+03  0.00000000000E+00 0.  1.
<mgrwt>
<rscale>  0 0.78149257E+02</rscale>
<asrwt>0</asrwt>
<pdfrwt beam="1">  1        2 0.91190703E-01 0.78149257E+02</pdfrwt>
<pdfrwt beam="2">  1       -1 0.39628939E-03 0.78149257E+02</pdfrwt>
<totfact> 0.34064839E+05</totfact>
</mgrwt>
</event>
<event>
 8    1  0.2603554E-016  0.7965858E+02  0.7818608E-02  0.1330023E+00
         -1   -1    0    0    0  501 -0.00000000000E+00  0.00000000000E+00  0.39643727602E+03  0.39643727605E+03  0.50400000000E-02 0.  1.
          2   -1    0    0  501    0  0.00000000000E+00 -0.00000000000E+00 -0.40015717184E+01  0.40015725309E+01  0.25500000000E-02 0. -1.
         24    2    1    2    0    0 -0.35527136788E-14  0.71054273576E-14  0.39243570430E+03  0.40043884859E+03  0.79658580478E+02 0.  0.
         66    2    3    3    0    0  0.15735820481E+02 -0.32901443252E+02  0.27649627435E+03  0.27889838785E+03  0.20000000005E+01 0.  0.
        -13    1    3    3    0    0 -0.15735820481E+02  0.32901443252E+02  0.11593942995E+03  0.12154046073E+03  0.10566000000E+00 0.  1.
         13    1    4    4    0    0  0.82408620895E+00 -0.15570402878E+01  0.11130426297E+02  0.11269474083E+02  0.10566000000E+00 0.  1.
        -13    1    4    4    0    0  0.46504361655E+01 -0.87598504616E+01  0.73615598987E+02  0.74280745250E+02  0.10566000000E+00 0. -1.
        -14    1    4    4    0    0  0.10261298107E+02 -0.22584552503E+02  0.19175024907E+03  0.19334816852E+03  0.00000000000E+00 0.  1.
<mgrwt>
<rscale>  0 0.79658580E+02</rscale>
<asrwt>0</asrwt>
<pdfrwt beam="1">  1        2 0.61562636E-03 0.79658580E+02</pdfrwt>
<pdfrwt beam="2">  1       -1 0.60990362E-01 0.79658580E+02</pdfrwt>
<totfact> 0.76989007E+04</totfact>
</mgrwt>
</event>
<event>
 8    1  0.2603554E-016  0.8065862E+02  0.7818608E-02  0.1327193E+00
         -1   -1    0    0    0  501 -0.00000000000E+00  0.00000000000E+00  0.14112662678E+01  0.14112752674E+01  0.50400000000E-02 0.  1.
          2   -1    0    0  501    0  0.00000000000E+00 -0.00000000000E+00 -0.11524743147E+04  0.11524743147E+04  0.25500000000E-02 0. -1.
         24    2    1    2    0    0  0.00000000000E+00  0.00000000000E+00 -0.11510630484E+04  0.11538855900E+04  0.80658621826E+02 0.  0.
         66    2    3    3    0    0 -0.24803257747E+02  0.15982446210E+01 -0.10297845584E+04  0.10300864006E+04  0.19999993409E+01 0.  0.
        -13    1    3    3    0    0  0.24803257747E+02 -0.15982446210E+01 -0.12127849005E+03  0.12379918939E+03  0.10566000000E+00 0.  1.
         13    1    4    4    0    0 -0.19387160432E+02  0.74204850190E+00 -0.77945747596E+03  0.77969890382E+03  0.10566000000E+00 0. -1.
        -13    1    4    4    0    0 -0.17437502385E+01  0.10142196769E+00 -0.81935255673E+02  0.81953939732E+02  0.10566000000E+00 0.  1.
        -14    1    4    4    0    0 -0.36723470764E+01  0.75477415144E+00 -0.16839182675E+03  0.16843355702E+03  0.00000000000E+00 0.  1.
<mgrwt>
<rscale>  0 0.80658622E+02</rscale>
<asrwt>0</asrwt>
<pdfrwt beam="1">  1        2 0.17730299E+00 0.80658622E+02</pdfrwt>
<pdfrwt beam="2">  1       -1 0.21711950E-03 0.80658622E+02</pdfrwt>
<totfact> 0.34426241E+05</totfact>
</mgrwt>
</event>
<event>
 8    1  0.2603554E-016  0.7463562E+02  0.7818608E-02  0.1345003E+00
         -1   -1    0    0    0  501 -0.00000000000E+00  0.00000000000E+00  0.12580555661E+02  0.12580556671E+02  0.50400000000E-02 0.  1.
          2   -1    0    0  501    0  0.00000000000E+00 -0.00000000000E+00 -0.11069612801E+03  0.11069612804E+03  0.25500000000E-02 0. -1.
         24    2    1    2    0    0  0.35527136788E-14  0.00000000000E+00 -0.98115572346E+02  0.12327668471E+03  0.74635617876E+02 0.  0.
         66    2    3    3    0    0 -0.28325934453E+02 -0.12871908068E+02 -0.83046359766E+02  0.88705932449E+02  0.20000003310E+01 0.  0.
        -13    1    3    3    0    0  0.28325934453E+02  0.12871908068E+02 -0.15069212580E+02  0.34570752259E+02  0.10566000000E+00 0.  1.
         13    1    4    4    0    0 -0.38003645902E+01 -0.16735045507E+01 -0.11023295980E+02  0.11779966333E+02  0.10566000000E+00 0. -1.
        -13    1    4    4    0    0 -0.16116234261E+02 -0.68041162878E+01 -0.48698623235E+02  0.51745493275E+02  0.10566000000E+00 0.  1.
        -14    1    4    4    0    0 -0.84093356018E+01 -0.43942872293E+01 -0.23324440550E+02  0.25180472841E+02  0.00000000000E+00 0.  1.
<mgrwt>
<rscale>  0 0.74635618E+02</rscale>
<asrwt>0</asrwt>
<pdfrwt beam="1">  1        2 0.17030173E-01 0.74635618E+02</pdfrwt>
<pdfrwt beam="2">  1       -1 0.19354703E-02 0.74635618E+02</pdfrwt>
<totfact> 0.21947853E+05</totfact>
</mgrwt>
</event>
<event>
 8    1  0.2603554E-016  0.7454866E+02  0.7818608E-02  0.1345274E+00
          2   -1    0    0  501    0  0.00000000000E+00  0.00000000000E+00  0.17715090317E+02  0.17715090501E+02  0.25500000000E-02 0. -1.
         -1   -1    0    0    0  501 -0.00000000000E+00 -0.00000000000E+00 -0.78428943621E+02  0.78428943782E+02  0.50400000000E-02 0.  1.
         24    2    1    2    0    0  0.00000000000E+00  0.00000000000E+00 -0.60713853303E+02  0.96144034283E+02  0.74548664276E+02 0.  0.
         66    2    3    3    0    0 -0.16524116024E+02  0.13071830742E+02  0.92347047827E+01  0.23091100655E+02  0.19999969293E+01 0.  0.
        -13    1    3    3    0    0  0.16524116024E+02 -0.13071830742E+02 -0.69948558086E+02  0.73052933628E+02  0.10566000000E+00 0.  1.
         13    1    4    4    0    0 -0.13412976287E+02  0.10886101941E+02  0.68937866336E+01  0.18599747486E+02  0.10566000000E+00 0. -1.
        -13    1    4    4    0    0 -0.25708866232E+01  0.16072035980E+01  0.17380790454E+01  0.34963758720E+01  0.10566000000E+00 0.  1.
         14    1    4    4    0    0 -0.54025311413E+00  0.57852520224E+00  0.60283910370E+00  0.99497729718E+00  0.00000000000E+00 0. -1.
<mgrwt>
<rscale>  0 0.74548664E+02</rscale>
<asrwt>0</asrwt>
<pdfrwt beam="1">  1        2 0.27253986E-02 0.74548664E+02</pdfrwt>
<pdfrwt beam="2">  1       -1 0.12065991E-01 0.74548664E+02</pdfrwt>
<totfact> 0.14834943E+05</totfact>
</mgrwt>
</event>
<event>
 8    1  0.2603554E-016  0.7910536E+02  0.7818608E-02  0.1331610E+00
          2   -1    0    0  501    0  0.00000000000E+00  0.00000000000E+00  0.39103004165E+02  0.39103004248E+02  0.25500000000E-02 0. -1.
         -1   -1    0    0    0  501 -0.00000000000E+00 -0.00000000000E+00 -0.40007524540E+02  0.40007524857E+02  0.50400000000E-02 0.  1.
         24    2    1    2    0    0  0.00000000000E+00 -0.17763568394E-14 -0.90452037500E+00  0.79110529106E+02  0.79105357962E+02 0.  0.
         66    2    3    3    0    0 -0.30834863732E+02 -0.12020934591E+02  0.21161772028E+02  0.39333348282E+02  0.20000004876E+01 0.  0.
        -13    1    3    3    0    0  0.30834863732E+02  0.12020934591E+02 -0.22066292403E+02  0.39777180823E+02  0.10566000000E+00 0.  1.
         13    1    4    4    0    0 -0.13437709372E+02 -0.50961592118E+01  0.91087744942E+01  0.17015399164E+02  0.10566000000E+00 0. -1.
        -13    1    4    4    0    0 -0.11571654244E+02 -0.47322075360E+01  0.72186182183E+01  0.14436640299E+02  0.10566000000E+00 0.  1.
        -14    1    4    4    0    0 -0.58255001151E+01 -0.21925678428E+01  0.48343793154E+01  0.78813088191E+01  0.00000000000E+00 0.  1.
<mgrwt>
<rscale>  0 0.79105358E+02</rscale>
<asrwt>0</asrwt>
<pdfrwt beam="1">  1        2 0.60158468E-02 0.79105358E+02</pdfrwt>
<pdfrwt beam="2">  1       -1 0.61550038E-02 0.79105358E+02</pdfrwt>
<totfact> 0.14637232E+05</totfact>
</mgrwt>
</event>
<event>
 8    1  0.2603554E-016  0.7673135E+02  0.7818608E-02  0.1338592E+00
         -1   -1    0    0    0  501 -0.00000000000E+00  0.00000000000E+00  0.10106672235E+01  0.10106797902E+01  0.50400000000E-02 0.  1.
          2   -1    0    0  501    0  0.00000000000E+00 -0.00000000000E+00 -0.14563803973E+04  0.14563803973E+04  0.25500000000E-02 0. -1.
         24    2    1    2    0    0 -0.88817841970E-15 -0.35527136788E-14 -0.14553697301E+04  0.14573910771E+04  0.76731351909E+02 0.  0.
         66    2    3    3    0    0  0.69950581503E+01  0.18710215979E+02 -0.13497351967E+04  0.13498844781E+04  0.19999982857E+01 0.  0.
        -13    1    3    3    0    0 -0.69950581503E+01 -0.18710215979E+02 -0.10563453338E+03  0.10750659899E+03  0.10566000000E+00 0.  1.
         13    1    4    4    0    0  0.14788423857E+01  0.54254257831E+01 -0.42780938039E+03  0.42784635015E+03  0.10566000000E+00 0. -1.
        -13    1    4    4    0    0  0.10067719706E+01  0.21732132561E+01 -0.14832384497E+03  0.14834321890E+03  0.10566000000E+00 0.  1.
         14    1    4    4    0    0  0.45094437939E+01  0.11111576939E+02 -0.77360197135E+03  0.77369490906E+03  0.00000000000E+00 0. -1.
<mgrwt>
<rscale>  0 0.76731352E+02</rscale>
<asrwt>0</asrwt>
<pdfrwt beam="1">  1        2 0.22405684E+00 0.76731352E+02</pdfrwt>
<pdfrwt beam="2">  1       -1 0.15548940E-03 0.76731352E+02</pdfrwt>
<totfact> 0.37440949E+05</totfact>
</mgrwt>
</event>
<event>
 8    1  0.2603554E-016  0.8025487E+02  0.7818608E-02  0.1328330E+00
         -1   -1    0    0    0  501 -0.00000000000E+00  0.00000000000E+00  0.19900197976E+03  0.19900197982E+03  0.50400000000E-02 0.  1.
          2   -1    0    0  501    0  0.00000000000E+00 -0.00000000000E+00 -0.80914321403E+01  0.80914325421E+01  0.25500000000E-02 0. -1.
         24    2    1    2    0    0  0.35527136788E-14 -0.17763568394E-14  0.19091054762E+03  0.20709341237E+03  0.80254870587E+02 0.  0.
         66    2    3    3    0    0 -0.30637798642E+02  0.14100488085E+02  0.39529541449E+02  0.52000799185E+02  0.19999997305E+01 0.  0.
        -13    1    3    3    0    0  0.30637798642E+02 -0.14100488085E+02  0.15138100617E+03  0.15509261318E+03  0.10566000000E+00 0.  1.
         13    1    4    4    0    0 -0.34373291202E+01  0.17550813465E+01  0.54062206799E+01  0.66433371199E+01  0.10566000000E+00 0.  1.
        -13    1    4    4    0    0 -0.18282677871E+02  0.83975285747E+01  0.23516240386E+02  0.30948336340E+02  0.10566000000E+00 0. -1.
        -14    1    4    4    0    0 -0.89177916503E+01  0.39478781641E+01  0.10607080383E+02  0.14409125725E+02  0.00000000000E+00 0.  1.
<mgrwt>
<rscale>  0 0.80254871E+02</rscale>
<asrwt>0</asrwt>
<pdfrwt beam="1">  1        2 0.12448357E-02 0.80254871E+02</pdfrwt>
<pdfrwt beam="2">  1       -1 0.30615691E-01 0.80254871E+02</pdfrwt>
<totfact> 0.98950154E+04</totfact>
</mgrwt>
</event>
<event>
 8    1  0.2603554E-016  0.8101170E+02  0.7818608E-02  0.1326205E+00
          2   -1    0    0  501    0  0.00000000000E+00  0.00000000000E+00  0.47959909561E+03  0.47959909561E+03  0.25500000000E-02 0. -1.
         -1   -1    0    0    0  501 -0.00000000000E+00 -0.00000000000E+00 -0.34210303491E+01  0.34210340617E+01  0.50400000000E-02 0.  1.
         24    2    1    2    0    0 -0.44408920985E-15  0.17763568394E-14  0.47617806526E+03  0.48302012968E+03  0.81011701864E+02 0.  0.
         66    2    3    3    0    0  0.23538965481E+01 -0.15830302231E+02  0.45993214053E+03  0.46021485546E+03  0.19999991503E+01 0.  0.
        -13    1    3    3    0    0 -0.23538965481E+01  0.15830302231E+02  0.16245924726E+02  0.22805274213E+02  0.10566000000E+00 0.  1.
         13    1    4    4    0    0  0.34510682660E+00 -0.61257354511E+01  0.19262580676E+03  0.19272352303E+03  0.10566000000E+00 0. -1.
        -13    1    4    4    0    0  0.18525786158E-01 -0.43303940265E+00  0.91013941925E+01  0.91123216916E+01  0.10566000000E+00 0.  1.
         14    1    4    4    0    0  0.19902639353E+01 -0.92715273771E+01  0.25820493958E+03  0.25837901074E+03  0.00000000000E+00 0. -1.
<mgrwt>
<rscale>  0 0.81011702E+02</rscale>
<asrwt>0</asrwt>
<pdfrwt beam="1">  1        2 0.73784436E-01 0.81011702E+02</pdfrwt>
<pdfrwt beam="2">  1       -1 0.52631293E-03 0.81011702E+02</pdfrwt>
<totfact> 0.29076113E+05</totfact>
</mgrwt>
</event>
<event>
 8    1  0.2603554E-016  0.8027925E+02  0.7818608E-02  0.1328261E+00
         -1   -1    0    0    0  501 -0.00000000000E+00  0.00000000000E+00  0.13100699301E+01  0.13100796248E+01  0.50400000000E-02 0.  1.
          2   -1    0    0  501    0  0.00000000000E+00 -0.00000000000E+00 -0.12298454349E+04  0.12298454349E+04  0.25500000000E-02 0. -1.
         24    2    1    2    0    0  0.00000000000E+00  0.00000000000E+00 -0.12285353650E+04  0.12311555146E+04  0.80279249933E+02 0.  0.
         66    2    3    3    0    0  0.18304273628E+02  0.34385032492E+01 -0.11595185560E+04  0.11596698459E+04  0.20000001746E+01 0.  0.
        -13    1    3    3    0    0 -0.18304273628E+02 -0.34385032492E+01 -0.69016809031E+02  0.71485668708E+02  0.10566000000E+00 0.  1.
         13    1    4    4    0    0  0.10771653306E+02  0.20512827260E+01 -0.72463707371E+03  0.72472003977E+03  0.10566000000E+00 0. -1.
        -13    1    4    4    0    0  0.18699707177E+01 -0.40144611334E-02 -0.11265531974E+03  0.11267088815E+03  0.10566000000E+00 0.  1.
         14    1    4    4    0    0  0.56626496043E+01  0.13912349844E+01 -0.32222616253E+03  0.32227891795E+03  0.00000000000E+00 0. -1.
<mgrwt>
<rscale>  0 0.80279250E+02</rscale>
<asrwt>0</asrwt>
<pdfrwt beam="1">  1        2 0.18920607E+00 0.80279250E+02</pdfrwt>
<pdfrwt beam="2">  1       -1 0.20155095E-03 0.80279250E+02</pdfrwt>
<totfact> 0.34618198E+05</totfact>
</mgrwt>
</event>
<event>
 8    1  0.2603554E-016  0.8130214E+02  0.7818608E-02  0.1325396E+00
          2   -1    0    0  501    0  0.00000000000E+00  0.00000000000E+00  0.55942453793E+03  0.55942453794E+03  0.25500000000E-02 0. -1.
         -1   -1    0    0    0  501 -0.00000000000E+00 -0.00000000000E+00 -0.29539428730E+01  0.29539471726E+01  0.50400000000E-02 0.  1.
         24    2    1    2    0    0  0.00000000000E+00  0.00000000000E+00  0.55647059506E+03  0.56237848511E+03  0.81302136195E+02 0.  0.
         66    2    3    3    0    0  0.22807138701E+02 -0.63644270012E+01  0.50675618117E+03  0.50731301845E+03  0.20000055293E+01 0.  0.
        -13    1    3    3    0    0 -0.22807138701E+02  0.63644270012E+01  0.49714413886E+02  0.55065466664E+02  0.10566000000E+00 0.  1.
         13    1    4    4    0    0  0.15494892223E+02 -0.52420445474E+01  0.34692610553E+03  0.34731153822E+03  0.10566000000E+00 0. -1.
        -13    1    4    4    0    0  0.34814168340E+01 -0.60243152241E+00  0.73918650244E+02  0.74003116183E+02  0.10566000000E+00 0. -1.
         14    1    4    4    0    0  0.38308296445E+01 -0.51995093142E+00  0.85911425396E+02  0.85998364044E+02  0.00000000000E+00 0. -1.
<mgrwt>
<rscale>  0 0.81302136E+02</rscale>
<asrwt>0</asrwt>
<pdfrwt beam="1">  1        2 0.86065231E-01 0.81302136E+02</pdfrwt>
<pdfrwt beam="2">  1       -1 0.45445352E-03 0.81302136E+02</pdfrwt>
<totfact> 0.30223799E+05</totfact>
</mgrwt>
</event>
<event>
 8    1  0.2603554E-016  0.7923239E+02  0.7818608E-02  0.1331244E+00
         -1   -1    0    0    0  501 -0.00000000000E+00  0.00000000000E+00  0.92523165593E+02  0.92523165731E+02  0.50400000000E-02 0.  1.
          2   -1    0    0  501    0  0.00000000000E+00 -0.00000000000E+00 -0.16962703980E+02  0.16962704172E+02  0.25500000000E-02 0. -1.
         24    2    1    2    0    0  0.00000000000E+00  0.00000000000E+00  0.75560461613E+02  0.10948586990E+03  0.79232394569E+02 0.  0.
         66    2    3    3    0    0  0.73190807349E+01  0.18490200980E+02 -0.95017066472E+01  0.22130045207E+02  0.19999991436E+01 0.  0.
        -13    1    3    3    0    0 -0.73190807349E+01 -0.18490200980E+02  0.85062168260E+02  0.87355824696E+02  0.10566000000E+00 0.  1.
         13    1    4    4    0    0  0.36826794145E+01  0.89646799309E+01 -0.36147247904E+01  0.10344322756E+02  0.10566000000E+00 0. -1.
        -13    1    4    4    0    0  0.34879932074E+01  0.88355039844E+01 -0.53868848933E+01  0.10920710607E+02  0.10566000000E+00 0.  1.
        -14    1    4    4    0    0  0.14840811307E+00  0.69001706459E+00 -0.50009696348E+00  0.86501184404E+00  0.00000000000E+00 0.  1.
<mgrwt>
<rscale>  0 0.79232395E+02</rscale>
<asrwt>0</asrwt>
<pdfrwt beam="1">  1        2 0.26096468E-02 0.79232395E+02</pdfrwt>
<pdfrwt beam="2">  1       -1 0.14234333E-01 0.79232395E+02</pdfrwt>
<totfact> 0.12341839E+05</totfact>
</mgrwt>
</event>
<event>
 8    1  0.2603554E-016  0.8027293E+02  0.7818608E-02  0.1328279E+00
         -1   -1    0    0    0  501 -0.00000000000E+00  0.00000000000E+00  0.25413795067E+01  0.25413845043E+01  0.50400000000E-02 0.  1.
          2   -1    0    0  501    0  0.00000000000E+00 -0.00000000000E+00 -0.63388183109E+03  0.63388183109E+03  0.25500000000E-02 0. -1.
         24    2    1    2    0    0  0.00000000000E+00  0.11102230246E-15 -0.63134045158E+03  0.63642321559E+03  0.80272931605E+02 0.  0.
         66    2    3    3    0    0 -0.26397882776E+02 -0.61179137165E+00 -0.55525500919E+03  0.55588609241E+03  0.19999994169E+01 0.  0.
        -13    1    3    3    0    0  0.26397882776E+02  0.61179137165E+00 -0.76085442384E+02  0.80537123183E+02  0.10566000000E+00 0.  1.
         13    1    4    4    0    0 -0.29059526466E+01  0.54548383356E-02 -0.66812699781E+02  0.66875949389E+02  0.10566000000E+00 0. -1.
        -13    1    4    4    0    0 -0.20700778801E+02 -0.31866533267E+00 -0.43955789469E+03  0.44004519965E+03  0.10566000000E+00 0.  1.
        -14    1    4    4    0    0 -0.27911513284E+01 -0.29858087731E+00 -0.48884414726E+02  0.48964943372E+02  0.00000000000E+00 0.  1.
<mgrwt>
<rscale>  0 0.80272932E+02</rscale>
<asrwt>0</asrwt>
<pdfrwt beam="1">  1        2 0.97520156E-01 0.80272932E+02</pdfrwt>
<pdfrwt beam="2">  1       -1 0.39098235E-03 0.80272932E+02</pdfrwt>
<totfact> 0.32356902E+05</totfact>
</mgrwt>
</event>
<event>
 8    1  0.2603554E-016  0.7981621E+02  0.7818608E-02  0.1329574E+00
          2   -1    0    0  501    0  0.00000000000E+00  0.00000000000E+00  0.15419057008E+02  0.15419057218E+02  0.25500000000E-02 0. -1.
         -1   -1    0    0    0  501 -0.00000000000E+00 -0.00000000000E+00 -0.10329144758E+03  0.10329144770E+03  0.50400000000E-02 0.  1.
         24    2    1    2    0    0 -0.88817841970E-15  0.00000000000E+00 -0.87872390571E+02  0.11871050492E+03  0.79816207337E+02 0.  0.
         66    2    3    3    0    0 -0.78933817515E+01 -0.17844323743E+02  0.77704718973E+01  0.21097525914E+02  0.20000002169E+01 0.  0.
        -13    1    3    3    0    0  0.78933817515E+01  0.17844323743E+02 -0.95642862468E+02  0.97612979006E+02  0.10566000000E+00 0.  1.
         13    1    4    4    0    0 -0.54110859345E+01 -0.12808819065E+02  0.54874888074E+01  0.14948892744E+02  0.10566000000E+00 0. -1.
        -13    1    4    4    0    0 -0.15542604001E+01 -0.20285184212E+01  0.11446162113E+01  0.28021282418E+01  0.10566000000E+00 0.  1.
        -14    1    4    4    0    0 -0.92803541680E+00 -0.30069862563E+01  0.11383668787E+01  0.33465049276E+01  0.00000000000E+00 0.  1.
<mgrwt>
<rscale>  0 0.79816207E+02</rscale>
<asrwt>0</asrwt>
<pdfrwt beam="1">  1        2 0.23721627E-02 0.79816207E+02</pdfrwt>
<pdfrwt beam="2">  1       -1 0.15890992E-01 0.79816207E+02</pdfrwt>
<totfact> 0.11838374E+05</totfact>
</mgrwt>
</event>
<event>
 8    1  0.2603554E-016  0.7966351E+02  0.7818608E-02  0.1330009E+00
         -1   -1    0    0    0  501 -0.00000000000E+00  0.00000000000E+00  0.21628681012E+01  0.21628739734E+01  0.50400000000E-02 0.  1.
          2   -1    0    0  501    0  0.00000000000E+00 -0.00000000000E+00 -0.73354758519E+03  0.73354758520E+03  0.25500000000E-02 0. -1.
         24    2    1    2    0    0  0.22204460493E-15 -0.71054273576E-14 -0.73138471709E+03  0.73571045917E+03  0.79663513217E+02 0.  0.
         66    2    3    3    0    0 -0.19849622553E+01  0.33554626695E+02 -0.56285367868E+03  0.56386001513E+03  0.20000002996E+01 0.  0.
        -13    1    3    3    0    0  0.19849622553E+01 -0.33554626695E+02 -0.16853103841E+03  0.17185044404E+03  0.10566000000E+00 0.  1.
         13    1    4    4    0    0 -0.14960923947E+01  0.24020895143E+02 -0.41548042988E+03  0.41617693410E+03  0.10566000000E+00 0. -1.
        -13    1    4    4    0    0 -0.25848481086E+00  0.83612893962E+01 -0.12942886285E+03  0.12969895788E+03  0.10566000000E+00 0.  1.
         14    1    4    4    0    0 -0.23038504976E+00  0.11724421556E+01 -0.17944385955E+02  0.17984123142E+02  0.00000000000E+00 0. -1.
<mgrwt>
<rscale>  0 0.79663513E+02</rscale>
<asrwt>0</asrwt>
<pdfrwt beam="1">  1        2 0.11285328E+00 0.79663513E+02</pdfrwt>
<pdfrwt beam="2">  1       -1 0.33274998E-03 0.79663513E+02</pdfrwt>
<totfact> 0.34170016E+05</totfact>
</mgrwt>
</event>
<event>
 8    1  0.2603554E-016  0.8304288E+02  0.7818608E-02  0.1320631E+00
          2   -1    0    0  501    0  0.00000000000E+00  0.00000000000E+00  0.61522148579E+03  0.61522148579E+03  0.25500000000E-02 0. -1.
         -1   -1    0    0    0  501 -0.00000000000E+00 -0.00000000000E+00 -0.28022889944E+01  0.28022935267E+01  0.50400000000E-02 0.  1.
         24    2    1    2    0    0  0.00000000000E+00  0.00000000000E+00  0.61241919679E+03  0.61802377932E+03  0.83042875694E+02 0.  0.
         66    2    3    3    0    0 -0.36351278567E+02 -0.76732217354E+01  0.44396345129E+03  0.44551974127E+03  0.19999993934E+01 0.  0.
        -13    1    3    3    0    0  0.36351278567E+02  0.76732217354E+01  0.16845574551E+03  0.17250403805E+03  0.10566000000E+00 0.  1.
         13    1    4    4    0    0 -0.17420738909E+02 -0.42551448203E+01  0.22260262691E+03  0.22332382111E+03  0.10566000000E+00 0. -1.
        -13    1    4    4    0    0 -0.29741187669E+01 -0.37205209756E+00  0.35786242585E+02  0.35911699035E+02  0.10566000000E+00 0.  1.
         14    1    4    4    0    0 -0.15956420891E+02 -0.30460248175E+01  0.18557458179E+03  0.18628422113E+03  0.00000000000E+00 0. -1.
<mgrwt>
<rscale>  0 0.83042876E+02</rscale>
<asrwt>0</asrwt>
<pdfrwt beam="1">  1        2 0.94649677E-01 0.83042876E+02</pdfrwt>
<pdfrwt beam="2">  1       -1 0.43112074E-03 0.83042876E+02</pdfrwt>
<totfact> 0.29383017E+05</totfact>
</mgrwt>
</event>
<event>
 8    1  0.2603554E-016  0.8071489E+02  0.7818608E-02  0.1327035E+00
         -1   -1    0    0    0  501 -0.00000000000E+00  0.00000000000E+00  0.81031916107E+01  0.81031931781E+01  0.50400000000E-02 0.  1.
          2   -1    0    0  501    0  0.00000000000E+00 -0.00000000000E+00 -0.20099772350E+03  0.20099772352E+03  0.25500000000E-02 0. -1.
         24    2    1    2    0    0  0.00000000000E+00 -0.44408920985E-15 -0.19289453189E+03  0.20910091669E+03  0.80714886667E+02 0.  0.
         66    2    3    3    0    0 -0.30749299490E+02 -0.38715363973E+01 -0.16337270831E+03  0.16629837653E+03  0.20000005676E+01 0.  0.
        -13    1    3    3    0    0  0.30749299490E+02  0.38715363973E+01 -0.29521823581E+02  0.42802540167E+02  0.10566000000E+00 0.  1.
         13    1    4    4    0    0 -0.13307918301E+02 -0.13865259303E+01 -0.70321387645E+02  0.71583041763E+02  0.10566000000E+00 0. -1.
        -13    1    4    4    0    0 -0.71232444632E+01 -0.10159385375E+01 -0.34297831673E+02  0.35044616766E+02  0.10566000000E+00 0.  1.
         14    1    4    4    0    0 -0.10318136726E+02 -0.14690719294E+01 -0.58753488991E+02  0.59670717999E+02  0.00000000000E+00 0. -1.
<mgrwt>
<rscale>  0 0.80714887E+02</rscale>
<asrwt>0</asrwt>
<pdfrwt beam="1">  1        2 0.30922723E-01 0.80714887E+02</pdfrwt>
<pdfrwt beam="2">  1       -1 0.12466451E-02 0.80714887E+02</pdfrwt>
<totfact> 0.21583868E+05</totfact>
</mgrwt>
</event>
<event>
 8    1  0.2603554E-016  0.8277120E+02  0.7818608E-02  0.1321366E+00
         -1   -1    0    0    0  501 -0.00000000000E+00  0.00000000000E+00  0.69767231178E+01  0.69767249383E+01  0.50400000000E-02 0.  1.
          2   -1    0    0  501    0  0.00000000000E+00 -0.00000000000E+00 -0.24549745521E+03  0.24549745522E+03  0.25500000000E-02 0. -1.
         24    2    1    2    0    0  0.35527136788E-14  0.00000000000E+00 -0.23852073209E+03  0.25247418016E+03  0.82771202784E+02 0.  0.
         66    2    3    3    0    0  0.16709600783E+02  0.85374180174E+01 -0.23176281675E+03  0.23252978625E+03  0.19999997472E+01 0.  0.
        -13    1    3    3    0    0 -0.16709600783E+02 -0.85374180174E+01 -0.67579153375E+01  0.19944393911E+02  0.10566000000E+00 0.  1.
         13    1    4    4    0    0  0.82240115892E+01  0.45521360771E+01 -0.12084912832E+03  0.12121418765E+03  0.10566000000E+00 0. -1.
        -13    1    4    4    0    0  0.15431863425E+01  0.12408420896E+01 -0.24348890428E+02  0.24429505568E+02  0.10566000000E+00 0.  1.
         14    1    4    4    0    0  0.69424028512E+01  0.27444398507E+01 -0.86564798004E+02  0.86886093024E+02  0.00000000000E+00 0. -1.
<mgrwt>
<rscale>  0 0.82771203E+02</rscale>
<asrwt>0</asrwt>
<pdfrwt beam="1">  1        2 0.37768833E-01 0.82771203E+02</pdfrwt>
<pdfrwt beam="2">  1       -1 0.10733424E-02 0.82771203E+02</pdfrwt>
<totfact> 0.21678981E+05</totfact>
</mgrwt>
</event>
<event>
 8    1  0.2603554E-016  0.8797934E+02  0.7818608E-02  0.1307820E+00
          2   -1    0    0  501    0  0.00000000000E+00  0.00000000000E+00  0.96871061082E+02  0.96871061115E+02  0.25500000000E-02 0. -1.
         -1   -1    0    0    0  501 -0.00000000000E+00 -0.00000000000E+00 -0.19975944915E+02  0.19975945551E+02  0.50400000000E-02 0.  1.
         24    2    1    2    0    0  0.00000000000E+00 -0.35527136788E-14  0.76895116167E+02  0.11684700667E+03  0.87979338919E+02 0.  0.
         66    2    3    3    0    0 -0.43103763188E+01  0.31858576427E+02  0.78300698638E+02  0.84667276057E+02  0.19999979356E+01 0.  0.
        -13    1    3    3    0    0  0.43103763188E+01 -0.31858576427E+02 -0.14055824709E+01  0.32179730610E+02  0.10566000000E+00 0.  1.
         13    1    4    4    0    0 -0.33572387792E+01  0.24719129143E+02  0.60493065404E+02  0.65434918230E+02  0.10566000000E+00 0. -1.
        -13    1    4    4    0    0 -0.58570985787E+00  0.15146577956E+01  0.40561295343E+01  0.43704227610E+01  0.10566000000E+00 0.  1.
         14    1    4    4    0    0 -0.36742768173E+00  0.56247894888E+01  0.13751503699E+02  0.14861935066E+02  0.00000000000E+00 0. -1.
<mgrwt>
<rscale>  0 0.87979339E+02</rscale>
<asrwt>0</asrwt>
<pdfrwt beam="1">  1        2 0.14903240E-01 0.87979339E+02</pdfrwt>
<pdfrwt beam="2">  1       -1 0.30732223E-02 0.87979339E+02</pdfrwt>
<totfact> 0.13596312E+05</totfact>
</mgrwt>
</event>
<event>
 8    1  0.2603554E-016  0.7918422E+02  0.7818608E-02  0.1331383E+00
          2   -1    0    0  501    0  0.00000000000E+00  0.00000000000E+00  0.70791181571E+03  0.70791181571E+03  0.25500000000E-02 0. -1.
         -1   -1    0    0    0  501 -0.00000000000E+00 -0.00000000000E+00 -0.22143057617E+01  0.22143114975E+01  0.50400000000E-02 0.  1.
         24    2    1    2    0    0  0.00000000000E+00  0.00000000000E+00  0.70569750995E+03  0.71012612721E+03  0.79184221926E+02 0.  0.
         66    2    3    3    0    0 -0.57550563333E+01  0.18237726168E+02  0.66370820306E+03  0.66398668220E+03  0.19999995635E+01 0.  0.
        -13    1    3    3    0    0  0.57550563333E+01 -0.18237726168E+02  0.41989306885E+02  0.46139445011E+02  0.10566000000E+00 0.  1.
         13    1    4    4    0    0 -0.23712574534E+01  0.89144023040E+01  0.31949072108E+03  0.31962387497E+03  0.10566000000E+00 0. -1.
        -13    1    4    4    0    0  0.41429994452E-01  0.79816938250E+00  0.23911371521E+02  0.23924958576E+02  0.10566000000E+00 0.  1.
        -14    1    4    4    0    0 -0.34252288744E+01  0.85251544812E+01  0.32030611046E+03  0.32043784865E+03  0.00000000000E+00 0.  1.
<mgrwt>
<rscale>  0 0.79184222E+02</rscale>
<asrwt>0</asrwt>
<pdfrwt beam="1">  1        2 0.10890948E+00 0.79184222E+02</pdfrwt>
<pdfrwt beam="2">  1       -1 0.34066296E-03 0.79184222E+02</pdfrwt>
<totfact> 0.34442096E+05</totfact>
</mgrwt>
</event>
<event>
 8    1  0.2603554E-016  0.8200151E+02  0.7818608E-02  0.1323466E+00
         -1   -1    0    0    0  501 -0.00000000000E+00  0.00000000000E+00  0.26872874394E+02  0.26872874866E+02  0.50400000000E-02 0.  1.
          2   -1    0    0  501    0  0.00000000000E+00 -0.00000000000E+00 -0.62556087763E+02  0.62556087815E+02  0.25500000000E-02 0. -1.
         24    2    1    2    0    0  0.00000000000E+00  0.35527136788E-14 -0.35683213370E+02  0.89428962682E+02  0.82001510047E+02 0.  0.
         66    2    3    3    0    0  0.20584279688E+02 -0.26254863221E+02 -0.43798448302E+02  0.55093869627E+02  0.19999959343E+01 0.  0.
        -13    1    3    3    0    0 -0.20584279688E+02  0.26254863221E+02  0.81152349323E+01  0.34335093055E+02  0.10566000000E+00 0.  1.
         13    1    4    4    0    0  0.20356284987E+01 -0.30233503320E+01 -0.41831116973E+01  0.55492358143E+01  0.10566000000E+00 0. -1.
        -13    1    4    4    0    0  0.62638664828E+01 -0.79453524484E+01 -0.12530372235E+02  0.16105466191E+02  0.10566000000E+00 0.  1.
         14    1    4    4    0    0  0.12284784707E+02 -0.15286160441E+02 -0.27084964370E+02  0.33439167622E+02  0.00000000000E+00 0. -1.
<mgrwt>
<rscale>  0 0.82001510E+02</rscale>
<asrwt>0</asrwt>
<pdfrwt beam="1">  1        2 0.96240135E-02 0.82001510E+02</pdfrwt>
<pdfrwt beam="2">  1       -1 0.41342884E-02 0.82001510E+02</pdfrwt>
<totfact> 0.14695787E+05</totfact>
</mgrwt>
</event>
<event>
 8    1  0.2603554E-016  0.8136803E+02  0.7818608E-02  0.1325213E+00
         -1   -1    0    0    0  501 -0.00000000000E+00  0.00000000000E+00  0.48396873480E+02  0.48396873742E+02  0.50400000000E-02 0.  1.
          2   -1    0    0  501    0  0.00000000000E+00 -0.00000000000E+00 -0.34200329001E+02  0.34200329096E+02  0.25500000000E-02 0. -1.
         24    2    1    2    0    0  0.00000000000E+00  0.00000000000E+00  0.14196544479E+02  0.82597202839E+02  0.81368028375E+02 0.  0.
         66    2    3    3    0    0 -0.30274447316E+02  0.56754289511E+01 -0.19839517051E+02  0.36692766206E+02  0.20000002474E+01 0.  0.
        -13    1    3    3    0    0  0.30274447316E+02 -0.56754289511E+01  0.34036061530E+02  0.45904436632E+02  0.10566000000E+00 0.  1.
         13    1    4    4    0    0 -0.21929060438E+02  0.47415820306E+01 -0.13872399764E+02  0.26378417903E+02  0.10566000000E+00 0. -1.
        -13    1    4    4    0    0 -0.35215553512E+01  0.20793838990E+00 -0.23193656438E+01  0.42231755221E+01  0.10566000000E+00 0.  1.
         14    1    4    4    0    0 -0.48238315270E+01  0.72590853054E+00 -0.36477516431E+01  0.60911727808E+01  0.00000000000E+00 0. -1.
<mgrwt>
<rscale>  0 0.81368028E+02</rscale>
<asrwt>0</asrwt>
<pdfrwt beam="1">  1        2 0.52615891E-02 0.81368028E+02</pdfrwt>
<pdfrwt beam="2">  1       -1 0.74456729E-02 0.81368028E+02</pdfrwt>
<totfact> 0.13172168E+05</totfact>
</mgrwt>
</event>
<event>
 8    1  0.2603554E-016  0.7869462E+02  0.7818608E-02  0.1332797E+00
          2   -1    0    0  501    0  0.00000000000E+00  0.00000000000E+00  0.60366756680E+02  0.60366756734E+02  0.25500000000E-02 0. -1.
         -1   -1    0    0    0  501 -0.00000000000E+00 -0.00000000000E+00 -0.25646742633E+02  0.25646743129E+02  0.50400000000E-02 0.  1.
         24    2    1    2    0    0  0.00000000000E+00  0.00000000000E+00  0.34720014046E+02  0.86013499862E+02  0.78694617244E+02 0.  0.
         66    2    3    3    0    0  0.12576547397E+02 -0.29379605577E+02  0.42412065440E+02  0.53142394207E+02  0.19999997248E+01 0.  0.
        -13    1    3    3    0    0 -0.12576547397E+02  0.29379605577E+02 -0.76920513941E+01  0.32871105655E+02  0.10566000000E+00 0.  1.
         13    1    4    4    0    0  0.28820922752E+01 -0.88061642968E+01  0.12033874373E+02  0.15188162561E+02  0.10566000000E+00 0. -1.
        -13    1    4    4    0    0  0.44398358686E+01 -0.87520915240E+01  0.13341251633E+02  0.16562349101E+02  0.10566000000E+00 0.  1.
         14    1    4    4    0    0  0.52546192534E+01 -0.11821349756E+02  0.17036939434E+02  0.21391882545E+02  0.00000000000E+00 0. -1.
<mgrwt>
<rscale>  0 0.78694617E+02</rscale>
<asrwt>0</asrwt>
<pdfrwt beam="1">  1        2 0.92871933E-02 0.78694617E+02</pdfrwt>
<pdfrwt beam="2">  1       -1 0.39456528E-02 0.78694617E+02</pdfrwt>
<totfact> 0.16300758E+05</totfact>
</mgrwt>
</event>
<event>
 8    1  0.2603554E-016  0.7892333E+02  0.7818608E-02  0.1332135E+00
         -1   -1    0    0    0  501 -0.00000000000E+00  0.00000000000E+00  0.70013029110E+01  0.70013047251E+01  0.50400000000E-02 0.  1.
          2   -1    0    0  501    0  0.00000000000E+00 -0.00000000000E+00 -0.22241900716E+03  0.22241900717E+03  0.25500000000E-02 0. -1.
         24    2    1    2    0    0  0.00000000000E+00  0.00000000000E+00 -0.21541770425E+03  0.22942031190E+03  0.78923331203E+02 0.  0.
         66    2    3    3    0    0  0.24099564835E+02  0.26446178573E+01 -0.19819217827E+03  0.19967954967E+03  0.19999998253E+01 0.  0.
        -13    1    3    3    0    0 -0.24099564835E+02 -0.26446178573E+01 -0.17225525980E+02  0.29740762232E+02  0.10566000000E+00 0.  1.
         13    1    4    4    0    0  0.43768811423E+01  0.69150861728E+00 -0.39719454196E+02  0.39966004033E+02  0.10566000000E+00 0. -1.
        -13    1    4    4    0    0  0.19526836805E+01  0.51796289533E+00 -0.18389696133E+02  0.18500630990E+02  0.10566000000E+00 0.  1.
        -14    1    4    4    0    0  0.17770000012E+02  0.14351463447E+01 -0.14008302794E+03  0.14121291464E+03  0.00000000000E+00 0.  1.
<mgrwt>
<rscale>  0 0.78923331E+02</rscale>
<asrwt>0</asrwt>
<pdfrwt beam="1">  1        2 0.34218303E-01 0.78923331E+02</pdfrwt>
<pdfrwt beam="2">  1       -1 0.10771238E-02 0.78923331E+02</pdfrwt>
<totfact> 0.23726752E+05</totfact>
</mgrwt>
</event>
<event>
 8    1  0.2603554E-016  0.7899688E+02  0.7818608E-02  0.1331922E+00
          2   -1    0    0  501    0  0.00000000000E+00  0.00000000000E+00  0.41964458846E+02  0.41964458923E+02  0.25500000000E-02 0. -1.
         -1   -1    0    0    0  501 -0.00000000000E+00 -0.00000000000E+00 -0.37177338151E+02  0.37177338493E+02  0.50400000000E-02 0.  1.
         24    2    1    2    0    0 -0.35527136788E-14 -0.17763568394E-14  0.47871206946E+01  0.79141797416E+02  0.78996883317E+02 0.  0.
         66    2    3    3    0    0 -0.28620811876E+02 -0.70058876158E+01  0.28709003680E+02  0.41187865033E+02  0.19999999980E+01 0.  0.
        -13    1    3    3    0    0  0.28620811876E+02  0.70058876158E+01 -0.23921882985E+02  0.37953932383E+02  0.10566000000E+00 0.  1.
         13    1    4    4    0    0 -0.96887321873E+01 -0.22461653829E+01  0.96823187503E+01  0.13880751087E+02  0.10566000000E+00 0. -1.
        -13    1    4    4    0    0 -0.65410163448E+00  0.67582894127E-01  0.86764194291E+00  0.10937929294E+01  0.10566000000E+00 0.  1.
        -14    1    4    4    0    0 -0.18277978055E+02 -0.48273051270E+01  0.18159042987E+02  0.26213321017E+02  0.00000000000E+00 0.  1.
<mgrwt>
<rscale>  0 0.78996883E+02</rscale>
<asrwt>0</asrwt>
<pdfrwt beam="1">  1        2 0.64560706E-02 0.78996883E+02</pdfrwt>
<pdfrwt beam="2">  1       -1 0.57195905E-02 0.78996883E+02</pdfrwt>
<totfact> 0.14906586E+05</totfact>
</mgrwt>
</event>
<event>
 8    1  0.2603554E-016  0.8088069E+02  0.7818608E-02  0.1326571E+00
         -1   -1    0    0    0  501 -0.00000000000E+00  0.00000000000E+00  0.12817728616E+02  0.12817729607E+02  0.50400000000E-02 0.  1.
          2   -1    0    0  501    0  0.00000000000E+00 -0.00000000000E+00 -0.12759056985E+03  0.12759056987E+03  0.25500000000E-02 0. -1.
         24    2    1    2    0    0  0.17763568394E-14  0.00000000000E+00 -0.11477284123E+03  0.14040829948E+03  0.80880686683E+02 0.  0.
         66    2    3    3    0    0  0.93890369108E+01  0.37031267910E+02 -0.34525542183E+02  0.51531367795E+02  0.19999966567E+01 0.  0.
        -13    1    3    3    0    0 -0.93890369108E+01 -0.37031267910E+02 -0.80247299048E+02  0.88876931684E+02  0.10566000000E+00 0.  1.
         13    1    4    4    0    0  0.25072288135E+01  0.78247485922E+01 -0.76276569329E+01  0.11211833087E+02  0.10566000000E+00 0. -1.
        -13    1    4    4    0    0  0.31598854606E+01  0.14194975672E+02 -0.13894001680E+02  0.20113096658E+02  0.10566000000E+00 0.  1.
        -14    1    4    4    0    0  0.37219226366E+01  0.15011543646E+02 -0.13003883570E+02  0.20206438050E+02  0.00000000000E+00 0.  1.
<mgrwt>
<rscale>  0 0.80880687E+02</rscale>
<asrwt>0</asrwt>
<pdfrwt beam="1">  1        2 0.19629318E-01 0.80880687E+02</pdfrwt>
<pdfrwt beam="2">  1       -1 0.19719584E-02 0.80880687E+02</pdfrwt>
<totfact> 0.18489551E+05</totfact>
</mgrwt>
</event>
<event>
 8    1  0.2603554E-016  0.7813659E+02  0.7818608E-02  0.1334424E+00
         -1   -1    0    0    0  501 -0.00000000000E+00  0.00000000000E+00  0.14895379875E+01  0.14895465141E+01  0.50400000000E-02 0.  1.
          2   -1    0    0  501    0  0.00000000000E+00 -0.00000000000E+00 -0.10246984594E+04  0.10246984594E+04  0.25500000000E-02 0. -1.
         24    2    1    2    0    0 -0.44408920985E-15  0.00000000000E+00 -0.10232089214E+04  0.10261880059E+04  0.78136589572E+02 0.  0.
         66    2    3    3    0    0 -0.38470028386E+01 -0.20481973870E+02 -0.94553836552E+03  0.94577011548E+03  0.19999980148E+01 0.  0.
        -13    1    3    3    0    0  0.38470028386E+01  0.20481973870E+02 -0.77670555847E+02  0.80417890386E+02  0.10566000000E+00 0.  1.
         13    1    4    4    0    0 -0.30336785621E+01 -0.15183261888E+02 -0.67028975675E+03  0.67046857034E+03  0.10566000000E+00 0. -1.
        -13    1    4    4    0    0  0.70585201803E-01 -0.42791724925E+00 -0.24801990137E+02  0.24806006818E+02  0.10566000000E+00 0. -1.
         14    1    4    4    0    0 -0.88390947836E+00 -0.48707947325E+01 -0.25044661863E+03  0.25049553833E+03  0.00000000000E+00 0. -1.
<mgrwt>
<rscale>  0 0.78136590E+02</rscale>
<asrwt>0</asrwt>
<pdfrwt beam="1">  1        2 0.15764535E+00 0.78136590E+02</pdfrwt>
<pdfrwt beam="2">  1       -1 0.22916117E-03 0.78136590E+02</pdfrwt>
<totfact> 0.37481653E+05</totfact>
</mgrwt>
</event>
<event>
 8    1  0.2603554E-016  0.7062474E+02  0.7818608E-02  0.1357981E+00
         -1   -1    0    0    0  501 -0.00000000000E+00  0.00000000000E+00  0.14303238534E+02  0.14303239422E+02  0.50400000000E-02 0.  1.
          2   -1    0    0  501    0  0.00000000000E+00 -0.00000000000E+00 -0.87180497968E+02  0.87180498005E+02  0.25500000000E-02 0. -1.
         24    2    1    2    0    0 -0.22204460493E-15 -0.35527136788E-14 -0.72877259434E+02  0.10148373743E+03  0.70624740846E+02 0.  0.
         66    2    3    3    0    0  0.10645676614E+01  0.16479141655E+02 -0.81273291148E+02  0.82958081526E+02  0.20000056213E+01 0.  0.
        -13    1    3    3    0    0 -0.10645676614E+01 -0.16479141655E+02  0.83960317136E+01  0.18525655901E+02  0.10566000000E+00 0.  1.
         13    1    4    4    0    0 -0.10895078578E-01  0.13763314967E+01 -0.71350521384E+01  0.72673612917E+01  0.10566000000E+00 0. -1.
        -13    1    4    4    0    0  0.11829590377E+01  0.82493611793E+01 -0.37238823472E+02  0.38160090272E+02  0.10566000000E+00 0.  1.
        -14    1    4    4    0    0 -0.10749629766E+00  0.68534489790E+01 -0.36899415537E+02  0.37530629962E+02  0.00000000000E+00 0.  1.
<mgrwt>
<rscale>  0 0.70624741E+02</rscale>
<asrwt>0</asrwt>
<pdfrwt beam="1">  1        2 0.13412384E-01 0.70624741E+02</pdfrwt>
<pdfrwt beam="2">  1       -1 0.22004984E-02 0.70624741E+02</pdfrwt>
<totfact> 0.23804200E+05</totfact>
</mgrwt>
</event>
<event>
 8    1  0.2603554E-016  0.7988551E+02  0.7818608E-02  0.1329377E+00
         -1   -1    0    0    0  501 -0.00000000000E+00  0.00000000000E+00  0.30475202269E+01  0.30475243945E+01  0.50400000000E-02 0.  1.
          2   -1    0    0  501    0  0.00000000000E+00 -0.00000000000E+00 -0.52351500659E+03  0.52351500659E+03  0.25500000000E-02 0. -1.
         24    2    1    2    0    0 -0.10658141036E-13  0.00000000000E+00 -0.52046748636E+03  0.52656253099E+03  0.79885509839E+02 0.  0.
         66    2    3    3    0    0  0.31141133836E+02  0.90856908524E+00 -0.42489577876E+03  0.42604109958E+03  0.20000024812E+01 0.  0.
        -13    1    3    3    0    0 -0.31141133836E+02 -0.90856908524E+00 -0.95571707601E+02  0.10052143141E+03  0.10566000000E+00 0.  1.
         13    1    4    4    0    0  0.20082767897E+02 -0.20335702116E-01 -0.28151272039E+03  0.28222817167E+03  0.10566000000E+00 0. -1.
        -13    1    4    4    0    0  0.95930890761E+01  0.62713651730E+00 -0.12470461266E+03  0.12507466666E+03  0.10566000000E+00 0.  1.
        -14    1    4    4    0    0  0.14652768634E+01  0.30176827005E+00 -0.18678445714E+02  0.18738261249E+02  0.00000000000E+00 0.  1.
<mgrwt>
<rscale>  0 0.79885510E+02</rscale>
<asrwt>0</asrwt>
<pdfrwt beam="1">  1        2 0.80540699E-01 0.79885510E+02</pdfrwt>
<pdfrwt beam="2">  1       -1 0.46885000E-03 0.79885510E+02</pdfrwt>
<totfact> 0.31009867E+05</totfact>
</mgrwt>
</event>
<event>
 8    1  0.2603554E-016  0.7803580E+02  0.7818608E-02  0.1334720E+00
         -1   -1    0    0    0  501 -0.00000000000E+00  0.00000000000E+00  0.20479824110E+01  0.20479886126E+01  0.50400000000E-02 0.  1.
          2   -1    0    0  501    0  0.00000000000E+00 -0.00000000000E+00 -0.74336290091E+03  0.74336290091E+03  0.25500000000E-02 0. -1.
         24    2    1    2    0    0  0.00000000000E+00 -0.88817841970E-15 -0.74131491850E+03  0.74541088952E+03  0.78035798427E+02 0.  0.
         66    2    3    3    0    0 -0.17031679777E+02 -0.78831012845E+01 -0.69737898748E+03  0.69763434088E+03  0.19999992577E+01 0.  0.
        -13    1    3    3    0    0  0.17031679777E+02  0.78831012845E+01 -0.43935931017E+02  0.47776548643E+02  0.10566000000E+00 0.  1.
         13    1    4    4    0    0 -0.85084702117E+01 -0.38112094848E+01 -0.34810954326E+03  0.34823438178E+03  0.10566000000E+00 0. -1.
        -13    1    4    4    0    0 -0.34598207609E+01 -0.14577037364E+01 -0.16351868371E+03  0.16356181201E+03  0.10566000000E+00 0.  1.
         14    1    4    4    0    0 -0.50633888042E+01 -0.26141880633E+01 -0.18575076051E+03  0.18583814709E+03  0.00000000000E+00 0. -1.
<mgrwt>
<rscale>  0 0.78035798E+02</rscale>
<asrwt>0</asrwt>
<pdfrwt beam="1">  1        2 0.11436331E+00 0.78035798E+02</pdfrwt>
<pdfrwt beam="2">  1       -1 0.31507529E-03 0.78035798E+02</pdfrwt>
<totfact> 0.36150138E+05</totfact>
</mgrwt>
</event>
<event>
 8    1  0.2603554E-016  0.8066870E+02  0.7818608E-02  0.1327164E+00
         -1   -1    0    0    0  501 -0.00000000000E+00  0.00000000000E+00  0.62594246845E+02  0.62594247048E+02  0.50400000000E-02 0.  1.
          2   -1    0    0  501    0  0.00000000000E+00 -0.00000000000E+00 -0.25990561448E+02  0.25990561573E+02  0.25500000000E-02 0. -1.
         24    2    1    2    0    0 -0.35527136788E-14 -0.17763568394E-14  0.36603685397E+02  0.88584808621E+02  0.80668696120E+02 0.  0.
         66    2    3    3    0    0  0.19038326640E+02  0.76713698468E+01 -0.19783495310E+02  0.28577866450E+02  0.19999918942E+01 0.  0.
        -13    1    3    3    0    0 -0.19038326640E+02 -0.76713698468E+01  0.56387180707E+02  0.60006942171E+02  0.10566000000E+00 0.  1.
         13    1    4    4    0    0  0.39497880709E+01  0.11368144560E+01 -0.39329170911E+01  0.56896549801E+01  0.10566000000E+00 0.  1.
        -13    1    4    4    0    0  0.99452884088E+01  0.45642346063E+01 -0.11449769214E+02  0.15838225221E+02  0.10566000000E+00 0. -1.
        -14    1    4    4    0    0  0.51432501602E+01  0.19703207844E+01 -0.44008090049E+01  0.70499862483E+01  0.00000000000E+00 0.  1.
<mgrwt>
<rscale>  0 0.80668696E+02</rscale>
<asrwt>0</asrwt>
<pdfrwt beam="1">  1        2 0.39985480E-02 0.80668696E+02</pdfrwt>
<pdfrwt beam="2">  1       -1 0.96298841E-02 0.80668696E+02</pdfrwt>
<totfact> 0.12775979E+05</totfact>
</mgrwt>
</event>
<event>
 8    1  0.2603554E-016  0.7982080E+02  0.7818608E-02  0.1329561E+00
         -1   -1    0    0    0  501 -0.00000000000E+00  0.00000000000E+00  0.28317414285E+02  0.28317414733E+02  0.50400000000E-02 0.  1.
          2   -1    0    0  501    0  0.00000000000E+00 -0.00000000000E+00 -0.56249484404E+02  0.56249484462E+02  0.25500000000E-02 0. -1.
         24    2    1    2    0    0  0.22204460493E-15 -0.71054273576E-14 -0.27932070119E+02  0.84566899195E+02  0.79820798657E+02 0.  0.
         66    2    3    3    0    0  0.11120665403E+01 -0.33176316531E+02 -0.37401301521E+02  0.50047597667E+02  0.20000015602E+01 0.  0.
        -13    1    3    3    0    0 -0.11120665403E+01  0.33176316531E+02  0.94692314015E+01  0.34519301528E+02  0.10566000000E+00 0.  1.
         13    1    4    4    0    0  0.29245087304E+00 -0.20264401472E+02 -0.22654792319E+02  0.30397076728E+02  0.10566000000E+00 0. -1.
        -13    1    4    4    0    0 -0.12041294087E+00 -0.32283031652E+00 -0.33997541182E+00  0.49544526018E+00  0.10566000000E+00 0.  1.
         14    1    4    4    0    0  0.94002860817E+00 -0.12589084743E+02 -0.14406533790E+02  0.19155075679E+02  0.00000000000E+00 0. -1.
<mgrwt>
<rscale>  0 0.79820799E+02</rscale>
<asrwt>0</asrwt>
<pdfrwt beam="1">  1        2 0.86537669E-02 0.79820799E+02</pdfrwt>
<pdfrwt beam="2">  1       -1 0.43565253E-02 0.79820799E+02</pdfrwt>
<totfact> 0.15432430E+05</totfact>
</mgrwt>
</event>
<event>
 8    1  0.2603554E-016  0.7914895E+02  0.7818608E-02  0.1331484E+00
          2   -1    0    0  501    0  0.00000000000E+00  0.00000000000E+00  0.16292360491E+03  0.16292360493E+03  0.25500000000E-02 0. -1.
         -1   -1    0    0    0  501 -0.00000000000E+00 -0.00000000000E+00 -0.96127207010E+01  0.96127220223E+01  0.50400000000E-02 0.  1.
         24    2    1    2    0    0  0.00000000000E+00  0.17763568394E-14  0.15331088421E+03  0.17253632695E+03  0.79148953885E+02 0.  0.
         66    2    3    3    0    0  0.32021274921E+02  0.11972901190E+02  0.12005191620E+03  0.12484059834E+03  0.20000001586E+01 0.  0.
        -13    1    3    3    0    0 -0.32021274921E+02 -0.11972901190E+02  0.33258968003E+02  0.47695728605E+02  0.10566000000E+00 0.  1.
         13    1    4    4    0    0  0.47527639712E+01  0.18208458194E+01  0.16038442111E+02  0.16826973413E+02  0.10566000000E+00 0. -1.
        -13    1    4    4    0    0  0.20277112731E+02  0.71170105252E+01  0.75458097570E+02  0.78458580107E+02  0.10566000000E+00 0.  1.
        -14    1    4    4    0    0  0.69913982187E+01  0.30350448456E+01  0.28555376521E+02  0.29555044824E+02  0.00000000000E+00 0.  1.
<mgrwt>
<rscale>  0 0.79148954E+02</rscale>
<asrwt>0</asrwt>
<pdfrwt beam="1">  1        2 0.25065170E-01 0.79148954E+02</pdfrwt>
<pdfrwt beam="2">  1       -1 0.14788802E-02 0.79148954E+02</pdfrwt>
<totfact> 0.21168073E+05</totfact>
</mgrwt>
</event>
<event>
 8    1  0.2603554E-016  0.7911209E+02  0.7818608E-02  0.1331590E+00
         -1   -1    0    0    0  501 -0.00000000000E+00  0.00000000000E+00  0.24876120212E+02  0.24876120723E+02  0.50400000000E-02 0.  1.
          2   -1    0    0  501    0  0.00000000000E+00 -0.00000000000E+00 -0.62898910449E+02  0.62898910500E+02  0.25500000000E-02 0. -1.
         24    2    1    2    0    0  0.00000000000E+00 -0.35527136788E-14 -0.38022790236E+02  0.87775031223E+02  0.79112094706E+02 0.  0.
         66    2    3    3    0    0 -0.11294432752E+02  0.29076510583E+02 -0.45965645019E+02  0.55586403029E+02  0.20000001885E+01 0.  0.
        -13    1    3    3    0    0  0.11294432752E+02 -0.29076510583E+02  0.79428547829E+01  0.32188628194E+02  0.10566000000E+00 0.  1.
         13    1    4    4    0    0 -0.73684110750E+01  0.18327505638E+02 -0.29462713520E+02  0.35471870498E+02  0.10566000000E+00 0. -1.
        -13    1    4    4    0    0 -0.72436953336E+00  0.32818626221E+01 -0.44064704103E+01  0.55428764197E+01  0.10566000000E+00 0. -1.
        -14    1    4    4    0    0 -0.32016521433E+01  0.74671423235E+01 -0.12096461089E+02  0.14571656111E+02  0.00000000000E+00 0.  1.
<mgrwt>
<rscale>  0 0.79112095E+02</rscale>
<asrwt>0</asrwt>
<pdfrwt beam="1">  1        2 0.96767554E-02 0.79112095E+02</pdfrwt>
<pdfrwt beam="2">  1       -1 0.38270955E-02 0.79112095E+02</pdfrwt>
<totfact> 0.16222245E+05</totfact>
</mgrwt>
</event>
<event>
 8    1  0.2603554E-016  0.7943711E+02  0.7818608E-02  0.1330656E+00
         -1   -1    0    0    0  501 -0.00000000000E+00  0.00000000000E+00  0.15525972612E+02  0.15525973430E+02  0.50400000000E-02 0.  1.
          2   -1    0    0  501    0  0.00000000000E+00 -0.00000000000E+00 -0.10160804369E+03  0.10160804373E+03  0.25500000000E-02 0. -1.
         24    2    1    2    0    0  0.00000000000E+00  0.00000000000E+00 -0.86082071081E+02  0.11713401716E+03  0.79437113577E+02 0.  0.
         66    2    3    3    0    0  0.80029887987E+01 -0.13218508630E+02 -0.96980793064E+02  0.98224492968E+02  0.19999988213E+01 0.  0.
        -13    1    3    3    0    0 -0.80029887987E+01  0.13218508630E+02  0.10898721983E+02  0.18909524188E+02  0.10566000000E+00 0.  1.
         13    1    4    4    0    0  0.36527639324E+01 -0.45478658247E+01 -0.36228252804E+02  0.36695002837E+02  0.10566000000E+00 0.  1.
        -13    1    4    4    0    0  0.34309254483E+01 -0.58993429182E+01 -0.43124539076E+02  0.43661316183E+02  0.10566000000E+00 0. -1.
        -14    1    4    4    0    0  0.91929941801E+00 -0.27712998873E+01 -0.17628001185E+02  0.17868173948E+02  0.00000000000E+00 0.  1.
<mgrwt>
<rscale>  0 0.79437114E+02</rscale>
<asrwt>0</asrwt>
<pdfrwt beam="1">  1        2 0.15632006E-01 0.79437114E+02</pdfrwt>
<pdfrwt beam="2">  1       -1 0.23886113E-02 0.79437114E+02</pdfrwt>
<totfact> 0.18145129E+05</totfact>
</mgrwt>
</event>
<event>
 8    1  0.2811164E-016  0.8104736E+02  0.7818608E-02  0.1326105E+00
         -1   -1    0    0    0  501 -0.00000000000E+00  0.00000000000E+00  0.10140609620E+02  0.10140610872E+02  0.50400000000E-02 0.  1.
          2   -1    0    0  501    0  0.00000000000E+00 -0.00000000000E+00 -0.16193984148E+03  0.16193984150E+03  0.25500000000E-02 0. -1.
         24    2    1    2    0    0  0.00000000000E+00  0.00000000000E+00 -0.15179923186E+03  0.17208045237E+03  0.81047364518E+02 0.  0.
         66    2    3    3    0    0  0.17859234962E+02 -0.10610816803E+02 -0.14975956572E+03  0.15120671029E+03  0.20000012124E+01 0.  0.
        -13    1    3    3    0    0 -0.17859234962E+02  0.10610816803E+02 -0.20396661411E+01  0.20873742085E+02  0.10566000000E+00 0.  1.
         13    1    4    4    0    0  0.89059242083E+01 -0.54394691798E+01 -0.73537711854E+02  0.74274555129E+02  0.10566000000E+00 0. -1.
        -13    1    4    4    0    0  0.85778153424E+01 -0.50627634563E+01 -0.70949154099E+02  0.71644986714E+02  0.10566000000E+00 0.  1.
        -14    1    4    4    0    0  0.37549541077E+00 -0.10858416715E+00 -0.52726997649E+01  0.52871684422E+01  0.00000000000E+00 0.  1.
<mgrwt>
<rscale>  0 0.81047365E+02</rscale>
<asrwt>0</asrwt>
<pdfrwt beam="1">  1        2 0.24913820E-01 0.81047365E+02</pdfrwt>
<pdfrwt beam="2">  1       -1 0.15600940E-02 0.81047365E+02</pdfrwt>
<totfact> 0.19839955E+05</totfact>
</mgrwt>
</event>
<event>
 8    1  0.2603554E-016  0.7750576E+02  0.7818608E-02  0.1336283E+00
          2   -1    0    0  501    0  0.00000000000E+00  0.00000000000E+00  0.10562650818E+03  0.10562650822E+03  0.25500000000E-02 0. -1.
         -1   -1    0    0    0  501 -0.00000000000E+00 -0.00000000000E+00 -0.14217884988E+02  0.14217885881E+02  0.50400000000E-02 0.  1.
         24    2    1    2    0    0 -0.17763568394E-14 -0.71054273576E-14  0.91408623197E+02  0.11984439410E+03  0.77505757215E+02 0.  0.
         66    2    3    3    0    0  0.13268473193E+02  0.36323173617E+02  0.42507684495E+02  0.57500683167E+02  0.20000002549E+01 0.  0.
        -13    1    3    3    0    0 -0.13268473193E+02 -0.36323173617E+02  0.48900938702E+02  0.62343710929E+02  0.10566000000E+00 0.  1.
         13    1    4    4    0    0  0.23543353319E+01  0.86556098795E+01  0.97774178247E+01  0.13269195175E+02  0.10566000000E+00 0. -1.
        -13    1    4    4    0    0  0.40618068912E+00  0.11620351612E+01  0.12260161929E+01  0.17405712307E+01  0.10566000000E+00 0. -1.
        -14    1    4    4    0    0  0.10507957172E+02  0.26505528576E+02  0.31504250478E+02  0.42490916761E+02  0.00000000000E+00 0.  1.
<mgrwt>
<rscale>  0 0.77505757E+02</rscale>
<asrwt>0</asrwt>
<pdfrwt beam="1">  1        2 0.16250231E-01 0.77505757E+02</pdfrwt>
<pdfrwt beam="2">  1       -1 0.21873671E-02 0.77505757E+02</pdfrwt>
<totfact> 0.19591189E+05</totfact>
</mgrwt>
</event>
<event>
 8    1  0.2603554E-016  0.7844843E+02  0.7818608E-02  0.1333513E+00
         -1   -1    0    0    0  501 -0.00000000000E+00  0.00000000000E+00  0.53196030714E+02  0.53196030953E+02  0.50400000000E-02 0.  1.
          2   -1    0    0  501    0  0.00000000000E+00 -0.00000000000E+00 -0.28922067140E+02  0.28922067253E+02  0.25500000000E-02 0. -1.
         24    2    1    2    0    0  0.00000000000E+00  0.00000000000E+00  0.24273963574E+02  0.82118098205E+02  0.78448433670E+02 0.  0.
         66    2    3    3    0    0 -0.22490318916E+02  0.25006941296E+02 -0.89308439819E+01  0.34855724516E+02  0.19999998340E+01 0.  0.
        -13    1    3    3    0    0  0.22490318916E+02 -0.25006941296E+02  0.33204807556E+02  0.47262373690E+02  0.10566000000E+00 0.  1.
         13    1    4    4    0    0 -0.16185102666E+02  0.16833110470E+02 -0.65738773038E+01  0.24259805919E+02  0.10566000000E+00 0. -1.
        -13    1    4    4    0    0 -0.22485811067E+01  0.31848488341E+01 -0.92748637622E+00  0.40088370013E+01  0.10566000000E+00 0.  1.
         14    1    4    4    0    0 -0.40566351440E+01  0.49889819924E+01 -0.14294803018E+01  0.65870815954E+01  0.00000000000E+00 0. -1.
<mgrwt>
<rscale>  0 0.78448434E+02</rscale>
<asrwt>0</asrwt>
<pdfrwt beam="1">  1        2 0.44495489E-02 0.78448434E+02</pdfrwt>
<pdfrwt beam="2">  1       -1 0.81840047E-02 0.78448434E+02</pdfrwt>
<totfact> 0.14112473E+05</totfact>
</mgrwt>
</event>
<event>
 8    1  0.2603554E-016  0.8227326E+02  0.7818608E-02  0.1322721E+00
         -1   -1    0    0    0  501 -0.00000000000E+00  0.00000000000E+00  0.34088795241E+02  0.34088795614E+02  0.50400000000E-02 0.  1.
          2   -1    0    0  501    0  0.00000000000E+00 -0.00000000000E+00 -0.49641599298E+02  0.49641599364E+02  0.25500000000E-02 0. -1.
         24    2    1    2    0    0  0.00000000000E+00  0.00000000000E+00 -0.15552804057E+02  0.83730394977E+02  0.82273260110E+02 0.  0.
         66    2    3    3    0    0 -0.39119782965E+02  0.11547022432E+02 -0.25394087674E+01  0.40916252837E+02  0.20000007650E+01 0.  0.
        -13    1    3    3    0    0  0.39119782965E+02 -0.11547022432E+02 -0.13013395290E+02  0.42814142141E+02  0.10566000000E+00 0.  1.
         13    1    4    4    0    0 -0.95331612948E+01  0.25039642239E+01 -0.80592891540E+00  0.98899790980E+01  0.10566000000E+00 0. -1.
        -13    1    4    4    0    0 -0.28138596435E+01  0.57943961322E+00 -0.51901555085E+00  0.29213177739E+01  0.10566000000E+00 0.  1.
        -14    1    4    4    0    0 -0.26772762026E+02  0.84636185949E+01 -0.12144643012E+01  0.28104955965E+02  0.00000000000E+00 0.  1.
<mgrwt>
<rscale>  0 0.82273260E+02</rscale>
<asrwt>0</asrwt>
<pdfrwt beam="1">  1        2 0.76371691E-02 0.82273260E+02</pdfrwt>
<pdfrwt beam="2">  1       -1 0.52444301E-02 0.82273260E+02</pdfrwt>
<totfact> 0.13814926E+05</totfact>
</mgrwt>
</event>
<event>
 8    1  0.2603554E-016  0.7467696E+02  0.7818608E-02  0.1344874E+00
         -1   -1    0    0    0  501 -0.00000000000E+00  0.00000000000E+00  0.13944281506E+02  0.13944282417E+02  0.50400000000E-02 0.  1.
          2   -1    0    0  501    0  0.00000000000E+00 -0.00000000000E+00 -0.99980904247E+02  0.99980904280E+02  0.25500000000E-02 0. -1.
         24    2    1    2    0    0 -0.71054273576E-14 -0.17763568394E-14 -0.86036622741E+02  0.11392518670E+03  0.74676955691E+02 0.  0.
         66    2    3    3    0    0  0.35790871707E+02  0.91522510419E+01 -0.51035697470E+02  0.63034852344E+02  0.19999992691E+01 0.  0.
        -13    1    3    3    0    0 -0.35790871707E+02 -0.91522510419E+01 -0.35000925271E+02  0.50890334353E+02  0.10566000000E+00 0.  1.
         13    1    4    4    0    0  0.60047112167E+01  0.16829652376E+01 -0.79892486175E+01  0.10135491419E+02  0.10566000000E+00 0. -1.
        -13    1    4    4    0    0  0.67647241137E+01  0.19095322112E+01 -0.88429899305E+01  0.11296788949E+02  0.10566000000E+00 0.  1.
         14    1    4    4    0    0  0.23021436377E+02  0.55597535932E+01 -0.34203458922E+02  0.41602571977E+02  0.00000000000E+00 0. -1.
<mgrwt>
<rscale>  0 0.74676956E+02</rscale>
<asrwt>0</asrwt>
<pdfrwt beam="1">  1        2 0.15381677E-01 0.74676956E+02</pdfrwt>
<pdfrwt beam="2">  1       -1 0.21452742E-02 0.74676956E+02</pdfrwt>
<totfact> 0.21298251E+05</totfact>
</mgrwt>
</event>
<event>
 8    1  0.2603554E-016  0.8211290E+02  0.7818608E-02  0.1323160E+00
          2   -1    0    0  501    0  0.00000000000E+00  0.00000000000E+00  0.14922832185E+03  0.14922832187E+03  0.25500000000E-02 0. -1.
         -1   -1    0    0    0  501 -0.00000000000E+00 -0.00000000000E+00 -0.11295656721E+02  0.11295657846E+02  0.50400000000E-02 0.  1.
         24    2    1    2    0    0  0.00000000000E+00 -0.35527136788E-14  0.13793266513E+03  0.16052397972E+03  0.82112897617E+02 0.  0.
         66    2    3    3    0    0 -0.25675218978E+02  0.30638338799E+02  0.87104893104E+02  0.95860247635E+02  0.19999999773E+01 0.  0.
        -13    1    3    3    0    0  0.25675218978E+02 -0.30638338799E+02  0.50827772027E+02  0.64663732085E+02  0.10566000000E+00 0.  1.
         13    1    4    4    0    0 -0.14806319457E+02  0.17172290583E+02  0.50587831043E+02  0.55436941414E+02  0.10566000000E+00 0. -1.
        -13    1    4    4    0    0 -0.79390348017E+00  0.11237765544E+01  0.23746742436E+01  0.27465247639E+01  0.10566000000E+00 0.  1.
        -14    1    4    4    0    0 -0.10074996041E+02  0.12342271662E+02  0.34142387818E+02  0.37676781457E+02  0.00000000000E+00 0.  1.
<mgrwt>
<rscale>  0 0.82112898E+02</rscale>
<asrwt>0</asrwt>
<pdfrwt beam="1">  1        2 0.22958204E-01 0.82112898E+02</pdfrwt>
<pdfrwt beam="2">  1       -1 0.17377934E-02 0.82112898E+02</pdfrwt>
<totfact> 0.18658349E+05</totfact>
</mgrwt>
</event>
<event>
 8    1  0.2603554E-016  0.8006733E+02  0.7818608E-02  0.1328860E+00
          2   -1    0    0  501    0  0.00000000000E+00  0.00000000000E+00  0.91440052212E+01  0.91440055768E+01  0.25500000000E-02 0. -1.
         -1   -1    0    0    0  501 -0.00000000000E+00 -0.00000000000E+00 -0.17527265940E+03  0.17527265947E+03  0.50400000000E-02 0.  1.
         24    2    1    2    0    0  0.00000000000E+00 -0.35527136788E-14 -0.16612865418E+03  0.18441666505E+03  0.80067325474E+02 0.  0.
         66    2    3    3    0    0 -0.99927655598E+01  0.27252995720E+02 -0.19698324689E+02  0.35136948752E+02  0.20000081967E+01 0.  0.
        -13    1    3    3    0    0  0.99927655598E+01 -0.27252995720E+02 -0.14643032949E+03  0.14927971630E+03  0.10566000000E+00 0.  1.
         13    1    4    4    0    0 -0.26619741202E+01  0.74791421298E+01 -0.55528499346E+01  0.96886004999E+01  0.10566000000E+00 0. -1.
        -13    1    4    4    0    0 -0.67962714623E+01  0.17131869055E+02 -0.12766028440E+02  0.22420367733E+02  0.10566000000E+00 0.  1.
        -14    1    4    4    0    0 -0.53451997743E+00  0.26419845353E+01 -0.13794463148E+01  0.30279805195E+01  0.00000000000E+00 0.  1.
<mgrwt>
<rscale>  0 0.80067325E+02</rscale>
<asrwt>0</asrwt>
<pdfrwt beam="1">  1        2 0.14067702E-02 0.80067325E+02</pdfrwt>
<pdfrwt beam="2">  1       -1 0.26965022E-01 0.80067325E+02</pdfrwt>
<totfact> 0.10327373E+05</totfact>
</mgrwt>
</event>
<event>
 8    1  0.2603554E-016  0.7989045E+02  0.7818608E-02  0.1329363E+00
         -1   -1    0    0    0  501 -0.00000000000E+00  0.00000000000E+00  0.90445424162E+01  0.90445438204E+01  0.50400000000E-02 0.  1.
          2   -1    0    0  501    0  0.00000000000E+00 -0.00000000000E+00 -0.17641807380E+03  0.17641807382E+03  0.25500000000E-02 0. -1.
         24    2    1    2    0    0  0.00000000000E+00  0.17763568394E-14 -0.16737353138E+03  0.18546261764E+03  0.79890447073E+02 0.  0.
         66    2    3    3    0    0 -0.37913413784E+02 -0.11088771356E+02 -0.97120865147E+02  0.10486586788E+03  0.20000008526E+01 0.  0.
        -13    1    3    3    0    0  0.37913413784E+02  0.11088771356E+02 -0.70252666234E+02  0.80596749761E+02  0.10566000000E+00 0.  1.
         13    1    4    4    0    0 -0.77908414485E+01 -0.26196986675E+01 -0.21715492882E+02  0.23219255516E+02  0.10566000000E+00 0. -1.
        -13    1    4    4    0    0 -0.68854422487E+01 -0.16264303924E+01 -0.17865611748E+02  0.19215770553E+02  0.10566000000E+00 0.  1.
         14    1    4    4    0    0 -0.23237130087E+02 -0.68426422962E+01 -0.57539760517E+02  0.62430841806E+02  0.00000000000E+00 0. -1.
<mgrwt>
<rscale>  0 0.79890447E+02</rscale>
<asrwt>0</asrwt>
<pdfrwt beam="1">  1        2 0.27141239E-01 0.79890447E+02</pdfrwt>
<pdfrwt beam="2">  1       -1 0.13914683E-02 0.79890447E+02</pdfrwt>
<totfact> 0.21206829E+05</totfact>
</mgrwt>
</event>
<event>
 8    1  0.2603554E-016  0.7929811E+02  0.7818608E-02  0.1331055E+00
         -1   -1    0    0    0  501 -0.00000000000E+00  0.00000000000E+00  0.10398618084E+02  0.10398619305E+02  0.50400000000E-02 0.  1.
          2   -1    0    0  501    0  0.00000000000E+00 -0.00000000000E+00 -0.15117851534E+03  0.15117851536E+03  0.25500000000E-02 0. -1.
         24    2    1    2    0    0 -0.17763568394E-14 -0.17763568394E-14 -0.14077989726E+03  0.16157713467E+03  0.79298114578E+02 0.  0.
         66    2    3    3    0    0  0.14179705203E+02  0.98046604266E+01 -0.14312971140E+03  0.14417804859E+03  0.20000009474E+01 0.  0.
        -13    1    3    3    0    0 -0.14179705203E+02 -0.98046604266E+01  0.23498141450E+01  0.17399086076E+02  0.10566000000E+00 0.  1.
         13    1    4    4    0    0  0.82796153872E+01  0.61599155605E+01 -0.79533268059E+02  0.80200052886E+02  0.10566000000E+00 0. -1.
        -13    1    4    4    0    0  0.20979875011E+01  0.10178439964E+01 -0.23764512563E+02  0.23878877263E+02  0.10566000000E+00 0.  1.
         14    1    4    4    0    0  0.38021023152E+01  0.26269008697E+01 -0.39831930781E+02  0.40099118444E+02  0.00000000000E+00 0. -1.
<mgrwt>
<rscale>  0 0.79298115E+02</rscale>
<asrwt>0</asrwt>
<pdfrwt beam="1">  1        2 0.23258232E-01 0.79298115E+02</pdfrwt>
<pdfrwt beam="2">  1       -1 0.15997876E-02 0.79298115E+02</pdfrwt>
<totfact> 0.20555417E+05</totfact>
</mgrwt>
</event>
<event>
 8    1  0.2603554E-016  0.7835420E+02  0.7818608E-02  0.1333788E+00
          2   -1    0    0  501    0  0.00000000000E+00  0.00000000000E+00  0.25809179763E+03  0.25809179764E+03  0.25500000000E-02 0. -1.
         -1   -1    0    0    0  501 -0.00000000000E+00 -0.00000000000E+00 -0.59468945521E+01  0.59468966878E+01  0.50400000000E-02 0.  1.
         24    2    1    2    0    0  0.35527136788E-14 -0.71054273576E-14  0.25214490308E+03  0.26403869433E+03  0.78354195520E+02 0.  0.
         66    2    3    3    0    0 -0.12985152630E+02  0.26400167484E+02  0.21320097944E+03  0.21523066851E+03  0.20000002944E+01 0.  0.
        -13    1    3    3    0    0  0.12985152630E+02 -0.26400167484E+02  0.38943923633E+02  0.48808025816E+02  0.10566000000E+00 0.  1.
         13    1    4    4    0    0 -0.27887389324E+01  0.53179450064E+01  0.47818387954E+02  0.48194055593E+02  0.10566000000E+00 0. -1.
        -13    1    4    4    0    0 -0.37532549583E+01  0.66359265680E+01  0.55553723139E+02  0.56074501896E+02  0.10566000000E+00 0.  1.
        -14    1    4    4    0    0 -0.64431587392E+01  0.14446295910E+02  0.10982886835E+03  0.11096211103E+03  0.00000000000E+00 0.  1.
<mgrwt>
<rscale>  0 0.78354196E+02</rscale>
<asrwt>0</asrwt>
<pdfrwt beam="1">  1        2 0.39706438E-01 0.78354196E+02</pdfrwt>
<pdfrwt beam="2">  1       -1 0.91490685E-03 0.78354196E+02</pdfrwt>
<totfact> 0.25496806E+05</totfact>
</mgrwt>
</event>
<event>
 8    1  0.2603554E-016  0.8133849E+02  0.7818608E-02  0.1325295E+00
         -1   -1    0    0    0  501 -0.00000000000E+00  0.00000000000E+00  0.51616277385E+02  0.51616277631E+02  0.50400000000E-02 0.  1.
          2   -1    0    0  501    0  0.00000000000E+00 -0.00000000000E+00 -0.32043910240E+02  0.32043910342E+02  0.25500000000E-02 0. -1.
         24    2    1    2    0    0  0.00000000000E+00  0.00000000000E+00  0.19572367145E+02  0.83660187973E+02  0.81338487175E+02 0.  0.
         66    2    3    3    0    0  0.15399179681E+02  0.30163598065E+02 -0.13321675345E+02  0.36447831768E+02  0.20000058696E+01 0.  0.
        -13    1    3    3    0    0 -0.15399179681E+02 -0.30163598065E+02  0.32894042490E+02  0.47212356205E+02  0.10566000000E+00 0.  1.
         13    1    4    4    0    0  0.85385541096E+01  0.17780295057E+02 -0.85895604353E+01  0.21513658711E+02  0.10566000000E+00 0. -1.
        -13    1    4    4    0    0  0.24467522783E+01  0.48536763710E+01 -0.18452662195E+01  0.57411621195E+01  0.10566000000E+00 0.  1.
         14    1    4    4    0    0  0.44138732933E+01  0.75296266366E+01 -0.28868486903E+01  0.91930109375E+01  0.00000000000E+00 0. -1.
<mgrwt>
<rscale>  0 0.81338487E+02</rscale>
<asrwt>0</asrwt>
<pdfrwt beam="1">  1        2 0.49298324E-02 0.81338487E+02</pdfrwt>
<pdfrwt beam="2">  1       -1 0.79409658E-02 0.81338487E+02</pdfrwt>
<totfact> 0.13013611E+05</totfact>
</mgrwt>
</event>
<event>
 8    1  0.2603554E-016  0.7888052E+02  0.7818608E-02  0.1332259E+00
          2   -1    0    0  501    0  0.00000000000E+00  0.00000000000E+00  0.68717715124E+03  0.68717715125E+03  0.25500000000E-02 0. -1.
         -1   -1    0    0    0  501 -0.00000000000E+00 -0.00000000000E+00 -0.22636553693E+01  0.22636609801E+01  0.50400000000E-02 0.  1.
         24    2    1    2    0    0  0.00000000000E+00  0.00000000000E+00  0.68491349587E+03  0.68944081223E+03  0.78880521901E+02 0.  0.
         66    2    3    3    0    0 -0.23617670811E+01 -0.29286338125E+02  0.57230918216E+03  0.57306637270E+03  0.19999975355E+01 0.  0.
        -13    1    3    3    0    0  0.23617670811E+01  0.29286338125E+02  0.11260431371E+03  0.11637443953E+03  0.10566000000E+00 0.  1.
         13    1    4    4    0    0 -0.28398933010E+00 -0.36939872982E+01  0.73581017378E+02  0.73674306746E+02  0.10566000000E+00 0. -1.
        -13    1    4    4    0    0  0.27023897527E+00 -0.39617215840E+01  0.71640753794E+02  0.71750798150E+02  0.10566000000E+00 0.  1.
        -14    1    4    4    0    0 -0.23480167262E+01 -0.21630629243E+02  0.42708741099E+03  0.42764126780E+03  0.00000000000E+00 0.  1.
<mgrwt>
<rscale>  0 0.78880522E+02</rscale>
<asrwt>0</asrwt>
<pdfrwt beam="1">  1        2 0.10571945E+00 0.78880522E+02</pdfrwt>
<pdfrwt beam="2">  1       -1 0.34825546E-03 0.78880522E+02</pdfrwt>
<totfact> 0.34550453E+05</totfact>
</mgrwt>
</event>
<event>
 8    1  0.2603554E-016  0.7924348E+02  0.7818608E-02  0.1331212E+00
         -1   -1    0    0    0  501 -0.00000000000E+00  0.00000000000E+00  0.59062483976E+01  0.59062505480E+01  0.50400000000E-02 0.  1.
          2   -1    0    0  501    0  0.00000000000E+00 -0.00000000000E+00 -0.26580021186E+03  0.26580021187E+03  0.25500000000E-02 0. -1.
         24    2    1    2    0    0  0.00000000000E+00  0.00000000000E+00 -0.25989396346E+03  0.27170646242E+03  0.79243482235E+02 0.  0.
         66    2    3    3    0    0 -0.16428643852E+02  0.18589082880E+02 -0.23584553330E+03  0.23715516001E+03  0.19999996488E+01 0.  0.
        -13    1    3    3    0    0  0.16428643852E+02 -0.18589082880E+02 -0.24048430158E+02  0.34551302411E+02  0.10566000000E+00 0.  1.
         13    1    4    4    0    0 -0.36230711161E+01  0.37243655161E+01 -0.47286312610E+02  0.47571042316E+02  0.10566000000E+00 0. -1.
        -13    1    4    4    0    0 -0.96184174909E+01  0.10071700135E+02 -0.13179370147E+03  0.13252752171E+03  0.10566000000E+00 0.  1.
        -14    1    4    4    0    0 -0.31871552450E+01  0.47930172295E+01 -0.56765519224E+02  0.57056595986E+02  0.00000000000E+00 0.  1.
<mgrwt>
<rscale>  0 0.79243482E+02</rscale>
<asrwt>0</asrwt>
<pdfrwt beam="1">  1        2 0.40892331E-01 0.79243482E+02</pdfrwt>
<pdfrwt beam="2">  1       -1 0.90865398E-03 0.79243482E+02</pdfrwt>
<totfact> 0.25017331E+05</totfact>
</mgrwt>
</event>
<event>
 8    1  0.2603554E-016  0.8016742E+02  0.7818608E-02  0.1328577E+00
         -1   -1    0    0    0  501 -0.00000000000E+00  0.00000000000E+00  0.10037034190E+02  0.10037035456E+02  0.50400000000E-02 0.  1.
          2   -1    0    0  501    0  0.00000000000E+00 -0.00000000000E+00 -0.16007754228E+03  0.16007754230E+03  0.25500000000E-02 0. -1.
         24    2    1    2    0    0  0.00000000000E+00  0.00000000000E+00 -0.15004050809E+03  0.17011457776E+03  0.80167421671E+02 0.  0.
         66    2    3    3    0    0  0.32828145071E+02 -0.89353542689E+01 -0.11993934519E+03  0.12468750613E+03  0.19999988726E+01 0.  0.
        -13    1    3    3    0    0 -0.32828145071E+02  0.89353542689E+01 -0.30101162902E+02  0.45427071629E+02  0.10566000000E+00 0.  1.
         13    1    4    4    0    0  0.35924125940E+01 -0.73930537254E+00 -0.12604041504E+02  0.13127262736E+02  0.10566000000E+00 0. -1.
        -13    1    4    4    0    0  0.10530918429E+02 -0.25599805694E+01 -0.35693048800E+02  0.37302260523E+02  0.10566000000E+00 0.  1.
         14    1    4    4    0    0  0.18704814048E+02 -0.56360683269E+01 -0.71642254885E+02  0.74257982869E+02  0.00000000000E+00 0. -1.
<mgrwt>
<rscale>  0 0.80167422E+02</rscale>
<asrwt>0</asrwt>
<pdfrwt beam="1">  1        2 0.24627312E-01 0.80167422E+02</pdfrwt>
<pdfrwt beam="2">  1       -1 0.15441593E-02 0.80167422E+02</pdfrwt>
<totfact> 0.20345085E+05</totfact>
</mgrwt>
</event>
<event>
 8    1  0.2603554E-016  0.8157625E+02  0.7818608E-02  0.1324637E+00
          2   -1    0    0  501    0  0.00000000000E+00  0.00000000000E+00  0.17913581380E+03  0.17913581382E+03  0.25500000000E-02 0. -1.
         -1   -1    0    0    0  501 -0.00000000000E+00 -0.00000000000E+00 -0.92872052130E+01  0.92872065805E+01  0.50400000000E-02 0.  1.
         24    2    1    2    0    0  0.35527136788E-14  0.00000000000E+00  0.16984860859E+03  0.18842302040E+03  0.81576251307E+02 0.  0.
         66    2    3    3    0    0  0.27610042635E+02  0.26729364923E+02  0.53567935715E+02  0.65956782393E+02  0.20000008720E+01 0.  0.
        -13    1    3    3    0    0 -0.27610042635E+02 -0.26729364923E+02  0.11628067287E+03  0.12246623801E+03  0.10566000000E+00 0.  1.
         13    1    4    4    0    0  0.10934455382E+02  0.11261648074E+02  0.23085823927E+02  0.27916902806E+02  0.10566000000E+00 0.  1.
        -13    1    4    4    0    0  0.20266271919E+01  0.18687962790E+01  0.33386940773E+01  0.43310113697E+01  0.10566000000E+00 0. -1.
        -14    1    4    4    0    0  0.14648960061E+02  0.13598920569E+02  0.27143417710E+02  0.33708868218E+02  0.00000000000E+00 0.  1.
<mgrwt>
<rscale>  0 0.81576251E+02</rscale>
<asrwt>0</asrwt>
<pdfrwt beam="1">  1        2 0.27559356E-01 0.81576251E+02</pdfrwt>
<pdfrwt beam="2">  1       -1 0.14288009E-02 0.81576251E+02</pdfrwt>
<totfact> 0.20170641E+05</totfact>
</mgrwt>
</event>
<event>
 8    1  0.2603554E-016  0.7947978E+02  0.7818608E-02  0.1330534E+00
          2   -1    0    0  501    0  0.00000000000E+00  0.00000000000E+00  0.22393129944E+02  0.22393130089E+02  0.25500000000E-02 0. -1.
         -1   -1    0    0    0  501 -0.00000000000E+00 -0.00000000000E+00 -0.70524252831E+02  0.70524253011E+02  0.50400000000E-02 0.  1.
         24    2    1    2    0    0  0.00000000000E+00  0.55511151231E-16 -0.48131122887E+02  0.92917383100E+02  0.79479777879E+02 0.  0.
         66    2    3    3    0    0  0.25309904254E+02  0.41481104359E+00  0.11695261622E+02  0.27956081011E+02  0.19999998850E+01 0.  0.
        -13    1    3    3    0    0 -0.25309904254E+02 -0.41481104359E+00 -0.59826384509E+02  0.64961302088E+02  0.10566000000E+00 0.  1.
         13    1    4    4    0    0  0.74802937513E+01 -0.37343568072E+00  0.28910530738E+01  0.80289227624E+01  0.10566000000E+00 0. -1.
        -13    1    4    4    0    0  0.98306665020E+01 -0.69058594047E-01  0.49162522883E+01  0.10992155092E+02  0.10566000000E+00 0.  1.
        -14    1    4    4    0    0  0.79989440009E+01  0.85730531836E+00  0.38879562596E+01  0.89350031570E+01  0.00000000000E+00 0.  1.
<mgrwt>
<rscale>  0 0.79479778E+02</rscale>
<asrwt>0</asrwt>
<pdfrwt beam="1">  1        2 0.34450970E-02 0.79479778E+02</pdfrwt>
<pdfrwt beam="2">  1       -1 0.10849885E-01 0.79479778E+02</pdfrwt>
<totfact> 0.12938605E+05</totfact>
</mgrwt>
</event>
<event>
 8    1  0.2603554E-016  0.7930874E+02  0.7818608E-02  0.1331025E+00
          2   -1    0    0  501    0  0.00000000000E+00  0.00000000000E+00  0.49912910277E+02  0.49912910342E+02  0.25500000000E-02 0. -1.
         -1   -1    0    0    0  501 -0.00000000000E+00 -0.00000000000E+00 -0.31504257613E+02  0.31504258016E+02  0.50400000000E-02 0.  1.
         24    2    1    2    0    0  0.22551405188E-16 -0.71054273576E-14  0.18408652664E+02  0.81417168357E+02  0.79308743594E+02 0.  0.
         66    2    3    3    0    0  0.13846875157E-01 -0.32539044510E+02  0.32431749076E+02  0.45984866620E+02  0.20000001497E+01 0.  0.
        -13    1    3    3    0    0 -0.13846875157E-01  0.32539044510E+02 -0.14023096412E+02  0.35432301737E+02  0.10566000000E+00 0.  1.
         13    1    4    4    0    0  0.69615738519E+00 -0.11928580698E+02  0.12075564153E+02  0.16988410350E+02  0.10566000000E+00 0. -1.
        -13    1    4    4    0    0 -0.52250815683E+00 -0.74126886737E+01  0.79411557824E+01  0.10876308535E+02  0.10566000000E+00 0.  1.
         14    1    4    4    0    0 -0.15980235320E+00 -0.13197775139E+02  0.12415029141E+02  0.18120147736E+02  0.00000000000E+00 0. -1.
<mgrwt>
<rscale>  0 0.79308744E+02</rscale>
<asrwt>0</asrwt>
<pdfrwt beam="1">  1        2 0.76789093E-02 0.79308744E+02</pdfrwt>
<pdfrwt beam="2">  1       -1 0.48468089E-02 0.79308744E+02</pdfrwt>
<totfact> 0.15296474E+05</totfact>
</mgrwt>
</event>
<event>
 8    1  0.2603554E-016  0.7428170E+02  0.7818608E-02  0.1346110E+00
         -1   -1    0    0    0  501 -0.00000000000E+00  0.00000000000E+00  0.13507893523E+02  0.13507894464E+02  0.50400000000E-02 0.  1.
          2   -1    0    0  501    0  0.00000000000E+00 -0.00000000000E+00 -0.10212124220E+03  0.10212124223E+03  0.25500000000E-02 0. -1.
         24    2    1    2    0    0 -0.88817841970E-15  0.35527136788E-14 -0.88613348672E+02  0.11562913669E+03  0.74281704941E+02 0.  0.
         66    2    3    3    0    0  0.41425759559E+01 -0.24859536927E+02 -0.86748819897E+02  0.90357707302E+02  0.20000008933E+01 0.  0.
        -13    1    3    3    0    0 -0.41425759559E+01  0.24859536927E+02 -0.18645287747E+01  0.25271429389E+02  0.10566000000E+00 0.  1.
         13    1    4    4    0    0  0.14269588241E+01 -0.12267305701E+02 -0.42061068486E+02  0.43836829800E+02  0.10566000000E+00 0. -1.
        -13    1    4    4    0    0  0.22178799290E+01 -0.11576287365E+02 -0.41304278428E+02  0.42953276954E+02  0.10566000000E+00 0.  1.
        -14    1    4    4    0    0  0.49773720289E+00 -0.10159438607E+01 -0.33834729822E+01  0.35676005483E+01  0.00000000000E+00 0.  1.
<mgrwt>
<rscale>  0 0.74281705E+02</rscale>
<asrwt>0</asrwt>
<pdfrwt beam="1">  1        2 0.15710960E-01 0.74281705E+02</pdfrwt>
<pdfrwt beam="2">  1       -1 0.20781376E-02 0.74281705E+02</pdfrwt>
<totfact> 0.21726704E+05</totfact>
</mgrwt>
</event>
<event>
 8    1  0.2603554E-016  0.7973388E+02  0.7818608E-02  0.1329808E+00
         -1   -1    0    0    0  501 -0.00000000000E+00  0.00000000000E+00  0.78201902656E+01  0.78201918897E+01  0.50400000000E-02 0.  1.
          2   -1    0    0  501    0  0.00000000000E+00 -0.00000000000E+00 -0.20323965423E+03  0.20323965424E+03  0.25500000000E-02 0. -1.
         24    2    1    2    0    0 -0.35527136788E-14  0.00000000000E+00 -0.19541946396E+03  0.21105984613E+03  0.79733880845E+02 0.  0.
         66    2    3    3    0    0 -0.14482998644E+02  0.34995130542E+02 -0.13050809825E+03  0.13590724821E+03  0.19999992233E+01 0.  0.
        -13    1    3    3    0    0  0.14482998644E+02 -0.34995130542E+02 -0.64911365712E+02  0.75152597920E+02  0.10566000000E+00 0.  1.
         13    1    4    4    0    0 -0.82904859296E+01  0.18878234152E+02 -0.73899743494E+02  0.76722246670E+02  0.10566000000E+00 0.  1.
        -13    1    4    4    0    0 -0.20614332869E+01  0.59975487323E+01 -0.20668159515E+02  0.21619530054E+02  0.10566000000E+00 0. -1.
        -14    1    4    4    0    0 -0.41310794279E+01  0.10119347657E+02 -0.35940195241E+02  0.37565471489E+02  0.00000000000E+00 0.  1.
<mgrwt>
<rscale>  0 0.79733881E+02</rscale>
<asrwt>0</asrwt>
<pdfrwt beam="1">  1        2 0.31267635E-01 0.79733881E+02</pdfrwt>
<pdfrwt beam="2">  1       -1 0.12031065E-02 0.79733881E+02</pdfrwt>
<totfact> 0.22377978E+05</totfact>
</mgrwt>
</event>
<event>
 8    1  0.2603554E-016  0.7556251E+02  0.7818608E-02  0.1342138E+00
          2   -1    0    0  501    0  0.00000000000E+00  0.00000000000E+00  0.10150038985E+03  0.10150038989E+03  0.25500000000E-02 0. -1.
         -1   -1    0    0    0  501 -0.00000000000E+00 -0.00000000000E+00 -0.14063227756E+02  0.14063228659E+02  0.50400000000E-02 0.  1.
         24    2    1    2    0    0  0.00000000000E+00  0.00000000000E+00  0.87437162099E+02  0.11556361855E+03  0.75562508001E+02 0.  0.
         66    2    3    3    0    0 -0.30742085773E+02 -0.15513407718E+02  0.67426173439E+02  0.75736586420E+02  0.20000003111E+01 0.  0.
        -13    1    3    3    0    0  0.30742085773E+02  0.15513407718E+02  0.20010988660E+02  0.39827032126E+02  0.10566000000E+00 0.  1.
         13    1    4    4    0    0 -0.22599750032E+02 -0.10919352220E+02  0.50102893663E+02  0.56038308967E+02  0.10566000000E+00 0. -1.
        -13    1    4    4    0    0 -0.59478323076E+01 -0.30328943227E+01  0.12008940956E+02  0.13740487039E+02  0.10566000000E+00 0.  1.
        -14    1    4    4    0    0 -0.21945034338E+01 -0.15611611758E+01  0.53143388197E+01  0.59577904149E+01  0.00000000000E+00 0.  1.
<mgrwt>
<rscale>  0 0.75562508E+02</rscale>
<asrwt>0</asrwt>
<pdfrwt beam="1">  1        2 0.15615444E-01 0.75562508E+02</pdfrwt>
<pdfrwt beam="2">  1       -1 0.21635737E-02 0.75562508E+02</pdfrwt>
<totfact> 0.20728472E+05</totfact>
</mgrwt>
</event>
<event>
 8    1  0.2603554E-016  0.7409701E+02  0.7818608E-02  0.1346690E+00
         -1   -1    0    0    0  501 -0.00000000000E+00  0.00000000000E+00  0.85032372465E+02  0.85032372614E+02  0.50400000000E-02 0.  1.
          2   -1    0    0  501    0  0.00000000000E+00 -0.00000000000E+00 -0.16141991625E+02  0.16141991827E+02  0.25500000000E-02 0. -1.
         24    2    1    2    0    0  0.00000000000E+00  0.00000000000E+00  0.68890380840E+02  0.10117436444E+03  0.74097013758E+02 0.  0.
         66    2    3    3    0    0  0.20102294227E+02 -0.29144906510E+02  0.19697084586E+02  0.40564799445E+02  0.20000010551E+01 0.  0.
        -13    1    3    3    0    0 -0.20102294227E+02  0.29144906510E+02  0.49193296254E+02  0.60609564996E+02  0.10566000000E+00 0.  1.
         13    1    4    4    0    0  0.67727551587E+01 -0.10305917738E+02  0.62211231180E+01  0.13812881298E+02  0.10566000000E+00 0. -1.
        -13    1    4    4    0    0  0.29794769673E+01 -0.44817874709E+01  0.25941266401E+01  0.59753124599E+01  0.10566000000E+00 0.  1.
        -14    1    4    4    0    0  0.10350062101E+02 -0.14357201301E+02  0.10881834828E+02  0.20776605688E+02  0.00000000000E+00 0.  1.
<mgrwt>
<rscale>  0 0.74097014E+02</rscale>
<asrwt>0</asrwt>
<pdfrwt beam="1">  1        2 0.24833833E-02 0.74097014E+02</pdfrwt>
<pdfrwt beam="2">  1       -1 0.13081904E-01 0.74097014E+02</pdfrwt>
<totfact> 0.14823557E+05</totfact>
</mgrwt>
</event>
<event>
 8    1  0.2603554E-016  0.7815951E+02  0.7818608E-02  0.1334357E+00
          2   -1    0    0  501    0  0.00000000000E+00  0.00000000000E+00  0.70000651971E+03  0.70000651971E+03  0.25500000000E-02 0. -1.
         -1   -1    0    0    0  501 -0.00000000000E+00 -0.00000000000E+00 -0.21817297070E+01  0.21817355284E+01  0.50400000000E-02 0.  1.
         24    2    1    2    0    0 -0.35527136788E-14  0.00000000000E+00  0.69782479000E+03  0.70218825524E+03  0.78159505235E+02 0.  0.
         66    2    3    3    0    0  0.28189164044E+02  0.67560373168E+01  0.58426635925E+03  0.58498842005E+03  0.20000083695E+01 0.  0.
        -13    1    3    3    0    0 -0.28189164044E+02 -0.67560373168E+01  0.11355843075E+03  0.11719983518E+03  0.10566000000E+00 0.  1.
         13    1    4    4    0    0  0.70452049336E+01  0.12318862904E+01  0.14446190739E+03  0.14463888242E+03  0.10566000000E+00 0. -1.
        -13    1    4    4    0    0  0.11919323304E+02  0.38650010159E+01  0.25177110330E+03  0.25208274062E+03  0.10566000000E+00 0.  1.
        -14    1    4    4    0    0  0.92246358066E+01  0.16591500105E+01  0.18803334856E+03  0.18826679701E+03  0.00000000000E+00 0.  1.
<mgrwt>
<rscale>  0 0.78159505E+02</rscale>
<asrwt>0</asrwt>
<pdfrwt beam="1">  1        2 0.10769341E+00 0.78159505E+02</pdfrwt>
<pdfrwt beam="2">  1       -1 0.33565087E-03 0.78159505E+02</pdfrwt>
<totfact> 0.35535708E+05</totfact>
</mgrwt>
</event>
<event>
 8    1  0.2603554E-016  0.7613611E+02  0.7818608E-02  0.1340389E+00
          2   -1    0    0  501    0  0.00000000000E+00  0.00000000000E+00  0.15613541796E+02  0.15613542005E+02  0.25500000000E-02 0. -1.
         -1   -1    0    0    0  501 -0.00000000000E+00 -0.00000000000E+00 -0.92815373807E+02  0.92815373943E+02  0.50400000000E-02 0.  1.
         24    2    1    2    0    0  0.00000000000E+00  0.00000000000E+00 -0.77201832010E+02  0.10842891595E+03  0.76136108043E+02 0.  0.
         66    2    3    3    0    0  0.51353380885E+01  0.35257894599E+02 -0.57610919880E+02  0.67768052320E+02  0.19999992491E+01 0.  0.
        -13    1    3    3    0    0 -0.51353380885E+01 -0.35257894599E+02 -0.19590912130E+02  0.40660863628E+02  0.10566000000E+00 0.  1.
         13    1    4    4    0    0  0.31424621877E+01  0.19026828226E+02 -0.32446257130E+02  0.37744748333E+02  0.10566000000E+00 0. -1.
        -13    1    4    4    0    0  0.19241497834E+01  0.13030474623E+02 -0.20399396562E+02  0.24282548577E+02  0.10566000000E+00 0.  1.
         14    1    4    4    0    0  0.68726117439E-01  0.32005917501E+01 -0.47652661883E+01  0.57407554099E+01  0.00000000000E+00 0. -1.
<mgrwt>
<rscale>  0 0.76136108E+02</rscale>
<asrwt>0</asrwt>
<pdfrwt beam="1">  1        2 0.24020834E-02 0.76136108E+02</pdfrwt>
<pdfrwt beam="2">  1       -1 0.14279288E-01 0.76136108E+02</pdfrwt>
<totfact> 0.13618162E+05</totfact>
</mgrwt>
</event>
<event>
 8    1  0.2603554E-016  0.8256214E+02  0.7818608E-02  0.1321934E+00
          2   -1    0    0  501    0  0.00000000000E+00  0.00000000000E+00  0.91104704756E+01  0.91104708325E+01  0.25500000000E-02 0. -1.
         -1   -1    0    0    0  501 -0.00000000000E+00 -0.00000000000E+00 -0.18705142608E+03  0.18705142614E+03  0.50400000000E-02 0.  1.
         24    2    1    2    0    0 -0.35527136788E-14  0.00000000000E+00 -0.17794095560E+03  0.19616189698E+03  0.82562135058E+02 0.  0.
         66    2    3    3    0    0  0.19392239314E+02  0.35929106824E+02 -0.74933879387E+02  0.85358338474E+02  0.20000010357E+01 0.  0.
        -13    1    3    3    0    0 -0.19392239314E+02 -0.35929106824E+02 -0.10300707621E+03  0.11080355850E+03  0.10566000000E+00 0.  1.
         13    1    4    4    0    0  0.85694021793E+01  0.16412636726E+02 -0.35088098392E+02  0.39673607232E+02  0.10566000000E+00 0. -1.
        -13    1    4    4    0    0  0.73624035392E+01  0.13232632499E+02 -0.25903092366E+02  0.30004814729E+02  0.10566000000E+00 0.  1.
        -14    1    4    4    0    0  0.34604335961E+01  0.62838375992E+01 -0.13942688629E+02  0.15679916513E+02  0.00000000000E+00 0.  1.
<mgrwt>
<rscale>  0 0.82562135E+02</rscale>
<asrwt>0</asrwt>
<pdfrwt beam="1">  1        2 0.14016110E-02 0.82562135E+02</pdfrwt>
<pdfrwt beam="2">  1       -1 0.28777140E-01 0.82562135E+02</pdfrwt>
<totfact> 0.93771991E+04</totfact>
</mgrwt>
</event>
<event>
 8    1  0.2603554E-016  0.8017665E+02  0.7818608E-02  0.1328551E+00
         -1   -1    0    0    0  501 -0.00000000000E+00  0.00000000000E+00  0.10133872333E+01  0.10133997662E+01  0.50400000000E-02 0.  1.
          2   -1    0    0  501    0  0.00000000000E+00 -0.00000000000E+00 -0.15858338866E+04  0.15858338866E+04  0.25500000000E-02 0. -1.
         24    2    1    2    0    0  0.00000000000E+00  0.35527136788E-14 -0.15848204994E+04  0.15868472864E+04  0.80176648979E+02 0.  0.
         66    2    3    3    0    0 -0.75493910428E+00  0.18172551929E+02 -0.14994078359E+04  0.14995194797E+04  0.20000010692E+01 0.  0.
        -13    1    3    3    0    0  0.75493910428E+00 -0.18172551929E+02 -0.85412663507E+02  0.87327806729E+02  0.10566000000E+00 0.  1.
         13    1    4    4    0    0 -0.15650985123E+00  0.84708700783E+01 -0.70961750293E+03  0.70966808563E+03  0.10566000000E+00 0. -1.
        -13    1    4    4    0    0 -0.42225317379E+00  0.36526816226E+01 -0.24830350156E+03  0.24833074806E+03  0.10566000000E+00 0.  1.
        -14    1    4    4    0    0 -0.17617607926E+00  0.60490002278E+01 -0.54148683141E+03  0.54152064599E+03  0.00000000000E+00 0.  1.
<mgrwt>
<rscale>  0 0.80176649E+02</rscale>
<asrwt>0</asrwt>
<pdfrwt beam="1">  1        2 0.24397246E+00 0.80176649E+02</pdfrwt>
<pdfrwt beam="2">  1       -1 0.15590796E-03 0.80176649E+02</pdfrwt>
<totfact> 0.32301246E+05</totfact>
</mgrwt>
</event>
<event>
 8    1  0.2603554E-016  0.8108650E+02  0.7818608E-02  0.1325996E+00
          2   -1    0    0  501    0  0.00000000000E+00  0.00000000000E+00  0.11491999494E+04  0.11491999494E+04  0.25500000000E-02 0. -1.
         -1   -1    0    0    0  501 -0.00000000000E+00 -0.00000000000E+00 -0.14303428840E+01  0.14303517635E+01  0.50400000000E-02 0.  1.
         24    2    1    2    0    0 -0.17763568394E-14  0.35527136788E-14  0.11477696065E+04  0.11506303012E+04  0.81086499002E+02 0.  0.
         66    2    3    3    0    0 -0.87640159206E+01  0.27423052951E+02  0.97881882399E+03  0.97924415853E+03  0.20000017088E+01 0.  0.
        -13    1    3    3    0    0  0.87640159206E+01 -0.27423052951E+02  0.16895078255E+03  0.17138614266E+03  0.10566000000E+00 0.  1.
         13    1    4    4    0    0 -0.25785934899E+00  0.13719378454E+01  0.56991495599E+02  0.57008687404E+02  0.10566000000E+00 0. -1.
        -13    1    4    4    0    0 -0.55703065352E+01  0.18039026515E+02  0.65150706595E+03  0.65178056348E+03  0.10566000000E+00 0.  1.
         14    1    4    4    0    0 -0.29358500364E+01  0.80120885903E+01  0.27032026245E+03  0.27045490764E+03  0.00000000000E+00 0. -1.
<mgrwt>
<rscale>  0 0.81086499E+02</rscale>
<asrwt>0</asrwt>
<pdfrwt beam="1">  1        2 0.17680098E+00 0.81086499E+02</pdfrwt>
<pdfrwt beam="2">  1       -1 0.22005221E-03 0.81086499E+02</pdfrwt>
<totfact> 0.33962878E+05</totfact>
</mgrwt>
</event>
<event>
 8    1  0.2603554E-016  0.8045015E+02  0.7818608E-02  0.1327779E+00
          2   -1    0    0  501    0  0.00000000000E+00  0.00000000000E+00  0.17196844120E+03  0.17196844122E+03  0.25500000000E-02 0. -1.
         -1   -1    0    0    0  501 -0.00000000000E+00 -0.00000000000E+00 -0.94090319058E+01  0.94090332557E+01  0.50400000000E-02 0.  1.
         24    2    1    2    0    0  0.00000000000E+00  0.88817841970E-15  0.16255940930E+03  0.18137747448E+03  0.80450150384E+02 0.  0.
         66    2    3    3    0    0  0.24075429179E+02  0.66657604294E+01  0.15233837379E+03  0.15438600577E+03  0.19999987252E+01 0.  0.
        -13    1    3    3    0    0 -0.24075429179E+02 -0.66657604294E+01  0.10221035504E+02  0.26991468709E+02  0.10566000000E+00 0.  1.
         13    1    4    4    0    0  0.43298076932E+01  0.15894332641E+01  0.26892984083E+02  0.27285844127E+02  0.10566000000E+00 0. -1.
        -13    1    4    4    0    0  0.54350300603E+01  0.20801971618E+01  0.36391189424E+02  0.36853718994E+02  0.10566000000E+00 0.  1.
        -14    1    4    4    0    0  0.14310591426E+02  0.29961300034E+01  0.89054200288E+02  0.90246442649E+02  0.00000000000E+00 0.  1.
<mgrwt>
<rscale>  0 0.80450150E+02</rscale>
<asrwt>0</asrwt>
<pdfrwt beam="1">  1        2 0.26456679E-01 0.80450150E+02</pdfrwt>
<pdfrwt beam="2">  1       -1 0.14475437E-02 0.80450150E+02</pdfrwt>
<totfact> 0.20640869E+05</totfact>
</mgrwt>
</event>
<event>
 8    1  0.2603554E-016  0.7672149E+02  0.7818608E-02  0.1338622E+00
         -1   -1    0    0    0  501 -0.00000000000E+00  0.00000000000E+00  0.22452572425E+03  0.22452572430E+03  0.50400000000E-02 0.  1.
          2   -1    0    0  501    0  0.00000000000E+00 -0.00000000000E+00 -0.65540228446E+01  0.65540233407E+01  0.25500000000E-02 0. -1.
         24    2    1    2    0    0  0.00000000000E+00 -0.27755575616E-16  0.21797170140E+03  0.23107974764E+03  0.76721490855E+02 0.  0.
         66    2    3    3    0    0  0.34363407920E+02  0.18117340735E-01  0.57883681413E+02  0.67345116487E+02  0.20000021565E+01 0.  0.
        -13    1    3    3    0    0 -0.34363407920E+02 -0.18117340735E-01  0.16008801999E+03  0.16373463116E+03  0.10566000000E+00 0.  1.
         13    1    4    4    0    0  0.17665747188E+01 -0.12405285602E+00  0.31428623247E+01  0.36090058154E+01  0.10566000000E+00 0.  1.
        -13    1    4    4    0    0  0.17741791787E+02 -0.50034846310E+00  0.31085849982E+02  0.35796127689E+02  0.10566000000E+00 0. -1.
        -14    1    4    4    0    0  0.14855041414E+02  0.64251865985E+00  0.23654969106E+02  0.27939982982E+02  0.00000000000E+00 0.  1.
<mgrwt>
<rscale>  0 0.76721491E+02</rscale>
<asrwt>0</asrwt>
<pdfrwt beam="1">  1        2 0.10083116E-02 0.76721491E+02</pdfrwt>
<pdfrwt beam="2">  1       -1 0.34542409E-01 0.76721491E+02</pdfrwt>
<totfact> 0.10685830E+05</totfact>
</mgrwt>
</event>
<event>
 8    1  0.2603554E-016  0.8200866E+02  0.7818608E-02  0.1323446E+00
         -1   -1    0    0    0  501 -0.00000000000E+00  0.00000000000E+00  0.11532296208E+02  0.11532297309E+02  0.50400000000E-02 0.  1.
          2   -1    0    0  501    0  0.00000000000E+00 -0.00000000000E+00 -0.14579534265E+03  0.14579534267E+03  0.25500000000E-02 0. -1.
         24    2    1    2    0    0 -0.17763568394E-14 -0.35527136788E-14 -0.13426304644E+03  0.15732763998E+03  0.82008662118E+02 0.  0.
         66    2    3    3    0    0  0.10749919113E+02 -0.20200632557E+02 -0.13239006931E+03  0.13436799007E+03  0.19999970639E+01 0.  0.
        -13    1    3    3    0    0 -0.10749919113E+02  0.20200632557E+02 -0.18729771365E+01  0.22959649911E+02  0.10566000000E+00 0.  1.
         13    1    4    4    0    0  0.69662344705E+01 -0.12361300435E+02 -0.78804095115E+02  0.80071385289E+02  0.10566000000E+00 0. -1.
        -13    1    4    4    0    0  0.10520526671E+01 -0.14910002364E+01 -0.12640618118E+02  0.12772090156E+02  0.10566000000E+00 0.  1.
        -14    1    4    4    0    0  0.27316319757E+01 -0.63483318859E+01 -0.40945356073E+02  0.41524514626E+02  0.00000000000E+00 0.  1.
<mgrwt>
<rscale>  0 0.82008662E+02</rscale>
<asrwt>0</asrwt>
<pdfrwt beam="1">  1        2 0.22430051E-01 0.82008662E+02</pdfrwt>
<pdfrwt beam="2">  1       -1 0.17741996E-02 0.82008662E+02</pdfrwt>
<totfact> 0.18581750E+05</totfact>
</mgrwt>
</event>
<event>
 8    1  0.2603554E-016  0.7958943E+02  0.7818608E-02  0.1330221E+00
         -1   -1    0    0    0  501 -0.00000000000E+00  0.00000000000E+00  0.72796287770E+02  0.72796287944E+02  0.50400000000E-02 0.  1.
          2   -1    0    0  501    0  0.00000000000E+00 -0.00000000000E+00 -0.21754122369E+02  0.21754122518E+02  0.25500000000E-02 0. -1.
         24    2    1    2    0    0 -0.71054273576E-14  0.17763568394E-14  0.51042165401E+02  0.94550410462E+02  0.79589430641E+02 0.  0.
         66    2    3    3    0    0  0.37776338100E+02 -0.12431990759E+02  0.25428798265E+02  0.47246479816E+02  0.19999898206E+01 0.  0.
        -13    1    3    3    0    0 -0.37776338100E+02  0.12431990759E+02  0.25613367137E+02  0.47303930647E+02  0.10566000000E+00 0.  1.
         13    1    4    4    0    0  0.35309804757E+02 -0.11917506294E+02  0.23867495601E+02  0.44254692165E+02  0.10566000000E+00 0. -1.
        -13    1    4    4    0    0  0.23139879950E+01 -0.57259888812E+00  0.14938088592E+01  0.28151445560E+01  0.10566000000E+00 0.  1.
         14    1    4    4    0    0  0.15254534785E+00  0.58114423531E-01  0.67493804503E-01  0.17664309502E+00  0.00000000000E+00 0. -1.
<mgrwt>
<rscale>  0 0.79589431E+02</rscale>
<asrwt>0</asrwt>
<pdfrwt beam="1">  1        2 0.33467880E-02 0.79589431E+02</pdfrwt>
<pdfrwt beam="2">  1       -1 0.11199429E-01 0.79589431E+02</pdfrwt>
<totfact> 0.12814088E+05</totfact>
</mgrwt>
</event>
<event>
 8    1  0.2603554E-016  0.7898541E+02  0.7818608E-02  0.1331956E+00
          2   -1    0    0  501    0  0.00000000000E+00  0.00000000000E+00  0.95109208557E+03  0.95109208558E+03  0.25500000000E-02 0. -1.
         -1   -1    0    0    0  501 -0.00000000000E+00 -0.00000000000E+00 -0.16398726318E+01  0.16398803768E+01  0.50400000000E-02 0.  1.
         24    2    1    2    0    0  0.00000000000E+00 -0.17763568394E-14  0.94945221294E+03  0.95273196595E+03  0.78985405551E+02 0.  0.
         66    2    3    3    0    0  0.24399875897E+02 -0.12351470847E+02  0.81827203350E+03  0.81873135618E+03  0.20000043083E+01 0.  0.
        -13    1    3    3    0    0 -0.24399875897E+02  0.12351470847E+02  0.13118017944E+03  0.13400060977E+03  0.10566000000E+00 0.  1.
         13    1    4    4    0    0  0.13822665195E+02 -0.73236007905E+01  0.46256513480E+03  0.46282957587E+03  0.10566000000E+00 0. -1.
        -13    1    4    4    0    0  0.58043811237E+01 -0.21184336781E+01  0.18074845609E+03  0.18085406864E+03  0.10566000000E+00 0.  1.
        -14    1    4    4    0    0  0.47728295786E+01 -0.29094363781E+01  0.17495844260E+03  0.17504771167E+03  0.00000000000E+00 0.  1.
<mgrwt>
<rscale>  0 0.78985406E+02</rscale>
<asrwt>0</asrwt>
<pdfrwt beam="1">  1        2 0.14632170E+00 0.78985406E+02</pdfrwt>
<pdfrwt beam="2">  1       -1 0.25228898E-03 0.78985406E+02</pdfrwt>
<totfact> 0.36309673E+05</totfact>
</mgrwt>
</event>
<event>
 8    1  0.2603554E-016  0.7988396E+02  0.7818608E-02  0.1329381E+00
          2   -1    0    0  501    0  0.00000000000E+00  0.00000000000E+00  0.11000817978E+02  0.11000818274E+02  0.25500000000E-02 0. -1.
         -1   -1    0    0    0  501 -0.00000000000E+00 -0.00000000000E+00 -0.14502209420E+03  0.14502209429E+03  0.50400000000E-02 0.  1.
         24    2    1    2    0    0  0.00000000000E+00 -0.88817841970E-15 -0.13402127623E+03  0.15602291256E+03  0.79883958115E+02 0.  0.
         66    2    3    3    0    0 -0.36051313160E+02  0.57059390888E+01 -0.35492759682E+02  0.50950867483E+02  0.19999964889E+01 0.  0.
        -13    1    3    3    0    0  0.36051313160E+02 -0.57059390888E+01 -0.98528516543E+02  0.10507204508E+03  0.10566000000E+00 0.  1.
         13    1    4    4    0    0 -0.12267077318E+02  0.17559698225E+01 -0.12975351241E+02  0.17942561684E+02  0.10566000000E+00 0. -1.
        -13    1    4    4    0    0 -0.77055741014E+01  0.16580987846E+01 -0.68836570054E+01  0.10465231083E+02  0.10566000000E+00 0.  1.
         14    1    4    4    0    0 -0.16078661741E+02  0.22918704817E+01 -0.15633751436E+02  0.22543074716E+02  0.00000000000E+00 0. -1.
<mgrwt>
<rscale>  0 0.79883958E+02</rscale>
<asrwt>0</asrwt>
<pdfrwt beam="1">  1        2 0.16924337E-02 0.79883958E+02</pdfrwt>
<pdfrwt beam="2">  1       -1 0.22311090E-01 0.79883958E+02</pdfrwt>
<totfact> 0.10919601E+05</totfact>
</mgrwt>
</event>
<event>
 8    1  0.2603554E-016  0.7955225E+02  0.7818608E-02  0.1330327E+00
          2   -1    0    0  501    0  0.00000000000E+00  0.00000000000E+00  0.19909402585E+03  0.19909402587E+03  0.25500000000E-02 0. -1.
         -1   -1    0    0    0  501 -0.00000000000E+00 -0.00000000000E+00 -0.79466977327E+01  0.79466993309E+01  0.50400000000E-02 0.  1.
         24    2    1    2    0    0 -0.35527136788E-14  0.00000000000E+00  0.19114732812E+03  0.20704072520E+03  0.79552252287E+02 0.  0.
         66    2    3    3    0    0 -0.22101121665E+02 -0.33828491599E+01  0.18117244096E+03  0.18255781718E+03  0.20000007062E+01 0.  0.
        -13    1    3    3    0    0  0.22101121665E+02  0.33828491599E+01  0.99748871628E+01  0.24482908023E+02  0.10566000000E+00 0.  1.
         13    1    4    4    0    0 -0.83532551911E+01 -0.13518268267E+01  0.64175773939E+02  0.64731332698E+02  0.10566000000E+00 0. -1.
        -13    1    4    4    0    0 -0.94743776315E+01 -0.97754271435E+00  0.83660989879E+02  0.84201495312E+02  0.10566000000E+00 0.  1.
         14    1    4    4    0    0 -0.42734888427E+01 -0.10534796189E+01  0.33335677139E+02  0.33624989168E+02  0.00000000000E+00 0. -1.
<mgrwt>
<rscale>  0 0.79552252E+02</rscale>
<asrwt>0</asrwt>
<pdfrwt beam="1">  1        2 0.30629848E-01 0.79552252E+02</pdfrwt>
<pdfrwt beam="2">  1       -1 0.12225691E-02 0.79552252E+02</pdfrwt>
<totfact> 0.22352346E+05</totfact>
</mgrwt>
</event>
<event>
 8    1  0.2603554E-016  0.8099671E+02  0.7818608E-02  0.1326246E+00
          2   -1    0    0  501    0  0.00000000000E+00  0.00000000000E+00  0.25767247674E+02  0.25767247800E+02  0.25500000000E-02 0. -1.
         -1   -1    0    0    0  501 -0.00000000000E+00 -0.00000000000E+00 -0.63651227373E+02  0.63651227572E+02  0.50400000000E-02 0.  1.
         24    2    1    2    0    0  0.00000000000E+00  0.00000000000E+00 -0.37883979699E+02  0.89418475372E+02  0.80996714872E+02 0.  0.
         66    2    3    3    0    0 -0.33669721166E+02  0.13479085602E+02  0.88050429285E+00  0.36333333804E+02  0.19999963628E+01 0.  0.
        -13    1    3    3    0    0  0.33669721166E+02 -0.13479085602E+02 -0.38764483992E+02  0.53085141568E+02  0.10566000000E+00 0.  1.
         13    1    4    4    0    0 -0.93160997877E+01  0.41349262803E+01 -0.37505647347E-01  0.10193130104E+02  0.10566000000E+00 0. -1.
        -13    1    4    4    0    0 -0.88303072940E+01  0.35849088099E+01 -0.32483167107E+00  0.95363817945E+01  0.10566000000E+00 0.  1.
        -14    1    4    4    0    0 -0.15523314085E+02  0.57592505120E+01  0.12428416113E+01  0.16603821906E+02  0.00000000000E+00 0.  1.
<mgrwt>
<rscale>  0 0.80996715E+02</rscale>
<asrwt>0</asrwt>
<pdfrwt beam="1">  1        2 0.39641920E-02 0.80996715E+02</pdfrwt>
<pdfrwt beam="2">  1       -1 0.97924966E-02 0.80996715E+02</pdfrwt>
<totfact> 0.12608378E+05</totfact>
</mgrwt>
</event>
<event>
 8    1  0.2603554E-016  0.7846477E+02  0.7818608E-02  0.1333466E+00
         -1   -1    0    0    0  501 -0.00000000000E+00  0.00000000000E+00  0.35177542175E+01  0.35177578280E+01  0.50400000000E-02 0.  1.
          2   -1    0    0  501    0  0.00000000000E+00 -0.00000000000E+00 -0.43754602680E+03  0.43754602681E+03  0.25500000000E-02 0. -1.
         24    2    1    2    0    0  0.71054273576E-14  0.00000000000E+00 -0.43402827258E+03  0.44106378464E+03  0.78464773727E+02 0.  0.
         66    2    3    3    0    0  0.35788251437E+02 -0.12088691650E+02 -0.27617429284E+03  0.27875289316E+03  0.20000032686E+01 0.  0.
        -13    1    3    3    0    0 -0.35788251437E+02  0.12088691650E+02 -0.15785397974E+03  0.16231089147E+03  0.10566000000E+00 0.  1.
         13    1    4    4    0    0  0.10396185701E+02 -0.43009995162E+01 -0.85556889926E+02  0.86293521494E+02  0.10566000000E+00 0. -1.
        -13    1    4    4    0    0  0.15231606020E+01 -0.50490812886E+00 -0.11630770838E+02  0.11741420048E+02  0.10566000000E+00 0. -1.
         14    1    4    4    0    0  0.23868905133E+02 -0.72827840052E+01 -0.17898663208E+03  0.18071795162E+03  0.00000000000E+00 0. -1.
<mgrwt>
<rscale>  0 0.78464774E+02</rscale>
<asrwt>0</asrwt>
<pdfrwt beam="1">  1        2 0.67314730E-01 0.78464774E+02</pdfrwt>
<pdfrwt beam="2">  1       -1 0.54119358E-03 0.78464774E+02</pdfrwt>
<totfact> 0.30651101E+05</totfact>
</mgrwt>
</event>
<event>
 8    1  0.2603554E-016  0.8482522E+02  0.7818608E-02  0.1315890E+00
          2   -1    0    0  501    0  0.00000000000E+00  0.00000000000E+00  0.51160933970E+02  0.51160934034E+02  0.25500000000E-02 0. -1.
         -1   -1    0    0    0  501 -0.00000000000E+00 -0.00000000000E+00 -0.35160215428E+02  0.35160215789E+02  0.50400000000E-02 0.  1.
         24    2    1    2    0    0  0.00000000000E+00  0.88817841970E-15  0.16000718542E+02  0.86321149822E+02  0.84825219792E+02 0.  0.
         66    2    3    3    0    0  0.40219547227E+02 -0.76243903735E+01  0.19202536850E+02  0.45260145058E+02  0.20000003642E+01 0.  0.
        -13    1    3    3    0    0 -0.40219547227E+02  0.76243903735E+01 -0.32018183072E+01  0.41061004764E+02  0.10566000000E+00 0.  1.
         13    1    4    4    0    0  0.27367288386E+02 -0.48273265253E+01  0.12936566269E+02  0.30653506583E+02  0.10566000000E+00 0.  1.
        -13    1    4    4    0    0  0.42860154811E+01 -0.10890369340E+01  0.26218474457E+01  0.51420986195E+01  0.10566000000E+00 0. -1.
        -14    1    4    4    0    0  0.85662433603E+01 -0.17080269142E+01  0.36441231347E+01  0.94645398550E+01  0.00000000000E+00 0.  1.
<mgrwt>
<rscale>  0 0.84825220E+02</rscale>
<asrwt>0</asrwt>
<pdfrwt beam="1">  1        2 0.78709129E-02 0.84825220E+02</pdfrwt>
<pdfrwt beam="2">  1       -1 0.54092640E-02 0.84825220E+02</pdfrwt>
<totfact> 0.12785273E+05</totfact>
</mgrwt>
</event>
<event>
 8    1  0.2603554E-016  0.8152418E+02  0.7818608E-02  0.1324781E+00
          2   -1    0    0  501    0  0.00000000000E+00  0.00000000000E+00  0.19567607528E+02  0.19567607694E+02  0.25500000000E-02 0. -1.
         -1   -1    0    0    0  501 -0.00000000000E+00 -0.00000000000E+00 -0.84913180424E+02  0.84913180574E+02  0.50400000000E-02 0.  1.
         24    2    1    2    0    0  0.17763568394E-14  0.35527136788E-14 -0.65345572897E+02  0.10448078827E+03  0.81524175678E+02 0.  0.
         66    2    3    3    0    0  0.14722296785E+02  0.19460007048E+02  0.91139545028E+01  0.26124740119E+02  0.19999956719E+01 0.  0.
        -13    1    3    3    0    0 -0.14722296785E+02 -0.19460007048E+02 -0.74459527399E+02  0.78356048149E+02  0.10566000000E+00 0.  1.
         13    1    4    4    0    0  0.77308543910E+01  0.92322019545E+01  0.38965429412E+01  0.12656771842E+02  0.10566000000E+00 0. -1.
        -13    1    4    4    0    0  0.50609500390E+01  0.68771016393E+01  0.38400672444E+01  0.93629601479E+01  0.10566000000E+00 0.  1.
        -14    1    4    4    0    0  0.19304923551E+01  0.33507034539E+01  0.13773443172E+01  0.41050081287E+01  0.00000000000E+00 0.  1.
<mgrwt>
<rscale>  0 0.81524176E+02</rscale>
<asrwt>0</asrwt>
<pdfrwt beam="1">  1        2 0.30104012E-02 0.81524176E+02</pdfrwt>
<pdfrwt beam="2">  1       -1 0.13063566E-01 0.81524176E+02</pdfrwt>
<totfact> 0.11706381E+05</totfact>
</mgrwt>
</event>
<event>
 8    1  0.2603554E-016  0.7682144E+02  0.7818608E-02  0.1338322E+00
          2   -1    0    0  501    0  0.00000000000E+00  0.00000000000E+00  0.10035628852E+03  0.10035628856E+03  0.25500000000E-02 0. -1.
         -1   -1    0    0    0  501 -0.00000000000E+00 -0.00000000000E+00 -0.14701452152E+02  0.14701453016E+02  0.50400000000E-02 0.  1.
         24    2    1    2    0    0  0.00000000000E+00  0.00000000000E+00  0.85654836372E+02  0.11505774157E+03  0.76821435170E+02 0.  0.
         66    2    3    3    0    0 -0.19365136514E+02 -0.24917303698E+02  0.75584338167E+02  0.81932122575E+02  0.19999994040E+01 0.  0.
        -13    1    3    3    0    0  0.19365136514E+02  0.24917303698E+02  0.10070498204E+02  0.33125618997E+02  0.10566000000E+00 0.  1.
         13    1    4    4    0    0 -0.28856768947E+01 -0.35188286073E+01  0.11062751754E+02  0.11962647128E+02  0.10566000000E+00 0. -1.
        -13    1    4    4    0    0 -0.15268707762E+02 -0.20150614508E+02  0.61292195220E+02  0.66301772681E+02  0.10566000000E+00 0.  1.
        -14    1    4    4    0    0 -0.12107518572E+01 -0.12478605824E+01  0.32293911941E+01  0.36677027657E+01  0.00000000000E+00 0.  1.
<mgrwt>
<rscale>  0 0.76821435E+02</rscale>
<asrwt>0</asrwt>
<pdfrwt beam="1">  1        2 0.15439428E-01 0.76821435E+02</pdfrwt>
<pdfrwt beam="2">  1       -1 0.22617621E-02 0.76821435E+02</pdfrwt>
<totfact> 0.19773852E+05</totfact>
</mgrwt>
</event>
<event>
 8    1  0.2603554E-016  0.7969214E+02  0.7818608E-02  0.1329927E+00
          2   -1    0    0  501    0  0.00000000000E+00  0.00000000000E+00  0.60253551105E+03  0.60253551105E+03  0.25500000000E-02 0. -1.
         -1   -1    0    0    0  501 -0.00000000000E+00 -0.00000000000E+00 -0.26350446660E+01  0.26350494860E+01  0.50400000000E-02 0.  1.
         24    2    1    2    0    0  0.00000000000E+00 -0.71054273576E-14  0.59990046638E+03  0.60517056054E+03  0.79692143767E+02 0.  0.
         66    2    3    3    0    0 -0.19774427681E+02  0.29702210228E+02  0.43437065746E+03  0.43583840740E+03  0.20000040546E+01 0.  0.
        -13    1    3    3    0    0  0.19774427681E+02 -0.29702210228E+02  0.16552980892E+03  0.16933215314E+03  0.10566000000E+00 0.  1.
         13    1    4    4    0    0 -0.40165891495E+01  0.68248020956E+01  0.10314554872E+03  0.10344914837E+03  0.10566000000E+00 0. -1.
        -13    1    4    4    0    0 -0.38609592900E+01  0.54954894515E+01  0.84738913138E+02  0.85004717367E+02  0.10566000000E+00 0.  1.
         14    1    4    4    0    0 -0.11896879241E+02  0.17381918681E+02  0.24648619560E+03  0.24738454166E+03  0.00000000000E+00 0. -1.
<mgrwt>
<rscale>  0 0.79692144E+02</rscale>
<asrwt>0</asrwt>
<pdfrwt beam="1">  1        2 0.92697893E-01 0.79692144E+02</pdfrwt>
<pdfrwt beam="2">  1       -1 0.40539133E-03 0.79692144E+02</pdfrwt>
<totfact> 0.32525854E+05</totfact>
</mgrwt>
</event>
<event>
 8    1  0.2603554E-016  0.8241842E+02  0.7818608E-02  0.1322325E+00
          2   -1    0    0  501    0  0.00000000000E+00  0.00000000000E+00  0.62405535109E+03  0.62405535110E+03  0.25500000000E-02 0. -1.
         -1   -1    0    0    0  501 -0.00000000000E+00 -0.00000000000E+00 -0.27212290492E+01  0.27212337165E+01  0.50400000000E-02 0.  1.
         24    2    1    2    0    0 -0.71054273576E-14  0.00000000000E+00  0.62133412205E+03  0.62677658482E+03  0.82418420611E+02 0.  0.
         66    2    3    3    0    0  0.36949624836E+02 -0.75710156020E+01  0.43663936995E+03  0.43826993329E+03  0.19999964960E+01 0.  0.
        -13    1    3    3    0    0 -0.36949624836E+02  0.75710156020E+01  0.18469475210E+03  0.18850665153E+03  0.10566000000E+00 0.  1.
         13    1    4    4    0    0  0.30872253125E+02 -0.68632104788E+01  0.36485849413E+03  0.36622661233E+03  0.10566000000E+00 0. -1.
        -13    1    4    4    0    0  0.48885260095E+01 -0.64452028825E+00  0.55295132244E+02  0.55514645877E+02  0.10566000000E+00 0.  1.
        -14    1    4    4    0    0  0.11888457018E+01 -0.63284835040E-01  0.16485743569E+02  0.16528675085E+02  0.00000000000E+00 0.  1.
<mgrwt>
<rscale>  0 0.82418421E+02</rscale>
<asrwt>0</asrwt>
<pdfrwt beam="1">  1        2 0.96008527E-01 0.82418421E+02</pdfrwt>
<pdfrwt beam="2">  1       -1 0.41865093E-03 0.82418421E+02</pdfrwt>
<totfact> 0.30083092E+05</totfact>
</mgrwt>
</event>
<event>
 8    1  0.2603554E-016  0.7721849E+02  0.7818608E-02  0.1337136E+00
         -1   -1    0    0    0  501 -0.00000000000E+00  0.00000000000E+00  0.84291119479E+01  0.84291134547E+01  0.50400000000E-02 0.  1.
          2   -1    0    0  501    0  0.00000000000E+00 -0.00000000000E+00 -0.17684825698E+03  0.17684825700E+03  0.25500000000E-02 0. -1.
         24    2    1    2    0    0  0.35527136788E-14  0.00000000000E+00 -0.16841914504E+03  0.18527737046E+03  0.77218492531E+02 0.  0.
         66    2    3    3    0    0  0.19645738492E+02  0.32773546986E+02 -0.97099520693E+02  0.10436655287E+03  0.20000038159E+01 0.  0.
        -13    1    3    3    0    0 -0.19645738492E+02 -0.32773546986E+02 -0.71319624344E+02  0.80910817592E+02  0.10566000000E+00 0.  1.
         13    1    4    4    0    0  0.32561778312E+01  0.57927385873E+01 -0.16357571783E+02  0.17656155671E+02  0.10566000000E+00 0. -1.
        -13    1    4    4    0    0  0.96500088772E+01  0.14795894617E+02 -0.43459748559E+02  0.46912706997E+02  0.10566000000E+00 0.  1.
        -14    1    4    4    0    0  0.67395517836E+01  0.12184913781E+02 -0.37282200351E+02  0.39797690198E+02  0.00000000000E+00 0.  1.
<mgrwt>
<rscale>  0 0.77218493E+02</rscale>
<asrwt>0</asrwt>
<pdfrwt beam="1">  1        2 0.27207421E-01 0.77218493E+02</pdfrwt>
<pdfrwt beam="2">  1       -1 0.12967867E-02 0.77218493E+02</pdfrwt>
<totfact> 0.23218088E+05</totfact>
</mgrwt>
</event>
<event>
 8    1  0.2603554E-016  0.7979281E+02  0.7818608E-02  0.1329640E+00
          2   -1    0    0  501    0  0.00000000000E+00  0.00000000000E+00  0.18525095921E+03  0.18525095923E+03  0.25500000000E-02 0. -1.
         -1   -1    0    0    0  501 -0.00000000000E+00 -0.00000000000E+00 -0.85922520887E+01  0.85922535669E+01  0.50400000000E-02 0.  1.
         24    2    1    2    0    0  0.00000000000E+00  0.00000000000E+00  0.17665870712E+03  0.19384321280E+03  0.79792808854E+02 0.  0.
         66    2    3    3    0    0  0.15746097663E+01 -0.18032715768E+02  0.17468787772E+03  0.17563460037E+03  0.19999977014E+01 0.  0.
        -13    1    3    3    0    0 -0.15746097663E+01  0.18032715768E+02  0.19708294018E+01  0.18208612425E+02  0.10566000000E+00 0.  1.
         13    1    4    4    0    0  0.80744691313E+00 -0.76182961672E+01  0.64738669661E+02  0.65190466485E+02  0.10566000000E+00 0. -1.
        -13    1    4    4    0    0  0.65278032772E+00 -0.82598793014E+01  0.86974017705E+02  0.87367858208E+02  0.10566000000E+00 0.  1.
         14    1    4    4    0    0  0.11438252542E+00 -0.21545402995E+01  0.22975190355E+02  0.23076275676E+02  0.00000000000E+00 0. -1.
<mgrwt>
<rscale>  0 0.79792809E+02</rscale>
<asrwt>0</asrwt>
<pdfrwt beam="1">  1        2 0.28500147E-01 0.79792809E+02</pdfrwt>
<pdfrwt beam="2">  1       -1 0.13218851E-02 0.79792809E+02</pdfrwt>
<totfact> 0.21631557E+05</totfact>
</mgrwt>
</event>
<event>
 8    1  0.2603554E-016  0.8057715E+02  0.7818608E-02  0.1327422E+00
         -1   -1    0    0    0  501 -0.00000000000E+00  0.00000000000E+00  0.15800487512E+01  0.15800567895E+01  0.50400000000E-02 0.  1.
          2   -1    0    0  501    0  0.00000000000E+00 -0.00000000000E+00 -0.10272878969E+04  0.10272878969E+04  0.25500000000E-02 0. -1.
         24    2    1    2    0    0  0.00000000000E+00 -0.44408920985E-15 -0.10257078482E+04  0.10288679537E+04  0.80577145531E+02 0.  0.
         66    2    3    3    0    0 -0.30359039670E+02 -0.31485284158E+01 -0.84847395178E+03  0.84902510644E+03  0.20000001971E+01 0.  0.
        -13    1    3    3    0    0  0.30359039670E+02  0.31485284158E+01 -0.17723389640E+03  0.17984284728E+03  0.10566000000E+00 0.  1.
         13    1    4    4    0    0 -0.15254805647E+01 -0.32435511101E+00 -0.49692522203E+02  0.49717101928E+02  0.10566000000E+00 0. -1.
        -13    1    4    4    0    0 -0.20146619597E+02 -0.20246242498E+01 -0.57633553710E+03  0.57669111999E+03  0.10566000000E+00 0.  1.
        -14    1    4    4    0    0 -0.86869395085E+01 -0.79954905499E+00 -0.22244589247E+03  0.22261688452E+03  0.00000000000E+00 0.  1.
<mgrwt>
<rscale>  0 0.80577146E+02</rscale>
<asrwt>0</asrwt>
<pdfrwt beam="1">  1        2 0.15804376E+00 0.80577146E+02</pdfrwt>
<pdfrwt beam="2">  1       -1 0.24308586E-03 0.80577146E+02</pdfrwt>
<totfact> 0.34609539E+05</totfact>
</mgrwt>
</event>
<event>
 8    1  0.2603554E-016  0.7876854E+02  0.7818608E-02  0.1332583E+00
         -1   -1    0    0    0  501 -0.00000000000E+00  0.00000000000E+00  0.11274770565E+03  0.11274770576E+03  0.50400000000E-02 0.  1.
          2   -1    0    0  501    0  0.00000000000E+00 -0.00000000000E+00 -0.13757448243E+02  0.13757448479E+02  0.25500000000E-02 0. -1.
         24    2    1    2    0    0  0.35527136788E-14 -0.17763568394E-14  0.98990257408E+02  0.12650515424E+03  0.78768540600E+02 0.  0.
         66    2    3    3    0    0 -0.28128788811E+02  0.14194394737E+02  0.11643334818E+02  0.33649321621E+02  0.19999994851E+01 0.  0.
        -13    1    3    3    0    0  0.28128788811E+02 -0.14194394737E+02  0.87346922591E+02  0.92855832622E+02  0.10566000000E+00 0.  1.
         13    1    4    4    0    0 -0.14524364527E+02  0.71584313039E+01  0.66722086012E+01  0.17513704214E+02  0.10566000000E+00 0.  1.
        -13    1    4    4    0    0 -0.12812732389E+02  0.68662771774E+01  0.47915204551E+01  0.15306263615E+02  0.10566000000E+00 0. -1.
         14    1    4    4    0    0 -0.79169189518E+00  0.16968625567E+00  0.17960576129E+00  0.82935379166E+00  0.00000000000E+00 0. -1.
<mgrwt>
<rscale>  0 0.78768541E+02</rscale>
<asrwt>0</asrwt>
<pdfrwt beam="1">  1        2 0.21165304E-02 0.78768541E+02</pdfrwt>
<pdfrwt beam="2">  1       -1 0.17345802E-01 0.78768541E+02</pdfrwt>
<totfact> 0.12003464E+05</totfact>
</mgrwt>
</event>
<event>
 8    1  0.2603554E-016  0.7461789E+02  0.7818608E-02  0.1345058E+00
         -1   -1    0    0    0  501 -0.00000000000E+00  0.00000000000E+00  0.15855286081E+02  0.15855286882E+02  0.50400000000E-02 0.  1.
          2   -1    0    0  501    0  0.00000000000E+00 -0.00000000000E+00 -0.87791370312E+02  0.87791370349E+02  0.25500000000E-02 0. -1.
         24    2    1    2    0    0 -0.44408920985E-15  0.00000000000E+00 -0.71936084231E+02  0.10364665723E+03  0.74617888878E+02 0.  0.
         66    2    3    3    0    0 -0.39980417546E+01 -0.14012365247E+02 -0.83660528005E+02  0.84943596959E+02  0.20000001361E+01 0.  0.
        -13    1    3    3    0    0  0.39980417546E+01  0.14012365247E+02  0.11724443774E+02  0.18703060272E+02  0.10566000000E+00 0.  1.
         13    1    4    4    0    0 -0.15451308434E+01 -0.49007870253E+01 -0.28823610985E+02  0.29278265950E+02  0.10566000000E+00 0. -1.
        -13    1    4    4    0    0 -0.17716691822E+00 -0.33832289620E+01 -0.20939807900E+02  0.21212363029E+02  0.10566000000E+00 0.  1.
        -14    1    4    4    0    0 -0.22757439930E+01 -0.57283492600E+01 -0.33897109119E+02  0.34452967980E+02  0.00000000000E+00 0.  1.
<mgrwt>
<rscale>  0 0.74617889E+02</rscale>
<asrwt>0</asrwt>
<pdfrwt beam="1">  1        2 0.13506364E-01 0.74617889E+02</pdfrwt>
<pdfrwt beam="2">  1       -1 0.24392749E-02 0.74617889E+02</pdfrwt>
<totfact> 0.20611259E+05</totfact>
</mgrwt>
</event>
<event>
 8    1  0.2603554E-016  0.7900845E+02  0.7818608E-02  0.1331889E+00
         -1   -1    0    0    0  501 -0.00000000000E+00  0.00000000000E+00  0.49517655658E+02  0.49517655914E+02  0.50400000000E-02 0.  1.
          2   -1    0    0  501    0  0.00000000000E+00 -0.00000000000E+00 -0.31515700343E+02  0.31515700446E+02  0.25500000000E-02 0. -1.
         24    2    1    2    0    0  0.00000000000E+00  0.00000000000E+00  0.18001955315E+02  0.81033356361E+02  0.79008445422E+02 0.  0.
         66    2    3    3    0    0  0.38049276475E+02 -0.88354914668E+01  0.14877532046E+02  0.41846795724E+02  0.20000007245E+01 0.  0.
        -13    1    3    3    0    0 -0.38049276475E+02  0.88354914668E+01  0.31244232691E+01  0.39186560637E+02  0.10566000000E+00 0.  1.
         13    1    4    4    0    0  0.12183106923E+02 -0.29127500458E+01  0.45062630004E+01  0.13312767458E+02  0.10566000000E+00 0. -1.
        -13    1    4    4    0    0  0.15701134846E+02 -0.39450086051E+01  0.70594353740E+01  0.17661696412E+02  0.10566000000E+00 0.  1.
        -14    1    4    4    0    0  0.10165034707E+02 -0.19777328159E+01  0.33118336712E+01  0.10872331854E+02  0.00000000000E+00 0.  1.
<mgrwt>
<rscale>  0 0.79008445E+02</rscale>
<asrwt>0</asrwt>
<pdfrwt beam="1">  1        2 0.48485693E-02 0.79008445E+02</pdfrwt>
<pdfrwt beam="2">  1       -1 0.76181009E-02 0.79008445E+02</pdfrwt>
<totfact> 0.14068620E+05</totfact>
</mgrwt>
</event>
<event>
 8    1  0.2603554E-016  0.7964132E+02  0.7818608E-02  0.1330072E+00
         -1   -1    0    0    0  501 -0.00000000000E+00  0.00000000000E+00  0.64790622274E+01  0.64790641877E+01  0.50400000000E-02 0.  1.
          2   -1    0    0  501    0  0.00000000000E+00 -0.00000000000E+00 -0.24473982511E+03  0.24473982513E+03  0.25500000000E-02 0. -1.
         24    2    1    2    0    0  0.35527136788E-14 -0.35527136788E-14 -0.23826076289E+03  0.25121888931E+03  0.79641316019E+02 0.  0.
         66    2    3    3    0    0  0.30056574860E+02 -0.25192897292E+02 -0.14050613690E+03  0.14589055584E+03  0.20000028244E+01 0.  0.
        -13    1    3    3    0    0 -0.30056574860E+02  0.25192897292E+02 -0.97754625990E+02  0.10532833348E+03  0.10566000000E+00 0.  1.
         13    1    4    4    0    0  0.68088848737E+01 -0.53364526713E+01 -0.31773067746E+02  0.32929889741E+02  0.10566000000E+00 0. -1.
        -13    1    4    4    0    0  0.67271723337E+01 -0.66813409105E+01 -0.34205133506E+02  0.35495034669E+02  0.10566000000E+00 0.  1.
        -14    1    4    4    0    0  0.16520517652E+02 -0.13175103710E+02 -0.74527935645E+02  0.77465631429E+02  0.00000000000E+00 0.  1.
<mgrwt>
<rscale>  0 0.79641316E+02</rscale>
<asrwt>0</asrwt>
<pdfrwt beam="1">  1        2 0.37652274E-01 0.79641316E+02</pdfrwt>
<pdfrwt beam="2">  1       -1 0.99677915E-03 0.79641316E+02</pdfrwt>
<totfact> 0.23968950E+05</totfact>
</mgrwt>
</event>
<event>
 8    1  0.2603554E-016  0.8141811E+02  0.7818608E-02  0.1325075E+00
         -1   -1    0    0    0  501 -0.00000000000E+00  0.00000000000E+00  0.31441994134E+02  0.31441994538E+02  0.50400000000E-02 0.  1.
          2   -1    0    0  501    0  0.00000000000E+00 -0.00000000000E+00 -0.52707443131E+02  0.52707443192E+02  0.25500000000E-02 0. -1.
         24    2    1    2    0    0  0.00000000000E+00  0.35527136788E-14 -0.21265448997E+02  0.84149437730E+02  0.81418109467E+02 0.  0.
         66    2    3    3    0    0  0.22588477331E+02 -0.25376836099E+02 -0.33773011588E+02  0.47946214054E+02  0.20000029623E+01 0.  0.
        -13    1    3    3    0    0 -0.22588477331E+02  0.25376836099E+02  0.12507562591E+02  0.36203223676E+02  0.10566000000E+00 0.  1.
         13    1    4    4    0    0  0.51542019404E+01 -0.53370374480E+01 -0.66767004580E+01  0.99819466741E+01  0.10566000000E+00 0. -1.
        -13    1    4    4    0    0  0.70142616570E+00 -0.10596052062E+01 -0.10587193302E+01  0.16573510536E+01  0.10566000000E+00 0.  1.
         14    1    4    4    0    0  0.16732849225E+02 -0.18980193445E+02 -0.26037591800E+02  0.36306916326E+02  0.00000000000E+00 0. -1.
<mgrwt>
<rscale>  0 0.81418109E+02</rscale>
<asrwt>0</asrwt>
<pdfrwt beam="1">  1        2 0.81088374E-02 0.81418109E+02</pdfrwt>
<pdfrwt beam="2">  1       -1 0.48372299E-02 0.81418109E+02</pdfrwt>
<totfact> 0.14407062E+05</totfact>
</mgrwt>
</event>
<event>
 8    1  0.2603554E-016  0.7891637E+02  0.7818608E-02  0.1332155E+00
          2   -1    0    0  501    0  0.00000000000E+00  0.00000000000E+00  0.63990470805E+01  0.63990475886E+01  0.25500000000E-02 0. -1.
         -1   -1    0    0    0  501 -0.00000000000E+00 -0.00000000000E+00 -0.24330941783E+03  0.24330941788E+03  0.50400000000E-02 0.  1.
         24    2    1    2    0    0  0.00000000000E+00  0.71054273576E-14 -0.23691037075E+03  0.24970846547E+03  0.78916373200E+02 0.  0.
         66    2    3    3    0    0  0.24334945940E+02  0.25266992751E+02 -0.17551621016E+03  0.17899874454E+03  0.19999996328E+01 0.  0.
        -13    1    3    3    0    0 -0.24334945940E+02 -0.25266992751E+02 -0.61394160583E+02  0.70709720932E+02  0.10566000000E+00 0.  1.
         13    1    4    4    0    0  0.19833279838E+02  0.20764980398E+02 -0.14195254688E+03  0.14482776022E+03  0.10566000000E+00 0. -1.
        -13    1    4    4    0    0  0.22975021532E+01  0.28255327893E+01 -0.19402295673E+02  0.19741387821E+02  0.10566000000E+00 0.  1.
        -14    1    4    4    0    0  0.22041639495E+01  0.16764795636E+01 -0.14161367607E+02  0.14429596493E+02  0.00000000000E+00 0.  1.
<mgrwt>
<rscale>  0 0.78916373E+02</rscale>
<asrwt>0</asrwt>
<pdfrwt beam="1">  1        2 0.98446901E-03 0.78916373E+02</pdfrwt>
<pdfrwt beam="2">  1       -1 0.37432211E-01 0.78916373E+02</pdfrwt>
<totfact> 0.96802770E+04</totfact>
</mgrwt>
</event>
<event>
 8    1  0.2603554E-016  0.7888458E+02  0.7818608E-02  0.1332247E+00
          2   -1    0    0  501    0  0.00000000000E+00  0.00000000000E+00  0.94647757485E+01  0.94647760920E+01  0.25500000000E-02 0. -1.
         -1   -1    0    0    0  501 -0.00000000000E+00 -0.00000000000E+00 -0.16436673571E+03  0.16436673579E+03  0.50400000000E-02 0.  1.
         24    2    1    2    0    0  0.35527136788E-14 -0.35527136788E-14 -0.15490195996E+03  0.17383151188E+03  0.78884582285E+02 0.  0.
         66    2    3    3    0    0 -0.27022485641E+02 -0.22240792527E+02 -0.37541436388E+02  0.51363674306E+02  0.20000024204E+01 0.  0.
        -13    1    3    3    0    0  0.27022485641E+02  0.22240792527E+02 -0.11736052357E+03  0.12246783757E+03  0.10566000000E+00 0.  1.
         13    1    4    4    0    0 -0.13932169509E+02 -0.12475279599E+02 -0.20080348912E+02  0.27440290172E+02  0.10566000000E+00 0. -1.
        -13    1    4    4    0    0 -0.44876075615E+01 -0.30464249251E+01 -0.53548797024E+01  0.76226784737E+01  0.10566000000E+00 0.  1.
        -14    1    4    4    0    0 -0.86027085706E+01 -0.67190880030E+01 -0.12106207774E+02  0.16300705660E+02  0.00000000000E+00 0.  1.
<mgrwt>
<rscale>  0 0.78884582E+02</rscale>
<asrwt>0</asrwt>
<pdfrwt beam="1">  1        2 0.14561195E-02 0.78884582E+02</pdfrwt>
<pdfrwt beam="2">  1       -1 0.25287188E-01 0.78884582E+02</pdfrwt>
<totfact> 0.10913898E+05</totfact>
</mgrwt>
</event>
<event>
 8    1  0.2603554E-016  0.7824348E+02  0.7818608E-02  0.1334111E+00
         -1   -1    0    0    0  501 -0.00000000000E+00  0.00000000000E+00  0.88838255032E+01  0.88838269329E+01  0.50400000000E-02 0.  1.
          2   -1    0    0  501    0  0.00000000000E+00 -0.00000000000E+00 -0.17228057095E+03  0.17228057097E+03  0.25500000000E-02 0. -1.
         24    2    1    2    0    0  0.88817841970E-15  0.35527136788E-14 -0.16339674545E+03  0.18116439790E+03  0.78243483080E+02 0.  0.
         66    2    3    3    0    0  0.65743010774E+01  0.29196463327E+02 -0.13999884398E+03  0.14317587513E+03  0.19999994740E+01 0.  0.
        -13    1    3    3    0    0 -0.65743010774E+01 -0.29196463327E+02 -0.23397901472E+02  0.37988522777E+02  0.10566000000E+00 0.  1.
         13    1    4    4    0    0  0.25964199606E+01  0.80097833342E+01 -0.38145348616E+02  0.39063753157E+02  0.10566000000E+00 0. -1.
        -13    1    4    4    0    0  0.80967743427E+00  0.49220508714E+01 -0.22336383409E+02  0.22886837924E+02  0.10566000000E+00 0.  1.
         14    1    4    4    0    0  0.31682036825E+01  0.16264629121E+02 -0.79517111951E+02  0.81225284044E+02  0.00000000000E+00 0. -1.
<mgrwt>
<rscale>  0 0.78243483E+02</rscale>
<asrwt>0</asrwt>
<pdfrwt beam="1">  1        2 0.26504701E-01 0.78243483E+02</pdfrwt>
<pdfrwt beam="2">  1       -1 0.13667426E-02 0.78243483E+02</pdfrwt>
<totfact> 0.22229266E+05</totfact>
</mgrwt>
</event>
<event>
 8    1  0.2603554E-016  0.8305653E+02  0.7818608E-02  0.1320595E+00
         -1   -1    0    0    0  501 -0.00000000000E+00  0.00000000000E+00  0.48483874413E+02  0.48483874675E+02  0.50400000000E-02 0.  1.
          2   -1    0    0  501    0  0.00000000000E+00 -0.00000000000E+00 -0.35570524430E+02  0.35570524522E+02  0.25500000000E-02 0. -1.
         24    2    1    2    0    0 -0.35527136788E-14  0.00000000000E+00  0.12913349983E+02  0.84054399196E+02  0.83056531450E+02 0.  0.
         66    2    3    3    0    0 -0.24864848137E+02  0.23352551018E+02 -0.17466605159E+02  0.38375573135E+02  0.20000014347E+01 0.  0.
        -13    1    3    3    0    0  0.24864848137E+02 -0.23352551018E+02  0.30379955141E+02  0.45678826061E+02  0.10566000000E+00 0.  1.
         13    1    4    4    0    0 -0.18625743068E+02  0.17670713597E+02 -0.13556522289E+02  0.29033823112E+02  0.10566000000E+00 0. -1.
        -13    1    4    4    0    0 -0.33757414079E+01  0.34402071293E+01 -0.18608337811E+01  0.51676417776E+01  0.10566000000E+00 0.  1.
        -14    1    4    4    0    0 -0.28633636610E+01  0.22416302918E+01 -0.20492490886E+01  0.41741082458E+01  0.00000000000E+00 0.  1.
<mgrwt>
<rscale>  0 0.83056531E+02</rscale>
<asrwt>0</asrwt>
<pdfrwt beam="1">  1        2 0.54723884E-02 0.83056531E+02</pdfrwt>
<pdfrwt beam="2">  1       -1 0.74590577E-02 0.83056531E+02</pdfrwt>
<totfact> 0.12537668E+05</totfact>
</mgrwt>
</event>
<event>
 8    1  0.2603554E-016  0.8987895E+02  0.7818608E-02  0.1303145E+00
          2   -1    0    0  501    0  0.00000000000E+00  0.00000000000E+00  0.13666657326E+04  0.13666657326E+04  0.25500000000E-02 0. -1.
         -1   -1    0    0    0  501 -0.00000000000E+00 -0.00000000000E+00 -0.14777208071E+01  0.14777294019E+01  0.50400000000E-02 0.  1.
         24    2    1    2    0    0  0.00000000000E+00  0.00000000000E+00  0.13651880118E+04  0.13681434620E+04  0.89878946824E+02 0.  0.
         66    2    3    3    0    0 -0.29323312197E+02 -0.39007069689E+01  0.11974457495E+04  0.11978127546E+04  0.19999991996E+01 0.  0.
        -13    1    3    3    0    0  0.29323312197E+02  0.39007069689E+01  0.16774226237E+03  0.17033070746E+03  0.10566000000E+00 0.  1.
         13    1    4    4    0    0 -0.11647803153E+02 -0.17971584854E+01  0.44358766391E+03  0.44374421442E+03  0.10566000000E+00 0.  1.
        -13    1    4    4    0    0 -0.46314529831E+01 -0.76618875528E+00  0.20773802503E+03  0.20779108645E+03  0.10566000000E+00 0. -1.
        -14    1    4    4    0    0 -0.13044056062E+02 -0.13373597282E+01  0.54612006053E+03  0.54627745372E+03  0.00000000000E+00 0.  1.
<mgrwt>
<rscale>  0 0.89878947E+02</rscale>
<asrwt>0</asrwt>
<pdfrwt beam="1">  1        2 0.21025693E+00 0.89878947E+02</pdfrwt>
<pdfrwt beam="2">  1       -1 0.22734161E-03 0.89878947E+02</pdfrwt>
<totfact> 0.25252270E+05</totfact>
</mgrwt>
</event>
<event>
 8    1  0.2603554E-016  0.8139105E+02  0.7818608E-02  0.1325150E+00
         -1   -1    0    0    0  501 -0.00000000000E+00  0.00000000000E+00  0.13231138921E+02  0.13231139881E+02  0.50400000000E-02 0.  1.
          2   -1    0    0  501    0  0.00000000000E+00 -0.00000000000E+00 -0.12516877801E+03  0.12516877803E+03  0.25500000000E-02 0. -1.
         24    2    1    2    0    0  0.00000000000E+00  0.00000000000E+00 -0.11193763909E+03  0.13839991791E+03  0.81391045172E+02 0.  0.
         66    2    3    3    0    0 -0.27226605472E+02  0.29507822342E+02 -0.44966606213E+02  0.60315796397E+02  0.19999989255E+01 0.  0.
        -13    1    3    3    0    0  0.27226605472E+02 -0.29507822342E+02 -0.66971032873E+02  0.78084121517E+02  0.10566000000E+00 0.  1.
         13    1    4    4    0    0 -0.15393212462E+02  0.16152872121E+02 -0.25925977932E+02  0.34205756291E+02  0.10566000000E+00 0. -1.
        -13    1    4    4    0    0 -0.56975138550E+01  0.69879850051E+01 -0.99675865563E+01  0.13440890757E+02  0.10566000000E+00 0.  1.
         14    1    4    4    0    0 -0.61358791550E+01  0.63669652158E+01 -0.90730417246E+01  0.12669149348E+02  0.00000000000E+00 0. -1.
<mgrwt>
<rscale>  0 0.81391045E+02</rscale>
<asrwt>0</asrwt>
<pdfrwt beam="1">  1        2 0.19256734E-01 0.81391045E+02</pdfrwt>
<pdfrwt beam="2">  1       -1 0.20355600E-02 0.81391045E+02</pdfrwt>
<totfact> 0.18075546E+05</totfact>
</mgrwt>
</event>
<event>
 8    1  0.2603554E-016  0.7566281E+02  0.7818608E-02  0.1341831E+00
         -1   -1    0    0    0  501 -0.00000000000E+00  0.00000000000E+00  0.21691532824E+03  0.21691532830E+03  0.50400000000E-02 0.  1.
          2   -1    0    0  501    0  0.00000000000E+00 -0.00000000000E+00 -0.65980358198E+01  0.65980363125E+01  0.25500000000E-02 0. -1.
         24    2    1    2    0    0  0.00000000000E+00  0.00000000000E+00  0.21031729242E+03  0.22351336461E+03  0.75662809020E+02 0.  0.
         66    2    3    3    0    0  0.51239529649E+01 -0.31765472565E+02  0.46601953264E+02  0.56666058429E+02  0.19999971390E+01 0.  0.
        -13    1    3    3    0    0 -0.51239529649E+01  0.31765472565E+02  0.16371533916E+03  0.16684730618E+03  0.10566000000E+00 0.  1.
         13    1    4    4    0    0  0.75005420244E+00 -0.84062410985E+01  0.11604817234E+02  0.14349579011E+02  0.10566000000E+00 0. -1.
        -13    1    4    4    0    0  0.21667154899E+01 -0.89781245838E+01  0.13881136504E+02  0.16673286771E+02  0.10566000000E+00 0.  1.
         14    1    4    4    0    0  0.22071832726E+01 -0.14381106883E+02  0.21115999526E+02  0.25643192648E+02  0.00000000000E+00 0. -1.
<mgrwt>
<rscale>  0 0.75662809E+02</rscale>
<asrwt>0</asrwt>
<pdfrwt beam="1">  1        2 0.10150824E-02 0.75662809E+02</pdfrwt>
<pdfrwt beam="2">  1       -1 0.33371592E-01 0.75662809E+02</pdfrwt>
<totfact> 0.11193566E+05</totfact>
</mgrwt>
</event>
<event>
 8    1  0.2603554E-016  0.7880350E+02  0.7818608E-02  0.1332482E+00
         -1   -1    0    0    0  501 -0.00000000000E+00  0.00000000000E+00  0.82173184736E+00  0.82174730336E+00  0.50400000000E-02 0.  1.
          2   -1    0    0  501    0  0.00000000000E+00 -0.00000000000E+00 -0.18892822319E+04  0.18892822319E+04  0.25500000000E-02 0. -1.
         24    2    1    2    0    0 -0.88817841970E-15  0.00000000000E+00 -0.18884605001E+04  0.18901039792E+04  0.78803502129E+02 0.  0.
         66    2    3    3    0    0 -0.62174519320E+01  0.10451040131E+02 -0.18431110403E+04  0.18431522421E+04  0.19999827786E+01 0.  0.
        -13    1    3    3    0    0  0.62174519320E+01 -0.10451040131E+02 -0.45349459773E+02  0.46951737072E+02  0.10566000000E+00 0.  1.
         13    1    4    4    0    0 -0.21565616718E+01  0.34196979874E+01 -0.69536545351E+03  0.69537721432E+03  0.10566000000E+00 0. -1.
        -13    1    4    4    0    0 -0.26655232674E+01  0.44364346316E+01 -0.64273250129E+03  0.64275334798E+03  0.10566000000E+00 0.  1.
         14    1    4    4    0    0 -0.13953669928E+01  0.25949075118E+01 -0.50501308548E+03  0.50502167984E+03  0.00000000000E+00 0. -1.
<mgrwt>
<rscale>  0 0.78803502E+02</rscale>
<asrwt>0</asrwt>
<pdfrwt beam="1">  1        2 0.29065533E+00 0.78803502E+02</pdfrwt>
<pdfrwt beam="2">  1       -1 0.12642299E-03 0.78803502E+02</pdfrwt>
<totfact> 0.30320639E+05</totfact>
</mgrwt>
</event>
<event>
 8    1  0.2603554E-016  0.8007012E+02  0.7818608E-02  0.1328853E+00
         -1   -1    0    0    0  501 -0.00000000000E+00  0.00000000000E+00  0.27989553968E+02  0.27989554422E+02  0.50400000000E-02 0.  1.
          2   -1    0    0  501    0  0.00000000000E+00 -0.00000000000E+00 -0.57264440037E+02  0.57264440094E+02  0.25500000000E-02 0. -1.
         24    2    1    2    0    0 -0.71054273576E-14  0.17763568394E-14 -0.29274886069E+02  0.85253994516E+02  0.80070123183E+02 0.  0.
         66    2    3    3    0    0  0.34676565178E+02 -0.15513977287E+02 -0.28015462728E+02  0.47244193478E+02  0.20000004445E+01 0.  0.
        -13    1    3    3    0    0 -0.34676565178E+02  0.15513977287E+02 -0.12594233411E+01  0.38009801038E+02  0.10566000000E+00 0.  1.
         13    1    4    4    0    0  0.38114914685E+01 -0.12050422054E+01 -0.28948385016E+01  0.49366838988E+01  0.10566000000E+00 0.  1.
        -13    1    4    4    0    0  0.37750405436E+01 -0.19765954220E+01 -0.35678946769E+01  0.55586776331E+01  0.10566000000E+00 0. -1.
         14    1    4    4    0    0  0.27090033165E+02 -0.12332339659E+02 -0.21552729549E+02  0.36748831946E+02  0.00000000000E+00 0. -1.
<mgrwt>
<rscale>  0 0.80070123E+02</rscale>
<asrwt>0</asrwt>
<pdfrwt beam="1">  1        2 0.88099138E-02 0.80070123E+02</pdfrwt>
<pdfrwt beam="2">  1       -1 0.43060853E-02 0.80070123E+02</pdfrwt>
<totfact> 0.15363903E+05</totfact>
</mgrwt>
</event>
<event>
 8    1  0.2603554E-016  0.8133656E+02  0.7818608E-02  0.1325301E+00
         -1   -1    0    0    0  501 -0.00000000000E+00  0.00000000000E+00  0.77918001866E+00  0.77919631871E+00  0.50400000000E-02 0.  1.
          2   -1    0    0  501    0  0.00000000000E+00 -0.00000000000E+00 -0.21226056044E+04  0.21226056044E+04  0.25500000000E-02 0. -1.
         24    2    1    2    0    0 -0.44408920985E-15 -0.17763568394E-14 -0.21218264244E+04  0.21233848008E+04  0.81336564514E+02 0.  0.
         66    2    3    3    0    0 -0.29850599687E+01  0.12690439538E+02 -0.20665368209E+04  0.20665789097E+04  0.20000000978E+01 0.  0.
        -13    1    3    3    0    0  0.29850599687E+01 -0.12690439538E+02 -0.55289603505E+02  0.56805891055E+02  0.10566000000E+00 0.  1.
         13    1    4    4    0    0  0.16952504092E+00  0.19086126841E+01 -0.32899529567E+03  0.32900089252E+03  0.10566000000E+00 0. -1.
        -13    1    4    4    0    0 -0.26708328648E+01  0.95136778990E+01 -0.14898124468E+04  0.14898452206E+04  0.10566000000E+00 0.  1.
        -14    1    4    4    0    0 -0.48375214477E+00  0.12681489547E+01 -0.24772907844E+03  0.24773279662E+03  0.00000000000E+00 0.  1.
<mgrwt>
<rscale>  0 0.81336565E+02</rscale>
<asrwt>0</asrwt>
<pdfrwt beam="1">  1        2 0.32655008E+00 0.81336565E+02</pdfrwt>
<pdfrwt beam="2">  1       -1 0.11987680E-03 0.81336565E+02</pdfrwt>
<totfact> 0.25042210E+05</totfact>
</mgrwt>
</event>
<event>
 8    1  0.2603554E-016  0.7818229E+02  0.7818608E-02  0.1334290E+00
          2   -1    0    0  501    0  0.00000000000E+00  0.00000000000E+00  0.78338792627E+02  0.78338792668E+02  0.25500000000E-02 0. -1.
         -1   -1    0    0    0  501 -0.00000000000E+00 -0.00000000000E+00 -0.19506523663E+02  0.19506524314E+02  0.50400000000E-02 0.  1.
         24    2    1    2    0    0  0.00000000000E+00  0.00000000000E+00  0.58832268964E+02  0.97845316982E+02  0.78182288172E+02 0.  0.
         66    2    3    3    0    0 -0.20778449899E+02 -0.16794607708E+02  0.65104460152E+02  0.70401658796E+02  0.20000003206E+01 0.  0.
        -13    1    3    3    0    0  0.20778449899E+02  0.16794607708E+02 -0.62721911877E+01  0.27443658186E+02  0.10566000000E+00 0.  1.
         13    1    4    4    0    0 -0.55564312473E+01 -0.43406868765E+01  0.16474110270E+02  0.17919904129E+02  0.10566000000E+00 0. -1.
        -13    1    4    4    0    0 -0.73383871639E+01 -0.53996754974E+01  0.24244980071E+02  0.25900552973E+02  0.10566000000E+00 0.  1.
         14    1    4    4    0    0 -0.78836314882E+01 -0.70542453341E+01  0.24385369811E+02  0.26581201694E+02  0.00000000000E+00 0. -1.
<mgrwt>
<rscale>  0 0.78182288E+02</rscale>
<asrwt>0</asrwt>
<pdfrwt beam="1">  1        2 0.12052122E-01 0.78182288E+02</pdfrwt>
<pdfrwt beam="2">  1       -1 0.30010037E-02 0.78182288E+02</pdfrwt>
<totfact> 0.17666838E+05</totfact>
</mgrwt>
</event>
<event>
 8    1  0.2603554E-016  0.8042255E+02  0.7818608E-02  0.1327857E+00
          2   -1    0    0  501    0  0.00000000000E+00  0.00000000000E+00  0.85847335240E+02  0.85847335277E+02  0.25500000000E-02 0. -1.
         -1   -1    0    0    0  501 -0.00000000000E+00 -0.00000000000E+00 -0.18835142285E+02  0.18835142959E+02  0.50400000000E-02 0.  1.
         24    2    1    2    0    0  0.00000000000E+00  0.00000000000E+00  0.67012192955E+02  0.10468247824E+03  0.80422554331E+02 0.  0.
         66    2    3    3    0    0  0.22886722186E+02  0.19270239127E+02  0.68448940977E+02  0.74728854460E+02  0.19999999070E+01 0.  0.
        -13    1    3    3    0    0 -0.22886722186E+02 -0.19270239127E+02 -0.14367480222E+01  0.29953623777E+02  0.10566000000E+00 0.  1.
         13    1    4    4    0    0  0.11405632253E+02  0.98055415275E+01  0.32543210393E+02  0.35851203585E+02  0.10566000000E+00 0. -1.
        -13    1    4    4    0    0  0.94472268452E+01  0.73582602412E+01  0.29235563501E+02  0.31593091430E+02  0.10566000000E+00 0.  1.
        -14    1    4    4    0    0  0.20338630881E+01  0.21064373580E+01  0.66701670825E+01  0.72845594453E+01  0.00000000000E+00 0.  1.
<mgrwt>
<rscale>  0 0.80422554E+02</rscale>
<asrwt>0</asrwt>
<pdfrwt beam="1">  1        2 0.13207283E-01 0.80422554E+02</pdfrwt>
<pdfrwt beam="2">  1       -1 0.28977142E-02 0.80422554E+02</pdfrwt>
<totfact> 0.16765900E+05</totfact>
</mgrwt>
</event>
<event>
 8    1  0.2603554E-016  0.7906724E+02  0.7818608E-02  0.1331719E+00
          2   -1    0    0  501    0  0.00000000000E+00  0.00000000000E+00  0.19505163898E+02  0.19505164065E+02  0.25500000000E-02 0. -1.
         -1   -1    0    0    0  501 -0.00000000000E+00 -0.00000000000E+00 -0.80127864211E+02  0.80127864370E+02  0.50400000000E-02 0.  1.
         24    2    1    2    0    0  0.00000000000E+00  0.00000000000E+00 -0.60622700313E+02  0.99633028435E+02  0.79067240763E+02 0.  0.
         66    2    3    3    0    0 -0.16104637941E+02 -0.34140587157E+02 -0.45023922636E+02  0.58788541859E+02  0.19999974203E+01 0.  0.
        -13    1    3    3    0    0  0.16104637941E+02  0.34140587157E+02 -0.15598777676E+02  0.40844486576E+02  0.10566000000E+00 0.  1.
         13    1    4    4    0    0 -0.36820057791E+01 -0.61362169059E+01 -0.82877515377E+01  0.10950265479E+02  0.10566000000E+00 0.  1.
        -13    1    4    4    0    0 -0.16531798600E+01 -0.32974718033E+01 -0.44720778861E+01  0.57980141944E+01  0.10566000000E+00 0. -1.
        -14    1    4    4    0    0 -0.10769452302E+02 -0.24706898448E+02 -0.32264093213E+02  0.42040262185E+02  0.00000000000E+00 0.  1.
<mgrwt>
<rscale>  0 0.79067241E+02</rscale>
<asrwt>0</asrwt>
<pdfrwt beam="1">  1        2 0.30007945E-02 0.79067241E+02</pdfrwt>
<pdfrwt beam="2">  1       -1 0.12327364E-01 0.79067241E+02</pdfrwt>
<totfact> 0.12776232E+05</totfact>
</mgrwt>
</event>
<event>
 8    1  0.2603554E-016  0.8093063E+02  0.7818608E-02  0.1326431E+00
         -1   -1    0    0    0  501 -0.00000000000E+00  0.00000000000E+00  0.29113841522E+02  0.29113841959E+02  0.50400000000E-02 0.  1.
          2   -1    0    0  501    0  0.00000000000E+00 -0.00000000000E+00 -0.56242725553E+02  0.56242725611E+02  0.25500000000E-02 0. -1.
         24    2    1    2    0    0  0.00000000000E+00 -0.71054273576E-14 -0.27128884031E+02  0.85356567570E+02  0.80930632510E+02 0.  0.
         66    2    3    3    0    0  0.38997123013E+01 -0.39140987968E+02 -0.23478472258E+02  0.45852626433E+02  0.19999990380E+01 0.  0.
        -13    1    3    3    0    0 -0.38997123013E+01  0.39140987968E+02 -0.36504117736E+01  0.39503941136E+02  0.10566000000E+00 0.  1.
         13    1    4    4    0    0  0.18053472861E+01 -0.19039557841E+02 -0.11227495035E+02  0.22177282304E+02  0.10566000000E+00 0. -1.
        -13    1    4    4    0    0  0.12273428515E+01 -0.98670685265E+01 -0.52425235171E+01  0.11241024359E+02  0.10566000000E+00 0.  1.
        -14    1    4    4    0    0  0.86702216372E+00 -0.10234361601E+02 -0.70084537049E+01  0.12434319770E+02  0.00000000000E+00 0.  1.
<mgrwt>
<rscale>  0 0.80930633E+02</rscale>
<asrwt>0</asrwt>
<pdfrwt beam="1">  1        2 0.86527270E-02 0.80930633E+02</pdfrwt>
<pdfrwt beam="2">  1       -1 0.44790526E-02 0.80930633E+02</pdfrwt>
<totfact> 0.14861287E+05</totfact>
</mgrwt>
</event>
<event>
 8    1  0.2603554E-016  0.7874580E+02  0.7818608E-02  0.1332649E+00
          2   -1    0    0  501    0  0.00000000000E+00  0.00000000000E+00  0.16634685935E+04  0.16634685935E+04  0.25500000000E-02 0. -1.
         -1   -1    0    0    0  501 -0.00000000000E+00 -0.00000000000E+00 -0.93191654380E+00  0.93193017239E+00  0.50400000000E-02 0.  1.
         24    2    1    2    0    0  0.17763568394E-14 -0.55511151231E-16  0.16625366769E+04  0.16644005237E+04  0.78745799779E+02 0.  0.
         66    2    3    3    0    0 -0.13022348956E+02  0.37652285194E+00  0.16165567306E+04  0.16166104623E+04  0.19999994090E+01 0.  0.
        -13    1    3    3    0    0  0.13022348956E+02 -0.37652285194E+00  0.45979946296E+02  0.47790061386E+02  0.10566000000E+00 0.  1.
         13    1    4    4    0    0 -0.51233083677E+01  0.22600150760E+00  0.72356070163E+03  0.72357888269E+03  0.10566000000E+00 0. -1.
        -13    1    4    4    0    0 -0.61857753267E+01  0.34804161734E+00  0.65539735086E+03  0.65542664245E+03  0.10566000000E+00 0.  1.
        -14    1    4    4    0    0 -0.17132652620E+01 -0.19752027300E+00  0.23759867814E+03  0.23760493712E+03  0.00000000000E+00 0.  1.
<mgrwt>
<rscale>  0 0.78745800E+02</rscale>
<asrwt>0</asrwt>
<pdfrwt beam="1">  1        2 0.25591509E+00 0.78745800E+02</pdfrwt>
<pdfrwt beam="2">  1       -1 0.14337459E-03 0.78745800E+02</pdfrwt>
<totfact> 0.33048864E+05</totfact>
</mgrwt>
</event>
<event>
 8    1  0.2603554E-016  0.8006366E+02  0.7818608E-02  0.1328871E+00
         -1   -1    0    0    0  501 -0.00000000000E+00  0.00000000000E+00  0.34491603148E+02  0.34491603517E+02  0.50400000000E-02 0.  1.
          2   -1    0    0  501    0  0.00000000000E+00 -0.00000000000E+00 -0.46461956779E+02  0.46461956849E+02  0.25500000000E-02 0. -1.
         24    2    1    2    0    0 -0.22204460493E-15  0.35527136788E-14 -0.11970353630E+02  0.80953560365E+02  0.80063659483E+02 0.  0.
         66    2    3    3    0    0 -0.17209651939E+01 -0.25236908638E+02 -0.37328230675E+02  0.45136017581E+02  0.19999997341E+01 0.  0.
        -13    1    3    3    0    0  0.17209651939E+01  0.25236908638E+02  0.25357877045E+02  0.35817542784E+02  0.10566000000E+00 0.  1.
         13    1    4    4    0    0  0.17781680196E+00 -0.84941118315E+01 -0.11682809874E+02  0.14445787109E+02  0.10566000000E+00 0. -1.
        -13    1    4    4    0    0 -0.30978430305E+00 -0.33652805340E+01 -0.54669687690E+01  0.64280627676E+01  0.10566000000E+00 0.  1.
         14    1    4    4    0    0 -0.15889976928E+01 -0.13377516273E+02 -0.20178452032E+02  0.24262167704E+02  0.00000000000E+00 0. -1.
<mgrwt>
<rscale>  0 0.80063659E+02</rscale>
<asrwt>0</asrwt>
<pdfrwt beam="1">  1        2 0.71479933E-02 0.80063659E+02</pdfrwt>
<pdfrwt beam="2">  1       -1 0.53064006E-02 0.80063659E+02</pdfrwt>
<totfact> 0.14676576E+05</totfact>
</mgrwt>
</event>
<event>
 8    1  0.2603554E-016  0.8003149E+02  0.7818608E-02  0.1328962E+00
         -1   -1    0    0    0  501 -0.00000000000E+00  0.00000000000E+00  0.30256723208E+01  0.30256765185E+01  0.50400000000E-02 0.  1.
          2   -1    0    0  501    0  0.00000000000E+00 -0.00000000000E+00 -0.52922407749E+03  0.52922407749E+03  0.25500000000E-02 0. -1.
         24    2    1    2    0    0 -0.17763568394E-14  0.00000000000E+00 -0.52619840517E+03  0.53224975401E+03  0.80031487840E+02 0.  0.
         66    2    3    3    0    0 -0.15220896147E+02  0.26603087705E+02 -0.43409881136E+03  0.43518407368E+03  0.20000013615E+01 0.  0.
        -13    1    3    3    0    0  0.15220896147E+02 -0.26603087705E+02 -0.92099593803E+02  0.97065680328E+02  0.10566000000E+00 0.  1.
         13    1    4    4    0    0 -0.67066235285E+01  0.10475557292E+02 -0.17428688601E+03  0.17473020889E+03  0.10566000000E+00 0. -1.
        -13    1    4    4    0    0 -0.79733218519E+01  0.15271103803E+02 -0.24863711119E+03  0.24923323353E+03  0.10566000000E+00 0.  1.
        -14    1    4    4    0    0 -0.54095076629E+00  0.85642660986E+00 -0.11174814160E+02  0.11220631256E+02  0.00000000000E+00 0.  1.
<mgrwt>
<rscale>  0 0.80031488E+02</rscale>
<asrwt>0</asrwt>
<pdfrwt beam="1">  1        2 0.81419015E-01 0.80031488E+02</pdfrwt>
<pdfrwt beam="2">  1       -1 0.46548879E-03 0.80031488E+02</pdfrwt>
<totfact> 0.30966261E+05</totfact>
</mgrwt>
</event>
<event>
 8    1  0.2603554E-016  0.8017958E+02  0.7818608E-02  0.1328543E+00
         -1   -1    0    0    0  501 -0.00000000000E+00  0.00000000000E+00  0.60987132420E+01  0.60987153246E+01  0.50400000000E-02 0.  1.
          2   -1    0    0  501    0  0.00000000000E+00 -0.00000000000E+00 -0.26352954676E+03  0.26352954677E+03  0.25500000000E-02 0. -1.
         24    2    1    2    0    0  0.00000000000E+00  0.00000000000E+00 -0.25743083351E+03  0.26962826209E+03  0.80179583907E+02 0.  0.
         66    2    3    3    0    0  0.74944090049E+01 -0.33073770596E+02 -0.57052703112E+02  0.66400688237E+02  0.19999995599E+01 0.  0.
        -13    1    3    3    0    0 -0.74944090049E+01  0.33073770596E+02 -0.20037813040E+03  0.20322757386E+03  0.10566000000E+00 0.  1.
         13    1    4    4    0    0  0.26099219830E+01 -0.10678256618E+02 -0.18307827822E+02  0.21354732046E+02  0.10566000000E+00 0. -1.
        -13    1    4    4    0    0  0.35011903033E+01 -0.18055380420E+02 -0.30098172935E+02  0.35272741228E+02  0.10566000000E+00 0.  1.
         14    1    4    4    0    0  0.13832967186E+01 -0.43401335578E+01 -0.86467023545E+01  0.97732149633E+01  0.00000000000E+00 0. -1.
<mgrwt>
<rscale>  0 0.80179584E+02</rscale>
<asrwt>0</asrwt>
<pdfrwt beam="1">  1        2 0.40542999E-01 0.80179584E+02</pdfrwt>
<pdfrwt beam="2">  1       -1 0.93826394E-03 0.80179584E+02</pdfrwt>
<totfact> 0.24182621E+05</totfact>
</mgrwt>
</event>
<event>
 8    1  0.2603554E-016  0.7633906E+02  0.7818608E-02  0.1339774E+00
          2   -1    0    0  501    0  0.00000000000E+00  0.00000000000E+00  0.40277619745E+03  0.40277619746E+03  0.25500000000E-02 0. -1.
         -1   -1    0    0    0  501 -0.00000000000E+00 -0.00000000000E+00 -0.36171756358E+01  0.36171791470E+01  0.50400000000E-02 0.  1.
         24    2    1    2    0    0 -0.35527136788E-14 -0.35527136788E-14  0.39915902182E+03  0.40639337661E+03  0.76339058502E+02 0.  0.
         66    2    3    3    0    0  0.23595833742E+02  0.18104351972E+02  0.32685572655E+03  0.32821212181E+03  0.19999995622E+01 0.  0.
        -13    1    3    3    0    0 -0.23595833742E+02 -0.18104351972E+02  0.72303295271E+02  0.78181254796E+02  0.10566000000E+00 0.  1.
         13    1    4    4    0    0  0.10251011310E+02  0.70808046211E+01  0.13956284014E+03  0.14011787373E+03  0.10566000000E+00 0. -1.
        -13    1    4    4    0    0  0.37166409299E+01  0.34509035509E+01  0.50633660007E+02  0.50887138304E+02  0.10566000000E+00 0.  1.
        -14    1    4    4    0    0  0.96281815026E+01  0.75726438005E+01  0.13665922640E+03  0.13720710977E+03  0.00000000000E+00 0.  1.
<mgrwt>
<rscale>  0 0.76339059E+02</rscale>
<asrwt>0</asrwt>
<pdfrwt beam="1">  1        2 0.61965571E-01 0.76339059E+02</pdfrwt>
<pdfrwt beam="2">  1       -1 0.55648881E-03 0.76339059E+02</pdfrwt>
<totfact> 0.31999018E+05</totfact>
</mgrwt>
</event>
<event>
 8    1  0.2603554E-016  0.7993464E+02  0.7818608E-02  0.1329237E+00
         -1   -1    0    0    0  501 -0.00000000000E+00  0.00000000000E+00  0.34870107640E+01  0.34870144063E+01  0.50400000000E-02 0.  1.
          2   -1    0    0  501    0  0.00000000000E+00 -0.00000000000E+00 -0.45809599107E+03  0.45809599108E+03  0.25500000000E-02 0. -1.
         24    2    1    2    0    0  0.00000000000E+00  0.00000000000E+00 -0.45460898031E+03  0.46158300549E+03  0.79934635649E+02 0.  0.
         66    2    3    3    0    0 -0.38025751067E+02  0.10262520990E+02 -0.26579556397E+03  0.26870533846E+03  0.20000032780E+01 0.  0.
        -13    1    3    3    0    0  0.38025751067E+02 -0.10262520990E+02 -0.18881341634E+03  0.19287766702E+03  0.10566000000E+00 0.  1.
         13    1    4    4    0    0 -0.69969652620E+01  0.21035901102E+01 -0.54278876113E+02  0.54768514407E+02  0.10566000000E+00 0.  1.
        -13    1    4    4    0    0 -0.15523769697E+02  0.38980301928E+01 -0.10681839199E+03  0.10801093508E+03  0.10566000000E+00 0. -1.
        -14    1    4    4    0    0 -0.15505016108E+02  0.42609006869E+01 -0.10469829586E+03  0.10592588898E+03  0.00000000000E+00 0.  1.
<mgrwt>
<rscale>  0 0.79934636E+02</rscale>
<asrwt>0</asrwt>
<pdfrwt beam="1">  1        2 0.70476259E-01 0.79934636E+02</pdfrwt>
<pdfrwt beam="2">  1       -1 0.53646384E-03 0.79934636E+02</pdfrwt>
<totfact> 0.29657573E+05</totfact>
</mgrwt>
</event>
<event>
 8    1  0.2603554E-016  0.8063012E+02  0.7818608E-02  0.1327273E+00
         -1   -1    0    0    0  501 -0.00000000000E+00  0.00000000000E+00  0.48681320319E+01  0.48681346408E+01  0.50400000000E-02 0.  1.
          2   -1    0    0  501    0  0.00000000000E+00 -0.00000000000E+00 -0.33386596143E+03  0.33386596144E+03  0.25500000000E-02 0. -1.
         24    2    1    2    0    0  0.71054273576E-14  0.00000000000E+00 -0.32899782940E+03  0.33873409608E+03  0.80630119055E+02 0.  0.
         66    2    3    3    0    0  0.37546733016E+02 -0.12288013544E+02 -0.13137495552E+03  0.13720106187E+03  0.20000003532E+01 0.  0.
        -13    1    3    3    0    0 -0.37546733016E+02  0.12288013544E+02 -0.19762287387E+03  0.20153303421E+03  0.10566000000E+00 0.  1.
         13    1    4    4    0    0  0.14806617862E+02 -0.45683128796E+01 -0.51055189379E+02  0.53354933620E+02  0.10566000000E+00 0. -1.
        -13    1    4    4    0    0  0.59251997400E+01 -0.13495650522E+01 -0.20706180791E+02  0.21579768413E+02  0.10566000000E+00 0.  1.
        -14    1    4    4    0    0  0.16814915414E+02 -0.63701356125E+01 -0.59613585355E+02  0.62266359834E+02  0.00000000000E+00 0.  1.
<mgrwt>
<rscale>  0 0.80630119E+02</rscale>
<asrwt>0</asrwt>
<pdfrwt beam="1">  1        2 0.51363976E-01 0.80630119E+02</pdfrwt>
<pdfrwt beam="2">  1       -1 0.74894386E-03 0.80630119E+02</pdfrwt>
<totfact> 0.25958902E+05</totfact>
</mgrwt>
</event>
<event>
 8    1  0.2603554E-016  0.7996806E+02  0.7818608E-02  0.1329142E+00
         -1   -1    0    0    0  501 -0.00000000000E+00  0.00000000000E+00  0.70670065676E+02  0.70670065856E+02  0.50400000000E-02 0.  1.
          2   -1    0    0  501    0  0.00000000000E+00 -0.00000000000E+00 -0.22622345237E+02  0.22622345380E+02  0.25500000000E-02 0. -1.
         24    2    1    2    0    0 -0.44408920985E-15  0.71054273576E-14  0.48047720439E+02  0.93292411236E+02  0.79968059592E+02 0.  0.
         66    2    3    3    0    0 -0.35437550305E+01  0.36192950244E+02  0.47197356040E+01  0.36725519144E+02  0.20000012751E+01 0.  0.
        -13    1    3    3    0    0  0.35437550305E+01 -0.36192950244E+02  0.43327984835E+02  0.56566892092E+02  0.10566000000E+00 0.  1.
         13    1    4    4    0    0 -0.13435171459E+01  0.74261649319E+01  0.14328516753E+01  0.76822647621E+01  0.10566000000E+00 0. -1.
        -13    1    4    4    0    0 -0.14121300605E+00  0.33418499138E+01  0.27217954707E+00  0.33575508486E+01  0.10566000000E+00 0.  1.
         14    1    4    4    0    0 -0.20590248786E+01  0.25424935398E+02  0.30147043816E+01  0.25685703533E+02  0.00000000000E+00 0. -1.
<mgrwt>
<rscale>  0 0.79968060E+02</rscale>
<asrwt>0</asrwt>
<pdfrwt beam="1">  1        2 0.34803608E-02 0.79968060E+02</pdfrwt>
<pdfrwt beam="2">  1       -1 0.10872318E-01 0.79968060E+02</pdfrwt>
<totfact> 0.12740574E+05</totfact>
</mgrwt>
</event>
<event>
 8    1  0.2603554E-016  0.8081534E+02  0.7818608E-02  0.1326753E+00
          2   -1    0    0  501    0  0.00000000000E+00  0.00000000000E+00  0.85445465040E+02  0.85445465078E+02  0.25500000000E-02 0. -1.
         -1   -1    0    0    0  501 -0.00000000000E+00 -0.00000000000E+00 -0.19109025379E+02  0.19109026044E+02  0.50400000000E-02 0.  1.
         24    2    1    2    0    0  0.00000000000E+00  0.00000000000E+00  0.66336439661E+02  0.10455449112E+03  0.80815335097E+02 0.  0.
         66    2    3    3    0    0  0.29257581095E+02  0.19327630635E+02  0.72744162991E+01  0.35867540941E+02  0.20000008036E+01 0.  0.
        -13    1    3    3    0    0 -0.29257581095E+02 -0.19327630635E+02  0.59062023362E+02  0.68686950180E+02  0.10566000000E+00 0.  1.
         13    1    4    4    0    0  0.12658057310E+02  0.92143430359E+01  0.31083338844E+01  0.15962563579E+02  0.10566000000E+00 0. -1.
        -13    1    4    4    0    0  0.12689106803E+01  0.98151465984E+00  0.15231564009E+00  0.16148899133E+01  0.10566000000E+00 0.  1.
         14    1    4    4    0    0  0.15330613104E+02  0.91317729393E+01  0.40137667747E+01  0.18290087449E+02  0.00000000000E+00 0. -1.
<mgrwt>
<rscale>  0 0.80815335E+02</rscale>
<asrwt>0</asrwt>
<pdfrwt beam="1">  1        2 0.13145456E-01 0.80815335E+02</pdfrwt>
<pdfrwt beam="2">  1       -1 0.29398501E-02 0.80815335E+02</pdfrwt>
<totfact> 0.16526834E+05</totfact>
</mgrwt>
</event>
<event>
 8    1  0.2603554E-016  0.8004749E+02  0.7818608E-02  0.1328917E+00
          2   -1    0    0  501    0  0.00000000000E+00  0.00000000000E+00  0.13095893100E+02  0.13095893348E+02  0.25500000000E-02 0. -1.
         -1   -1    0    0    0  501 -0.00000000000E+00 -0.00000000000E+00 -0.12232079182E+03  0.12232079192E+03  0.50400000000E-02 0.  1.
         24    2    1    2    0    0  0.00000000000E+00 -0.44408920985E-15 -0.10922489872E+03  0.13541668527E+03  0.80047486840E+02 0.  0.
         66    2    3    3    0    0  0.35625582324E+02 -0.30351045322E+01 -0.24313422376E+02  0.43284367628E+02  0.19999994615E+01 0.  0.
        -13    1    3    3    0    0 -0.35625582324E+02  0.30351045322E+01 -0.84911476344E+02  0.92132317644E+02  0.10566000000E+00 0.  1.
         13    1    4    4    0    0  0.23341655347E+02 -0.23565399065E+01 -0.16657591809E+02  0.28772776779E+02  0.10566000000E+00 0. -1.
        -13    1    4    4    0    0  0.93860342953E+01 -0.28302028691E+00 -0.55596827124E+01  0.10913247737E+02  0.10566000000E+00 0.  1.
         14    1    4    4    0    0  0.28978926819E+01 -0.39554433879E+00 -0.20961478551E+01  0.35983431118E+01  0.00000000000E+00 0. -1.
<mgrwt>
<rscale>  0 0.80047487E+02</rscale>
<asrwt>0</asrwt>
<pdfrwt beam="1">  1        2 0.20147529E-02 0.80047487E+02</pdfrwt>
<pdfrwt beam="2">  1       -1 0.18818583E-01 0.80047487E+02</pdfrwt>
<totfact> 0.11317536E+05</totfact>
</mgrwt>
</event>
<event>
 8    1  0.2603554E-016  0.7878228E+02  0.7818608E-02  0.1332543E+00
         -1   -1    0    0    0  501 -0.00000000000E+00  0.00000000000E+00  0.22776907616E+01  0.22776963378E+01  0.50400000000E-02 0.  1.
          2   -1    0    0  501    0  0.00000000000E+00 -0.00000000000E+00 -0.68124269637E+03  0.68124269637E+03  0.25500000000E-02 0. -1.
         24    2    1    2    0    0  0.00000000000E+00 -0.35527136788E-14 -0.67896500561E+03  0.68352039271E+03  0.78782284894E+02 0.  0.
         66    2    3    3    0    0  0.14841082721E+02 -0.14848396911E+02 -0.62861821295E+03  0.62897185174E+03  0.20000006525E+01 0.  0.
        -13    1    3    3    0    0 -0.14841082721E+02  0.14848396911E+02 -0.50346792659E+02  0.54548540973E+02  0.10566000000E+00 0.  1.
         13    1    4    4    0    0  0.11194628629E+02 -0.10952382194E+02 -0.46760504942E+03  0.46786725446E+03  0.10566000000E+00 0. -1.
        -13    1    4    4    0    0  0.33149179859E+01 -0.33888736396E+01 -0.14984902278E+03  0.14992402722E+03  0.10566000000E+00 0.  1.
        -14    1    4    4    0    0  0.33153610587E+00 -0.50714107701E+00 -0.11164140744E+02  0.11180570058E+02  0.00000000000E+00 0.  1.
<mgrwt>
<rscale>  0 0.78782285E+02</rscale>
<asrwt>0</asrwt>
<pdfrwt beam="1">  1        2 0.10480641E+00 0.78782285E+02</pdfrwt>
<pdfrwt beam="2">  1       -1 0.35041494E-03 0.78782285E+02</pdfrwt>
<totfact> 0.34591266E+05</totfact>
</mgrwt>
</event>
<event>
 8    1  0.2603554E-016  0.7735471E+02  0.7818608E-02  0.1336731E+00
          2   -1    0    0  501    0  0.00000000000E+00  0.00000000000E+00  0.36848881454E+03  0.36848881455E+03  0.25500000000E-02 0. -1.
         -1   -1    0    0    0  501 -0.00000000000E+00 -0.00000000000E+00 -0.40596539693E+01  0.40596570979E+01  0.50400000000E-02 0.  1.
         24    2    1    2    0    0  0.55511151231E-16  0.00000000000E+00  0.36442916057E+03  0.37254847165E+03  0.77354706722E+02 0.  0.
         66    2    3    3    0    0  0.10848763538E+00  0.17612239386E+02  0.34803599352E+03  0.34848709521E+03  0.20000005394E+01 0.  0.
        -13    1    3    3    0    0 -0.10848763538E+00 -0.17612239386E+02  0.16393167058E+02  0.24061376436E+02  0.10566000000E+00 0.  1.
         13    1    4    4    0    0  0.28387034334E+00  0.10876825808E+02  0.20732992795E+03  0.20761525982E+03  0.10566000000E+00 0.  1.
        -13    1    4    4    0    0  0.45801293917E+00  0.20012691737E+01  0.42442786128E+02  0.42492541846E+02  0.10566000000E+00 0. -1.
        -14    1    4    4    0    0 -0.63339564714E+00  0.47341444050E+01  0.98263279434E+02  0.98379293545E+02  0.00000000000E+00 0.  1.
<mgrwt>
<rscale>  0 0.77354707E+02</rscale>
<asrwt>0</asrwt>
<pdfrwt beam="1">  1        2 0.56690578E-01 0.77354707E+02</pdfrwt>
<pdfrwt beam="2">  1       -1 0.62456249E-03 0.77354707E+02</pdfrwt>
<totfact> 0.29965512E+05</totfact>
</mgrwt>
</event>
<event>
 8    1  0.2603554E-016  0.7947018E+02  0.7818608E-02  0.1330562E+00
          2   -1    0    0  501    0  0.00000000000E+00  0.00000000000E+00  0.17889644862E+02  0.17889645044E+02  0.25500000000E-02 0. -1.
         -1   -1    0    0    0  501 -0.00000000000E+00 -0.00000000000E+00 -0.88256502266E+02  0.88256502410E+02  0.50400000000E-02 0.  1.
         24    2    1    2    0    0  0.00000000000E+00  0.00000000000E+00 -0.70366857404E+02  0.10614614745E+03  0.79470183078E+02 0.  0.
         66    2    3    3    0    0 -0.33862158724E+02  0.96161775801E+01 -0.10658477237E+02  0.36833677501E+02  0.19999991303E+01 0.  0.
        -13    1    3    3    0    0  0.33862158724E+02 -0.96161775801E+01 -0.59708380167E+02  0.69312469953E+02  0.10566000000E+00 0.  1.
         13    1    4    4    0    0 -0.52605694094E+01  0.15870472649E+01 -0.12288010932E+01  0.56314674548E+01  0.10566000000E+00 0. -1.
        -13    1    4    4    0    0 -0.14389823169E+01  0.64130926327E+00 -0.72687385967E+00  0.17382339667E+01  0.10566000000E+00 0.  1.
         14    1    4    4    0    0 -0.27162606998E+02  0.73878210520E+01 -0.87028022836E+01  0.29463976080E+02  0.00000000000E+00 0. -1.
<mgrwt>
<rscale>  0 0.79470183E+02</rscale>
<asrwt>0</asrwt>
<pdfrwt beam="1">  1        2 0.27522531E-02 0.79470183E+02</pdfrwt>
<pdfrwt beam="2">  1       -1 0.13577923E-01 0.79470183E+02</pdfrwt>
<totfact> 0.12370885E+05</totfact>
</mgrwt>
</event>
<event>
 8    1  0.2603554E-016  0.8034783E+02  0.7818608E-02  0.1328067E+00
          2   -1    0    0  501    0  0.00000000000E+00  0.00000000000E+00  0.16844964733E+03  0.16844964735E+03  0.25500000000E-02 0. -1.
         -1   -1    0    0    0  501 -0.00000000000E+00 -0.00000000000E+00 -0.95811622894E+01  0.95811636150E+01  0.50400000000E-02 0.  1.
         24    2    1    2    0    0  0.00000000000E+00  0.17763568394E-14  0.15886848504E+03  0.17803081097E+03  0.80347832041E+02 0.  0.
         66    2    3    3    0    0 -0.34057367549E+02  0.14017395882E+02  0.11490395527E+03  0.12067854236E+03  0.19999947198E+01 0.  0.
        -13    1    3    3    0    0  0.34057367549E+02 -0.14017395882E+02  0.43964529778E+02  0.57352268607E+02  0.10566000000E+00 0.  1.
         13    1    4    4    0    0 -0.60173221714E+01  0.27988857892E+01  0.21849373287E+02  0.22835240416E+02  0.10566000000E+00 0. -1.
        -13    1    4    4    0    0 -0.87804832503E+01  0.40653247771E+01  0.31171928055E+02  0.32639301683E+02  0.10566000000E+00 0.  1.
         14    1    4    4    0    0 -0.19259562128E+02  0.71531853159E+01  0.61882653925E+02  0.65204000263E+02  0.00000000000E+00 0. -1.
<mgrwt>
<rscale>  0 0.80347832E+02</rscale>
<asrwt>0</asrwt>
<pdfrwt beam="1">  1        2 0.25915328E-01 0.80347832E+02</pdfrwt>
<pdfrwt beam="2">  1       -1 0.14740252E-02 0.80347832E+02</pdfrwt>
<totfact> 0.20568082E+05</totfact>
</mgrwt>
</event>
<event>
 8    1  0.2603554E-016  0.8097708E+02  0.7818608E-02  0.1326301E+00
          2   -1    0    0  501    0  0.00000000000E+00  0.00000000000E+00  0.39063279963E+02  0.39063280047E+02  0.25500000000E-02 0. -1.
         -1   -1    0    0    0  501 -0.00000000000E+00 -0.00000000000E+00 -0.41965800645E+02  0.41965800948E+02  0.50400000000E-02 0.  1.
         24    2    1    2    0    0  0.35527136788E-14 -0.35527136788E-14 -0.29025206817E+01  0.81029080994E+02  0.80977079106E+02 0.  0.
         66    2    3    3    0    0  0.21827358974E+02 -0.24219478311E+02  0.22527806317E+02  0.39680206466E+02  0.19999995711E+01 0.  0.
        -13    1    3    3    0    0 -0.21827358974E+02  0.24219478311E+02 -0.25430326999E+02  0.41348874528E+02  0.10566000000E+00 0.  1.
         13    1    4    4    0    0  0.18911305305E+02 -0.20269553779E+02  0.18563386664E+02  0.33363194799E+02  0.10566000000E+00 0. -1.
        -13    1    4    4    0    0  0.18611958076E+01 -0.23763696043E+01  0.23214459468E+01  0.38093907190E+01  0.10566000000E+00 0.  1.
         14    1    4    4    0    0  0.10548578618E+01 -0.15735549281E+01  0.16429737063E+01  0.25076209483E+01  0.00000000000E+00 0. -1.
<mgrwt>
<rscale>  0 0.80977079E+02</rscale>
<asrwt>0</asrwt>
<pdfrwt beam="1">  1        2 0.60097354E-02 0.80977079E+02</pdfrwt>
<pdfrwt beam="2">  1       -1 0.64562771E-02 0.80977079E+02</pdfrwt>
<totfact> 0.13717005E+05</totfact>
</mgrwt>
</event>
<event>
 8    1  0.2603554E-016  0.8001734E+02  0.7818608E-02  0.1329002E+00
          2   -1    0    0  501    0  0.00000000000E+00  0.00000000000E+00  0.27572349104E+03  0.27572349105E+03  0.25500000000E-02 0. -1.
         -1   -1    0    0    0  501 -0.00000000000E+00 -0.00000000000E+00 -0.58054298632E+01  0.58054320509E+01  0.50400000000E-02 0.  1.
         24    2    1    2    0    0  0.00000000000E+00  0.00000000000E+00  0.26991806118E+03  0.28152892310E+03  0.80017340583E+02 0.  0.
         66    2    3    3    0    0  0.24013711806E+02  0.28831864786E+02  0.18363632848E+03  0.18744128660E+03  0.20000005635E+01 0.  0.
        -13    1    3    3    0    0 -0.24013711806E+02 -0.28831864786E+02  0.86281732694E+02  0.94087636502E+02  0.10566000000E+00 0.  1.
         13    1    4    4    0    0  0.10499034297E+02  0.13097803355E+02  0.81617622529E+02  0.83326044219E+02  0.10566000000E+00 0. -1.
        -13    1    4    4    0    0  0.10827608876E+02  0.12769386654E+02  0.79496417672E+02  0.81240297489E+02  0.10566000000E+00 0.  1.
         14    1    4    4    0    0  0.26870686340E+01  0.29646747775E+01  0.22522288282E+02  0.22874944892E+02  0.00000000000E+00 0. -1.
<mgrwt>
<rscale>  0 0.80017341E+02</rscale>
<asrwt>0</asrwt>
<pdfrwt beam="1">  1        2 0.42419014E-01 0.80017341E+02</pdfrwt>
<pdfrwt beam="2">  1       -1 0.89314289E-03 0.80017341E+02</pdfrwt>
<totfact> 0.24712880E+05</totfact>
</mgrwt>
</event>
<event>
 8    1  0.2603554E-016  0.7865161E+02  0.7818608E-02  0.1332922E+00
         -1   -1    0    0    0  501 -0.00000000000E+00  0.00000000000E+00  0.12059935394E+02  0.12059936447E+02  0.50400000000E-02 0.  1.
          2   -1    0    0  501    0  0.00000000000E+00 -0.00000000000E+00 -0.12823607459E+03  0.12823607461E+03  0.25500000000E-02 0. -1.
         24    2    1    2    0    0 -0.17763568394E-14  0.71054273576E-14 -0.11617613919E+03  0.14029601106E+03  0.78651607748E+02 0.  0.
         66    2    3    3    0    0  0.98128642047E+01 -0.34820792259E+02 -0.85512802809E+02  0.92872058887E+02  0.20000000479E+01 0.  0.
        -13    1    3    3    0    0 -0.98128642047E+01  0.34820792259E+02 -0.30663336383E+02  0.47423952172E+02  0.10566000000E+00 0.  1.
         13    1    4    4    0    0  0.30465174471E+01 -0.12366733533E+02 -0.28388311859E+02  0.31114703616E+02  0.10566000000E+00 0.  1.
        -13    1    4    4    0    0  0.35342147004E+01 -0.12857877676E+02 -0.33229829450E+02  0.35805703752E+02  0.10566000000E+00 0. -1.
         14    1    4    4    0    0  0.32321320572E+01 -0.95961810494E+01 -0.23894661500E+02  0.25951651519E+02  0.00000000000E+00 0. -1.
<mgrwt>
<rscale>  0 0.78651608E+02</rscale>
<asrwt>0</asrwt>
<pdfrwt beam="1">  1        2 0.19728626E-01 0.78651608E+02</pdfrwt>
<pdfrwt beam="2">  1       -1 0.18553749E-02 0.78651608E+02</pdfrwt>
<totfact> 0.19948168E+05</totfact>
</mgrwt>
</event>
<event>
 8    1  0.2603554E-016  0.7850140E+02  0.7818608E-02  0.1333359E+00
         -1   -1    0    0    0  501 -0.00000000000E+00  0.00000000000E+00  0.14896493282E+03  0.14896493290E+03  0.50400000000E-02 0.  1.
          2   -1    0    0  501    0  0.00000000000E+00 -0.00000000000E+00 -0.10342149361E+02  0.10342149676E+02  0.25500000000E-02 0. -1.
         24    2    1    2    0    0  0.17763568394E-14 -0.35527136788E-14  0.13862278346E+03  0.15930708258E+03  0.78501404234E+02 0.  0.
         66    2    3    3    0    0  0.42558471625E+01 -0.24499167406E+02  0.77931795625E+01  0.26135321842E+02  0.19999903668E+01 0.  0.
        -13    1    3    3    0    0 -0.42558471625E+01  0.24499167406E+02  0.13082960389E+03  0.13317176074E+03  0.10566000000E+00 0.  1.
         13    1    4    4    0    0  0.17293347436E+01 -0.90263748121E+01  0.22151576860E+01  0.94543179825E+01  0.10566000000E+00 0. -1.
        -13    1    4    4    0    0 -0.13424457632E-01 -0.13591400749E+00  0.91815832705E-01  0.19556844385E+00  0.10566000000E+00 0. -1.
         14    1    4    4    0    0  0.25399368765E+01 -0.15336878586E+02  0.54862060438E+01  0.16485435416E+02  0.00000000000E+00 0. -1.
<mgrwt>
<rscale>  0 0.78501404E+02</rscale>
<asrwt>0</asrwt>
<pdfrwt beam="1">  1        2 0.15910999E-02 0.78501404E+02</pdfrwt>
<pdfrwt beam="2">  1       -1 0.22917683E-01 0.78501404E+02</pdfrwt>
<totfact> 0.11335085E+05</totfact>
</mgrwt>
</event>
<event>
 8    1  0.2603554E-016  0.8188537E+02  0.7818608E-02  0.1323785E+00
         -1   -1    0    0    0  501 -0.00000000000E+00  0.00000000000E+00  0.28672663070E+02  0.28672663513E+02  0.50400000000E-02 0.  1.
          2   -1    0    0  501    0  0.00000000000E+00 -0.00000000000E+00 -0.58463474254E+02  0.58463474310E+02  0.25500000000E-02 0. -1.
         24    2    1    2    0    0  0.00000000000E+00  0.71054273576E-14 -0.29790811184E+02  0.87136137823E+02  0.81885371610E+02 0.  0.
         66    2    3    3    0    0 -0.26942408077E+01  0.40806545719E+02 -0.13450882313E+02  0.43097092119E+02  0.20000017621E+01 0.  0.
        -13    1    3    3    0    0  0.26942408077E+01 -0.40806545719E+02 -0.16339928871E+02  0.44039045705E+02  0.10566000000E+00 0.  1.
         13    1    4    4    0    0 -0.86864416231E+00  0.12767918033E+02 -0.34596039573E+01  0.13257235653E+02  0.10566000000E+00 0. -1.
        -13    1    4    4    0    0 -0.62591188020E+00  0.14922427348E+02 -0.57176273155E+01  0.15992905608E+02  0.10566000000E+00 0.  1.
        -14    1    4    4    0    0 -0.11996847652E+01  0.13116200338E+02 -0.42736510398E+01  0.13846950857E+02  0.00000000000E+00 0.  1.
<mgrwt>
<rscale>  0 0.81885372E+02</rscale>
<asrwt>0</asrwt>
<pdfrwt beam="1">  1        2 0.89943806E-02 0.81885372E+02</pdfrwt>
<pdfrwt beam="2">  1       -1 0.44111790E-02 0.81885372E+02</pdfrwt>
<totfact> 0.14520973E+05</totfact>
</mgrwt>
</event>
<event>
 8    1  0.2603554E-016  0.7901123E+02  0.7818608E-02  0.1331881E+00
         -1   -1    0    0    0  501 -0.00000000000E+00  0.00000000000E+00  0.17001134880E+01  0.17001209585E+01  0.50400000000E-02 0.  1.
          2   -1    0    0  501    0  0.00000000000E+00 -0.00000000000E+00 -0.91799172764E+03  0.91799172765E+03  0.25500000000E-02 0. -1.
         24    2    1    2    0    0  0.00000000000E+00  0.00000000000E+00 -0.91629161416E+03  0.91969184861E+03  0.79011228442E+02 0.  0.
         66    2    3    3    0    0 -0.31545702607E+02  0.20227236007E+01 -0.73376015813E+03  0.73444345761E+03  0.20000007442E+01 0.  0.
        -13    1    3    3    0    0  0.31545702607E+02 -0.20227236007E+01 -0.18253145603E+03  0.18524839100E+03  0.10566000000E+00 0.  1.
         13    1    4    4    0    0 -0.14390587642E+02  0.13969082797E+01 -0.31869702872E+03  0.31902483861E+03  0.10566000000E+00 0. -1.
        -13    1    4    4    0    0 -0.32220229053E+01 -0.43860863082E-01 -0.83297718299E+02  0.83360088731E+02  0.10566000000E+00 0.  1.
         14    1    4    4    0    0 -0.13933092060E+02  0.66967618408E+00 -0.33176541111E+03  0.33205853027E+03  0.00000000000E+00 0. -1.
<mgrwt>
<rscale>  0 0.79011228E+02</rscale>
<asrwt>0</asrwt>
<pdfrwt beam="1">  1        2 0.14122910E+00 0.79011228E+02</pdfrwt>
<pdfrwt beam="2">  1       -1 0.26155723E-03 0.79011228E+02</pdfrwt>
<totfact> 0.36167186E+05</totfact>
</mgrwt>
</event>
<event>
 8    1  0.2603554E-016  0.7423650E+02  0.7818608E-02  0.1346252E+00
          2   -1    0    0  501    0  0.00000000000E+00  0.00000000000E+00  0.22628085597E+03  0.22628085599E+03  0.25500000000E-02 0. -1.
         -1   -1    0    0    0  501 -0.00000000000E+00 -0.00000000000E+00 -0.60887353239E+01  0.60887374099E+01  0.50400000000E-02 0.  1.
         24    2    1    2    0    0  0.71054273576E-14  0.00000000000E+00  0.22019212065E+03  0.23236959340E+03  0.74236500050E+02 0.  0.
         66    2    3    3    0    0  0.35258032539E+02 -0.57853162241E+01  0.14134540187E+03  0.14580508006E+03  0.20000000864E+01 0.  0.
        -13    1    3    3    0    0 -0.35258032539E+02  0.57853162241E+01  0.78846718781E+02  0.86564513335E+02  0.10566000000E+00 0.  1.
         13    1    4    4    0    0  0.68468241719E+01 -0.85680794885E+00  0.28802396568E+02  0.29617601746E+02  0.10566000000E+00 0. -1.
        -13    1    4    4    0    0  0.16202128685E+02 -0.21843391362E+01  0.62271845721E+02  0.64382251008E+02  0.10566000000E+00 0.  1.
        -14    1    4    4    0    0  0.12209079683E+02 -0.27441691390E+01  0.50271159579E+02  0.51805227308E+02  0.00000000000E+00 0.  1.
<mgrwt>
<rscale>  0 0.74236500E+02</rscale>
<asrwt>0</asrwt>
<pdfrwt beam="1">  1        2 0.34812442E-01 0.74236500E+02</pdfrwt>
<pdfrwt beam="2">  1       -1 0.93672861E-03 0.74236500E+02</pdfrwt>
<totfact> 0.28024966E+05</totfact>
</mgrwt>
</event>
<event>
 8    1  0.2603554E-016  0.7931337E+02  0.7818608E-02  0.1331011E+00
         -1   -1    0    0    0  501 -0.00000000000E+00  0.00000000000E+00  0.90863637053E+02  0.90863637193E+02  0.50400000000E-02 0.  1.
          2   -1    0    0  501    0  0.00000000000E+00 -0.00000000000E+00 -0.17307832902E+02  0.17307833090E+02  0.25500000000E-02 0. -1.
         24    2    1    2    0    0 -0.17763568394E-14  0.00000000000E+00  0.73555804151E+02  0.10817147028E+03  0.79313369988E+02 0.  0.
         66    2    3    3    0    0 -0.95996489347E+01  0.16344734658E+02 -0.10666685391E+02  0.21842202248E+02  0.20000027690E+01 0.  0.
        -13    1    3    3    0    0  0.95996489347E+01 -0.16344734658E+02  0.84222489543E+02  0.86329268035E+02  0.10566000000E+00 0.  1.
         13    1    4    4    0    0 -0.28201248586E+01  0.49889228296E+01 -0.41876105568E+01  0.70985703792E+01  0.10566000000E+00 0. -1.
        -13    1    4    4    0    0 -0.45221834525E+01  0.81657790284E+01 -0.44907508037E+01  0.10358962165E+02  0.10566000000E+00 0.  1.
         14    1    4    4    0    0 -0.22573406237E+01  0.31900328002E+01 -0.19883240308E+01  0.43846697035E+01  0.00000000000E+00 0. -1.
<mgrwt>
<rscale>  0 0.79313370E+02</rscale>
<asrwt>0</asrwt>
<pdfrwt beam="1">  1        2 0.26627435E-02 0.79313370E+02</pdfrwt>
<pdfrwt beam="2">  1       -1 0.13979021E-01 0.79313370E+02</pdfrwt>
<totfact> 0.12357001E+05</totfact>
</mgrwt>
</event>
<event>
 8    1  0.2603554E-016  0.8104846E+02  0.7818608E-02  0.1326102E+00
         -1   -1    0    0    0  501 -0.00000000000E+00  0.00000000000E+00  0.83495961453E+02  0.83495961605E+02  0.50400000000E-02 0.  1.
          2   -1    0    0  501    0  0.00000000000E+00 -0.00000000000E+00 -0.19668172884E+02  0.19668173049E+02  0.25500000000E-02 0. -1.
         24    2    1    2    0    0  0.17763568394E-14  0.00000000000E+00  0.63827788570E+02  0.10316413465E+03  0.81048455169E+02 0.  0.
         66    2    3    3    0    0 -0.12186334682E+02 -0.30197815209E+02  0.12839724176E+01  0.32650626025E+02  0.19999995669E+01 0.  0.
        -13    1    3    3    0    0  0.12186334682E+02  0.30197815209E+02  0.62543816152E+02  0.70513508630E+02  0.10566000000E+00 0.  1.
         13    1    4    4    0    0 -0.89151529745E+01 -0.23377363074E+02  0.11828749873E+01  0.25047782619E+02  0.10566000000E+00 0. -1.
        -13    1    4    4    0    0 -0.18839401640E+01 -0.31243590425E+01 -0.80425407188E-01  0.36508193943E+01  0.10566000000E+00 0.  1.
        -14    1    4    4    0    0 -0.13872415438E+01 -0.36960930923E+01  0.18152283749E+00  0.39520240116E+01  0.00000000000E+00 0.  1.
<mgrwt>
<rscale>  0 0.81048455E+02</rscale>
<asrwt>0</asrwt>
<pdfrwt beam="1">  1        2 0.30258727E-02 0.81048455E+02</pdfrwt>
<pdfrwt beam="2">  1       -1 0.12845533E-01 0.81048455E+02</pdfrwt>
<totfact> 0.11918384E+05</totfact>
</mgrwt>
</event>
<event>
 8    1  0.2603554E-016  0.8183108E+02  0.7818608E-02  0.1323934E+00
         -1   -1    0    0    0  501 -0.00000000000E+00  0.00000000000E+00  0.17047943573E+02  0.17047944318E+02  0.50400000000E-02 0.  1.
          2   -1    0    0  501    0  0.00000000000E+00 -0.00000000000E+00 -0.98198425685E+02  0.98198425718E+02  0.25500000000E-02 0. -1.
         24    2    1    2    0    0  0.00000000000E+00  0.00000000000E+00 -0.81150482112E+02  0.11524637004E+03  0.81831076367E+02 0.  0.
         66    2    3    3    0    0  0.39865940956E+02 -0.86988778197E+01 -0.36843445374E+02  0.55012754901E+02  0.20000027904E+01 0.  0.
        -13    1    3    3    0    0 -0.39865940956E+02  0.86988778197E+01 -0.44307036738E+02  0.60233615134E+02  0.10566000000E+00 0.  1.
         13    1    4    4    0    0  0.25391951193E+02 -0.58402360210E+01 -0.24678077326E+02  0.35887020031E+02  0.10566000000E+00 0. -1.
        -13    1    4    4    0    0  0.85145987367E+01 -0.18297878384E+01 -0.70829657193E+01  0.11226133911E+02  0.10566000000E+00 0.  1.
         14    1    4    4    0    0  0.59593910260E+01 -0.10288539603E+01 -0.50824023291E+01  0.78996009587E+01  0.00000000000E+00 0. -1.
<mgrwt>
<rscale>  0 0.81831076E+02</rscale>
<asrwt>0</asrwt>
<pdfrwt beam="1">  1        2 0.15107450E-01 0.81831076E+02</pdfrwt>
<pdfrwt beam="2">  1       -1 0.26227607E-02 0.81831076E+02</pdfrwt>
<totfact> 0.16596945E+05</totfact>
</mgrwt>
</event>
<event>
 8    1  0.2603554E-016  0.8059771E+02  0.7818608E-02  0.1327364E+00
         -1   -1    0    0    0  501 -0.00000000000E+00  0.00000000000E+00  0.54073557010E+01  0.54073580498E+01  0.50400000000E-02 0.  1.
          2   -1    0    0  501    0  0.00000000000E+00 -0.00000000000E+00 -0.30033112550E+03  0.30033112551E+03  0.25500000000E-02 0. -1.
         24    2    1    2    0    0  0.00000000000E+00  0.00000000000E+00 -0.29492376980E+03  0.30573848356E+03  0.80597706776E+02 0.  0.
         66    2    3    3    0    0 -0.28973078686E+02 -0.24427651173E+02 -0.19926555330E+03  0.20284701171E+03  0.20000000769E+01 0.  0.
        -13    1    3    3    0    0  0.28973078686E+02  0.24427651173E+02 -0.95658216502E+02  0.10289147185E+03  0.10566000000E+00 0.  1.
         13    1    4    4    0    0 -0.14307822295E+02 -0.12845470189E+02 -0.97894996446E+02  0.99765532006E+02  0.10566000000E+00 0. -1.
        -13    1    4    4    0    0 -0.21100102637E+01 -0.16728768690E+01 -0.16048714734E+02  0.16273385295E+02  0.10566000000E+00 0.  1.
         14    1    4    4    0    0 -0.12555246127E+02 -0.99093041142E+01 -0.85321842117E+02  0.86808094413E+02  0.00000000000E+00 0. -1.
<mgrwt>
<rscale>  0 0.80597707E+02</rscale>
<asrwt>0</asrwt>
<pdfrwt beam="1">  1        2 0.46204775E-01 0.80597707E+02</pdfrwt>
<pdfrwt beam="2">  1       -1 0.83190130E-03 0.80597707E+02</pdfrwt>
<totfact> 0.25011587E+05</totfact>
</mgrwt>
</event>
<event>
 8    1  0.2603554E-016  0.7940333E+02  0.7818608E-02  0.1330753E+00
         -1   -1    0    0    0  501 -0.00000000000E+00  0.00000000000E+00  0.75155055936E+01  0.75155072836E+01  0.50400000000E-02 0.  1.
          2   -1    0    0  501    0  0.00000000000E+00 -0.00000000000E+00 -0.20972932895E+03  0.20972932897E+03  0.25500000000E-02 0. -1.
         24    2    1    2    0    0  0.00000000000E+00  0.00000000000E+00 -0.20221382336E+03  0.21724483625E+03  0.79403328145E+02 0.  0.
         66    2    3    3    0    0  0.48408071984E+01 -0.91545393399E+01 -0.20596153941E+03  0.20623141060E+03  0.19999999819E+01 0.  0.
        -13    1    3    3    0    0 -0.48408071984E+01  0.91545393399E+01  0.37477160490E+01  0.11013425647E+02  0.10566000000E+00 0.  1.
         13    1    4    4    0    0  0.28348376173E-01 -0.50881778664E+00 -0.13703480682E+02  0.13713360128E+02  0.10566000000E+00 0. -1.
        -13    1    4    4    0    0  0.28365482837E+01 -0.51523279231E+01 -0.10017338782E+03  0.10034595797E+03  0.10566000000E+00 0.  1.
        -14    1    4    4    0    0  0.19759105385E+01 -0.34933936301E+01 -0.92084670901E+02  0.92172092503E+02  0.00000000000E+00 0.  1.
<mgrwt>
<rscale>  0 0.79403328E+02</rscale>
<asrwt>0</asrwt>
<pdfrwt beam="1">  1        2 0.32266046E-01 0.79403328E+02</pdfrwt>
<pdfrwt beam="2">  1       -1 0.11562319E-02 0.79403328E+02</pdfrwt>
<totfact> 0.22873936E+05</totfact>
</mgrwt>
</event>
<event>
 8    1  0.2603554E-016  0.8029164E+02  0.7818608E-02  0.1328226E+00
         -1   -1    0    0    0  501 -0.00000000000E+00  0.00000000000E+00  0.78450524752E+01  0.78450540942E+01  0.50400000000E-02 0.  1.
          2   -1    0    0  501    0  0.00000000000E+00 -0.00000000000E+00 -0.20543988827E+03  0.20543988829E+03  0.25500000000E-02 0. -1.
         24    2    1    2    0    0  0.00000000000E+00 -0.35527136788E-14 -0.19759483580E+03  0.21328494238E+03  0.80291640370E+02 0.  0.
         66    2    3    3    0    0 -0.12058608204E+02  0.20238623088E+02 -0.18512623672E+03  0.18662994242E+03  0.19999965195E+01 0.  0.
        -13    1    3    3    0    0  0.12058608204E+02 -0.20238623088E+02 -0.12468599072E+02  0.26654999966E+02  0.10566000000E+00 0.  1.
         13    1    4    4    0    0 -0.90413692754E+01  0.16497311658E+02 -0.14480021695E+03  0.14601719639E+03  0.10566000000E+00 0. -1.
        -13    1    4    4    0    0 -0.87922276639E+00  0.99799265145E+00 -0.10363488049E+02  0.10449022470E+02  0.10566000000E+00 0.  1.
         14    1    4    4    0    0 -0.21380161624E+01  0.27433187791E+01 -0.29962531726E+02  0.30163723552E+02  0.00000000000E+00 0. -1.
<mgrwt>
<rscale>  0 0.80291640E+02</rscale>
<asrwt>0</asrwt>
<pdfrwt beam="1">  1        2 0.31606133E-01 0.80291640E+02</pdfrwt>
<pdfrwt beam="2">  1       -1 0.12069314E-02 0.80291640E+02</pdfrwt>
<totfact> 0.22052902E+05</totfact>
</mgrwt>
</event>
<event>
 8    1  0.2603554E-016  0.7927368E+02  0.7818608E-02  0.1331125E+00
         -1   -1    0    0    0  501 -0.00000000000E+00  0.00000000000E+00  0.17624346905E+02  0.17624347626E+02  0.50400000000E-02 0.  1.
          2   -1    0    0  501    0  0.00000000000E+00 -0.00000000000E+00 -0.89142538865E+02  0.89142538902E+02  0.25500000000E-02 0. -1.
         24    2    1    2    0    0  0.88817841970E-15  0.00000000000E+00 -0.71518191960E+02  0.10676688653E+03  0.79273679601E+02 0.  0.
         66    2    3    3    0    0  0.57383739041E+01 -0.39120651431E+02 -0.39002853302E+02  0.55574966114E+02  0.19999973615E+01 0.  0.
        -13    1    3    3    0    0 -0.57383739041E+01  0.39120651431E+02 -0.32515338658E+02  0.51191920413E+02  0.10566000000E+00 0.  1.
         13    1    4    4    0    0  0.44672248907E+01 -0.27002581012E+02 -0.26288834680E+02  0.37950091863E+02  0.10566000000E+00 0. -1.
        -13    1    4    4    0    0 -0.50767116642E-01 -0.59801588622E+00 -0.58439307257E+00  0.84432197601E+00  0.10566000000E+00 0.  1.
         14    1    4    4    0    0  0.13219161300E+01 -0.11520054533E+02 -0.12129625550E+02  0.16780552276E+02  0.00000000000E+00 0. -1.
<mgrwt>
<rscale>  0 0.79273680E+02</rscale>
<asrwt>0</asrwt>
<pdfrwt beam="1">  1        2 0.13714237E-01 0.79273680E+02</pdfrwt>
<pdfrwt beam="2">  1       -1 0.27114381E-02 0.79273680E+02</pdfrwt>
<totfact> 0.17602428E+05</totfact>
</mgrwt>
</event>
<event>
 8    1  0.2603554E-016  0.8301131E+02  0.7818608E-02  0.1320717E+00
          2   -1    0    0  501    0  0.00000000000E+00  0.00000000000E+00  0.51643769246E+03  0.51643769246E+03  0.25500000000E-02 0. -1.
         -1   -1    0    0    0  501 -0.00000000000E+00 -0.00000000000E+00 -0.33357723585E+01  0.33357761659E+01  0.50400000000E-02 0.  1.
         24    2    1    2    0    0  0.00000000000E+00  0.35527136788E-14  0.51310192010E+03  0.51977346863E+03  0.83011314181E+02 0.  0.
         66    2    3    3    0    0 -0.27799134915E+02  0.22612886658E+02  0.38752988928E+03  0.38918832157E+03  0.20000036487E+01 0.  0.
        -13    1    3    3    0    0  0.27799134915E+02 -0.22612886658E+02  0.12557203082E+03  0.13058514706E+03  0.10566000000E+00 0.  1.
         13    1    4    4    0    0 -0.18073595315E+02  0.15648708290E+02  0.25343889075E+03  0.25456397905E+03  0.10566000000E+00 0. -1.
        -13    1    4    4    0    0 -0.37752326022E+01  0.26687914369E+01  0.49408833811E+02  0.49624780620E+02  0.10566000000E+00 0.  1.
         14    1    4    4    0    0 -0.59503069982E+01  0.42953869309E+01  0.84682164715E+02  0.84999561900E+02  0.00000000000E+00 0. -1.
<mgrwt>
<rscale>  0 0.83011314E+02</rscale>
<asrwt>0</asrwt>
<pdfrwt beam="1">  1        2 0.79451970E-01 0.83011314E+02</pdfrwt>
<pdfrwt beam="2">  1       -1 0.51319593E-03 0.83011314E+02</pdfrwt>
<totfact> 0.27935345E+05</totfact>
</mgrwt>
</event>
<event>
 8    1  0.2603554E-016  0.8121680E+02  0.7818608E-02  0.1325633E+00
          2   -1    0    0  501    0  0.00000000000E+00  0.00000000000E+00  0.19789861345E+03  0.19789861347E+03  0.25500000000E-02 0. -1.
         -1   -1    0    0    0  501 -0.00000000000E+00 -0.00000000000E+00 -0.83327623080E+01  0.83327638322E+01  0.50400000000E-02 0.  1.
         24    2    1    2    0    0  0.00000000000E+00 -0.88817841970E-15  0.18956585115E+03  0.20623137730E+03  0.81216802839E+02 0.  0.
         66    2    3    3    0    0 -0.11225241460E+02  0.57901189964E+01  0.19277529998E+03  0.19319898498E+03  0.19999982106E+01 0.  0.
        -13    1    3    3    0    0  0.11225241460E+02 -0.57901189964E+01 -0.32094488293E+01  0.13032392323E+02  0.10566000000E+00 0.  1.
         13    1    4    4    0    0 -0.71322897161E+01  0.29317525238E+01  0.11912976910E+03  0.11937913461E+03  0.10566000000E+00 0. -1.
        -13    1    4    4    0    0 -0.35122240189E+01  0.20299470053E+01  0.58575410676E+02  0.58715809645E+02  0.10566000000E+00 0.  1.
        -14    1    4    4    0    0 -0.58072772518E+00  0.82841946723E+00  0.15070120198E+02  0.15104040727E+02  0.00000000000E+00 0.  1.
<mgrwt>
<rscale>  0 0.81216803E+02</rscale>
<asrwt>0</asrwt>
<pdfrwt beam="1">  1        2 0.30445939E-01 0.81216803E+02</pdfrwt>
<pdfrwt beam="2">  1       -1 0.12819636E-02 0.81216803E+02</pdfrwt>
<totfact> 0.21118843E+05</totfact>
</mgrwt>
</event>
<event>
 8    1  0.2603554E-016  0.8963879E+02  0.7818608E-02  0.1303729E+00
         -1   -1    0    0    0  501 -0.00000000000E+00  0.00000000000E+00  0.22407229966E+02  0.22407230532E+02  0.50400000000E-02 0.  1.
          2   -1    0    0  501    0  0.00000000000E+00 -0.00000000000E+00 -0.89648659180E+02  0.89648659216E+02  0.25500000000E-02 0. -1.
         24    2    1    2    0    0  0.00000000000E+00  0.35527136788E-14 -0.67241429215E+02  0.11205588975E+03  0.89638789732E+02 0.  0.
         66    2    3    3    0    0  0.19896925562E+02 -0.18920676270E+02 -0.77885621334E+02  0.82607806157E+02  0.19999975297E+01 0.  0.
        -13    1    3    3    0    0 -0.19896925562E+02  0.18920676270E+02  0.10644192120E+02  0.29448083592E+02  0.10566000000E+00 0.  1.
         13    1    4    4    0    0  0.22983101179E+01 -0.18669162386E+01 -0.91191332198E+01  0.95883971734E+01  0.10566000000E+00 0. -1.
        -13    1    4    4    0    0  0.17492827939E+02 -0.16761327139E+02 -0.68163300012E+02  0.72340775150E+02  0.10566000000E+00 0.  1.
        -14    1    4    4    0    0  0.10578750471E+00 -0.29243289267E+00 -0.60318810269E+00  0.67863383359E+00  0.00000000000E+00 0.  1.
<mgrwt>
<rscale>  0 0.89638790E+02</rscale>
<asrwt>0</asrwt>
<pdfrwt beam="1">  1        2 0.13792101E-01 0.89638790E+02</pdfrwt>
<pdfrwt beam="2">  1       -1 0.34472662E-02 0.89638790E+02</pdfrwt>
<totfact> 0.12644615E+05</totfact>
</mgrwt>
</event>
<event>
 8    1  0.2603554E-016  0.7917476E+02  0.7818608E-02  0.1331410E+00
         -1   -1    0    0    0  501 -0.00000000000E+00  0.00000000000E+00  0.31153389990E+01  0.31153430758E+01  0.50400000000E-02 0.  1.
          2   -1    0    0  501    0  0.00000000000E+00 -0.00000000000E+00 -0.50304622095E+03  0.50304622095E+03  0.25500000000E-02 0. -1.
         24    2    1    2    0    0  0.00000000000E+00  0.00000000000E+00 -0.49993088195E+03  0.50616156403E+03  0.79174757185E+02 0.  0.
         66    2    3    3    0    0  0.10593729532E+02  0.34907066459E+02 -0.34800689039E+03  0.34991931376E+03  0.19999973604E+01 0.  0.
        -13    1    3    3    0    0 -0.10593729532E+02 -0.34907066459E+02 -0.15192399156E+03  0.15624225027E+03  0.10566000000E+00 0.  1.
         13    1    4    4    0    0  0.79174286443E+01  0.27397588308E+02 -0.26616060386E+03  0.26768412678E+03  0.10566000000E+00 0. -1.
        -13    1    4    4    0    0  0.10476880899E+00  0.33471417187E+00 -0.36267622662E+01  0.36452131147E+01  0.10566000000E+00 0. -1.
        -14    1    4    4    0    0  0.25715320785E+01  0.71747639790E+01 -0.78219524272E+02  0.78589973869E+02  0.00000000000E+00 0.  1.
<mgrwt>
<rscale>  0 0.79174757E+02</rscale>
<asrwt>0</asrwt>
<pdfrwt beam="1">  1        2 0.77391662E-01 0.79174757E+02</pdfrwt>
<pdfrwt beam="2">  1       -1 0.47928364E-03 0.79174757E+02</pdfrwt>
<totfact> 0.31345499E+05</totfact>
</mgrwt>
</event>
<event>
 8    1  0.2603554E-016  0.7768968E+02  0.7818608E-02  0.1335739E+00
          2   -1    0    0  501    0  0.00000000000E+00  0.00000000000E+00  0.16640145641E+03  0.16640145643E+03  0.25500000000E-02 0. -1.
         -1   -1    0    0    0  501 -0.00000000000E+00 -0.00000000000E+00 -0.90679583158E+01  0.90679597164E+01  0.50400000000E-02 0.  1.
         24    2    1    2    0    0  0.17763568394E-14  0.11102230246E-15  0.15733349809E+03  0.17546941614E+03  0.77689680009E+02 0.  0.
         66    2    3    3    0    0 -0.14895207248E+02 -0.98915456452E+00  0.15965303995E+03  0.16036189933E+03  0.19999917052E+01 0.  0.
        -13    1    3    3    0    0  0.14895207248E+02  0.98915456452E+00 -0.23195418583E+01  0.15107516810E+02  0.10566000000E+00 0.  1.
         13    1    4    4    0    0 -0.86652653314E+01 -0.13794431552E+01  0.88612726268E+02  0.89046145944E+02  0.10566000000E+00 0. -1.
        -13    1    4    4    0    0 -0.18564441027E+01  0.31475049261E+00  0.20629362459E+02  0.20715385878E+02  0.10566000000E+00 0.  1.
         14    1    4    4    0    0 -0.43734978134E+01  0.75538098055E-01  0.50410951222E+02  0.50600367511E+02  0.00000000000E+00 0. -1.
<mgrwt>
<rscale>  0 0.77689680E+02</rscale>
<asrwt>0</asrwt>
<pdfrwt beam="1">  1        2 0.25600224E-01 0.77689680E+02</pdfrwt>
<pdfrwt beam="2">  1       -1 0.13950706E-02 0.77689680E+02</pdfrwt>
<totfact> 0.22390560E+05</totfact>
</mgrwt>
</event>
<event>
 8    1  0.2603554E-016  0.7993617E+02  0.7818608E-02  0.1329233E+00
         -1   -1    0    0    0  501 -0.00000000000E+00  0.00000000000E+00  0.53198360032E+02  0.53198360271E+02  0.50400000000E-02 0.  1.
          2   -1    0    0  501    0  0.00000000000E+00 -0.00000000000E+00 -0.30028140091E+02  0.30028140199E+02  0.25500000000E-02 0. -1.
         24    2    1    2    0    0  0.00000000000E+00 -0.11102230246E-15  0.23170219941E+02  0.83226500470E+02  0.79936170088E+02 0.  0.
         66    2    3    3    0    0  0.33527814220E+02  0.67813664811E+00 -0.11000361037E+02  0.35349429088E+02  0.19999995581E+01 0.  0.
        -13    1    3    3    0    0 -0.33527814220E+02 -0.67813664811E+00  0.34170580978E+02  0.47877071382E+02  0.10566000000E+00 0.  1.
         13    1    4    4    0    0  0.10759148861E+02  0.92632666021E+00 -0.39653024569E+01  0.11504440573E+02  0.10566000000E+00 0. -1.
        -13    1    4    4    0    0  0.73750131787E+01 -0.30728091661E+00 -0.19919453040E+01  0.76461919331E+01  0.10566000000E+00 0.  1.
        -14    1    4    4    0    0  0.15393652180E+02  0.59090904506E-01 -0.50431132762E+01  0.16198796582E+02  0.00000000000E+00 0.  1.
<mgrwt>
<rscale>  0 0.79936170E+02</rscale>
<asrwt>0</asrwt>
<pdfrwt beam="1">  1        2 0.46197139E-02 0.79936170E+02</pdfrwt>
<pdfrwt beam="2">  1       -1 0.81843631E-02 0.79936170E+02</pdfrwt>
<totfact> 0.13487851E+05</totfact>
</mgrwt>
</event>
