<event>
 8    1  0.2561077E-020  0.7852908E+02  0.7818608E-02  0.1333278E+00
          2   -1    0    0  501    0  0.00000000000E+00  0.00000000000E+00  0.29637763716E+02  0.29637763826E+02  0.25500000000E-02 0. -1.
         -1   -1    0    0    0  501 -0.00000000000E+00 -0.00000000000E+00 -0.52018236546E+02  0.52018236790E+02  0.50400000000E-02 0.  1.
         24    2    1    2    0    0  0.00000000000E+00  0.00000000000E+00 -0.22380472829E+02  0.81656000616E+02  0.78529082973E+02 0.  0.
         66    2    3    3    0    0  0.44294328002E+01 -0.36243004160E+02  0.37457017567E+01  0.36758746936E+02  0.19999923089E+01 0.  0.
        -13    1    3    3    0    0 -0.44294328002E+01  0.36243004160E+02 -0.26126174586E+02  0.44897253680E+02  0.10566000000E+00 0.  1.
         13    1    4    4    0    0  0.25739956286E+01 -0.21984183968E+02  0.15691679478E+01  0.22190161116E+02  0.10566000000E+00 0. -1.
        -13    1    4    4    0    0  0.37007509690E+00 -0.57773274975E+01  0.69923664523E+00  0.58322006577E+01  0.10566000000E+00 0.  1.
        -14    1    4    4    0    0  0.14853620746E+01 -0.84814926937E+01  0.14772971637E+01  0.87363851630E+01  0.00000000000E+00 0.  1.
<mgrwt>
<rscale>  0 0.78529083E+02</rscale>
<asrwt>0</asrwt>
<pdfrwt beam="1">  1        2 0.45596560E-02 0.78529083E+02</pdfrwt>
<pdfrwt beam="2">  1       -1 0.80028057E-02 0.78529083E+02</pdfrwt>
<totfact> 0.14138973E+05</totfact>
</mgrwt>
</event>
<event>
 8    1  0.2561077E-020  0.7809427E+02  0.7818608E-02  0.1334548E+00
          2   -1    0    0  501    0  0.00000000000E+00  0.00000000000E+00  0.63123453446E+03  0.63123453446E+03  0.25500000000E-02 0. -1.
         -1   -1    0    0    0  501 -0.00000000000E+00 -0.00000000000E+00 -0.24153894779E+01  0.24153947362E+01  0.50400000000E-02 0.  1.
         24    2    1    2    0    0  0.17763568394E-14  0.00000000000E+00  0.62881914498E+03  0.63364992920E+03  0.78094274315E+02 0.  0.
         66    2    3    3    0    0  0.10958711571E+02  0.29111815241E+02  0.50578052684E+03  0.50674010348E+03  0.19999999658E+01 0.  0.
        -13    1    3    3    0    0 -0.10958711571E+02 -0.29111815241E+02  0.12303861814E+03  0.12690982572E+03  0.10566000000E+00 0.  1.
         13    1    4    4    0    0  0.39486158489E+01  0.11088716529E+02  0.20295465506E+03  0.20329573133E+03  0.10566000000E+00 0. -1.
        -13    1    4    4    0    0  0.33286701095E+01  0.78713932918E+01  0.12718254052E+03  0.12746940282E+03  0.10566000000E+00 0.  1.
         14    1    4    4    0    0  0.36814256123E+01  0.10151705420E+02  0.17564333126E+03  0.17597496934E+03  0.00000000000E+00 0. -1.
<mgrwt>
<rscale>  0 0.78094274E+02</rscale>
<asrwt>0</asrwt>
<pdfrwt beam="1">  1        2 0.97113011E-01 0.78094274E+02</pdfrwt>
<pdfrwt beam="2">  1       -1 0.37159876E-03 0.78094274E+02</pdfrwt>
<totfact> 0.34716941E+05</totfact>
</mgrwt>
</event>
<event>
 8    1  0.2561077E-020  0.7947690E+02  0.7818608E-02  0.1330542E+00
         -1   -1    0    0    0  501 -0.00000000000E+00  0.00000000000E+00  0.23163511475E+02  0.23163512023E+02  0.50400000000E-02 0.  1.
          2   -1    0    0  501    0  0.00000000000E+00 -0.00000000000E+00 -0.68173794749E+02  0.68173794796E+02  0.25500000000E-02 0. -1.
         24    2    1    2    0    0  0.88817841970E-15  0.35527136788E-14 -0.45010283274E+02  0.91337306820E+02  0.79476902410E+02 0.  0.
         66    2    3    3    0    0 -0.53040818570E+01 -0.21266097031E+02 -0.60578841988E+02  0.64452899596E+02  0.20000005889E+01 0.  0.
        -13    1    3    3    0    0  0.53040818570E+01  0.21266097031E+02  0.15568558715E+02  0.26884407224E+02  0.10566000000E+00 0.  1.
         13    1    4    4    0    0 -0.14137696010E+01 -0.78052844774E+01 -0.19950762209E+02  0.21470102166E+02  0.10566000000E+00 0.  1.
        -13    1    4    4    0    0 -0.10214206085E+01 -0.25932002223E+01 -0.83968904661E+01  0.88479896580E+01  0.10566000000E+00 0.  1.
         14    1    4    4    0    0 -0.28688916476E+01 -0.10867612332E+02 -0.32231189313E+02  0.34134807772E+02  0.00000000000E+00 0. -1.
<mgrwt>
<rscale>  0 0.79476902E+02</rscale>
<asrwt>0</asrwt>
<pdfrwt beam="1">  1        2 0.10488276E-01 0.79476902E+02</pdfrwt>
<pdfrwt beam="2">  1       -1 0.35636172E-02 0.79476902E+02</pdfrwt>
<totfact> 0.16330663E+05</totfact>
</mgrwt>
</event>
<event>
 8    1  0.2561077E-020  0.8091858E+02  0.7818608E-02  0.1326465E+00
         -1   -1    0    0    0  501 -0.00000000000E+00  0.00000000000E+00  0.66773434335E+01  0.66773453355E+01  0.50400000000E-02 0.  1.
          2   -1    0    0  501    0  0.00000000000E+00 -0.00000000000E+00 -0.24515048867E+03  0.24515048869E+03  0.25500000000E-02 0. -1.
         24    2    1    2    0    0  0.88817841970E-15  0.00000000000E+00 -0.23847314524E+03  0.25182783402E+03  0.80918582462E+02 0.  0.
         66    2    3    3    0    0  0.48991671640E+01  0.38191921106E+02 -0.15771887152E+03  0.16236337983E+03  0.19999995022E+01 0.  0.
        -13    1    3    3    0    0 -0.48991671640E+01 -0.38191921106E+02 -0.80754273718E+02  0.89464454195E+02  0.10566000000E+00 0.  1.
         13    1    4    4    0    0  0.23492045973E+01  0.15465541799E+02 -0.65611054495E+02  0.67450154791E+02  0.10566000000E+00 0. -1.
        -13    1    4    4    0    0  0.16423840085E+01  0.11658437862E+02 -0.45113415400E+02  0.46624543018E+02  0.10566000000E+00 0.  1.
         14    1    4    4    0    0  0.90757855812E+00  0.11067941445E+02 -0.46994401628E+02  0.48288682019E+02  0.00000000000E+00 0. -1.
<mgrwt>
<rscale>  0 0.80918582E+02</rscale>
<asrwt>0</asrwt>
<pdfrwt beam="1">  1        2 0.37715453E-01 0.80918582E+02</pdfrwt>
<pdfrwt beam="2">  1       -1 0.10272839E-02 0.80918582E+02</pdfrwt>
<totfact> 0.23000188E+05</totfact>
</mgrwt>
</event>
<event>
 8    1  0.2561077E-020  0.8108034E+02  0.7818608E-02  0.1326013E+00
          2   -1    0    0  501    0  0.00000000000E+00  0.00000000000E+00  0.46249614664E+03  0.46249614665E+03  0.25500000000E-02 0. -1.
         -1   -1    0    0    0  501 -0.00000000000E+00 -0.00000000000E+00 -0.35535528157E+01  0.35535563898E+01  0.50400000000E-02 0.  1.
         24    2    1    2    0    0  0.00000000000E+00 -0.88817841970E-15  0.45894259383E+03  0.46604970304E+03  0.81080338397E+02 0.  0.
         66    2    3    3    0    0 -0.36688582921E+02  0.72458641766E+01  0.31920295157E+03  0.32139240648E+03  0.19999976462E+01 0.  0.
        -13    1    3    3    0    0  0.36688582921E+02 -0.72458641766E+01  0.13973964226E+03  0.14465729656E+03  0.10566000000E+00 0.  1.
         13    1    4    4    0    0 -0.63517337365E+01  0.67196174063E+00  0.57498364960E+02  0.57852132122E+02  0.10566000000E+00 0. -1.
        -13    1    4    4    0    0 -0.55837777794E+01  0.10201805571E+01  0.45936309440E+02  0.46285797300E+02  0.10566000000E+00 0.  1.
         14    1    4    4    0    0 -0.24753071405E+02  0.55537218788E+01  0.21576827717E+03  0.21725447706E+03  0.00000000000E+00 0. -1.
<mgrwt>
<rscale>  0 0.81080338E+02</rscale>
<asrwt>0</asrwt>
<pdfrwt beam="1">  1        2 0.71153206E-01 0.81080338E+02</pdfrwt>
<pdfrwt beam="2">  1       -1 0.54670107E-03 0.81080338E+02</pdfrwt>
<totfact> 0.28667205E+05</totfact>
</mgrwt>
</event>
<event>
 8    1  0.2561077E-020  0.8050603E+02  0.7818608E-02  0.1327622E+00
         -1   -1    0    0    0  501 -0.00000000000E+00  0.00000000000E+00  0.18468428049E+01  0.18468496819E+01  0.50400000000E-02 0.  1.
          2   -1    0    0  501    0  0.00000000000E+00 -0.00000000000E+00 -0.87733625841E+03  0.87733625841E+03  0.25500000000E-02 0. -1.
         24    2    1    2    0    0  0.00000000000E+00  0.00000000000E+00 -0.87548941560E+03  0.87918310809E+03  0.80506029116E+02 0.  0.
         66    2    3    3    0    0 -0.91658200656E+01 -0.16370085991E+02 -0.82663008756E+03  0.82684538676E+03  0.19999963850E+01 0.  0.
        -13    1    3    3    0    0  0.91658200656E+01  0.16370085991E+02 -0.48859328044E+02  0.52337721328E+02  0.10566000000E+00 0.  1.
         13    1    4    4    0    0 -0.47318627177E+01 -0.72340747762E+01 -0.35367528622E+03  0.35378092318E+03  0.10566000000E+00 0. -1.
        -13    1    4    4    0    0 -0.15989197060E+01 -0.30695495338E+01 -0.17778338664E+03  0.17781710381E+03  0.10566000000E+00 0.  1.
        -14    1    4    4    0    0 -0.28350376419E+01 -0.60664616806E+01 -0.29517141470E+03  0.29524735977E+03  0.00000000000E+00 0.  1.
<mgrwt>
<rscale>  0 0.80506029E+02</rscale>
<asrwt>0</asrwt>
<pdfrwt beam="1">  1        2 0.13497448E+00 0.80506029E+02</pdfrwt>
<pdfrwt beam="2">  1       -1 0.28413089E-03 0.80506029E+02</pdfrwt>
<totfact> 0.34276046E+05</totfact>
</mgrwt>
</event>
<event>
 8    1  0.2561077E-020  0.7630888E+02  0.7818608E-02  0.1339865E+00
          2   -1    0    0  501    0  0.00000000000E+00  0.00000000000E+00  0.99722245368E+02  0.99722245401E+02  0.25500000000E-02 0. -1.
         -1   -1    0    0    0  501 -0.00000000000E+00 -0.00000000000E+00 -0.14598159646E+02  0.14598160516E+02  0.50400000000E-02 0.  1.
         24    2    1    2    0    0  0.35527136788E-14  0.88817841970E-15  0.85124085722E+02  0.11432040592E+03  0.76308880472E+02 0.  0.
         66    2    3    3    0    0  0.22935186056E+02  0.58695105440E+01  0.87366970946E+02  0.90539833771E+02  0.19999933844E+01 0.  0.
        -13    1    3    3    0    0 -0.22935186056E+02 -0.58695105440E+01 -0.22428852233E+01  0.23780572146E+02  0.10566000000E+00 0.  1.
         13    1    4    4    0    0  0.19654024436E+02  0.52390324428E+01  0.74761306447E+02  0.77478979363E+02  0.10566000000E+00 0. -1.
        -13    1    4    4    0    0  0.31328963047E+01  0.42744006679E+00  0.11525986552E+02  0.11952291592E+02  0.10566000000E+00 0.  1.
        -14    1    4    4    0    0  0.14826531498E+00  0.20303803445E+00  0.10796779468E+01  0.11085628155E+01  0.00000000000E+00 0.  1.
<mgrwt>
<rscale>  0 0.76308880E+02</rscale>
<asrwt>0</asrwt>
<pdfrwt beam="1">  1        2 0.15341883E-01 0.76308880E+02</pdfrwt>
<pdfrwt beam="2">  1       -1 0.22458709E-02 0.76308880E+02</pdfrwt>
<totfact> 0.20094493E+05</totfact>
</mgrwt>
</event>
<event>
 8    1  0.2561077E-020  0.7126209E+02  0.7818608E-02  0.1355853E+00
         -1   -1    0    0    0  501 -0.00000000000E+00  0.00000000000E+00  0.10393435222E+02  0.10393436444E+02  0.50400000000E-02 0.  1.
          2   -1    0    0  501    0  0.00000000000E+00 -0.00000000000E+00 -0.12215126293E+03  0.12215126296E+03  0.25500000000E-02 0. -1.
         24    2    1    2    0    0  0.00000000000E+00  0.00000000000E+00 -0.11175782771E+03  0.13254469940E+03  0.71262088696E+02 0.  0.
         66    2    3    3    0    0 -0.27822973671E+02 -0.21669186738E+02 -0.46830845540E+02  0.58658329242E+02  0.19999944132E+01 0.  0.
        -13    1    3    3    0    0  0.27822973671E+02  0.21669186738E+02 -0.64926982168E+02  0.73886370159E+02  0.10566000000E+00 0.  1.
         13    1    4    4    0    0 -0.20947560028E+02 -0.16573600643E+02 -0.36529652030E+02  0.45253852332E+02  0.10566000000E+00 0. -1.
        -13    1    4    4    0    0 -0.60501352787E+01 -0.45549969786E+01 -0.93656102476E+01  0.12044830996E+02  0.10566000000E+00 0.  1.
         14    1    4    4    0    0 -0.82527836478E+00 -0.54058911631E+00 -0.93558326233E+00  0.13596459145E+01  0.00000000000E+00 0. -1.
<mgrwt>
<rscale>  0 0.71262089E+02</rscale>
<asrwt>0</asrwt>
<pdfrwt beam="1">  1        2 0.18792501E-01 0.71262089E+02</pdfrwt>
<pdfrwt beam="2">  1       -1 0.15989902E-02 0.71262089E+02</pdfrwt>
<totfact> 0.25511648E+05</totfact>
</mgrwt>
</event>
<event>
 8    1  0.2765154E-020  0.8065527E+02  0.7818608E-02  0.1327202E+00
         -1   -1    0    0    0  501 -0.00000000000E+00  0.00000000000E+00  0.36875308440E+01  0.36875342882E+01  0.50400000000E-02 0.  1.
          2   -1    0    0  501    0  0.00000000000E+00 -0.00000000000E+00 -0.44103147916E+03  0.44103147917E+03  0.25500000000E-02 0. -1.
         24    2    1    2    0    0  0.00000000000E+00  0.00000000000E+00 -0.43734394832E+03  0.44471901346E+03  0.80655265174E+02 0.  0.
         66    2    3    3    0    0 -0.24156743883E+02  0.24292144283E+01 -0.39618192552E+03  0.39693017959E+03  0.20000002070E+01 0.  0.
        -13    1    3    3    0    0  0.24156743883E+02 -0.24292144283E+01 -0.41162022796E+02  0.47788833868E+02  0.10566000000E+00 0.  1.
         13    1    4    4    0    0 -0.34270793466E+00  0.36300537858E-02 -0.67021842483E+01  0.67117732112E+01  0.10566000000E+00 0.  1.
        -13    1    4    4    0    0 -0.16920415383E+01 -0.23518511260E+00 -0.25680962377E+02  0.25737935217E+02  0.10566000000E+00 0.  1.
         14    1    4    4    0    0 -0.22121994410E+02  0.26607694871E+01 -0.36379877890E+03  0.36448047116E+03  0.00000000000E+00 0. -1.
<mgrwt>
<rscale>  0 0.80655265E+02</rscale>
<asrwt>0</asrwt>
<pdfrwt beam="1">  1        2 0.67850955E-01 0.80655265E+02</pdfrwt>
<pdfrwt beam="2">  1       -1 0.56731305E-03 0.80655265E+02</pdfrwt>
<totfact> 0.28603919E+05</totfact>
</mgrwt>
</event>
<event>
 8    1  0.2561077E-020  0.8074360E+02  0.7818608E-02  0.1326954E+00
         -1   -1    0    0    0  501 -0.00000000000E+00  0.00000000000E+00  0.41078163613E+02  0.41078163923E+02  0.50400000000E-02 0.  1.
          2   -1    0    0  501    0  0.00000000000E+00 -0.00000000000E+00 -0.39677585516E+02  0.39677585598E+02  0.25500000000E-02 0. -1.
         24    2    1    2    0    0  0.00000000000E+00  0.00000000000E+00  0.14005780969E+01  0.80755749521E+02  0.80743603225E+02 0.  0.
         66    2    3    3    0    0  0.74241748371E+01  0.28725368692E+02 -0.26645893999E+02  0.39928296262E+02  0.19999992223E+01 0.  0.
        -13    1    3    3    0    0 -0.74241748371E+01 -0.28725368692E+02  0.28046472096E+02  0.40827453259E+02  0.10566000000E+00 0.  1.
         13    1    4    4    0    0  0.14641049832E+01  0.55419073099E+01 -0.51474937248E+01  0.77048163973E+01  0.10566000000E+00 0. -1.
        -13    1    4    4    0    0  0.53967165609E+01  0.18394242356E+02 -0.17570400328E+02  0.26003900346E+02  0.10566000000E+00 0.  1.
        -14    1    4    4    0    0  0.56335329301E+00  0.47892190262E+01 -0.39279999468E+01  0.62195795192E+01  0.00000000000E+00 0.  1.
<mgrwt>
<rscale>  0 0.80743603E+02</rscale>
<asrwt>0</asrwt>
<pdfrwt beam="1">  1        2 0.61042439E-02 0.80743603E+02</pdfrwt>
<pdfrwt beam="2">  1       -1 0.63197175E-02 0.80743603E+02</pdfrwt>
<totfact> 0.13871776E+05</totfact>
</mgrwt>
</event>
<event>
 8    1  0.2561077E-020  0.7787731E+02  0.7818608E-02  0.1335186E+00
          2   -1    0    0  501    0  0.00000000000E+00  0.00000000000E+00  0.54760552745E+02  0.54760552805E+02  0.25500000000E-02 0. -1.
         -1   -1    0    0    0  501 -0.00000000000E+00 -0.00000000000E+00 -0.27688157305E+02  0.27688157764E+02  0.50400000000E-02 0.  1.
         24    2    1    2    0    0  0.71054273576E-14  0.00000000000E+00  0.27072395440E+02  0.82448710569E+02  0.77877309144E+02 0.  0.
         66    2    3    3    0    0  0.38612596484E+02  0.45334762344E+01  0.15293997042E+02  0.41825726349E+02  0.20000062688E+01 0.  0.
        -13    1    3    3    0    0 -0.38612596484E+02 -0.45334762344E+01  0.11778398399E+02  0.40622984220E+02  0.10566000000E+00 0.  1.
         13    1    4    4    0    0  0.21812447179E+02  0.31802534332E+01  0.89825354830E+01  0.23803234477E+02  0.10566000000E+00 0.  1.
        -13    1    4    4    0    0  0.14767345777E+02  0.98984190307E+00  0.57864280588E+01  0.15891765226E+02  0.10566000000E+00 0. -1.
        -14    1    4    4    0    0  0.20328035287E+01  0.36338089808E+00  0.52503349985E+00  0.21307266458E+01  0.00000000000E+00 0.  1.
<mgrwt>
<rscale>  0 0.77877309E+02</rscale>
<asrwt>0</asrwt>
<pdfrwt beam="1">  1        2 0.84247004E-02 0.77877309E+02</pdfrwt>
<pdfrwt beam="2">  1       -1 0.42597166E-02 0.77877309E+02</pdfrwt>
<totfact> 0.16405203E+05</totfact>
</mgrwt>
</event>
<event>
 8    1  0.2561077E-020  0.7886493E+02  0.7818608E-02  0.1332304E+00
         -1   -1    0    0    0  501 -0.00000000000E+00  0.00000000000E+00  0.13245175980E+01  0.13245271869E+01  0.50400000000E-02 0.  1.
          2   -1    0    0  501    0  0.00000000000E+00 -0.00000000000E+00 -0.11739472839E+04  0.11739472839E+04  0.25500000000E-02 0. -1.
         24    2    1    2    0    0 -0.17763568394E-14  0.17763568394E-14 -0.11726227663E+04  0.11752718111E+04  0.78864934490E+02 0.  0.
         66    2    3    3    0    0 -0.11215478082E+02  0.15034858972E+02 -0.11031518678E+04  0.11033131366E+04  0.20000018399E+01 0.  0.
        -13    1    3    3    0    0  0.11215478082E+02 -0.15034858972E+02 -0.69470898464E+02  0.71958674462E+02  0.10566000000E+00 0.  1.
         13    1    4    4    0    0 -0.39185421735E+01  0.58657376813E+01 -0.39565336226E+03  0.39571625704E+03  0.10566000000E+00 0. -1.
        -13    1    4    4    0    0 -0.64062449163E+01  0.73408997045E+01 -0.60058405006E+03  0.60066308454E+03  0.10566000000E+00 0.  1.
        -14    1    4    4    0    0 -0.89069099211E+00  0.18282215867E+01 -0.10691445550E+03  0.10693379503E+03  0.00000000000E+00 0.  1.
<mgrwt>
<rscale>  0 0.78864934E+02</rscale>
<asrwt>0</asrwt>
<pdfrwt beam="1">  1        2 0.18060644E+00 0.78864934E+02</pdfrwt>
<pdfrwt beam="2">  1       -1 0.20377362E-03 0.78864934E+02</pdfrwt>
<totfact> 0.36441027E+05</totfact>
</mgrwt>
</event>
<event>
 8    1  0.2561077E-020  0.8251624E+02  0.7818608E-02  0.1322059E+00
         -1   -1    0    0    0  501 -0.00000000000E+00  0.00000000000E+00  0.69369674982E+02  0.69369675165E+02  0.50400000000E-02 0.  1.
          2   -1    0    0  501    0  0.00000000000E+00 -0.00000000000E+00 -0.24538566906E+02  0.24538567039E+02  0.25500000000E-02 0. -1.
         24    2    1    2    0    0  0.00000000000E+00  0.00000000000E+00  0.44831108075E+02  0.93908242204E+02  0.82516239023E+02 0.  0.
         66    2    3    3    0    0  0.71567050334E+01  0.27535022257E+02 -0.11538696807E+02  0.30765848013E+02  0.20000005676E+01 0.  0.
        -13    1    3    3    0    0 -0.71567050334E+01 -0.27535022257E+02  0.56369804882E+02  0.63142394191E+02  0.10566000000E+00 0.  1.
         13    1    4    4    0    0  0.47699774172E+01  0.16384753892E+02 -0.73007883518E+01  0.18561398634E+02  0.10566000000E+00 0. -1.
        -13    1    4    4    0    0  0.23408273395E+01  0.11093274055E+02 -0.41155686102E+01  0.12061893338E+02  0.10566000000E+00 0.  1.
        -14    1    4    4    0    0  0.45900276655E-01  0.56994311089E-01 -0.12233984531E+00  0.14255604036E+00  0.00000000000E+00 0.  1.
<mgrwt>
<rscale>  0 0.82516239E+02</rscale>
<asrwt>0</asrwt>
<pdfrwt beam="1">  1        2 0.37751642E-02 0.82516239E+02</pdfrwt>
<pdfrwt beam="2">  1       -1 0.10672258E-01 0.82516239E+02</pdfrwt>
<totfact> 0.11842751E+05</totfact>
</mgrwt>
</event>
<event>
 8    1  0.2561077E-020  0.7502619E+02  0.7818608E-02  0.1343790E+00
          2   -1    0    0  501    0  0.00000000000E+00  0.00000000000E+00  0.16655794755E+03  0.16655794757E+03  0.25500000000E-02 0. -1.
         -1   -1    0    0    0  501 -0.00000000000E+00 -0.00000000000E+00 -0.84489031982E+01  0.84489047015E+01  0.50400000000E-02 0.  1.
         24    2    1    2    0    0  0.35527136788E-14  0.22204460493E-15  0.15810904436E+03  0.17500685228E+03  0.75026185003E+02 0.  0.
         66    2    3    3    0    0 -0.30773898456E+02 -0.17784047811E+01  0.12886855336E+03  0.13251905370E+03  0.19999999063E+01 0.  0.
        -13    1    3    3    0    0  0.30773898456E+02  0.17784047811E+01  0.29240490997E+02  0.42487798572E+02  0.10566000000E+00 0.  1.
         13    1    4    4    0    0 -0.17384334004E+02 -0.13426345777E+01  0.70847198562E+02  0.72961321565E+02  0.10566000000E+00 0. -1.
        -13    1    4    4    0    0 -0.13399561111E+02 -0.46334314238E+00  0.57942874024E+02  0.59473950088E+02  0.10566000000E+00 0.  1.
        -14    1    4    4    0    0  0.99966593729E-02  0.27572938942E-01  0.78480774072E-01  0.83782050938E-01  0.00000000000E+00 0.  1.
<mgrwt>
<rscale>  0 0.75026185E+02</rscale>
<asrwt>0</asrwt>
<pdfrwt beam="1">  1        2 0.25624298E-01 0.75026185E+02</pdfrwt>
<pdfrwt beam="2">  1       -1 0.12998315E-02 0.75026185E+02</pdfrwt>
<totfact> 0.24552891E+05</totfact>
</mgrwt>
</event>
<event>
 8    1  0.2561077E-020  0.8124375E+02  0.7818608E-02  0.1325558E+00
          2   -1    0    0  501    0  0.00000000000E+00  0.00000000000E+00  0.26276549180E+03  0.26276549181E+03  0.25500000000E-02 0. -1.
         -1   -1    0    0    0  501 -0.00000000000E+00 -0.00000000000E+00 -0.62798827605E+01  0.62798847830E+01  0.50400000000E-02 0.  1.
         24    2    1    2    0    0  0.00000000000E+00  0.00000000000E+00  0.25648560904E+03  0.26904537659E+03  0.81243750670E+02 0.  0.
         66    2    3    3    0    0 -0.32738761745E+02  0.19438612983E+02  0.17497080213E+03  0.17907670924E+03  0.20000001776E+01 0.  0.
        -13    1    3    3    0    0  0.32738761745E+02 -0.19438612983E+02  0.81514806912E+02  0.89968667353E+02  0.10566000000E+00 0.  1.
         13    1    4    4    0    0 -0.91295777420E+01  0.58411654386E+01  0.49767267663E+02  0.50933883596E+02  0.10566000000E+00 0. -1.
        -13    1    4    4    0    0 -0.39754482565E+01  0.28434076866E+01  0.20927467827E+02  0.21490910399E+02  0.10566000000E+00 0.  1.
        -14    1    4    4    0    0 -0.19633735746E+02  0.10754039858E+02  0.10427606664E+03  0.10665191525E+03  0.00000000000E+00 0.  1.
<mgrwt>
<rscale>  0 0.81243751E+02</rscale>
<asrwt>0</asrwt>
<pdfrwt beam="1">  1        2 0.40425455E-01 0.81243751E+02</pdfrwt>
<pdfrwt beam="2">  1       -1 0.96613609E-03 0.81243751E+02</pdfrwt>
<totfact> 0.23334161E+05</totfact>
</mgrwt>
</event>
<event>
 8    1  0.2561077E-020  0.7875316E+02  0.7818608E-02  0.1332627E+00
         -1   -1    0    0    0  501 -0.00000000000E+00  0.00000000000E+00  0.59437662764E+01  0.59437684133E+01  0.50400000000E-02 0.  1.
          2   -1    0    0  501    0  0.00000000000E+00 -0.00000000000E+00 -0.26086403025E+03  0.26086403026E+03  0.25500000000E-02 0. -1.
         24    2    1    2    0    0 -0.55511151231E-16  0.00000000000E+00 -0.25492026397E+03  0.26680779868E+03  0.78753161523E+02 0.  0.
         66    2    3    3    0    0  0.18410123969E+00 -0.37734036553E+02 -0.89722044596E+02  0.97354695259E+02  0.19999986744E+01 0.  0.
        -13    1    3    3    0    0 -0.18410123969E+00  0.37734036553E+02 -0.16519821938E+03  0.16945310342E+03  0.10566000000E+00 0.  1.
         13    1    4    4    0    0  0.64320334235E+00 -0.14613579965E+02 -0.34867832842E+02  0.37812000226E+02  0.10566000000E+00 0. -1.
        -13    1    4    4    0    0 -0.74204428922E+00 -0.21465898420E+02 -0.50691522810E+02  0.55054310218E+02  0.10566000000E+00 0.  1.
        -14    1    4    4    0    0  0.28294218655E+00 -0.16545581677E+01 -0.41626889434E+01  0.44883848153E+01  0.00000000000E+00 0.  1.
<mgrwt>
<rscale>  0 0.78753162E+02</rscale>
<asrwt>0</asrwt>
<pdfrwt beam="1">  1        2 0.40132919E-01 0.78753162E+02</pdfrwt>
<pdfrwt beam="2">  1       -1 0.91442595E-03 0.78753162E+02</pdfrwt>
<totfact> 0.25256527E+05</totfact>
</mgrwt>
</event>
<event>
 8    1  0.2561077E-020  0.7927091E+02  0.7818608E-02  0.1331133E+00
          2   -1    0    0  501    0  0.00000000000E+00  0.00000000000E+00  0.15851234169E+03  0.15851234171E+03  0.25500000000E-02 0. -1.
         -1   -1    0    0    0  501 -0.00000000000E+00 -0.00000000000E+00 -0.99107045998E+01  0.99107058813E+01  0.50400000000E-02 0.  1.
         24    2    1    2    0    0  0.00000000000E+00  0.00000000000E+00  0.14860163709E+03  0.16842304760E+03  0.79270905220E+02 0.  0.
         66    2    3    3    0    0  0.12910351675E+01 -0.25412442723E+02  0.13884454759E+03  0.14117105727E+03  0.19999998866E+01 0.  0.
        -13    1    3    3    0    0 -0.12910351675E+01  0.25412442723E+02  0.97570895065E+01  0.27251990324E+02  0.10566000000E+00 0.  1.
         13    1    4    4    0    0  0.11028562394E+00 -0.90515430659E+01  0.48029877060E+02  0.48875585410E+02  0.10566000000E+00 0. -1.
        -13    1    4    4    0    0  0.60676665509E+00 -0.10875306206E+02  0.63851364184E+02  0.64773824367E+02  0.10566000000E+00 0.  1.
        -14    1    4    4    0    0  0.57398288846E+00 -0.54855934507E+01  0.26963306344E+02  0.27521647495E+02  0.00000000000E+00 0.  1.
<mgrwt>
<rscale>  0 0.79270905E+02</rscale>
<asrwt>0</asrwt>
<pdfrwt beam="1">  1        2 0.24386515E-01 0.79270905E+02</pdfrwt>
<pdfrwt beam="2">  1       -1 0.15247238E-02 0.79270905E+02</pdfrwt>
<totfact> 0.20892995E+05</totfact>
</mgrwt>
</event>
<event>
 8    1  0.2561077E-020  0.8058845E+02  0.7818608E-02  0.1327390E+00
          2   -1    0    0  501    0  0.00000000000E+00  0.00000000000E+00  0.84456456496E+02  0.84456456535E+02  0.25500000000E-02 0. -1.
         -1   -1    0    0    0  501 -0.00000000000E+00 -0.00000000000E+00 -0.19224399753E+02  0.19224400414E+02  0.50400000000E-02 0.  1.
         24    2    1    2    0    0  0.00000000000E+00  0.35527136788E-14  0.65232056743E+02  0.10368085695E+03  0.80588453705E+02 0.  0.
         66    2    3    3    0    0 -0.22540926473E+02 -0.23608848723E+02  0.62976453644E+02  0.70961290728E+02  0.19999909631E+01 0.  0.
        -13    1    3    3    0    0  0.22540926473E+02  0.23608848723E+02  0.22556030986E+01  0.32719566220E+02  0.10566000000E+00 0.  1.
         13    1    4    4    0    0 -0.39478712297E+01 -0.43638598334E+01  0.11242119346E+02  0.12689577271E+02  0.10566000000E+00 0. -1.
        -13    1    4    4    0    0 -0.69506419443E+01 -0.70619362540E+01  0.21006630651E+02  0.23226537892E+02  0.10566000000E+00 0.  1.
        -14    1    4    4    0    0 -0.11642413299E+02 -0.12183052636E+02  0.30727703647E+02  0.35045175565E+02  0.00000000000E+00 0.  1.
<mgrwt>
<rscale>  0 0.80588454E+02</rscale>
<asrwt>0</asrwt>
<pdfrwt beam="1">  1        2 0.12993301E-01 0.80588454E+02</pdfrwt>
<pdfrwt beam="2">  1       -1 0.29576001E-02 0.80588454E+02</pdfrwt>
<totfact> 0.16601389E+05</totfact>
</mgrwt>
</event>
<event>
 8    1  0.2561077E-020  0.8022956E+02  0.7818608E-02  0.1328401E+00
          2   -1    0    0  501    0  0.00000000000E+00  0.00000000000E+00  0.54075406629E+03  0.54075406629E+03  0.25500000000E-02 0. -1.
         -1   -1    0    0    0  501 -0.00000000000E+00 -0.00000000000E+00 -0.29758344092E+01  0.29758386772E+01  0.50400000000E-02 0.  1.
         24    2    1    2    0    0  0.35527136788E-14  0.00000000000E+00  0.53777823188E+03  0.54372990497E+03  0.80229563612E+02 0.  0.
         66    2    3    3    0    0  0.24208924649E+02  0.23716564828E+02  0.41419547302E+03  0.41558445273E+03  0.19999993948E+01 0.  0.
        -13    1    3    3    0    0 -0.24208924649E+02 -0.23716564828E+02  0.12358275886E+03  0.12814545225E+03  0.10566000000E+00 0.  1.
         13    1    4    4    0    0  0.31288136479E+01  0.33350863510E+01  0.60242520290E+02  0.60415930769E+02  0.10566000000E+00 0. -1.
        -13    1    4    4    0    0  0.14771274325E+02  0.15185076902E+02  0.25706807604E+03  0.25793949676E+03  0.10566000000E+00 0.  1.
         14    1    4    4    0    0  0.63088366761E+01  0.51964015747E+01  0.96884876695E+02  0.97229025202E+02  0.00000000000E+00 0. -1.
<mgrwt>
<rscale>  0 0.80229564E+02</rscale>
<asrwt>0</asrwt>
<pdfrwt beam="1">  1        2 0.83192889E-01 0.80229564E+02</pdfrwt>
<pdfrwt beam="2">  1       -1 0.45782125E-03 0.80229564E+02</pdfrwt>
<totfact> 0.30970760E+05</totfact>
</mgrwt>
</event>
<event>
 8    1  0.2561077E-020  0.8024161E+02  0.7818608E-02  0.1328367E+00
         -1   -1    0    0    0  501 -0.00000000000E+00  0.00000000000E+00  0.24518580530E+01  0.24518632331E+01  0.50400000000E-02 0.  1.
          2   -1    0    0  501    0  0.00000000000E+00 -0.00000000000E+00 -0.65651320604E+03  0.65651320604E+03  0.25500000000E-02 0. -1.
         24    2    1    2    0    0  0.00000000000E+00  0.22204460493E-15 -0.65406134798E+03  0.65896506927E+03  0.80241607649E+02 0.  0.
         66    2    3    3    0    0 -0.32800024966E+02  0.19935221344E+01 -0.51591132900E+03  0.51696065147E+03  0.20000010776E+01 0.  0.
        -13    1    3    3    0    0  0.32800024966E+02 -0.19935221344E+01 -0.13815001898E+03  0.14200441781E+03  0.10566000000E+00 0.  1.
         13    1    4    4    0    0 -0.60627571992E+00  0.18018615653E+00 -0.11520473563E+02  0.11538306308E+02  0.10566000000E+00 0.  1.
        -13    1    4    4    0    0 -0.36884173943E+01 -0.21579194466E+00 -0.58483811661E+02  0.58600498116E+02  0.10566000000E+00 0.  1.
         14    1    4    4    0    0 -0.28505331851E+02  0.20291279225E+01 -0.44590704378E+03  0.44682184704E+03  0.00000000000E+00 0. -1.
<mgrwt>
<rscale>  0 0.80241608E+02</rscale>
<asrwt>0</asrwt>
<pdfrwt beam="1">  1        2 0.10100189E+00 0.80241608E+02</pdfrwt>
<pdfrwt beam="2">  1       -1 0.37720985E-03 0.80241608E+02</pdfrwt>
<totfact> 0.32682892E+05</totfact>
</mgrwt>
</event>
<event>
 8    1  0.2561077E-020  0.7618789E+02  0.7818608E-02  0.1340231E+00
         -1   -1    0    0    0  501 -0.00000000000E+00  0.00000000000E+00  0.94232976355E+02  0.94232976489E+02  0.50400000000E-02 0.  1.
          2   -1    0    0  501    0  0.00000000000E+00 -0.00000000000E+00 -0.15399583596E+02  0.15399583807E+02  0.25500000000E-02 0. -1.
         24    2    1    2    0    0 -0.35527136788E-14  0.35527136788E-14  0.78833392759E+02  0.10963256030E+03  0.76187889216E+02 0.  0.
         66    2    3    3    0    0  0.25040518813E+02 -0.18574457421E+02  0.80125873102E+01  0.32252745749E+02  0.20000005086E+01 0.  0.
        -13    1    3    3    0    0 -0.25040518813E+02  0.18574457421E+02  0.70820805449E+02  0.77379814547E+02  0.10566000000E+00 0.  1.
         13    1    4    4    0    0  0.10776424726E+02 -0.76554295299E+01  0.40301545817E+01  0.13819921894E+02  0.10566000000E+00 0. -1.
        -13    1    4    4    0    0  0.72052466729E+00 -0.85901081577E+00  0.27411469378E+00  0.11590333381E+01  0.10566000000E+00 0.  1.
         14    1    4    4    0    0  0.13543569420E+02 -0.10060017075E+02  0.37083180348E+01  0.17273790517E+02  0.00000000000E+00 0. -1.
<mgrwt>
<rscale>  0 0.76187889E+02</rscale>
<asrwt>0</asrwt>
<pdfrwt beam="1">  1        2 0.23691667E-02 0.76187889E+02</pdfrwt>
<pdfrwt beam="2">  1       -1 0.14497381E-01 0.76187889E+02</pdfrwt>
<totfact> 0.13552990E+05</totfact>
</mgrwt>
</event>
<event>
 8    1  0.2561077E-020  0.7919670E+02  0.7818608E-02  0.1331347E+00
          2   -1    0    0  501    0  0.00000000000E+00  0.00000000000E+00  0.34268809305E+03  0.34268809306E+03  0.25500000000E-02 0. -1.
         -1   -1    0    0    0  501 -0.00000000000E+00 -0.00000000000E+00 -0.45756738250E+01  0.45756766007E+01  0.50400000000E-02 0.  1.
         24    2    1    2    0    0  0.35527136788E-14 -0.44408920985E-15  0.33811241922E+03  0.34726376966E+03  0.79196702484E+02 0.  0.
         66    2    3    3    0    0 -0.19265024248E+02  0.39259408597E+01  0.31975363574E+03  0.32036376471E+03  0.20000006376E+01 0.  0.
        -13    1    3    3    0    0  0.19265024248E+02 -0.39259408597E+01  0.18358783483E+02  0.26900004943E+02  0.10566000000E+00 0.  1.
         13    1    4    4    0    0 -0.98533877702E-01  0.76538355506E-01  0.16600043648E+01  0.16680364419E+01  0.10566000000E+00 0.  1.
        -13    1    4    4    0    0 -0.12891811885E+01  0.10385981066E+00  0.17968708738E+02  0.18015505342E+02  0.10566000000E+00 0.  1.
         14    1    4    4    0    0 -0.17877309182E+02  0.37455426936E+01  0.30012492264E+03  0.30068022293E+03  0.00000000000E+00 0. -1.
<mgrwt>
<rscale>  0 0.79196702E+02</rscale>
<asrwt>0</asrwt>
<pdfrwt beam="1">  1        2 0.52721246E-01 0.79196702E+02</pdfrwt>
<pdfrwt beam="2">  1       -1 0.70395002E-03 0.79196702E+02</pdfrwt>
<totfact> 0.27462398E+05</totfact>
</mgrwt>
</event>
<event>
 8    1  0.2561077E-020  0.8024529E+02  0.7818608E-02  0.1328357E+00
          2   -1    0    0  501    0  0.00000000000E+00  0.00000000000E+00  0.50808579852E+01  0.50808586251E+01  0.25500000000E-02 0. -1.
         -1   -1    0    0    0  501 -0.00000000000E+00 -0.00000000000E+00 -0.31684145299E+03  0.31684145303E+03  0.50400000000E-02 0.  1.
         24    2    1    2    0    0  0.00000000000E+00  0.00000000000E+00 -0.31176059500E+03  0.32192231165E+03  0.80245287361E+02 0.  0.
         66    2    3    3    0    0 -0.14983115694E+02  0.35275260894E+02 -0.20327168132E+03  0.20686279078E+03  0.19999990704E+01 0.  0.
        -13    1    3    3    0    0  0.14983115694E+02 -0.35275260894E+02 -0.10848891368E+03  0.11505952087E+03  0.10566000000E+00 0.  1.
         13    1    4    4    0    0 -0.26873109141E+01  0.58178050069E+01 -0.33929746681E+02  0.34529804067E+02  0.10566000000E+00 0. -1.
        -13    1    4    4    0    0 -0.10669696396E+02  0.25927329210E+02 -0.14557035017E+03  0.14824576498E+03  0.10566000000E+00 0.  1.
        -14    1    4    4    0    0 -0.16261083841E+01  0.35301266774E+01 -0.23771584474E+02  0.24087221741E+02  0.00000000000E+00 0.  1.
<mgrwt>
<rscale>  0 0.80245287E+02</rscale>
<asrwt>0</asrwt>
<pdfrwt beam="1">  1        2 0.78167076E-03 0.80245287E+02</pdfrwt>
<pdfrwt beam="2">  1       -1 0.48744824E-01 0.80245287E+02</pdfrwt>
<totfact> 0.83838025E+04</totfact>
</mgrwt>
</event>
<event>
 8    1  0.2561077E-020  0.8096971E+02  0.7818608E-02  0.1326322E+00
          2   -1    0    0  501    0  0.00000000000E+00  0.00000000000E+00  0.23255691414E+02  0.23255691554E+02  0.25500000000E-02 0. -1.
         -1   -1    0    0    0  501 -0.00000000000E+00 -0.00000000000E+00 -0.70478377696E+02  0.70478377876E+02  0.50400000000E-02 0.  1.
         24    2    1    2    0    0  0.88817841970E-15  0.00000000000E+00 -0.47222686282E+02  0.93734069430E+02  0.80969708362E+02 0.  0.
         66    2    3    3    0    0 -0.53775959563E+01  0.29424434030E+02  0.79145596738E+01  0.31005743198E+02  0.20000000366E+01 0.  0.
        -13    1    3    3    0    0  0.53775959563E+01 -0.29424434030E+02 -0.55137245956E+02  0.62728326232E+02  0.10566000000E+00 0.  1.
         13    1    4    4    0    0 -0.27510218541E+01  0.11644201114E+02  0.24429903034E+01  0.12212080350E+02  0.10566000000E+00 0. -1.
        -13    1    4    4    0    0 -0.24039777858E+00  0.25479931127E+01  0.76587181937E+00  0.26735339298E+01  0.10566000000E+00 0.  1.
         14    1    4    4    0    0 -0.23861763236E+01  0.15232239804E+02  0.47056975511E+01  0.16120128918E+02  0.00000000000E+00 0. -1.
<mgrwt>
<rscale>  0 0.80969708E+02</rscale>
<asrwt>0</asrwt>
<pdfrwt beam="1">  1        2 0.35777987E-02 0.80969708E+02</pdfrwt>
<pdfrwt beam="2">  1       -1 0.10842827E-01 0.80969708E+02</pdfrwt>
<totfact> 0.12364502E+05</totfact>
</mgrwt>
</event>
<event>
 8    1  0.2561077E-020  0.8805898E+02  0.7818608E-02  0.1307621E+00
         -1   -1    0    0    0  501 -0.00000000000E+00  0.00000000000E+00  0.81770379545E+02  0.81770379700E+02  0.50400000000E-02 0.  1.
          2   -1    0    0  501    0  0.00000000000E+00 -0.00000000000E+00 -0.23707803676E+02  0.23707803813E+02  0.25500000000E-02 0. -1.
         24    2    1    2    0    0  0.88817841970E-15  0.00000000000E+00  0.58062575869E+02  0.10547818351E+03  0.88058982964E+02 0.  0.
         66    2    3    3    0    0  0.76261414972E+01 -0.39858785953E+02  0.86583977918E+01  0.41543335212E+02  0.19999991244E+01 0.  0.
        -13    1    3    3    0    0 -0.76261414972E+01  0.39858785953E+02  0.49404178077E+02  0.63934848301E+02  0.10566000000E+00 0.  1.
         13    1    4    4    0    0  0.43498298843E+01 -0.21407438295E+02  0.40528139702E+01  0.22217918433E+02  0.10566000000E+00 0. -1.
        -13    1    4    4    0    0  0.57966503243E+00 -0.16604060360E+01  0.47909306394E+00  0.18258296618E+01  0.10566000000E+00 0.  1.
         14    1    4    4    0    0  0.26966465805E+01 -0.16790941621E+02  0.41264907577E+01  0.17499587118E+02  0.00000000000E+00 0. -1.
<mgrwt>
<rscale>  0 0.88058983E+02</rscale>
<asrwt>0</asrwt>
<pdfrwt beam="1">  1        2 0.36473544E-02 0.88058983E+02</pdfrwt>
<pdfrwt beam="2">  1       -1 0.12580059E-01 0.88058983E+02</pdfrwt>
<totfact> 0.97547301E+04</totfact>
</mgrwt>
</event>
<event>
 8    1  0.2561077E-020  0.7915294E+02  0.7818608E-02  0.1331473E+00
          2   -1    0    0  501    0  0.00000000000E+00  0.00000000000E+00  0.62376407593E+03  0.62376407594E+03  0.25500000000E-02 0. -1.
         -1   -1    0    0    0  501 -0.00000000000E+00 -0.00000000000E+00 -0.25110379430E+01  0.25110430010E+01  0.50400000000E-02 0.  1.
         24    2    1    2    0    0  0.00000000000E+00  0.00000000000E+00  0.62125303799E+03  0.62627511894E+03  0.79152936715E+02 0.  0.
         66    2    3    3    0    0 -0.12074160033E+02  0.20809827990E+02  0.55920455825E+03  0.55972544364E+03  0.19999997216E+01 0.  0.
        -13    1    3    3    0    0  0.12074160033E+02 -0.20809827990E+02  0.62048479733E+02  0.66549675301E+02  0.10566000000E+00 0.  1.
         13    1    4    4    0    0 -0.31481687372E+01  0.67276317736E+01  0.17971907108E+03  0.17987253173E+03  0.10566000000E+00 0. -1.
        -13    1    4    4    0    0 -0.15332582219E+01  0.18444738465E+01  0.57928740143E+02  0.57978470686E+02  0.10566000000E+00 0.  1.
         14    1    4    4    0    0 -0.73927330736E+01  0.12237722370E+02  0.32155674703E+03  0.32187444122E+03  0.00000000000E+00 0. -1.
<mgrwt>
<rscale>  0 0.79152937E+02</rscale>
<asrwt>0</asrwt>
<pdfrwt beam="1">  1        2 0.95963875E-01 0.79152937E+02</pdfrwt>
<pdfrwt beam="2">  1       -1 0.38631323E-03 0.79152937E+02</pdfrwt>
<totfact> 0.33418391E+05</totfact>
</mgrwt>
</event>
<event>
 8    1  0.2561077E-020  0.7990958E+02  0.7818608E-02  0.1329308E+00
         -1   -1    0    0    0  501 -0.00000000000E+00  0.00000000000E+00  0.25841421258E+02  0.25841421749E+02  0.50400000000E-02 0.  1.
          2   -1    0    0  501    0  0.00000000000E+00 -0.00000000000E+00 -0.61776214534E+02  0.61776214587E+02  0.25500000000E-02 0. -1.
         24    2    1    2    0    0 -0.17763568394E-14 -0.71054273576E-14 -0.35934793277E+02  0.87617636336E+02  0.79909579084E+02 0.  0.
         66    2    3    3    0    0  0.84128912819E+01  0.35121729401E+02 -0.36652834053E+02  0.51495076039E+02  0.19999990714E+01 0.  0.
        -13    1    3    3    0    0 -0.84128912819E+01 -0.35121729401E+02  0.71804077642E+00  0.36122560297E+02  0.10566000000E+00 0.  1.
         13    1    4    4    0    0  0.40567183625E+01  0.14829228752E+02 -0.15070639436E+02  0.21529011271E+02  0.10566000000E+00 0. -1.
        -13    1    4    4    0    0  0.25117794298E+01  0.91736430516E+01 -0.10240464313E+02  0.13976517310E+02  0.10566000000E+00 0.  1.
        -14    1    4    4    0    0  0.18443934897E+01  0.11118857597E+02 -0.11341730304E+02  0.15989547457E+02  0.00000000000E+00 0.  1.
<mgrwt>
<rscale>  0 0.79909579E+02</rscale>
<asrwt>0</asrwt>
<pdfrwt beam="1">  1        2 0.95040330E-02 0.79909579E+02</pdfrwt>
<pdfrwt beam="2">  1       -1 0.39756033E-02 0.79909579E+02</pdfrwt>
<totfact> 0.15720212E+05</totfact>
</mgrwt>
</event>
<event>
 8    1  0.2561077E-020  0.7910032E+02  0.7818608E-02  0.1331624E+00
         -1   -1    0    0    0  501 -0.00000000000E+00  0.00000000000E+00  0.19625152200E+01  0.19625216917E+01  0.50400000000E-02 0.  1.
          2   -1    0    0  501    0  0.00000000000E+00 -0.00000000000E+00 -0.79704474611E+03  0.79704474611E+03  0.25500000000E-02 0. -1.
         24    2    1    2    0    0  0.00000000000E+00  0.35527136788E-14 -0.79508223089E+03  0.79900726780E+03  0.79100316873E+02 0.  0.
         66    2    3    3    0    0  0.25819670246E+02 -0.16817085331E+02 -0.64783527930E+03  0.64857075081E+03  0.19999908703E+01 0.  0.
        -13    1    3    3    0    0 -0.25819670246E+02  0.16817085331E+02 -0.14724695158E+03  0.15043651699E+03  0.10566000000E+00 0.  1.
         13    1    4    4    0    0  0.35584897199E+01 -0.22329665269E+01 -0.84499549870E+02  0.84603983835E+02  0.10566000000E+00 0. -1.
        -13    1    4    4    0    0  0.32204624383E+00 -0.30012087498E+00 -0.14425897883E+02  0.14432999691E+02  0.10566000000E+00 0.  1.
        -14    1    4    4    0    0  0.21939134283E+02 -0.14283997930E+02 -0.54890983155E+03  0.54953376728E+03  0.00000000000E+00 0.  1.
<mgrwt>
<rscale>  0 0.79100317E+02</rscale>
<asrwt>0</asrwt>
<pdfrwt beam="1">  1        2 0.12262201E+00 0.79100317E+02</pdfrwt>
<pdfrwt beam="2">  1       -1 0.30192655E-03 0.79100317E+02</pdfrwt>
<totfact> 0.35366965E+05</totfact>
</mgrwt>
</event>
<event>
 8    1  0.2561077E-020  0.7998686E+02  0.7818608E-02  0.1329089E+00
          2   -1    0    0  501    0  0.00000000000E+00  0.00000000000E+00  0.15974708276E+02  0.15974708479E+02  0.25500000000E-02 0. -1.
         -1   -1    0    0    0  501 -0.00000000000E+00 -0.00000000000E+00 -0.10012541231E+03  0.10012541244E+03  0.50400000000E-02 0.  1.
         24    2    1    2    0    0  0.00000000000E+00  0.35527136788E-14 -0.84150704035E+02  0.11610012092E+03  0.79986855715E+02 0.  0.
         66    2    3    3    0    0 -0.28192292954E+02 -0.27430282330E+02 -0.31813034501E+02  0.50628993028E+02  0.20000000514E+01 0.  0.
        -13    1    3    3    0    0  0.28192292954E+02  0.27430282330E+02 -0.52337669534E+02  0.65471127888E+02  0.10566000000E+00 0.  1.
         13    1    4    4    0    0 -0.17469023074E+02 -0.16246418272E+02 -0.18596852767E+02  0.30248420962E+02  0.10566000000E+00 0. -1.
        -13    1    4    4    0    0 -0.37019031784E+01 -0.35611646656E+01 -0.47776982488E+01  0.70159493663E+01  0.10566000000E+00 0.  1.
         14    1    4    4    0    0 -0.70213667013E+01 -0.76226993922E+01 -0.84384834845E+01  0.13364622699E+02  0.00000000000E+00 0. -1.
<mgrwt>
<rscale>  0 0.79986856E+02</rscale>
<asrwt>0</asrwt>
<pdfrwt beam="1">  1        2 0.24576475E-02 0.79986856E+02</pdfrwt>
<pdfrwt beam="2">  1       -1 0.15403909E-01 0.79986856E+02</pdfrwt>
<totfact> 0.11854671E+05</totfact>
</mgrwt>
</event>
<event>
 8    1  0.2561077E-020  0.8049362E+02  0.7818608E-02  0.1327656E+00
         -1   -1    0    0    0  501 -0.00000000000E+00  0.00000000000E+00  0.43619012931E+03  0.43619012934E+03  0.50400000000E-02 0.  1.
          2   -1    0    0  501    0  0.00000000000E+00 -0.00000000000E+00 -0.37135310112E+01  0.37135318868E+01  0.25500000000E-02 0. -1.
         24    2    1    2    0    0  0.00000000000E+00  0.00000000000E+00  0.43247659830E+03  0.43990366122E+03  0.80493621386E+02 0.  0.
         66    2    3    3    0    0 -0.32410599722E+02 -0.22590112812E+02  0.25764653681E+03  0.26066549081E+03  0.19999989663E+01 0.  0.
        -13    1    3    3    0    0  0.32410599722E+02  0.22590112812E+02  0.17483006148E+03  0.17923817042E+03  0.10566000000E+00 0.  1.
         13    1    4    4    0    0 -0.13657109495E+02 -0.94368336717E+01  0.11183727004E+03  0.11306262248E+03  0.10566000000E+00 0. -1.
        -13    1    4    4    0    0 -0.17462806141E+02 -0.12439732054E+02  0.13459596793E+03  0.13629300157E+03  0.10566000000E+00 0.  1.
        -14    1    4    4    0    0 -0.12906840859E+01 -0.71354708567E+00  0.11213298849E+02  0.11309866752E+02  0.00000000000E+00 0.  1.
<mgrwt>
<rscale>  0 0.80493621E+02</rscale>
<asrwt>0</asrwt>
<pdfrwt beam="1">  1        2 0.57131248E-03 0.80493621E+02</pdfrwt>
<pdfrwt beam="2">  1       -1 0.67106180E-01 0.80493621E+02</pdfrwt>
<totfact> 0.71236586E+04</totfact>
</mgrwt>
</event>
<event>
 8    1  0.2561077E-020  0.8020300E+02  0.7818608E-02  0.1328476E+00
          2   -1    0    0  501    0  0.00000000000E+00  0.00000000000E+00  0.19340747654E+02  0.19340747822E+02  0.25500000000E-02 0. -1.
         -1   -1    0    0    0  501 -0.00000000000E+00 -0.00000000000E+00 -0.83147271335E+02  0.83147271487E+02  0.50400000000E-02 0.  1.
         24    2    1    2    0    0  0.00000000000E+00  0.00000000000E+00 -0.63806523681E+02  0.10248801931E+03  0.80203002673E+02 0.  0.
         66    2    3    3    0    0 -0.30654918674E+02 -0.12613110103E+02 -0.31411390355E+01  0.33356878399E+02  0.19999991885E+01 0.  0.
        -13    1    3    3    0    0  0.30654918674E+02  0.12613110103E+02 -0.60665384645E+02  0.69131140910E+02  0.10566000000E+00 0.  1.
         13    1    4    4    0    0 -0.84808948504E+01 -0.30159614051E+01 -0.10915731308E+01  0.90677613883E+01  0.10566000000E+00 0. -1.
        -13    1    4    4    0    0 -0.18682278031E+02 -0.75172390095E+01 -0.17112611155E+01  0.20210788540E+02  0.10566000000E+00 0.  1.
        -14    1    4    4    0    0 -0.34917457920E+01 -0.20799096889E+01 -0.33830478926E+00  0.40783284714E+01  0.00000000000E+00 0.  1.
<mgrwt>
<rscale>  0 0.80203003E+02</rscale>
<asrwt>0</asrwt>
<pdfrwt beam="1">  1        2 0.29754997E-02 0.80203003E+02</pdfrwt>
<pdfrwt beam="2">  1       -1 0.12791888E-01 0.80203003E+02</pdfrwt>
<totfact> 0.12241880E+05</totfact>
</mgrwt>
</event>
<event>
 8    1  0.2561077E-020  0.7866829E+02  0.7818608E-02  0.1332874E+00
         -1   -1    0    0    0  501 -0.00000000000E+00  0.00000000000E+00  0.74263572485E+01  0.74263589587E+01  0.50400000000E-02 0.  1.
          2   -1    0    0  501    0  0.00000000000E+00 -0.00000000000E+00 -0.20833560202E+03  0.20833560203E+03  0.25500000000E-02 0. -1.
         24    2    1    2    0    0  0.00000000000E+00  0.00000000000E+00 -0.20090924477E+03  0.21576196099E+03  0.78668285715E+02 0.  0.
         66    2    3    3    0    0  0.34573317028E+02 -0.46379507196E+01 -0.15021754046E+03  0.15422754065E+03  0.19999989203E+01 0.  0.
        -13    1    3    3    0    0 -0.34573317028E+02  0.46379507196E+01 -0.50691704313E+02  0.61534420347E+02  0.10566000000E+00 0.  1.
         13    1    4    4    0    0  0.12811638062E+02 -0.15123946554E+01 -0.54712406682E+02  0.56212845653E+02  0.10566000000E+00 0. -1.
        -13    1    4    4    0    0  0.11754201601E+02 -0.15376830189E+01 -0.54764204130E+02  0.56032623911E+02  0.10566000000E+00 0.  1.
         14    1    4    4    0    0  0.10007477365E+02 -0.15878730453E+01 -0.40740929645E+02  0.41982071082E+02  0.00000000000E+00 0. -1.
<mgrwt>
<rscale>  0 0.78668286E+02</rscale>
<asrwt>0</asrwt>
<pdfrwt beam="1">  1        2 0.32051627E-01 0.78668286E+02</pdfrwt>
<pdfrwt beam="2">  1       -1 0.11425168E-02 0.78668286E+02</pdfrwt>
<totfact> 0.23386492E+05</totfact>
</mgrwt>
</event>
<event>
 8    1  0.2561077E-020  0.8058227E+02  0.7818608E-02  0.1327407E+00
          2   -1    0    0  501    0  0.00000000000E+00  0.00000000000E+00  0.26468862591E+03  0.26468862593E+03  0.25500000000E-02 0. -1.
         -1   -1    0    0    0  501 -0.00000000000E+00 -0.00000000000E+00 -0.61331509807E+01  0.61331530515E+01  0.50400000000E-02 0.  1.
         24    2    1    2    0    0  0.00000000000E+00 -0.35527136788E-14  0.25855547493E+03  0.27082177898E+03  0.80582270697E+02 0.  0.
         66    2    3    3    0    0 -0.28279693157E+02  0.22118784468E+02  0.19062990026E+03  0.19399159917E+03  0.20000004451E+01 0.  0.
        -13    1    3    3    0    0  0.28279693157E+02 -0.22118784468E+02  0.67925574669E+02  0.76830179810E+02  0.10566000000E+00 0.  1.
         13    1    4    4    0    0 -0.14774800377E+02  0.11922701176E+02  0.10400671600E+03  0.10572536908E+03  0.10566000000E+00 0. -1.
        -13    1    4    4    0    0 -0.75377905748E+01  0.54799041108E+01  0.45262537237E+02  0.46212077177E+02  0.10566000000E+00 0.  1.
        -14    1    4    4    0    0 -0.59671022052E+01  0.47161791808E+01  0.41360647023E+02  0.42054152910E+02  0.00000000000E+00 0.  1.
<mgrwt>
<rscale>  0 0.80582271E+02</rscale>
<asrwt>0</asrwt>
<pdfrwt beam="1">  1        2 0.40721308E-01 0.80582271E+02</pdfrwt>
<pdfrwt beam="2">  1       -1 0.94356230E-03 0.80582271E+02</pdfrwt>
<totfact> 0.23904265E+05</totfact>
</mgrwt>
</event>
<event>
 8    1  0.2561077E-020  0.7388618E+02  0.7818608E-02  0.1347355E+00
          2   -1    0    0  501    0  0.00000000000E+00  0.00000000000E+00  0.16995855800E+03  0.16995855802E+03  0.25500000000E-02 0. -1.
         -1   -1    0    0    0  501 -0.00000000000E+00 -0.00000000000E+00 -0.80301440677E+01  0.80301456493E+01  0.50400000000E-02 0.  1.
         24    2    1    2    0    0  0.00000000000E+00  0.35527136788E-14  0.16192841394E+03  0.17798870367E+03  0.73886178647E+02 0.  0.
         66    2    3    3    0    0 -0.15196385942E+02  0.29368470781E+02  0.12055889193E+03  0.12502753170E+03  0.20000093979E+01 0.  0.
        -13    1    3    3    0    0  0.15196385942E+02 -0.29368470781E+02  0.41369522002E+02  0.52961171970E+02  0.10566000000E+00 0.  1.
         13    1    4    4    0    0 -0.46258901212E+00  0.11150815613E+01  0.43140461165E+01  0.44810214699E+01  0.10566000000E+00 0.  1.
        -13    1    4    4    0    0 -0.17097144116E+01  0.46775683941E+01  0.18130834034E+02  0.18802688007E+02  0.10566000000E+00 0.  1.
         14    1    4    4    0    0 -0.13024082518E+02  0.23575820825E+02  0.98114011783E+02  0.10174382223E+03  0.00000000000E+00 0. -1.
<mgrwt>
<rscale>  0 0.73886179E+02</rscale>
<asrwt>0</asrwt>
<pdfrwt beam="1">  1        2 0.26147468E-01 0.73886179E+02</pdfrwt>
<pdfrwt beam="2">  1       -1 0.12354070E-02 0.73886179E+02</pdfrwt>
<totfact> 0.25729282E+05</totfact>
</mgrwt>
</event>
<event>
 8    1  0.2561077E-020  0.8039839E+02  0.7818608E-02  0.1327925E+00
         -1   -1    0    0    0  501 -0.00000000000E+00  0.00000000000E+00  0.39270785039E+01  0.39270817381E+01  0.50400000000E-02 0.  1.
          2   -1    0    0  501    0  0.00000000000E+00 -0.00000000000E+00 -0.41149533948E+03  0.41149533949E+03  0.25500000000E-02 0. -1.
         24    2    1    2    0    0  0.35527136788E-14  0.35527136788E-14 -0.40756826098E+03  0.41542242122E+03  0.80398387435E+02 0.  0.
         66    2    3    3    0    0 -0.31533278383E+02 -0.24858875463E+02 -0.21056492060E+03  0.21436860103E+03  0.19999955993E+01 0.  0.
        -13    1    3    3    0    0  0.31533278383E+02  0.24858875463E+02 -0.19700334037E+03  0.20105382020E+03  0.10566000000E+00 0.  1.
         13    1    4    4    0    0 -0.13095843032E+02 -0.11322086172E+02 -0.89202097374E+02  0.90866473905E+02  0.10566000000E+00 0.  1.
        -13    1    4    4    0    0 -0.91539800254E+01 -0.71885981789E+01 -0.62417769877E+02  0.63493782802E+02  0.10566000000E+00 0. -1.
         14    1    4    4    0    0 -0.92834553256E+01 -0.63481911122E+01 -0.58945053353E+02  0.60008344320E+02  0.00000000000E+00 0. -1.
<mgrwt>
<rscale>  0 0.80398387E+02</rscale>
<asrwt>0</asrwt>
<pdfrwt beam="1">  1        2 0.63306941E-01 0.80398387E+02</pdfrwt>
<pdfrwt beam="2">  1       -1 0.60416650E-03 0.80398387E+02</pdfrwt>
<totfact> 0.28165830E+05</totfact>
</mgrwt>
</event>
<event>
 8    1  0.2561077E-020  0.8009657E+02  0.7818608E-02  0.1328778E+00
         -1   -1    0    0    0  501 -0.00000000000E+00  0.00000000000E+00  0.68008270338E+01  0.68008289013E+01  0.50400000000E-02 0.  1.
          2   -1    0    0  501    0  0.00000000000E+00 -0.00000000000E+00 -0.23583377468E+03  0.23583377470E+03  0.25500000000E-02 0. -1.
         24    2    1    2    0    0  0.00000000000E+00  0.00000000000E+00 -0.22903294765E+03  0.24263460360E+03  0.80096565184E+02 0.  0.
         66    2    3    3    0    0 -0.24764619613E+02 -0.12002166821E+02 -0.20262041549E+03  0.20449051609E+03  0.20000006942E+01 0.  0.
        -13    1    3    3    0    0  0.24764619613E+02  0.12002166821E+02 -0.26412532158E+02  0.38144087511E+02  0.10566000000E+00 0.  1.
         13    1    4    4    0    0 -0.29121212108E+01 -0.15436740829E+01 -0.22022746764E+02  0.22268271570E+02  0.10566000000E+00 0. -1.
        -13    1    4    4    0    0 -0.12993769214E+02 -0.66942485375E+01 -0.11366825637E+03  0.11460425242E+03  0.10566000000E+00 0.  1.
         14    1    4    4    0    0 -0.88587291886E+01 -0.37642442010E+01 -0.66929412353E+02  0.67617992097E+02  0.00000000000E+00 0. -1.
<mgrwt>
<rscale>  0 0.80096565E+02</rscale>
<asrwt>0</asrwt>
<pdfrwt beam="1">  1        2 0.36282113E-01 0.80096565E+02</pdfrwt>
<pdfrwt beam="2">  1       -1 0.10462814E-02 0.80096565E+02</pdfrwt>
<totfact> 0.23302098E+05</totfact>
</mgrwt>
</event>
<event>
 8    1  0.2561077E-020  0.8043058E+02  0.7818608E-02  0.1327834E+00
         -1   -1    0    0    0  501 -0.00000000000E+00  0.00000000000E+00  0.13083298729E+01  0.13083395805E+01  0.50400000000E-02 0.  1.
          2   -1    0    0  501    0  0.00000000000E+00 -0.00000000000E+00 -0.12361281766E+04  0.12361281766E+04  0.25500000000E-02 0. -1.
         24    2    1    2    0    0  0.17763568394E-14  0.35527136788E-14 -0.12348198467E+04  0.12374365162E+04  0.80430576973E+02 0.  0.
         66    2    3    3    0    0  0.10025662119E+02 -0.24949119190E+02 -0.10773644015E+04  0.10777017334E+04  0.20000020111E+01 0.  0.
        -13    1    3    3    0    0 -0.10025662119E+02  0.24949119190E+02 -0.15745544521E+03  0.15973478281E+03  0.10566000000E+00 0.  1.
         13    1    4    4    0    0  0.53232359184E+01 -0.12984211688E+02 -0.54550803713E+03  0.54568851585E+03  0.10566000000E+00 0. -1.
        -13    1    4    4    0    0  0.30816776333E+01 -0.64949606170E+01 -0.28063847933E+03  0.28073056209E+03  0.10566000000E+00 0.  1.
        -14    1    4    4    0    0  0.16207485677E+01 -0.54699468854E+01 -0.25121788505E+03  0.25128265542E+03  0.00000000000E+00 0.  1.
<mgrwt>
<rscale>  0 0.80430577E+02</rscale>
<asrwt>0</asrwt>
<pdfrwt beam="1">  1        2 0.19017263E+00 0.80430577E+02</pdfrwt>
<pdfrwt beam="2">  1       -1 0.20128326E-03 0.80430577E+02</pdfrwt>
<totfact> 0.34425155E+05</totfact>
</mgrwt>
</event>
<event>
 8    1  0.2561077E-020  0.8012784E+02  0.7818608E-02  0.1328689E+00
          2   -1    0    0  501    0  0.00000000000E+00  0.00000000000E+00  0.15413062323E+02  0.15413062534E+02  0.25500000000E-02 0. -1.
         -1   -1    0    0    0  501 -0.00000000000E+00 -0.00000000000E+00 -0.10414009897E+03  0.10414009910E+03  0.50400000000E-02 0.  1.
         24    2    1    2    0    0  0.00000000000E+00  0.00000000000E+00 -0.88727036652E+02  0.11955316163E+03  0.80127844242E+02 0.  0.
         66    2    3    3    0    0  0.24200941265E+02  0.99334823369E+01  0.83376171805E+00  0.26249853017E+02  0.19999988502E+01 0.  0.
        -13    1    3    3    0    0 -0.24200941265E+02 -0.99334823369E+01 -0.89560798370E+02  0.93303308613E+02  0.10566000000E+00 0.  1.
         13    1    4    4    0    0  0.39632914530E+01  0.16128057143E+01 -0.14142204635E+00  0.42825209450E+01  0.10566000000E+00 0. -1.
        -13    1    4    4    0    0  0.57509942267E+01  0.20632257572E+01 -0.42138715509E+00  0.61253217295E+01  0.10566000000E+00 0.  1.
         14    1    4    4    0    0  0.14486655585E+02  0.62574508654E+01  0.13965709195E+01  0.15842010343E+02  0.00000000000E+00 0. -1.
<mgrwt>
<rscale>  0 0.80127844E+02</rscale>
<asrwt>0</asrwt>
<pdfrwt beam="1">  1        2 0.23712404E-02 0.80127844E+02</pdfrwt>
<pdfrwt beam="2">  1       -1 0.16021553E-01 0.80127844E+02</pdfrwt>
<totfact> 0.11702995E+05</totfact>
</mgrwt>
</event>
<event>
 8    1  0.2561077E-020  0.7987684E+02  0.7818608E-02  0.1329401E+00
          2   -1    0    0  501    0  0.00000000000E+00  0.00000000000E+00  0.10349548306E+02  0.10349548620E+02  0.25500000000E-02 0. -1.
         -1   -1    0    0    0  501 -0.00000000000E+00 -0.00000000000E+00 -0.15412048785E+03  0.15412048793E+03  0.50400000000E-02 0.  1.
         24    2    1    2    0    0  0.00000000000E+00  0.17763568394E-14 -0.14377093954E+03  0.16447003655E+03  0.79876841863E+02 0.  0.
         66    2    3    3    0    0 -0.34681397273E+02 -0.10169807150E+02 -0.37057196842E+02  0.51802124795E+02  0.20000002998E+01 0.  0.
        -13    1    3    3    0    0  0.34681397273E+02  0.10169807150E+02 -0.10671374270E+03  0.11266791176E+03  0.10566000000E+00 0.  1.
         13    1    4    4    0    0 -0.23525356953E+02 -0.64614877620E+01 -0.24982131068E+02  0.34918638012E+02  0.10566000000E+00 0. -1.
        -13    1    4    4    0    0 -0.93668407404E+01 -0.28724159423E+01 -0.10461584958E+02  0.14333331876E+02  0.10566000000E+00 0.  1.
        -14    1    4    4    0    0 -0.17891995792E+01 -0.83590344522E+00 -0.16134808160E+01  0.25501549066E+01  0.00000000000E+00 0.  1.
<mgrwt>
<rscale>  0 0.79876842E+02</rscale>
<asrwt>0</asrwt>
<pdfrwt beam="1">  1        2 0.15922383E-02 0.79876842E+02</pdfrwt>
<pdfrwt beam="2">  1       -1 0.23710843E-01 0.79876842E+02</pdfrwt>
<totfact> 0.10754293E+05</totfact>
</mgrwt>
</event>
<event>
 8    1  0.2561077E-020  0.7877865E+02  0.7818608E-02  0.1332554E+00
          2   -1    0    0  501    0  0.00000000000E+00  0.00000000000E+00  0.74180033933E+01  0.74180038315E+01  0.25500000000E-02 0. -1.
         -1   -1    0    0    0  501 -0.00000000000E+00 -0.00000000000E+00 -0.20915587045E+03  0.20915587051E+03  0.50400000000E-02 0.  1.
         24    2    1    2    0    0  0.71054273576E-14  0.00000000000E+00 -0.20173786706E+03  0.21657387434E+03  0.78778652203E+02 0.  0.
         66    2    3    3    0    0  0.39004452800E+02 -0.17803139371E+01 -0.11467872033E+03  0.12115991808E+03  0.19999994546E+01 0.  0.
        -13    1    3    3    0    0 -0.39004452800E+02  0.17803139371E+01 -0.87059146728E+02  0.95413956259E+02  0.10566000000E+00 0.  1.
         13    1    4    4    0    0  0.12177603274E+02 -0.13160925623E+01 -0.36602302098E+02  0.38597484427E+02  0.10566000000E+00 0. -1.
        -13    1    4    4    0    0  0.94702668963E+01 -0.22917916851E+00 -0.26363079902E+02  0.28013597129E+02  0.10566000000E+00 0.  1.
        -14    1    4    4    0    0  0.17356582630E+02 -0.23504220627E+00 -0.51713338327E+02  0.54548836526E+02  0.00000000000E+00 0.  1.
<mgrwt>
<rscale>  0 0.78778652E+02</rscale>
<asrwt>0</asrwt>
<pdfrwt beam="1">  1        2 0.11412315E-02 0.78778652E+02</pdfrwt>
<pdfrwt beam="2">  1       -1 0.32177822E-01 0.78778652E+02</pdfrwt>
<totfact> 0.10217050E+05</totfact>
</mgrwt>
</event>
<event>
 8    1  0.2561077E-020  0.7750073E+02  0.7818608E-02  0.1336297E+00
         -1   -1    0    0    0  501 -0.00000000000E+00  0.00000000000E+00  0.64435534195E+01  0.64435553905E+01  0.50400000000E-02 0.  1.
          2   -1    0    0  501    0  0.00000000000E+00 -0.00000000000E+00 -0.23303767797E+03  0.23303767798E+03  0.25500000000E-02 0. -1.
         24    2    1    2    0    0 -0.88817841970E-15  0.00000000000E+00 -0.22659412455E+03  0.23948123338E+03  0.77500734563E+02 0.  0.
         66    2    3    3    0    0 -0.73497408592E+01  0.32050009273E+02 -0.17657606877E+03  0.17962274314E+03  0.20000014256E+01 0.  0.
        -13    1    3    3    0    0  0.73497408592E+01 -0.32050009273E+02 -0.50018055781E+02  0.59858490235E+02  0.10566000000E+00 0.  1.
         13    1    4    4    0    0 -0.54002127072E+01  0.23752020935E+02 -0.12853700715E+03  0.13082466956E+03  0.10566000000E+00 0. -1.
        -13    1    4    4    0    0 -0.18475070736E+01  0.63104138979E+01 -0.36030499908E+02  0.36625710827E+02  0.10566000000E+00 0.  1.
        -14    1    4    4    0    0 -0.10202107841E+00  0.19875744396E+01 -0.12008561716E+02  0.12172362751E+02  0.00000000000E+00 0.  1.
<mgrwt>
<rscale>  0 0.77500735E+02</rscale>
<asrwt>0</asrwt>
<pdfrwt beam="1">  1        2 0.35851944E-01 0.77500735E+02</pdfrwt>
<pdfrwt beam="2">  1       -1 0.99131625E-03 0.77500735E+02</pdfrwt>
<totfact> 0.25301752E+05</totfact>
</mgrwt>
</event>
<event>
 8    1  0.2561077E-020  0.8029429E+02  0.7818608E-02  0.1328218E+00
         -1   -1    0    0    0  501 -0.00000000000E+00  0.00000000000E+00  0.19468872573E+02  0.19468873225E+02  0.50400000000E-02 0.  1.
          2   -1    0    0  501    0  0.00000000000E+00 -0.00000000000E+00 -0.82788209242E+02  0.82788209282E+02  0.25500000000E-02 0. -1.
         24    2    1    2    0    0  0.00000000000E+00  0.00000000000E+00 -0.63319336670E+02  0.10225708251E+03  0.80294287010E+02 0.  0.
         66    2    3    3    0    0 -0.24041472827E+02  0.13757663692E+02 -0.68645003417E+02  0.74049998001E+02  0.19999959713E+01 0.  0.
        -13    1    3    3    0    0  0.24041472827E+02 -0.13757663692E+02  0.53256667470E+01  0.28207084506E+02  0.10566000000E+00 0.  1.
         13    1    4    4    0    0 -0.14902896202E+02  0.90073277026E+01 -0.41686624074E+02  0.45177583582E+02  0.10566000000E+00 0. -1.
        -13    1    4    4    0    0 -0.38053518171E+01  0.15121720363E+01 -0.10411496552E+02  0.11188288127E+02  0.10566000000E+00 0.  1.
         14    1    4    4    0    0 -0.53332248083E+01  0.32381639536E+01 -0.16546882790E+02  0.17684126292E+02  0.00000000000E+00 0. -1.
<mgrwt>
<rscale>  0 0.80294287E+02</rscale>
<asrwt>0</asrwt>
<pdfrwt beam="1">  1        2 0.12736647E-01 0.80294287E+02</pdfrwt>
<pdfrwt beam="2">  1       -1 0.29952113E-02 0.80294287E+02</pdfrwt>
<totfact> 0.16678417E+05</totfact>
</mgrwt>
</event>
<event>
 8    1  0.2561077E-020  0.7968297E+02  0.7818608E-02  0.1329954E+00
         -1   -1    0    0    0  501 -0.00000000000E+00  0.00000000000E+00  0.10986756768E+01  0.10986872368E+01  0.50400000000E-02 0.  1.
          2   -1    0    0  501    0  0.00000000000E+00 -0.00000000000E+00 -0.14447718699E+04  0.14447718699E+04  0.25500000000E-02 0. -1.
         24    2    1    2    0    0  0.17763568394E-14  0.00000000000E+00 -0.14436731943E+04  0.14458705572E+04  0.79682973608E+02 0.  0.
         66    2    3    3    0    0  0.94881248780E+01  0.10680453589E+02 -0.13966610166E+04  0.13967355125E+04  0.19999998819E+01 0.  0.
        -13    1    3    3    0    0 -0.94881248780E+01 -0.10680453589E+02 -0.47012177690E+02  0.49135044701E+02  0.10566000000E+00 0.  1.
         13    1    4    4    0    0  0.33415556985E+01  0.24718141248E+01 -0.39742577245E+03  0.39744752060E+03  0.10566000000E+00 0. -1.
        -13    1    4    4    0    0  0.48940501965E+01  0.61951865906E+01 -0.76526519160E+03  0.76530592360E+03  0.10566000000E+00 0.  1.
        -14    1    4    4    0    0  0.12525189830E+01  0.20134528738E+01 -0.23397005252E+03  0.23398206827E+03  0.00000000000E+00 0.  1.
<mgrwt>
<rscale>  0 0.79682974E+02</rscale>
<asrwt>0</asrwt>
<pdfrwt beam="1">  1        2 0.22227108E+00 0.79682974E+02</pdfrwt>
<pdfrwt beam="2">  1       -1 0.16902907E-03 0.79682974E+02</pdfrwt>
<totfact> 0.34040346E+05</totfact>
</mgrwt>
</event>
<event>
 8    1  0.2561077E-020  0.7946163E+02  0.7818608E-02  0.1330586E+00
          2   -1    0    0  501    0  0.00000000000E+00  0.00000000000E+00  0.52751013554E+03  0.52751013554E+03  0.25500000000E-02 0. -1.
         -1   -1    0    0    0  501 -0.00000000000E+00 -0.00000000000E+00 -0.29924285045E+01  0.29924327488E+01  0.50400000000E-02 0.  1.
         24    2    1    2    0    0  0.00000000000E+00 -0.17763568394E-14  0.52451770703E+03  0.53050256829E+03  0.79461625794E+02 0.  0.
         66    2    3    3    0    0 -0.35743653228E+02  0.13367036833E+02  0.33563371643E+03  0.33780212852E+03  0.20000014217E+01 0.  0.
        -13    1    3    3    0    0  0.35743653228E+02 -0.13367036833E+02  0.18888399060E+03  0.19270043977E+03  0.10566000000E+00 0.  1.
         13    1    4    4    0    0 -0.68982914040E+01  0.27814163771E+01  0.65048638795E+02  0.65472584144E+02  0.10566000000E+00 0. -1.
        -13    1    4    4    0    0 -0.15109461075E+02  0.47519309334E+01  0.14313859867E+03  0.14401231286E+03  0.10566000000E+00 0.  1.
        -14    1    4    4    0    0 -0.13735900749E+02  0.58336895228E+01  0.12744647897E+03  0.12831723152E+03  0.00000000000E+00 0.  1.
<mgrwt>
<rscale>  0 0.79461626E+02</rscale>
<asrwt>0</asrwt>
<pdfrwt beam="1">  1        2 0.81155362E-01 0.79461626E+02</pdfrwt>
<pdfrwt beam="2">  1       -1 0.46037419E-03 0.79461626E+02</pdfrwt>
<totfact> 0.31516411E+05</totfact>
</mgrwt>
</event>
<event>
 8    1  0.2561077E-020  0.8148643E+02  0.7818608E-02  0.1324885E+00
         -1   -1    0    0    0  501 -0.00000000000E+00  0.00000000000E+00  0.42778068263E+02  0.42778068560E+02  0.50400000000E-02 0.  1.
          2   -1    0    0  501    0  0.00000000000E+00 -0.00000000000E+00 -0.38805150839E+02  0.38805150923E+02  0.25500000000E-02 0. -1.
         24    2    1    2    0    0  0.35527136788E-14 -0.33306690739E-15  0.39729174240E+01  0.81583219483E+02  0.81486426038E+02 0.  0.
         66    2    3    3    0    0  0.29634319639E+02 -0.89104690006E+00 -0.25956387789E+02  0.39455303090E+02  0.20000024610E+01 0.  0.
        -13    1    3    3    0    0 -0.29634319639E+02  0.89104690006E+00  0.29929305213E+02  0.42127916393E+02  0.10566000000E+00 0.  1.
         13    1    4    4    0    0  0.49371734975E+01 -0.28633355398E+00 -0.41109759226E+01  0.64318703439E+01  0.10566000000E+00 0. -1.
        -13    1    4    4    0    0  0.11670386285E+02  0.20555858381E+00 -0.11261221497E+02  0.16219323167E+02  0.10566000000E+00 0.  1.
        -14    1    4    4    0    0  0.13026759857E+02 -0.81027192990E+00 -0.10584190369E+02  0.16804109579E+02  0.00000000000E+00 0.  1.
<mgrwt>
<rscale>  0 0.81486426E+02</rscale>
<asrwt>0</asrwt>
<pdfrwt beam="1">  1        2 0.59700232E-02 0.81486426E+02</pdfrwt>
<pdfrwt beam="2">  1       -1 0.65812413E-02 0.81486426E+02</pdfrwt>
<totfact> 0.13461996E+05</totfact>
</mgrwt>
</event>
<event>
 8    1  0.2561077E-020  0.7965467E+02  0.7818608E-02  0.1330034E+00
          2   -1    0    0  501    0  0.00000000000E+00  0.00000000000E+00  0.33383706931E+03  0.33383706932E+03  0.25500000000E-02 0. -1.
         -1   -1    0    0    0  501 -0.00000000000E+00 -0.00000000000E+00 -0.47514684467E+01  0.47514711197E+01  0.50400000000E-02 0.  1.
         24    2    1    2    0    0  0.00000000000E+00  0.00000000000E+00  0.32908560086E+03  0.33858854044E+03  0.79654673569E+02 0.  0.
         66    2    3    3    0    0 -0.43907505682E+01 -0.30814900511E+02  0.27009244122E+03  0.27188740977E+03  0.20000005964E+01 0.  0.
        -13    1    3    3    0    0  0.43907505682E+01  0.30814900511E+02  0.58993159642E+02  0.66701130670E+02  0.10566000000E+00 0.  1.
         13    1    4    4    0    0 -0.13217385749E+01 -0.80354777763E+01  0.72565923195E+02  0.73021505525E+02  0.10566000000E+00 0. -1.
        -13    1    4    4    0    0 -0.16004754118E+01 -0.94516397085E+01  0.88644721407E+02  0.89161610641E+02  0.10566000000E+00 0.  1.
         14    1    4    4    0    0 -0.14685365815E+01 -0.13327783026E+02  0.10888179662E+03  0.10970429360E+03  0.00000000000E+00 0. -1.
<mgrwt>
<rscale>  0 0.79654674E+02</rscale>
<asrwt>0</asrwt>
<pdfrwt beam="1">  1        2 0.51359537E-01 0.79654674E+02</pdfrwt>
<pdfrwt beam="2">  1       -1 0.73099553E-03 0.79654674E+02</pdfrwt>
<totfact> 0.26798744E+05</totfact>
</mgrwt>
</event>
<event>
 8    1  0.2561077E-020  0.7999274E+02  0.7818608E-02  0.1329072E+00
         -1   -1    0    0    0  501 -0.00000000000E+00  0.00000000000E+00  0.18278315545E+01  0.18278385030E+01  0.50400000000E-02 0.  1.
          2   -1    0    0  501    0  0.00000000000E+00 -0.00000000000E+00 -0.87519373924E+03  0.87519373924E+03  0.25500000000E-02 0. -1.
         24    2    1    2    0    0  0.00000000000E+00  0.00000000000E+00 -0.87336590769E+03  0.87702157775E+03  0.79992744209E+02 0.  0.
         66    2    3    3    0    0 -0.48902710194E+01  0.99722403291E+01 -0.85793294365E+03  0.85800716556E+03  0.20000067721E+01 0.  0.
        -13    1    3    3    0    0  0.48902710194E+01 -0.99722403291E+01 -0.15432964040E+02  0.19014412190E+02  0.10566000000E+00 0.  1.
         13    1    4    4    0    0 -0.34540261422E+01  0.64888660620E+01 -0.52388919692E+03  0.52394077670E+03  0.10566000000E+00 0. -1.
        -13    1    4    4    0    0 -0.11137831465E+01  0.14659284388E+01 -0.16417895390E+03  0.16418931003E+03  0.10566000000E+00 0.  1.
         14    1    4    4    0    0 -0.32246173070E+00  0.20174458284E+01 -0.16986479283E+03  0.16987707883E+03  0.00000000000E+00 0. -1.
<mgrwt>
<rscale>  0 0.79992744E+02</rscale>
<asrwt>0</asrwt>
<pdfrwt beam="1">  1        2 0.13464486E+00 0.79992744E+02</pdfrwt>
<pdfrwt beam="2">  1       -1 0.28120609E-03 0.79992744E+02</pdfrwt>
<totfact> 0.34839613E+05</totfact>
</mgrwt>
</event>
<event>
 8    1  0.2561077E-020  0.7937843E+02  0.7818608E-02  0.1330825E+00
         -1   -1    0    0    0  501 -0.00000000000E+00  0.00000000000E+00  0.10823626521E+03  0.10823626533E+03  0.50400000000E-02 0.  1.
          2   -1    0    0  501    0  0.00000000000E+00 -0.00000000000E+00 -0.14553658695E+02  0.14553658918E+02  0.25500000000E-02 0. -1.
         24    2    1    2    0    0  0.00000000000E+00  0.71054273576E-14  0.93682606516E+02  0.12278992425E+03  0.79378427377E+02 0.  0.
         66    2    3    3    0    0 -0.18909569723E+02 -0.33827074370E+02  0.59940685929E+02  0.71405382247E+02  0.19999991804E+01 0.  0.
        -13    1    3    3    0    0  0.18909569723E+02  0.33827074370E+02  0.33741920588E+02  0.51384541999E+02  0.10566000000E+00 0.  1.
         13    1    4    4    0    0 -0.15825773131E+02 -0.29218704669E+02  0.51510007581E+02  0.61298285806E+02  0.10566000000E+00 0. -1.
        -13    1    4    4    0    0 -0.17556875772E+01 -0.29087915738E+01  0.55527259149E+01  0.65105634480E+01  0.10566000000E+00 0.  1.
         14    1    4    4    0    0 -0.13281090146E+01 -0.16995781269E+01  0.28779524328E+01  0.35965329929E+01  0.00000000000E+00 0. -1.
<mgrwt>
<rscale>  0 0.79378427E+02</rscale>
<asrwt>0</asrwt>
<pdfrwt beam="1">  1        2 0.22390244E-02 0.79378427E+02</pdfrwt>
<pdfrwt beam="2">  1       -1 0.16651733E-01 0.79378427E+02</pdfrwt>
<totfact> 0.11880558E+05</totfact>
</mgrwt>
</event>
<event>
 8    1  0.2561077E-020  0.7824220E+02  0.7818608E-02  0.1334115E+00
          2   -1    0    0  501    0  0.00000000000E+00  0.00000000000E+00  0.29131640788E+03  0.29131640789E+03  0.25500000000E-02 0. -1.
         -1   -1    0    0    0  501 -0.00000000000E+00 -0.00000000000E+00 -0.52536004049E+01  0.52536028225E+01  0.50400000000E-02 0.  1.
         24    2    1    2    0    0  0.00000000000E+00  0.00000000000E+00  0.28606280748E+03  0.29657001072E+03  0.78242197274E+02 0.  0.
         66    2    3    3    0    0 -0.19340201620E+02 -0.24750815939E+02  0.23135319303E+03  0.23348435969E+03  0.20000015346E+01 0.  0.
        -13    1    3    3    0    0  0.19340201620E+02  0.24750815939E+02  0.54709614445E+02  0.63085651024E+02  0.10566000000E+00 0.  1.
         13    1    4    4    0    0 -0.14088904120E+01 -0.22497647309E+01  0.17878490167E+02  0.18074788746E+02  0.10566000000E+00 0. -1.
        -13    1    4    4    0    0 -0.46506790420E+01 -0.60852480071E+01  0.61419892238E+02  0.61895665320E+02  0.10566000000E+00 0.  1.
         14    1    4    4    0    0 -0.13280632166E+02 -0.16415803201E+02  0.15205481063E+03  0.15351390563E+03  0.00000000000E+00 0. -1.
<mgrwt>
<rscale>  0 0.78242197E+02</rscale>
<asrwt>0</asrwt>
<pdfrwt beam="1">  1        2 0.44817899E-01 0.78242197E+02</pdfrwt>
<pdfrwt beam="2">  1       -1 0.80824659E-03 0.78242197E+02</pdfrwt>
<totfact> 0.26736581E+05</totfact>
</mgrwt>
</event>
<event>
 8    1  0.2561077E-020  0.7817764E+02  0.7818608E-02  0.1334304E+00
          2   -1    0    0  501    0  0.00000000000E+00  0.00000000000E+00  0.31760901393E+03  0.31760901394E+03  0.25500000000E-02 0. -1.
         -1   -1    0    0    0  501 -0.00000000000E+00 -0.00000000000E+00 -0.48107433593E+01  0.48107459994E+01  0.50400000000E-02 0.  1.
         24    2    1    2    0    0  0.00000000000E+00 -0.17763568394E-14  0.31279827057E+03  0.32241975994E+03  0.78177640841E+02 0.  0.
         66    2    3    3    0    0 -0.34347428401E+02  0.15741638651E+02  0.19740895710E+03  0.20100209297E+03  0.20000023864E+01 0.  0.
        -13    1    3    3    0    0  0.34347428401E+02 -0.15741638651E+02  0.11538931347E+03  0.12141766697E+03  0.10566000000E+00 0.  1.
         13    1    4    4    0    0 -0.12329374819E+02  0.52554381899E+01  0.73543458832E+02  0.74754830045E+02  0.10566000000E+00 0. -1.
        -13    1    4    4    0    0 -0.36333836675E+01  0.14162365990E+01  0.20835094369E+02  0.21197158403E+02  0.10566000000E+00 0. -1.
         14    1    4    4    0    0 -0.18384669914E+02  0.90699638626E+01  0.10303040390E+03  0.10505010452E+03  0.00000000000E+00 0. -1.
<mgrwt>
<rscale>  0 0.78177641E+02</rscale>
<asrwt>0</asrwt>
<pdfrwt beam="1">  1        2 0.48862931E-01 0.78177641E+02</pdfrwt>
<pdfrwt beam="2">  1       -1 0.74011449E-03 0.78177641E+02</pdfrwt>
<totfact> 0.27643304E+05</totfact>
</mgrwt>
</event>
<event>
 8    1  0.2561077E-020  0.8054547E+02  0.7818608E-02  0.1327511E+00
          2   -1    0    0  501    0  0.00000000000E+00  0.00000000000E+00  0.35559992758E+03  0.35559992759E+03  0.25500000000E-02 0. -1.
         -1   -1    0    0    0  501 -0.00000000000E+00 -0.00000000000E+00 -0.45610036251E+01  0.45610064097E+01  0.50400000000E-02 0.  1.
         24    2    1    2    0    0 -0.35527136788E-14  0.00000000000E+00  0.35103892396E+03  0.36016093400E+03  0.80545466958E+02 0.  0.
         66    2    3    3    0    0 -0.26709706537E+02  0.30053269335E+02  0.18372648280E+03  0.18808516130E+03  0.19999994544E+01 0.  0.
        -13    1    3    3    0    0  0.26709706537E+02 -0.30053269335E+02  0.16731244116E+03  0.17207577270E+03  0.10566000000E+00 0.  1.
         13    1    4    4    0    0 -0.12607196983E+02  0.14539983557E+02  0.87215869031E+02  0.89313893166E+02  0.10566000000E+00 0. -1.
        -13    1    4    4    0    0 -0.11755858090E+02  0.13648570628E+02  0.82760890818E+02  0.84698641622E+02  0.10566000000E+00 0.  1.
         14    1    4    4    0    0 -0.23466514636E+01  0.18647151498E+01  0.13749722951E+02  0.14072626511E+02  0.00000000000E+00 0. -1.
<mgrwt>
<rscale>  0 0.80545467E+02</rscale>
<asrwt>0</asrwt>
<pdfrwt beam="1">  1        2 0.54707675E-01 0.80545467E+02</pdfrwt>
<pdfrwt beam="2">  1       -1 0.70169317E-03 0.80545467E+02</pdfrwt>
<totfact> 0.26624896E+05</totfact>
</mgrwt>
</event>
<event>
 8    1  0.2561077E-020  0.8028611E+02  0.7818608E-02  0.1328241E+00
         -1   -1    0    0    0  501 -0.00000000000E+00  0.00000000000E+00  0.28972764179E+01  0.28972808016E+01  0.50400000000E-02 0.  1.
          2   -1    0    0  501    0  0.00000000000E+00 -0.00000000000E+00 -0.55619953181E+03  0.55619953182E+03  0.25500000000E-02 0. -1.
         24    2    1    2    0    0  0.17763568394E-14  0.35527136788E-14 -0.55330225539E+03  0.55909681262E+03  0.80286113724E+02 0.  0.
         66    2    3    3    0    0  0.11149834092E+02  0.19799407623E+02 -0.50706267487E+03  0.50757550330E+03  0.19999914844E+01 0.  0.
        -13    1    3    3    0    0 -0.11149834092E+02 -0.19799407623E+02 -0.46239580528E+02  0.51521309319E+02  0.10566000000E+00 0.  1.
         13    1    4    4    0    0  0.24192382687E+01  0.40132221888E+01 -0.94997485043E+02  0.95113048498E+02  0.10566000000E+00 0. -1.
        -13    1    4    4    0    0  0.67053052590E+01  0.12934728525E+02 -0.32229053921E+03  0.32261970050E+03  0.10566000000E+00 0.  1.
        -14    1    4    4    0    0  0.20252905641E+01  0.28514569085E+01 -0.89774650616E+02  0.89842754307E+02  0.00000000000E+00 0.  1.
<mgrwt>
<rscale>  0 0.80286114E+02</rscale>
<asrwt>0</asrwt>
<pdfrwt beam="1">  1        2 0.85569074E-01 0.80286114E+02</pdfrwt>
<pdfrwt beam="2">  1       -1 0.44573562E-03 0.80286114E+02</pdfrwt>
<totfact> 0.31177151E+05</totfact>
</mgrwt>
</event>
<event>
 8    1  0.2561077E-020  0.8018828E+02  0.7818608E-02  0.1328518E+00
          2   -1    0    0  501    0  0.00000000000E+00  0.00000000000E+00  0.47653949480E+03  0.47653949481E+03  0.25500000000E-02 0. -1.
         -1   -1    0    0    0  501 -0.00000000000E+00 -0.00000000000E+00 -0.33733597818E+01  0.33733635468E+01  0.50400000000E-02 0.  1.
         24    2    1    2    0    0  0.71054273576E-14  0.35527136788E-14  0.47316613502E+03  0.47991285836E+03  0.80188280223E+02 0.  0.
         66    2    3    3    0    0 -0.33328955413E+02 -0.18759253178E+02  0.30824943276E+03  0.31061944827E+03  0.20000000839E+01 0.  0.
        -13    1    3    3    0    0  0.33328955413E+02  0.18759253178E+02  0.16491670226E+03  0.16929341009E+03  0.10566000000E+00 0.  1.
         13    1    4    4    0    0 -0.20834266672E+02 -0.10715717240E+02  0.19069480378E+03  0.19212863560E+03  0.10566000000E+00 0. -1.
        -13    1    4    4    0    0 -0.23685837875E+01 -0.16385520810E+01  0.23506469550E+02  0.23682489667E+02  0.10566000000E+00 0.  1.
         14    1    4    4    0    0 -0.10126104953E+02 -0.64049838575E+01  0.94048159430E+02  0.94808323010E+02  0.00000000000E+00 0. -1.
<mgrwt>
<rscale>  0 0.80188280E+02</rscale>
<asrwt>0</asrwt>
<pdfrwt beam="1">  1        2 0.73313774E-01 0.80188280E+02</pdfrwt>
<pdfrwt beam="2">  1       -1 0.51897868E-03 0.80188280E+02</pdfrwt>
<totfact> 0.29799261E+05</totfact>
</mgrwt>
</event>
<event>
 8    1  0.2561077E-020  0.7881238E+02  0.7818608E-02  0.1332456E+00
          2   -1    0    0  501    0  0.00000000000E+00  0.00000000000E+00  0.42408150176E+02  0.42408150253E+02  0.25500000000E-02 0. -1.
         -1   -1    0    0    0  501 -0.00000000000E+00 -0.00000000000E+00 -0.36616733228E+02  0.36616733575E+02  0.50400000000E-02 0.  1.
         24    2    1    2    0    0  0.00000000000E+00  0.35527136788E-14  0.57914169483E+01  0.79024883827E+02  0.78812383250E+02 0.  0.
         66    2    3    3    0    0 -0.21692835838E+02  0.29247434435E+02  0.17933046375E+02  0.40639705999E+02  0.20000009297E+01 0.  0.
        -13    1    3    3    0    0  0.21692835838E+02 -0.29247434435E+02 -0.12141629427E+02  0.38385177828E+02  0.10566000000E+00 0.  1.
         13    1    4    4    0    0 -0.13797241144E+02  0.19698450464E+02  0.12499572428E+02  0.27104303880E+02  0.10566000000E+00 0. -1.
        -13    1    4    4    0    0 -0.19641325335E+01  0.21881925642E+01  0.12028636032E+01  0.31786865511E+01  0.10566000000E+00 0.  1.
        -14    1    4    4    0    0 -0.59314621598E+01  0.73607914064E+01  0.42306103435E+01  0.10356715568E+02  0.00000000000E+00 0.  1.
<mgrwt>
<rscale>  0 0.78812383E+02</rscale>
<asrwt>0</asrwt>
<pdfrwt beam="1">  1        2 0.65243308E-02 0.78812383E+02</pdfrwt>
<pdfrwt beam="2">  1       -1 0.56333436E-02 0.78812383E+02</pdfrwt>
<totfact> 0.15035419E+05</totfact>
</mgrwt>
</event>
<event>
 8    1  0.2561077E-020  0.7850313E+02  0.7818608E-02  0.1333354E+00
         -1   -1    0    0    0  501 -0.00000000000E+00  0.00000000000E+00  0.27009276197E+01  0.27009323221E+01  0.50400000000E-02 0.  1.
          2   -1    0    0  501    0  0.00000000000E+00 -0.00000000000E+00 -0.57042766605E+03  0.57042766606E+03  0.25500000000E-02 0. -1.
         24    2    1    2    0    0  0.00000000000E+00  0.00000000000E+00 -0.56772673843E+03  0.57312859838E+03  0.78503125733E+02 0.  0.
         66    2    3    3    0    0  0.20401707988E+02  0.28733638622E+02 -0.40982894448E+03  0.41134610187E+03  0.20000285809E+01 0.  0.
        -13    1    3    3    0    0 -0.20401707988E+02 -0.28733638622E+02 -0.15789779396E+03  0.16178249651E+03  0.10566000000E+00 0.  1.
         13    1    4    4    0    0  0.20254780916E+01  0.33018177486E+01 -0.45879270281E+02  0.46042623377E+02  0.10566000000E+00 0. -1.
        -13    1    4    4    0    0  0.11732596059E+02  0.15011791794E+02 -0.22522922036E+03  0.22603367132E+03  0.10566000000E+00 0.  1.
        -14    1    4    4    0    0  0.66436338376E+01  0.10420029079E+02 -0.13872045383E+03  0.13926980717E+03  0.00000000000E+00 0.  1.
<mgrwt>
<rscale>  0 0.78503126E+02</rscale>
<asrwt>0</asrwt>
<pdfrwt beam="1">  1        2 0.87758007E-01 0.78503126E+02</pdfrwt>
<pdfrwt beam="2">  1       -1 0.41552814E-03 0.78503126E+02</pdfrwt>
<totfact> 0.33299699E+05</totfact>
</mgrwt>
</event>
<event>
 8    1  0.2561077E-020  0.7806613E+02  0.7818608E-02  0.1334631E+00
          2   -1    0    0  501    0  0.00000000000E+00  0.00000000000E+00  0.13579517795E+03  0.13579517797E+03  0.25500000000E-02 0. -1.
         -1   -1    0    0    0  501 -0.00000000000E+00 -0.00000000000E+00 -0.11219690652E+02  0.11219691784E+02  0.50400000000E-02 0.  1.
         24    2    1    2    0    0  0.00000000000E+00  0.00000000000E+00  0.12457548730E+03  0.14701486976E+03  0.78066125139E+02 0.  0.
         66    2    3    3    0    0 -0.27043631084E+01  0.22406669122E+02  0.12224307199E+03  0.12432514243E+03  0.19999972258E+01 0.  0.
        -13    1    3    3    0    0  0.27043631084E+01 -0.22406669122E+02  0.23324153036E+01  0.22689727327E+02  0.10566000000E+00 0.  1.
         13    1    4    4    0    0 -0.14094888635E+00  0.44405491078E+01  0.25312655577E+02  0.25699806212E+02  0.10566000000E+00 0. -1.
        -13    1    4    4    0    0 -0.42422703537E+00  0.56052524310E+01  0.27096118666E+02  0.27673265694E+02  0.10566000000E+00 0.  1.
        -14    1    4    4    0    0 -0.21391871867E+01  0.12360867583E+02  0.69834297750E+02  0.70952070523E+02  0.00000000000E+00 0.  1.
<mgrwt>
<rscale>  0 0.78066125E+02</rscale>
<asrwt>0</asrwt>
<pdfrwt beam="1">  1        2 0.20891566E-01 0.78066125E+02</pdfrwt>
<pdfrwt beam="2">  1       -1 0.17261064E-02 0.78066125E+02</pdfrwt>
<totfact> 0.20710379E+05</totfact>
</mgrwt>
</event>
<event>
 8    1  0.2561077E-020  0.7805301E+02  0.7818608E-02  0.1334669E+00
          2   -1    0    0  501    0  0.00000000000E+00  0.00000000000E+00  0.83221865642E+03  0.83221865643E+03  0.25500000000E-02 0. -1.
         -1   -1    0    0    0  501 -0.00000000000E+00 -0.00000000000E+00 -0.18301260261E+01  0.18301329660E+01  0.50400000000E-02 0.  1.
         24    2    1    2    0    0  0.00000000000E+00 -0.27755575616E-16  0.83038853040E+03  0.83404878939E+03  0.78053005535E+02 0.  0.
         66    2    3    3    0    0  0.25140059991E+02 -0.82219692983E-01  0.73407721871E+03  0.73451030789E+03  0.19999988989E+01 0.  0.
        -13    1    3    3    0    0 -0.25140059991E+02  0.82219692983E-01  0.96311311689E+02  0.99538481502E+02  0.10566000000E+00 0.  1.
         13    1    4    4    0    0  0.76382548715E+01  0.49835488268E+00  0.22729189276E+03  0.22742077076E+03  0.10566000000E+00 0. -1.
        -13    1    4    4    0    0  0.17357692557E+01 -0.43190738902E+00  0.54945179627E+02  0.54974388284E+02  0.10566000000E+00 0.  1.
         14    1    4    4    0    0  0.15766035864E+02 -0.14866718665E+00  0.45184014632E+03  0.45211514885E+03  0.00000000000E+00 0. -1.
<mgrwt>
<rscale>  0 0.78053006E+02</rscale>
<asrwt>0</asrwt>
<pdfrwt beam="1">  1        2 0.12803368E+00 0.78053006E+02</pdfrwt>
<pdfrwt beam="2">  1       -1 0.28155829E-03 0.78053006E+02</pdfrwt>
<totfact> 0.36870005E+05</totfact>
</mgrwt>
</event>
<event>
 8    1  0.2561077E-020  0.7757609E+02  0.7818608E-02  0.1336074E+00
          2   -1    0    0  501    0  0.00000000000E+00  0.00000000000E+00  0.16533456666E+03  0.16533456668E+03  0.25500000000E-02 0. -1.
         -1   -1    0    0    0  501 -0.00000000000E+00 -0.00000000000E+00 -0.90998049328E+01  0.90998063285E+01  0.50400000000E-02 0.  1.
         24    2    1    2    0    0  0.00000000000E+00  0.00000000000E+00  0.15623476173E+03  0.17443437301E+03  0.77576089840E+02 0.  0.
         66    2    3    3    0    0 -0.98666955328E+01  0.36771801791E+02  0.61800884877E+02  0.72614505848E+02  0.20000000406E+01 0.  0.
        -13    1    3    3    0    0  0.98666955328E+01 -0.36771801791E+02  0.94433876853E+02  0.10181986716E+03  0.10566000000E+00 0.  1.
         13    1    4    4    0    0 -0.65680523277E+01  0.23782708906E+02  0.40528084747E+02  0.47447796277E+02  0.10566000000E+00 0. -1.
        -13    1    4    4    0    0 -0.76743194236E+00  0.16226351037E+01  0.26314245593E+01  0.31870763582E+01  0.10566000000E+00 0.  1.
         14    1    4    4    0    0 -0.25312112627E+01  0.11366457781E+02  0.18641375571E+02  0.21979633212E+02  0.00000000000E+00 0. -1.
<mgrwt>
<rscale>  0 0.77576090E+02</rscale>
<asrwt>0</asrwt>
<pdfrwt beam="1">  1        2 0.25436089E-01 0.77576090E+02</pdfrwt>
<pdfrwt beam="2">  1       -1 0.13999700E-02 0.77576090E+02</pdfrwt>
<totfact> 0.22429567E+05</totfact>
</mgrwt>
</event>
<event>
 8    1  0.2561077E-020  0.7920719E+02  0.7818608E-02  0.1331316E+00
          2   -1    0    0  501    0  0.00000000000E+00  0.00000000000E+00  0.86490052781E+02  0.86490052819E+02  0.25500000000E-02 0. -1.
         -1   -1    0    0    0  501 -0.00000000000E+00 -0.00000000000E+00 -0.18134394319E+02  0.18134395019E+02  0.50400000000E-02 0.  1.
         24    2    1    2    0    0  0.00000000000E+00 -0.44408920985E-15  0.68355658463E+02  0.10462444784E+03  0.79207190592E+02 0.  0.
         66    2    3    3    0    0  0.21786388905E+02 -0.33555647781E+01  0.77619341256E+02  0.80713497639E+02  0.20000018954E+01 0.  0.
        -13    1    3    3    0    0 -0.21786388905E+02  0.33555647781E+01 -0.92636827933E+01  0.23910950199E+02  0.10566000000E+00 0.  1.
         13    1    4    4    0    0  0.92085421809E+00 -0.36467234401E+00  0.27185392701E+01  0.28952682446E+01  0.10566000000E+00 0. -1.
        -13    1    4    4    0    0  0.51256936488E+01 -0.12071798704E+01  0.18483698950E+02  0.19219477348E+02  0.10566000000E+00 0.  1.
         14    1    4    4    0    0  0.15739841038E+02 -0.17837125637E+01  0.56417103036E+02  0.58598752046E+02  0.00000000000E+00 0. -1.
<mgrwt>
<rscale>  0 0.79207191E+02</rscale>
<asrwt>0</asrwt>
<pdfrwt beam="1">  1        2 0.13306162E-01 0.79207191E+02</pdfrwt>
<pdfrwt beam="2">  1       -1 0.27899069E-02 0.79207191E+02</pdfrwt>
<totfact> 0.17501097E+05</totfact>
</mgrwt>
</event>
<event>
 8    1  0.2561077E-020  0.8118135E+02  0.7818608E-02  0.1325732E+00
         -1   -1    0    0    0  501 -0.00000000000E+00  0.00000000000E+00  0.13523575287E+01  0.13523669203E+01  0.50400000000E-02 0.  1.
          2   -1    0    0  501    0  0.00000000000E+00 -0.00000000000E+00 -0.12183148400E+04  0.12183148400E+04  0.25500000000E-02 0. -1.
         24    2    1    2    0    0 -0.17763568394E-14  0.00000000000E+00 -0.12169624824E+04  0.12196672069E+04  0.81181351926E+02 0.  0.
         66    2    3    3    0    0  0.91954905805E+01  0.22555441207E+02 -0.10962134861E+04  0.10964858924E+04  0.20000005774E+01 0.  0.
        -13    1    3    3    0    0 -0.91954905805E+01 -0.22555441207E+02 -0.12074899628E+03  0.12318131450E+03  0.10566000000E+00 0.  1.
         13    1    4    4    0    0  0.23754711600E+01  0.53248726736E+01 -0.26907515514E+03  0.26913834251E+03  0.10566000000E+00 0. -1.
        -13    1    4    4    0    0  0.39894687164E+01  0.10926035559E+02 -0.48547038808E+03  0.48560972290E+03  0.10566000000E+00 0.  1.
        -14    1    4    4    0    0  0.28305507040E+01  0.63045329740E+01 -0.34166794292E+03  0.34173782696E+03  0.00000000000E+00 0.  1.
<mgrwt>
<rscale>  0 0.81181352E+02</rscale>
<asrwt>0</asrwt>
<pdfrwt beam="1">  1        2 0.18743218E+00 0.81181352E+02</pdfrwt>
<pdfrwt beam="2">  1       -1 0.20805670E-03 0.81181352E+02</pdfrwt>
<totfact> 0.33668533E+05</totfact>
</mgrwt>
</event>
<event>
 8    1  0.2561077E-020  0.7933118E+02  0.7818608E-02  0.1330960E+00
         -1   -1    0    0    0  501 -0.00000000000E+00  0.00000000000E+00  0.14992024717E+01  0.14992109434E+01  0.50400000000E-02 0.  1.
          2   -1    0    0  501    0  0.00000000000E+00 -0.00000000000E+00 -0.10494609335E+04  0.10494609335E+04  0.25500000000E-02 0. -1.
         24    2    1    2    0    0  0.00000000000E+00  0.00000000000E+00 -0.10479617311E+04  0.10509601445E+04  0.79331176189E+02 0.  0.
         66    2    3    3    0    0 -0.10623734021E+02  0.14500636531E+02 -0.99235863239E+03  0.99252344428E+03  0.19999955499E+01 0.  0.
        -13    1    3    3    0    0  0.10623734021E+02 -0.14500636531E+02 -0.55603098676E+02  0.58436700204E+02  0.10566000000E+00 0.  1.
         13    1    4    4    0    0 -0.29884890063E+01  0.34242065285E+01 -0.27395771565E+03  0.27399543315E+03  0.10566000000E+00 0. -1.
        -13    1    4    4    0    0 -0.73009186402E+01  0.10813479769E+02 -0.68374078927E+03  0.68386527389E+03  0.10566000000E+00 0.  1.
        -14    1    4    4    0    0 -0.33432637417E+00  0.26295023340E+00 -0.34660127472E+02  0.34662737245E+02  0.00000000000E+00 0.  1.
<mgrwt>
<rscale>  0 0.79331176E+02</rscale>
<asrwt>0</asrwt>
<pdfrwt beam="1">  1        2 0.16145494E+00 0.79331176E+02</pdfrwt>
<pdfrwt beam="2">  1       -1 0.23064803E-03 0.79331176E+02</pdfrwt>
<totfact> 0.36049426E+05</totfact>
</mgrwt>
</event>
<event>
 8    1  0.2561077E-020  0.7798768E+02  0.7818608E-02  0.1334861E+00
         -1   -1    0    0    0  501 -0.00000000000E+00  0.00000000000E+00  0.26266095987E+01  0.26266144341E+01  0.50400000000E-02 0.  1.
          2   -1    0    0  501    0  0.00000000000E+00 -0.00000000000E+00 -0.57889001571E+03  0.57889001571E+03  0.25500000000E-02 0. -1.
         24    2    1    2    0    0  0.00000000000E+00  0.00000000000E+00 -0.57626340611E+03  0.58151663015E+03  0.77987677986E+02 0.  0.
         66    2    3    3    0    0  0.31645579225E+02  0.54638268727E+01 -0.45290861304E+03  0.45405011602E+03  0.19999991362E+01 0.  0.
        -13    1    3    3    0    0 -0.31645579225E+02 -0.54638268727E+01 -0.12335479306E+03  0.12746651413E+03  0.10566000000E+00 0.  1.
         13    1    4    4    0    0  0.12824038613E+02  0.22099296529E+01 -0.17407601854E+03  0.17456176887E+03  0.10566000000E+00 0. -1.
        -13    1    4    4    0    0  0.43084445638E+01  0.28767623879E+00 -0.61349068056E+02  0.61500933063E+02  0.10566000000E+00 0.  1.
        -14    1    4    4    0    0  0.14513096048E+02  0.29662209810E+01 -0.21748352645E+03  0.21798741408E+03  0.00000000000E+00 0.  1.
<mgrwt>
<rscale>  0 0.77987678E+02</rscale>
<asrwt>0</asrwt>
<pdfrwt beam="1">  1        2 0.89059901E-01 0.77987678E+02</pdfrwt>
<pdfrwt beam="2">  1       -1 0.40409462E-03 0.77987678E+02</pdfrwt>
<totfact> 0.34018960E+05</totfact>
</mgrwt>
</event>
<event>
 8    1  0.2561077E-020  0.7930879E+02  0.7818608E-02  0.1331024E+00
          2   -1    0    0  501    0  0.00000000000E+00  0.00000000000E+00  0.68990454005E+03  0.68990454005E+03  0.25500000000E-02 0. -1.
         -1   -1    0    0    0  501 -0.00000000000E+00 -0.00000000000E+00 -0.22792563484E+01  0.22792619208E+01  0.50400000000E-02 0.  1.
         24    2    1    2    0    0 -0.35527136788E-14  0.00000000000E+00  0.68762528370E+03  0.69218380197E+03  0.79308794793E+02 0.  0.
         66    2    3    3    0    0  0.18499349122E+02 -0.25112593670E+02  0.55738657391E+03  0.55826217948E+03  0.19999968348E+01 0.  0.
        -13    1    3    3    0    0 -0.18499349122E+02  0.25112593670E+02  0.13023870979E+03  0.13392162250E+03  0.10566000000E+00 0.  1.
         13    1    4    4    0    0  0.61272284341E+01 -0.81018121103E+01  0.17451659859E+03  0.17481200370E+03  0.10566000000E+00 0. -1.
        -13    1    4    4    0    0  0.67147175702E+01 -0.10268794874E+02  0.21575225869E+03  0.21610086505E+03  0.10566000000E+00 0.  1.
        -14    1    4    4    0    0  0.56574031178E+01 -0.67419866863E+01  0.16711771662E+03  0.16734931073E+03  0.00000000000E+00 0.  1.
<mgrwt>
<rscale>  0 0.79308795E+02</rscale>
<asrwt>0</asrwt>
<pdfrwt beam="1">  1        2 0.10613900E+00 0.79308795E+02</pdfrwt>
<pdfrwt beam="2">  1       -1 0.35065578E-03 0.79308795E+02</pdfrwt>
<totfact> 0.34099720E+05</totfact>
</mgrwt>
</event>
<event>
 8    1  0.2561077E-020  0.7939178E+02  0.7818608E-02  0.1330786E+00
         -1   -1    0    0    0  501 -0.00000000000E+00  0.00000000000E+00  0.35645047721E+01  0.35645083353E+01  0.50400000000E-02 0.  1.
          2   -1    0    0  501    0  0.00000000000E+00 -0.00000000000E+00 -0.44207066367E+03  0.44207066368E+03  0.25500000000E-02 0. -1.
         24    2    1    2    0    0 -0.35527136788E-14  0.35527136788E-14 -0.43850615890E+03  0.44563517202E+03  0.79391782594E+02 0.  0.
         66    2    3    3    0    0 -0.22816957435E+02 -0.22205296704E+02 -0.35223067851E+03  0.35367236199E+03  0.19999996923E+01 0.  0.
        -13    1    3    3    0    0  0.22816957435E+02  0.22205296704E+02 -0.86275480387E+02  0.91962810029E+02  0.10566000000E+00 0.  1.
         13    1    4    4    0    0 -0.10627404761E+02 -0.10354706703E+02 -0.16561042221E+03  0.16627382473E+03  0.10566000000E+00 0. -1.
        -13    1    4    4    0    0 -0.47945977459E+01 -0.54883583549E+01 -0.84067007417E+02  0.84382362761E+02  0.10566000000E+00 0.  1.
        -14    1    4    4    0    0 -0.73949549281E+01 -0.63622316458E+01 -0.10255324889E+03  0.10301617450E+03  0.00000000000E+00 0.  1.
<mgrwt>
<rscale>  0 0.79391783E+02</rscale>
<asrwt>0</asrwt>
<pdfrwt beam="1">  1        2 0.68010828E-01 0.79391783E+02</pdfrwt>
<pdfrwt beam="2">  1       -1 0.54838597E-03 0.79391783E+02</pdfrwt>
<totfact> 0.29830802E+05</totfact>
</mgrwt>
</event>
<event>
 8    1  0.2561077E-020  0.7861101E+02  0.7818608E-02  0.1333040E+00
         -1   -1    0    0    0  501 -0.00000000000E+00  0.00000000000E+00  0.10296383391E+03  0.10296383403E+03  0.50400000000E-02 0.  1.
          2   -1    0    0  501    0  0.00000000000E+00 -0.00000000000E+00 -0.15004517579E+02  0.15004517796E+02  0.25500000000E-02 0. -1.
         24    2    1    2    0    0  0.00000000000E+00  0.00000000000E+00  0.87959316331E+02  0.11796835183E+03  0.78611008795E+02 0.  0.
         66    2    3    3    0    0  0.19170269096E+02 -0.24493716706E+02  0.80085941445E+01  0.32180412598E+02  0.19999998894E+01 0.  0.
        -13    1    3    3    0    0 -0.19170269096E+02  0.24493716706E+02  0.79950722187E+02  0.85787939231E+02  0.10566000000E+00 0.  1.
         13    1    4    4    0    0  0.66805986777E+00 -0.74585582872E+00  0.21219492037E+00  0.10289779512E+01  0.10566000000E+00 0.  1.
        -13    1    4    4    0    0  0.64008179323E+01 -0.80971580815E+01  0.35655107258E+01  0.10920552640E+02  0.10566000000E+00 0.  1.
         14    1    4    4    0    0  0.12101391296E+02 -0.15650702795E+02  0.42308884983E+01  0.20230882007E+02  0.00000000000E+00 0. -1.
<mgrwt>
<rscale>  0 0.78611009E+02</rscale>
<asrwt>0</asrwt>
<pdfrwt beam="1">  1        2 0.23083874E-02 0.78611009E+02</pdfrwt>
<pdfrwt beam="2">  1       -1 0.15840589E-01 0.78611009E+02</pdfrwt>
<totfact> 0.12304971E+05</totfact>
</mgrwt>
</event>
<event>
 8    1  0.2561077E-020  0.7949663E+02  0.7818608E-02  0.1330486E+00
         -1   -1    0    0    0  501 -0.00000000000E+00  0.00000000000E+00  0.15023547297E+02  0.15023548142E+02  0.50400000000E-02 0.  1.
          2   -1    0    0  501    0  0.00000000000E+00 -0.00000000000E+00 -0.10516348162E+03  0.10516348165E+03  0.25500000000E-02 0. -1.
         24    2    1    2    0    0  0.00000000000E+00  0.00000000000E+00 -0.90139934322E+02  0.12018702979E+03  0.79496631191E+02 0.  0.
         66    2    3    3    0    0  0.15630581530E+02 -0.14529833201E+02 -0.95750881210E+02  0.98120652182E+02  0.20000000986E+01 0.  0.
        -13    1    3    3    0    0 -0.15630581530E+02  0.14529833201E+02  0.56109468873E+01  0.22066377610E+02  0.10566000000E+00 0.  1.
         13    1    4    4    0    0  0.22337674171E+01 -0.24187212261E+01 -0.14265805473E+02  0.14641185029E+02  0.10566000000E+00 0. -1.
        -13    1    4    4    0    0  0.74860950875E+01 -0.60735369254E+01 -0.40361567929E+02  0.41496949287E+02  0.10566000000E+00 0.  1.
         14    1    4    4    0    0  0.59107190254E+01 -0.60375750500E+01 -0.41123507808E+02  0.41982517865E+02  0.00000000000E+00 0. -1.
<mgrwt>
<rscale>  0 0.79496631E+02</rscale>
<asrwt>0</asrwt>
<pdfrwt beam="1">  1        2 0.16178997E-01 0.79496631E+02</pdfrwt>
<pdfrwt beam="2">  1       -1 0.23113151E-02 0.79496631E+02</pdfrwt>
<totfact> 0.18285891E+05</totfact>
</mgrwt>
</event>
<event>
 8    1  0.2561077E-020  0.7955931E+02  0.7818608E-02  0.1330307E+00
          2   -1    0    0  501    0  0.00000000000E+00  0.00000000000E+00  0.11273420008E+04  0.11273420008E+04  0.25500000000E-02 0. -1.
         -1   -1    0    0    0  501 -0.00000000000E+00 -0.00000000000E+00 -0.14036697915E+01  0.14036788397E+01  0.50400000000E-02 0.  1.
         24    2    1    2    0    0  0.00000000000E+00  0.00000000000E+00  0.11259383310E+04  0.11287456796E+04  0.79559311696E+02 0.  0.
         66    2    3    3    0    0  0.24588626276E+02  0.86079904787E+01  0.98935420880E+03  0.98969917071E+03  0.19999988817E+01 0.  0.
        -13    1    3    3    0    0 -0.24588626276E+02 -0.86079904787E+01  0.13658412219E+03  0.13904650891E+03  0.10566000000E+00 0.  1.
         13    1    4    4    0    0  0.19375614744E+02  0.61882515950E+01  0.77336710016E+03  0.77363453367E+03  0.10566000000E+00 0. -1.
        -13    1    4    4    0    0  0.43725020970E+01  0.22429263392E+01  0.17828083951E+03  0.17834858675E+03  0.10566000000E+00 0.  1.
         14    1    4    4    0    0  0.84050943502E+00  0.17681254449E+00  0.37706269121E+02  0.37716050295E+02  0.00000000000E+00 0. -1.
<mgrwt>
<rscale>  0 0.79559312E+02</rscale>
<asrwt>0</asrwt>
<pdfrwt beam="1">  1        2 0.17343727E+00 0.79559312E+02</pdfrwt>
<pdfrwt beam="2">  1       -1 0.21594984E-03 0.79559312E+02</pdfrwt>
<totfact> 0.35724061E+05</totfact>
</mgrwt>
</event>
<event>
 8    1  0.2561077E-020  0.8030715E+02  0.7818608E-02  0.1328182E+00
         -1   -1    0    0    0  501 -0.00000000000E+00  0.00000000000E+00  0.22185870385E+02  0.22185870957E+02  0.50400000000E-02 0.  1.
          2   -1    0    0  501    0  0.00000000000E+00 -0.00000000000E+00 -0.72672805512E+02  0.72672805557E+02  0.25500000000E-02 0. -1.
         24    2    1    2    0    0  0.22204460493E-15  0.00000000000E+00 -0.50486935128E+02  0.94858676514E+02  0.80307147200E+02 0.  0.
         66    2    3    3    0    0 -0.14164080503E+01  0.34037529308E+02 -0.50308979717E+02  0.60791060729E+02  0.20000028132E+01 0.  0.
        -13    1    3    3    0    0  0.14164080503E+01 -0.34037529308E+02 -0.17795541111E+00  0.34067615785E+02  0.10566000000E+00 0.  1.
         13    1    4    4    0    0 -0.48489449386E+00  0.11696162625E+02 -0.18506631626E+02  0.21898445630E+02  0.10566000000E+00 0. -1.
        -13    1    4    4    0    0 -0.10408846355E+01  0.15010604141E+02 -0.20834950508E+02  0.25700350274E+02  0.10566000000E+00 0.  1.
        -14    1    4    4    0    0  0.10937107904E+00  0.73307625414E+01 -0.10967397583E+02  0.13192264825E+02  0.00000000000E+00 0.  1.
<mgrwt>
<rscale>  0 0.80307147E+02</rscale>
<asrwt>0</asrwt>
<pdfrwt beam="1">  1        2 0.11180432E-01 0.80307147E+02</pdfrwt>
<pdfrwt beam="2">  1       -1 0.34132109E-02 0.80307147E+02</pdfrwt>
<totfact> 0.16127986E+05</totfact>
</mgrwt>
</event>
<event>
 8    1  0.2561077E-020  0.7856908E+02  0.7818608E-02  0.1333162E+00
          2   -1    0    0  501    0  0.00000000000E+00  0.00000000000E+00  0.32741402344E+03  0.32741402345E+03  0.25500000000E-02 0. -1.
         -1   -1    0    0    0  501 -0.00000000000E+00 -0.00000000000E+00 -0.47135259171E+01  0.47135286116E+01  0.50400000000E-02 0.  1.
         24    2    1    2    0    0  0.00000000000E+00 -0.11102230246E-15  0.32270049753E+03  0.33212755206E+03  0.78569076212E+02 0.  0.
         66    2    3    3    0    0  0.38628747502E+02 -0.77746271029E+00  0.13201985916E+03  0.13757190041E+03  0.19999965087E+01 0.  0.
        -13    1    3    3    0    0 -0.38628747502E+02  0.77746271029E+00  0.19068063836E+03  0.19455565166E+03  0.10566000000E+00 0.  1.
         13    1    4    4    0    0  0.16920097286E+02 -0.25871930217E+00  0.57197242930E+02  0.59648071140E+02  0.10566000000E+00 0. -1.
        -13    1    4    4    0    0  0.15356134569E+02 -0.59956538206E+00  0.55115141605E+02  0.57217657639E+02  0.10566000000E+00 0.  1.
        -14    1    4    4    0    0  0.63525156464E+01  0.80821973944E-01  0.19707474629E+02  0.20706171628E+02  0.00000000000E+00 0.  1.
<mgrwt>
<rscale>  0 0.78569076E+02</rscale>
<asrwt>0</asrwt>
<pdfrwt beam="1">  1        2 0.50371388E-01 0.78569076E+02</pdfrwt>
<pdfrwt beam="2">  1       -1 0.72515805E-03 0.78569076E+02</pdfrwt>
<totfact> 0.27584857E+05</totfact>
</mgrwt>
</event>
<event>
 8    1  0.2561077E-020  0.7173827E+02  0.7818608E-02  0.1354280E+00
          2   -1    0    0  501    0  0.00000000000E+00  0.00000000000E+00  0.37460786152E+03  0.37460786153E+03  0.25500000000E-02 0. -1.
         -1   -1    0    0    0  501 -0.00000000000E+00 -0.00000000000E+00 -0.34345087171E+01  0.34345124151E+01  0.50400000000E-02 0.  1.
         24    2    1    2    0    0  0.17763568394E-14  0.35527136788E-14  0.37117335280E+03  0.37804237394E+03  0.71738265006E+02 0.  0.
         66    2    3    3    0    0 -0.14599438174E+02  0.16317531538E+02  0.33526360619E+03  0.33598376607E+03  0.19999990020E+01 0.  0.
        -13    1    3    3    0    0  0.14599438174E+02 -0.16317531538E+02  0.35909746611E+02  0.42058607873E+02  0.10566000000E+00 0.  1.
         13    1    4    4    0    0 -0.18177592663E+01  0.24282355654E+01  0.38013926180E+02  0.38134896412E+02  0.10566000000E+00 0. -1.
        -13    1    4    4    0    0 -0.46849650772E+01  0.54357395231E+01  0.11160679868E+03  0.11183731416E+03  0.10566000000E+00 0. -1.
         14    1    4    4    0    0 -0.80967138309E+01  0.84535564491E+01  0.18564288133E+03  0.18601155550E+03  0.00000000000E+00 0. -1.
<mgrwt>
<rscale>  0 0.71738265E+02</rscale>
<asrwt>0</asrwt>
<pdfrwt beam="1">  1        2 0.57631956E-01 0.71738265E+02</pdfrwt>
<pdfrwt beam="2">  1       -1 0.52838645E-03 0.71738265E+02</pdfrwt>
<totfact> 0.36648759E+05</totfact>
</mgrwt>
</event>
<event>
 8    1  0.2561077E-020  0.7841695E+02  0.7818608E-02  0.1333605E+00
          2   -1    0    0  501    0  0.00000000000E+00  0.00000000000E+00  0.75847325062E+03  0.75847325062E+03  0.25500000000E-02 0. -1.
         -1   -1    0    0    0  501 -0.00000000000E+00 -0.00000000000E+00 -0.20268377566E+01  0.20268440229E+01  0.50400000000E-02 0.  1.
         24    2    1    2    0    0  0.00000000000E+00 -0.17763568394E-14  0.75644641286E+03  0.76050009465E+03  0.78416952405E+02 0.  0.
         66    2    3    3    0    0 -0.66002211541E+01 -0.14380316337E+02  0.72610978703E+03  0.72628491603E+03  0.20000012933E+01 0.  0.
        -13    1    3    3    0    0  0.66002211541E+01  0.14380316337E+02  0.30336625828E+02  0.34215178619E+02  0.10566000000E+00 0.  1.
         13    1    4    4    0    0 -0.46519222898E+01 -0.82135379958E+01  0.42333811200E+03  0.42344335019E+03  0.10566000000E+00 0. -1.
        -13    1    4    4    0    0 -0.88738832946E+00 -0.33162732384E+01  0.17493965982E+03  0.17497337188E+03  0.10566000000E+00 0.  1.
         14    1    4    4    0    0 -0.10609105349E+01 -0.28505051026E+01  0.12783201522E+03  0.12786819395E+03  0.00000000000E+00 0. -1.
<mgrwt>
<rscale>  0 0.78416952E+02</rscale>
<asrwt>0</asrwt>
<pdfrwt beam="1">  1        2 0.11668826E+00 0.78416952E+02</pdfrwt>
<pdfrwt beam="2">  1       -1 0.31182150E-03 0.78416952E+02</pdfrwt>
<totfact> 0.35840851E+05</totfact>
</mgrwt>
</event>
<event>
 8    1  0.2561077E-020  0.8032490E+02  0.7818608E-02  0.1328132E+00
         -1   -1    0    0    0  501 -0.00000000000E+00  0.00000000000E+00  0.69336685030E+01  0.69336703348E+01  0.50400000000E-02 0.  1.
          2   -1    0    0  501    0  0.00000000000E+00 -0.00000000000E+00 -0.23263618795E+03  0.23263618796E+03  0.25500000000E-02 0. -1.
         24    2    1    2    0    0  0.71054273576E-14  0.00000000000E+00 -0.22570251944E+03  0.23956985829E+03  0.80324900999E+02 0.  0.
         66    2    3    3    0    0  0.32399375839E+02 -0.22377916760E+02 -0.13612464227E+03  0.14171947273E+03  0.20000007765E+01 0.  0.
        -13    1    3    3    0    0 -0.32399375839E+02  0.22377916760E+02 -0.89577877170E+02  0.97850385567E+02  0.10566000000E+00 0.  1.
         13    1    4    4    0    0  0.15936751332E+02 -0.10321362745E+02 -0.67507059898E+02  0.70126491942E+02  0.10566000000E+00 0. -1.
        -13    1    4    4    0    0  0.69951979073E+01 -0.56496574547E+01 -0.29839415063E+02  0.31164936683E+02  0.10566000000E+00 0.  1.
        -14    1    4    4    0    0  0.94674265993E+01 -0.64068965601E+01 -0.38778167311E+02  0.40428044102E+02  0.00000000000E+00 0.  1.
<mgrwt>
<rscale>  0 0.80324901E+02</rscale>
<asrwt>0</asrwt>
<pdfrwt beam="1">  1        2 0.35790177E-01 0.80324901E+02</pdfrwt>
<pdfrwt beam="2">  1       -1 0.10667186E-02 0.80324901E+02</pdfrwt>
<totfact> 0.23016031E+05</totfact>
</mgrwt>
</event>
<event>
 8    1  0.2561077E-020  0.7819102E+02  0.7818608E-02  0.1334265E+00
          2   -1    0    0  501    0  0.00000000000E+00  0.00000000000E+00  0.13896136677E+03  0.13896136679E+03  0.25500000000E-02 0. -1.
         -1   -1    0    0    0  501 -0.00000000000E+00 -0.00000000000E+00 -0.10999162706E+02  0.10999163861E+02  0.50400000000E-02 0.  1.
         24    2    1    2    0    0  0.00000000000E+00  0.00000000000E+00  0.12796220406E+03  0.14996053066E+03  0.78191016654E+02 0.  0.
         66    2    3    3    0    0  0.22369959103E+02  0.31238590556E+02  0.77609901414E+02  0.86623099729E+02  0.19999997445E+01 0.  0.
        -13    1    3    3    0    0 -0.22369959103E+02 -0.31238590556E+02  0.50352302651E+02  0.63337430927E+02  0.10566000000E+00 0.  1.
         13    1    4    4    0    0  0.10159077990E+01  0.17818781149E+01  0.41603260094E+01  0.46396804645E+01  0.10566000000E+00 0.  1.
        -13    1    4    4    0    0  0.14210178545E+02  0.18332178855E+02  0.46162108049E+02  0.51661875105E+02  0.10566000000E+00 0. -1.
         14    1    4    4    0    0  0.71438727584E+01  0.11124533586E+02  0.27287467356E+02  0.30321544159E+02  0.00000000000E+00 0. -1.
<mgrwt>
<rscale>  0 0.78191017E+02</rscale>
<asrwt>0</asrwt>
<pdfrwt beam="1">  1        2 0.21378672E-01 0.78191017E+02</pdfrwt>
<pdfrwt beam="2">  1       -1 0.16921789E-02 0.78191017E+02</pdfrwt>
<totfact> 0.20771764E+05</totfact>
</mgrwt>
</event>
<event>
 8    1  0.2561077E-020  0.8145021E+02  0.7818608E-02  0.1324986E+00
         -1   -1    0    0    0  501 -0.00000000000E+00  0.00000000000E+00  0.17849665966E+01  0.17849737121E+01  0.50400000000E-02 0.  1.
          2   -1    0    0  501    0  0.00000000000E+00 -0.00000000000E+00 -0.92916629019E+03  0.92916629020E+03  0.25500000000E-02 0. -1.
         24    2    1    2    0    0 -0.44408920985E-15  0.00000000000E+00 -0.92738132360E+03  0.93095126391E+03  0.81450208211E+02 0.  0.
         66    2    3    3    0    0 -0.29563807781E+01 -0.20534234807E+02 -0.86419402292E+03  0.86444531592E+03  0.19999969215E+01 0.  0.
        -13    1    3    3    0    0  0.29563807781E+01  0.20534234807E+02 -0.63187300681E+02  0.66505947988E+02  0.10566000000E+00 0.  1.
         13    1    4    4    0    0 -0.24891125067E+01 -0.16590314483E+02 -0.70605515634E+03  0.70625443657E+03  0.10566000000E+00 0. -1.
        -13    1    4    4    0    0 -0.32003235094E+00 -0.48685343924E+00 -0.20754661705E+02  0.20763106548E+02  0.10566000000E+00 0.  1.
         14    1    4    4    0    0 -0.14723592055E+00 -0.34570668852E+01 -0.13738420487E+03  0.13742777280E+03  0.00000000000E+00 0. -1.
<mgrwt>
<rscale>  0 0.81450208E+02</rscale>
<asrwt>0</asrwt>
<pdfrwt beam="1">  1        2 0.14294827E+00 0.81450208E+02</pdfrwt>
<pdfrwt beam="2">  1       -1 0.27461154E-03 0.81450208E+02</pdfrwt>
<totfact> 0.33459474E+05</totfact>
</mgrwt>
</event>
<event>
 8    1  0.2561077E-020  0.8310979E+02  0.7818608E-02  0.1320451E+00
          2   -1    0    0  501    0  0.00000000000E+00  0.00000000000E+00  0.65160982343E+03  0.65160982344E+03  0.25500000000E-02 0. -1.
         -1   -1    0    0    0  501 -0.00000000000E+00 -0.00000000000E+00 -0.26500640295E+01  0.26500688222E+01  0.50400000000E-02 0.  1.
         24    2    1    2    0    0  0.00000000000E+00  0.00000000000E+00  0.64895975940E+03  0.65425989226E+03  0.83109790610E+02 0.  0.
         66    2    3    3    0    0  0.23834442385E+02 -0.15468985818E+02  0.56311080261E+03  0.56383077797E+03  0.19999988975E+01 0.  0.
        -13    1    3    3    0    0 -0.23834442385E+02  0.15468985818E+02  0.85848956789E+02  0.90429114294E+02  0.10566000000E+00 0.  1.
         13    1    4    4    0    0  0.16867573184E+02 -0.11555001446E+02  0.39643830932E+03  0.39696520923E+03  0.10566000000E+00 0. -1.
        -13    1    4    4    0    0  0.69284224264E+01 -0.39466621304E+01  0.16565608093E+03  0.16584790470E+03  0.10566000000E+00 0.  1.
         14    1    4    4    0    0  0.38446774855E-01  0.32677757920E-01  0.10164123641E+01  0.10176640331E+01  0.00000000000E+00 0. -1.
<mgrwt>
<rscale>  0 0.83109791E+02</rscale>
<asrwt>0</asrwt>
<pdfrwt beam="1">  1        2 0.10024771E+00 0.83109791E+02</pdfrwt>
<pdfrwt beam="2">  1       -1 0.40770233E-03 0.83109791E+02</pdfrwt>
<totfact> 0.29768113E+05</totfact>
</mgrwt>
</event>
<event>
 8    1  0.2561077E-020  0.8043101E+02  0.7818608E-02  0.1327833E+00
         -1   -1    0    0    0  501 -0.00000000000E+00  0.00000000000E+00  0.98184614219E+01  0.98184627154E+01  0.50400000000E-02 0.  1.
          2   -1    0    0  501    0  0.00000000000E+00 -0.00000000000E+00 -0.16471895945E+03  0.16471895947E+03  0.25500000000E-02 0. -1.
         24    2    1    2    0    0  0.71054273576E-14 -0.88817841970E-15 -0.15490049803E+03  0.17453742218E+03  0.80431010522E+02 0.  0.
         66    2    3    3    0    0  0.37737344562E+02 -0.41218151647E+01 -0.10613786248E+03  0.11274015425E+03  0.19999982954E+01 0.  0.
        -13    1    3    3    0    0 -0.37737344562E+02  0.41218151647E+01 -0.48762635545E+02  0.61797267934E+02  0.10566000000E+00 0.  1.
         13    1    4    4    0    0  0.62772416638E+01 -0.83988885309E+00 -0.18655957423E+02  0.19701905684E+02  0.10566000000E+00 0. -1.
        -13    1    4    4    0    0  0.75459824130E+01 -0.26075259837E+00 -0.19659715335E+02  0.21060043057E+02  0.10566000000E+00 0.  1.
        -14    1    4    4    0    0  0.23914120485E+02 -0.30211737132E+01 -0.67822189723E+02  0.71978205507E+02  0.00000000000E+00 0.  1.
<mgrwt>
<rscale>  0 0.80431011E+02</rscale>
<asrwt>0</asrwt>
<pdfrwt beam="1">  1        2 0.25341376E-01 0.80431011E+02</pdfrwt>
<pdfrwt beam="2">  1       -1 0.15105328E-02 0.80431011E+02</pdfrwt>
<totfact> 0.20359820E+05</totfact>
</mgrwt>
</event>
<event>
 8    1  0.2561077E-020  0.8129149E+02  0.7818608E-02  0.1325426E+00
          2   -1    0    0  501    0  0.00000000000E+00  0.00000000000E+00  0.23092352402E+02  0.23092352543E+02  0.25500000000E-02 0. -1.
         -1   -1    0    0    0  501 -0.00000000000E+00 -0.00000000000E+00 -0.71542142989E+02  0.71542143167E+02  0.50400000000E-02 0.  1.
         24    2    1    2    0    0  0.00000000000E+00  0.00000000000E+00 -0.48449790587E+02  0.94634495710E+02  0.81291485226E+02 0.  0.
         66    2    3    3    0    0 -0.13822691166E+02  0.29004824764E+02  0.46940454448E+01  0.32532763666E+02  0.19999996050E+01 0.  0.
        -13    1    3    3    0    0  0.13822691166E+02 -0.29004824764E+02 -0.53143836032E+02  0.62101732044E+02  0.10566000000E+00 0.  1.
         13    1    4    4    0    0 -0.12291619846E+02  0.25095729078E+02  0.38688465108E+01  0.28210967260E+02  0.10566000000E+00 0. -1.
        -13    1    4    4    0    0 -0.97514612344E+00  0.30153484003E+01  0.44128172091E+00  0.32014261713E+01  0.10566000000E+00 0.  1.
         14    1    4    4    0    0 -0.55592519657E+00  0.89374728538E+00  0.38391721319E+00  0.11203702338E+01  0.00000000000E+00 0. -1.
<mgrwt>
<rscale>  0 0.81291485E+02</rscale>
<asrwt>0</asrwt>
<pdfrwt beam="1">  1        2 0.35526696E-02 0.81291485E+02</pdfrwt>
<pdfrwt beam="2">  1       -1 0.11006484E-01 0.81291485E+02</pdfrwt>
<totfact> 0.12208118E+05</totfact>
</mgrwt>
</event>
<event>
 8    1  0.2561077E-020  0.7830329E+02  0.7818608E-02  0.1333937E+00
          2   -1    0    0  501    0  0.00000000000E+00  0.00000000000E+00  0.11979893474E+03  0.11979893477E+03  0.25500000000E-02 0. -1.
         -1   -1    0    0    0  501 -0.00000000000E+00 -0.00000000000E+00 -0.12795200309E+02  0.12795201302E+02  0.50400000000E-02 0.  1.
         24    2    1    2    0    0  0.00000000000E+00 -0.35527136788E-14  0.10700373443E+03  0.13259413607E+03  0.78303293276E+02 0.  0.
         66    2    3    3    0    0  0.19482752301E+02 -0.27026769103E+02  0.88273794613E+02  0.94373124899E+02  0.20000005788E+01 0.  0.
        -13    1    3    3    0    0 -0.19482752301E+02  0.27026769103E+02  0.18729939820E+02  0.38221011172E+02  0.10566000000E+00 0.  1.
         13    1    4    4    0    0  0.17858757519E+02 -0.23978208726E+02  0.78385936433E+02  0.83894313922E+02  0.10566000000E+00 0. -1.
        -13    1    4    4    0    0  0.55646211221E+00 -0.80342572565E+00  0.27471981780E+01  0.29177739535E+01  0.10566000000E+00 0.  1.
        -14    1    4    4    0    0  0.10675326694E+01 -0.22451346514E+01  0.71406600023E+01  0.75610370235E+01  0.00000000000E+00 0.  1.
<mgrwt>
<rscale>  0 0.78303293E+02</rscale>
<asrwt>0</asrwt>
<pdfrwt beam="1">  1        2 0.18430605E-01 0.78303293E+02</pdfrwt>
<pdfrwt beam="2">  1       -1 0.19684925E-02 0.78303293E+02</pdfrwt>
<totfact> 0.19774656E+05</totfact>
</mgrwt>
</event>
<event>
 8    1  0.2561077E-020  0.8122460E+02  0.7818608E-02  0.1325612E+00
          2   -1    0    0  501    0  0.00000000000E+00  0.00000000000E+00  0.37198344807E+03  0.37198344808E+03  0.25500000000E-02 0. -1.
         -1   -1    0    0    0  501 -0.00000000000E+00 -0.00000000000E+00 -0.44339560611E+01  0.44339589255E+01  0.50400000000E-02 0.  1.
         24    2    1    2    0    0  0.35527136788E-14  0.00000000000E+00  0.36754949201E+03  0.37641740701E+03  0.81224597382E+02 0.  0.
         66    2    3    3    0    0  0.24063913183E+02  0.16235155207E+02  0.31534765727E+03  0.31668722287E+03  0.20000007902E+01 0.  0.
        -13    1    3    3    0    0 -0.24063913183E+02 -0.16235155207E+02  0.52201834744E+02  0.59730184137E+02  0.10566000000E+00 0.  1.
         13    1    4    4    0    0  0.15529984331E+02  0.97349186784E+01  0.19508926511E+03  0.19594841561E+03  0.10566000000E+00 0. -1.
        -13    1    4    4    0    0  0.10550734336E+01  0.98774296636E+00  0.18909754574E+02  0.18965199662E+02  0.10566000000E+00 0.  1.
        -14    1    4    4    0    0  0.74788554177E+01  0.55124935626E+01  0.10134863759E+03  0.10177360760E+03  0.00000000000E+00 0.  1.
<mgrwt>
<rscale>  0 0.81224597E+02</rscale>
<asrwt>0</asrwt>
<pdfrwt beam="1">  1        2 0.57228208E-01 0.81224597E+02</pdfrwt>
<pdfrwt beam="2">  1       -1 0.68214749E-03 0.81224597E+02</pdfrwt>
<totfact> 0.26466036E+05</totfact>
</mgrwt>
</event>
<event>
 8    1  0.2561077E-020  0.7913987E+02  0.7818608E-02  0.1331510E+00
          2   -1    0    0  501    0  0.00000000000E+00  0.00000000000E+00  0.45241974146E+03  0.45241974147E+03  0.25500000000E-02 0. -1.
         -1   -1    0    0    0  501 -0.00000000000E+00 -0.00000000000E+00 -0.34608988815E+01  0.34609025513E+01  0.50400000000E-02 0.  1.
         24    2    1    2    0    0  0.00000000000E+00  0.00000000000E+00  0.44895884258E+03  0.45588064402E+03  0.79139871501E+02 0.  0.
         66    2    3    3    0    0 -0.79527702566E+01 -0.75154088124E+01  0.44352274325E+03  0.44366220450E+03  0.19999989903E+01 0.  0.
        -13    1    3    3    0    0  0.79527702566E+01  0.75154088124E+01  0.54360993293E+01  0.12218439521E+02  0.10566000000E+00 0.  1.
         13    1    4    4    0    0 -0.13429413643E+01 -0.19325341257E+01  0.11212506254E+03  0.11214980603E+03  0.10566000000E+00 0. -1.
        -13    1    4    4    0    0 -0.41012166483E+01 -0.28002782985E+01  0.19540298010E+03  0.19546610277E+03  0.10566000000E+00 0.  1.
         14    1    4    4    0    0 -0.25086122440E+01 -0.27825963882E+01  0.13599470061E+03  0.13604629570E+03  0.00000000000E+00 0. -1.
<mgrwt>
<rscale>  0 0.79139872E+02</rscale>
<asrwt>0</asrwt>
<pdfrwt beam="1">  1        2 0.69603050E-01 0.79139872E+02</pdfrwt>
<pdfrwt beam="2">  1       -1 0.53244617E-03 0.79139872E+02</pdfrwt>
<totfact> 0.30313917E+05</totfact>
</mgrwt>
</event>
<event>
 8    1  0.2561077E-020  0.7854458E+02  0.7818608E-02  0.1333233E+00
         -1   -1    0    0    0  501 -0.00000000000E+00  0.00000000000E+00  0.16217118443E+02  0.16217119226E+02  0.50400000000E-02 0.  1.
          2   -1    0    0  501    0  0.00000000000E+00 -0.00000000000E+00 -0.95103982256E+02  0.95103982290E+02  0.25500000000E-02 0. -1.
         24    2    1    2    0    0  0.00000000000E+00  0.44408920985E-15 -0.78886863813E+02  0.11132110152E+03  0.78544575627E+02 0.  0.
         66    2    3    3    0    0  0.19912391824E+02  0.34168974788E+01 -0.87156953256E+02  0.89490295759E+02  0.19999994042E+01 0.  0.
        -13    1    3    3    0    0 -0.19912391824E+02 -0.34168974788E+01  0.82700894434E+01  0.21830805756E+02  0.10566000000E+00 0.  1.
         13    1    4    4    0    0  0.11099729201E+02  0.15499562594E+01 -0.48999965453E+02  0.50265436745E+02  0.10566000000E+00 0. -1.
        -13    1    4    4    0    0  0.25930369956E+01  0.10851927609E+01 -0.11034484403E+02  0.11387383118E+02  0.10566000000E+00 0.  1.
        -14    1    4    4    0    0  0.62196256276E+01  0.78174845851E+00 -0.27122503400E+02  0.27837475896E+02  0.00000000000E+00 0.  1.
<mgrwt>
<rscale>  0 0.78544576E+02</rscale>
<asrwt>0</asrwt>
<pdfrwt beam="1">  1        2 0.14631382E-01 0.78544576E+02</pdfrwt>
<pdfrwt beam="2">  1       -1 0.24949414E-02 0.78544576E+02</pdfrwt>
<totfact> 0.18362321E+05</totfact>
</mgrwt>
</event>
<event>
 8    1  0.2561077E-020  0.7970427E+02  0.7818608E-02  0.1329893E+00
         -1   -1    0    0    0  501 -0.00000000000E+00  0.00000000000E+00  0.11996263060E+02  0.11996264119E+02  0.50400000000E-02 0.  1.
          2   -1    0    0  501    0  0.00000000000E+00 -0.00000000000E+00 -0.13239061891E+03  0.13239061893E+03  0.25500000000E-02 0. -1.
         24    2    1    2    0    0 -0.11102230246E-15  0.00000000000E+00 -0.12039435585E+03  0.14438688305E+03  0.79704272642E+02 0.  0.
         66    2    3    3    0    0 -0.61965665702E+00  0.25815605581E+02 -0.11516231284E+03  0.11803892480E+03  0.20000007582E+01 0.  0.
        -13    1    3    3    0    0  0.61965665702E+00 -0.25815605581E+02 -0.52320430038E+01  0.26347958250E+02  0.10566000000E+00 0.  1.
         13    1    4    4    0    0  0.25629904438E-01  0.72245953565E+01 -0.34861724920E+02  0.35602618772E+02  0.10566000000E+00 0. -1.
        -13    1    4    4    0    0 -0.12804801155E+00  0.13811298318E+02 -0.57724959047E+02  0.59354447336E+02  0.10566000000E+00 0.  1.
         14    1    4    4    0    0 -0.51723854990E+00  0.47797119064E+01 -0.22575628878E+02  0.23081858696E+02  0.00000000000E+00 0. -1.
<mgrwt>
<rscale>  0 0.79704273E+02</rscale>
<asrwt>0</asrwt>
<pdfrwt beam="1">  1        2 0.20367787E-01 0.79704273E+02</pdfrwt>
<pdfrwt beam="2">  1       -1 0.18455791E-02 0.79704273E+02</pdfrwt>
<totfact> 0.19445265E+05</totfact>
</mgrwt>
</event>
<event>
 8    1  0.2561077E-020  0.7908977E+02  0.7818608E-02  0.1331655E+00
          2   -1    0    0  501    0  0.00000000000E+00  0.00000000000E+00  0.20926753282E+03  0.20926753284E+03  0.25500000000E-02 0. -1.
         -1   -1    0    0    0  501 -0.00000000000E+00 -0.00000000000E+00 -0.74727195423E+01  0.74727212419E+01  0.50400000000E-02 0.  1.
         24    2    1    2    0    0  0.00000000000E+00  0.88817841970E-15  0.20179481328E+03  0.21674025408E+03  0.79089765911E+02 0.  0.
         66    2    3    3    0    0 -0.34806512723E+02 -0.59019930502E+01  0.14963558040E+03  0.15375673569E+03  0.19999997436E+01 0.  0.
        -13    1    3    3    0    0  0.34806512723E+02  0.59019930502E+01  0.52159232879E+02  0.62983518388E+02  0.10566000000E+00 0.  1.
         13    1    4    4    0    0 -0.13736356682E+02 -0.21202185414E+01  0.60285045628E+02  0.61866636501E+02  0.10566000000E+00 0. -1.
        -13    1    4    4    0    0 -0.99768452708E+01 -0.10756662261E+01  0.41635190402E+02  0.42827499848E+02  0.10566000000E+00 0.  1.
        -14    1    4    4    0    0 -0.11093310770E+02 -0.27061082827E+01  0.47715344371E+02  0.49062599344E+02  0.00000000000E+00 0.  1.
<mgrwt>
<rscale>  0 0.79089766E+02</rscale>
<asrwt>0</asrwt>
<pdfrwt beam="1">  1        2 0.32194997E-01 0.79089766E+02</pdfrwt>
<pdfrwt beam="2">  1       -1 0.11496496E-02 0.79089766E+02</pdfrwt>
<totfact> 0.23095766E+05</totfact>
</mgrwt>
</event>
<event>
 8    1  0.2561077E-020  0.8074688E+02  0.7818608E-02  0.1326945E+00
          2   -1    0    0  501    0  0.00000000000E+00  0.00000000000E+00  0.21422250103E+03  0.21422250105E+03  0.25500000000E-02 0. -1.
         -1   -1    0    0    0  501 -0.00000000000E+00 -0.00000000000E+00 -0.76089781328E+01  0.76089798019E+01  0.50400000000E-02 0.  1.
         24    2    1    2    0    0  0.88817841970E-15  0.00000000000E+00  0.20661352290E+03  0.22183148085E+03  0.80746876416E+02 0.  0.
         66    2    3    3    0    0  0.79936634192E+01  0.10874213919E+02  0.20783258448E+03  0.20827993266E+03  0.19999991160E+01 0.  0.
        -13    1    3    3    0    0 -0.79936634192E+01 -0.10874213919E+02 -0.12190615730E+01  0.13551548191E+02  0.10566000000E+00 0.  1.
         13    1    4    4    0    0  0.21907716745E+01  0.23379207869E+01  0.45810362890E+02  0.45922389597E+02  0.10566000000E+00 0. -1.
        -13    1    4    4    0    0  0.46286526747E+01  0.72988230792E+01  0.14198000578E+03  0.14224285728E+03  0.10566000000E+00 0.  1.
        -14    1    4    4    0    0  0.11742390699E+01  0.12374700530E+01  0.20042215810E+02  0.20114685782E+02  0.00000000000E+00 0.  1.
<mgrwt>
<rscale>  0 0.80746876E+02</rscale>
<asrwt>0</asrwt>
<pdfrwt beam="1">  1        2 0.32957305E-01 0.80746876E+02</pdfrwt>
<pdfrwt beam="2">  1       -1 0.11706122E-02 0.80746876E+02</pdfrwt>
<totfact> 0.22047561E+05</totfact>
</mgrwt>
</event>
<event>
 8    1  0.2561077E-020  0.7977498E+02  0.7818608E-02  0.1329691E+00
          2   -1    0    0  501    0  0.00000000000E+00  0.00000000000E+00  0.97121775765E+02  0.97121775798E+02  0.25500000000E-02 0. -1.
         -1   -1    0    0    0  501 -0.00000000000E+00 -0.00000000000E+00 -0.16381616002E+02  0.16381616777E+02  0.50400000000E-02 0.  1.
         24    2    1    2    0    0  0.71054273576E-14  0.00000000000E+00  0.80740159763E+02  0.11350339258E+03  0.79774975572E+02 0.  0.
         66    2    3    3    0    0 -0.34838643058E+02  0.17410658299E+02  0.52480315401E+02  0.65383832727E+02  0.20000012352E+01 0.  0.
        -13    1    3    3    0    0  0.34838643058E+02 -0.17410658299E+02  0.28259844361E+02  0.48119559848E+02  0.10566000000E+00 0.  1.
         13    1    4    4    0    0 -0.11846654852E+02  0.60814650067E+01  0.17986683008E+02  0.22379887790E+02  0.10566000000E+00 0. -1.
        -13    1    4    4    0    0 -0.92205798529E+01  0.39125641826E+01  0.14357318491E+02  0.17506313421E+02  0.10566000000E+00 0.  1.
        -14    1    4    4    0    0 -0.13771408353E+02  0.74166291100E+01  0.20136313902E+02  0.25497631516E+02  0.00000000000E+00 0.  1.
<mgrwt>
<rscale>  0 0.79774976E+02</rscale>
<asrwt>0</asrwt>
<pdfrwt beam="1">  1        2 0.14941812E-01 0.79774976E+02</pdfrwt>
<pdfrwt beam="2">  1       -1 0.25202486E-02 0.79774976E+02</pdfrwt>
<totfact> 0.17715584E+05</totfact>
</mgrwt>
</event>
<event>
 8    1  0.2561077E-020  0.7580758E+02  0.7818608E-02  0.1341388E+00
          2   -1    0    0  501    0  0.00000000000E+00  0.00000000000E+00  0.16490969201E+03  0.16490969203E+03  0.25500000000E-02 0. -1.
         -1   -1    0    0    0  501 -0.00000000000E+00 -0.00000000000E+00 -0.87120231981E+01  0.87120246559E+01  0.50400000000E-02 0.  1.
         24    2    1    2    0    0  0.00000000000E+00  0.00000000000E+00  0.15619766881E+03  0.17362171669E+03  0.75807577211E+02 0.  0.
         66    2    3    3    0    0  0.26392419100E+02  0.98245304886E+01  0.13616631594E+03  0.13906238441E+03  0.19999941565E+01 0.  0.
        -13    1    3    3    0    0 -0.26392419100E+02 -0.98245304886E+01  0.20031352874E+02  0.34559332275E+02  0.10566000000E+00 0.  1.
         13    1    4    4    0    0  0.19863124736E+02  0.67353426427E+01  0.99206850544E+02  0.10139979745E+03  0.10566000000E+00 0. -1.
        -13    1    4    4    0    0  0.21360060294E+01  0.81741986659E+00  0.12538374352E+02  0.12745693093E+02  0.10566000000E+00 0.  1.
         14    1    4    4    0    0  0.43932883347E+01  0.22717679794E+01  0.24421091042E+02  0.24916893864E+02  0.00000000000E+00 0. -1.
<mgrwt>
<rscale>  0 0.75807577E+02</rscale>
<asrwt>0</asrwt>
<pdfrwt beam="1">  1        2 0.25370719E-01 0.75807577E+02</pdfrwt>
<pdfrwt beam="2">  1       -1 0.13403115E-02 0.75807577E+02</pdfrwt>
<totfact> 0.23815291E+05</totfact>
</mgrwt>
</event>
<event>
 8    1  0.2561077E-020  0.7945235E+02  0.7818608E-02  0.1330613E+00
         -1   -1    0    0    0  501 -0.00000000000E+00  0.00000000000E+00  0.70421126016E+02  0.70421126196E+02  0.50400000000E-02 0.  1.
          2   -1    0    0  501    0  0.00000000000E+00 -0.00000000000E+00 -0.22410447998E+02  0.22410448143E+02  0.25500000000E-02 0. -1.
         24    2    1    2    0    0 -0.17763568394E-14  0.00000000000E+00  0.48010678018E+02  0.92831574339E+02  0.79452350440E+02 0.  0.
         66    2    3    3    0    0  0.13497364540E+02 -0.35017503877E+02  0.88872409346E+01  0.38618486246E+02  0.20000003110E+01 0.  0.
        -13    1    3    3    0    0 -0.13497364540E+02  0.35017503877E+02  0.39123437083E+02  0.54213088093E+02  0.10566000000E+00 0.  1.
         13    1    4    4    0    0  0.58911214139E+01 -0.13141031578E+02  0.34636447898E+01  0.14812157902E+02  0.10566000000E+00 0.  1.
        -13    1    4    4    0    0  0.60756068027E+01 -0.16560913715E+02  0.38575837144E+01  0.18057380132E+02  0.10566000000E+00 0. -1.
        -14    1    4    4    0    0  0.15306363236E+01 -0.53155585838E+01  0.15660124305E+01  0.57489482121E+01  0.00000000000E+00 0.  1.
<mgrwt>
<rscale>  0 0.79452350E+02</rscale>
<asrwt>0</asrwt>
<pdfrwt beam="1">  1        2 0.34477613E-02 0.79452350E+02</pdfrwt>
<pdfrwt beam="2">  1       -1 0.10834019E-01 0.79452350E+02</pdfrwt>
<totfact> 0.12953306E+05</totfact>
</mgrwt>
</event>
<event>
 8    1  0.2561077E-020  0.7979050E+02  0.7818608E-02  0.1329647E+00
          2   -1    0    0  501    0  0.00000000000E+00  0.00000000000E+00  0.11598848678E+03  0.11598848681E+03  0.25500000000E-02 0. -1.
         -1   -1    0    0    0  501 -0.00000000000E+00 -0.00000000000E+00 -0.13722317148E+02  0.13722318073E+02  0.50400000000E-02 0.  1.
         24    2    1    2    0    0  0.35527136788E-14  0.71054273576E-14  0.10226616964E+03  0.12971080488E+03  0.79790497253E+02 0.  0.
         66    2    3    3    0    0  0.18162017253E+02  0.28922141335E+02  0.84610583026E+02  0.91264998446E+02  0.20000128225E+01 0.  0.
        -13    1    3    3    0    0 -0.18162017253E+02 -0.28922141335E+02  0.17655586610E+02  0.38445806438E+02  0.10566000000E+00 0.  1.
         13    1    4    4    0    0  0.10422354081E+02  0.16769079615E+02  0.48494977889E+02  0.52360305005E+02  0.10566000000E+00 0. -1.
        -13    1    4    4    0    0  0.30917122240E+01  0.40592779966E+01  0.13943829880E+02  0.14848500870E+02  0.10566000000E+00 0.  1.
        -14    1    4    4    0    0  0.46479509485E+01  0.80937837237E+01  0.22171775257E+02  0.24056192571E+02  0.00000000000E+00 0.  1.
<mgrwt>
<rscale>  0 0.79790497E+02</rscale>
<asrwt>0</asrwt>
<pdfrwt beam="1">  1        2 0.17844382E-01 0.79790497E+02</pdfrwt>
<pdfrwt beam="2">  1       -1 0.21111258E-02 0.79790497E+02</pdfrwt>
<totfact> 0.18628511E+05</totfact>
</mgrwt>
</event>
<event>
 8    1  0.2561077E-020  0.7901223E+02  0.7818608E-02  0.1331878E+00
          2   -1    0    0  501    0  0.00000000000E+00  0.00000000000E+00  0.12956197515E+02  0.12956197765E+02  0.25500000000E-02 0. -1.
         -1   -1    0    0    0  501 -0.00000000000E+00 -0.00000000000E+00 -0.12046229498E+03  0.12046229509E+03  0.50400000000E-02 0.  1.
         24    2    1    2    0    0  0.00000000000E+00  0.00000000000E+00 -0.10750609747E+03  0.13341849285E+03  0.79012234764E+02 0.  0.
         66    2    3    3    0    0 -0.15935120468E+02 -0.17833115027E+02 -0.74392418155E+00  0.24010445321E+02  0.20000013695E+01 0.  0.
        -13    1    3    3    0    0  0.15935120468E+02  0.17833115027E+02 -0.10676217329E+03  0.10940804753E+03  0.10566000000E+00 0.  1.
         13    1    4    4    0    0 -0.77254411951E+01 -0.80843262006E+01  0.50570710855E+00  0.11194001764E+02  0.10566000000E+00 0. -1.
        -13    1    4    4    0    0 -0.11626275605E+01 -0.15376066626E+01 -0.70868851090E-01  0.19318704726E+01  0.10566000000E+00 0. -1.
         14    1    4    4    0    0 -0.70470517120E+01 -0.82111821634E+01 -0.11787624390E+01  0.10884573085E+02  0.00000000000E+00 0. -1.
<mgrwt>
<rscale>  0 0.79012235E+02</rscale>
<asrwt>0</asrwt>
<pdfrwt beam="1">  1        2 0.19932613E-02 0.79012235E+02</pdfrwt>
<pdfrwt beam="2">  1       -1 0.18532660E-01 0.79012235E+02</pdfrwt>
<totfact> 0.11734733E+05</totfact>
</mgrwt>
</event>
<event>
 8    1  0.2561077E-020  0.8232730E+02  0.7818608E-02  0.1322574E+00
         -1   -1    0    0    0  501 -0.00000000000E+00  0.00000000000E+00  0.19041822358E+02  0.19041823025E+02  0.50400000000E-02 0.  1.
          2   -1    0    0  501    0  0.00000000000E+00 -0.00000000000E+00 -0.88985489673E+02  0.88985489710E+02  0.25500000000E-02 0. -1.
         24    2    1    2    0    0  0.00000000000E+00 -0.17763568394E-14 -0.69943667315E+02  0.10802731273E+03  0.82327296197E+02 0.  0.
         66    2    3    3    0    0  0.90762981393E+01  0.14813610538E+02 -0.83924503425E+02  0.85727151582E+02  0.19999995317E+01 0.  0.
        -13    1    3    3    0    0 -0.90762981393E+01 -0.14813610538E+02  0.13980836110E+02  0.22300161153E+02  0.10566000000E+00 0.  1.
         13    1    4    4    0    0  0.49792003539E+00  0.99768997313E+00 -0.66128538959E+01  0.67070343915E+01  0.10566000000E+00 0. -1.
        -13    1    4    4    0    0  0.51460732564E+01  0.75302926936E+01 -0.39921384025E+02  0.40950158052E+02  0.10566000000E+00 0.  1.
        -14    1    4    4    0    0  0.34323048475E+01  0.62856278714E+01 -0.37390265504E+02  0.38069959138E+02  0.00000000000E+00 0.  1.
<mgrwt>
<rscale>  0 0.82327296E+02</rscale>
<asrwt>0</asrwt>
<pdfrwt beam="1">  1        2 0.13690075E-01 0.82327296E+02</pdfrwt>
<pdfrwt beam="2">  1       -1 0.29295112E-02 0.82327296E+02</pdfrwt>
<totfact> 0.15892941E+05</totfact>
</mgrwt>
</event>
<event>
 8    1  0.2561077E-020  0.7956457E+02  0.7818608E-02  0.1330292E+00
         -1   -1    0    0    0  501 -0.00000000000E+00  0.00000000000E+00  0.20502897382E+01  0.20502959329E+01  0.50400000000E-02 0.  1.
          2   -1    0    0  501    0  0.00000000000E+00 -0.00000000000E+00 -0.77190449081E+03  0.77190449081E+03  0.25500000000E-02 0. -1.
         24    2    1    2    0    0 -0.35527136788E-14  0.00000000000E+00 -0.76985420107E+03  0.77395478675E+03  0.79564571393E+02 0.  0.
         66    2    3    3    0    0  0.28909489927E+02  0.90131713235E+01 -0.63575672641E+03  0.63648064467E+03  0.19999996487E+01 0.  0.
        -13    1    3    3    0    0 -0.28909489927E+02 -0.90131713235E+01 -0.13409747466E+03  0.13747414207E+03  0.10566000000E+00 0.  1.
         13    1    4    4    0    0  0.74870947244E+01  0.19641476134E+01 -0.14899466814E+03  0.14919563251E+03  0.10566000000E+00 0. -1.
        -13    1    4    4    0    0  0.12662194330E+01  0.60481688112E+00 -0.31476640829E+02  0.31508081456E+02  0.10566000000E+00 0.  1.
         14    1    4    4    0    0  0.20156175770E+02  0.64442068291E+01 -0.45528541745E+03  0.45577693070E+03  0.00000000000E+00 0. -1.
<mgrwt>
<rscale>  0 0.79564571E+02</rscale>
<asrwt>0</asrwt>
<pdfrwt beam="1">  1        2 0.11875431E+00 0.79564571E+02</pdfrwt>
<pdfrwt beam="2">  1       -1 0.31543028E-03 0.79564571E+02</pdfrwt>
<totfact> 0.34631724E+05</totfact>
</mgrwt>
</event>
<event>
 8    1  0.2561077E-020  0.7937436E+02  0.7818608E-02  0.1330836E+00
          2   -1    0    0  501    0  0.00000000000E+00  0.00000000000E+00  0.50057826480E+02  0.50057826545E+02  0.25500000000E-02 0. -1.
         -1   -1    0    0    0  501 -0.00000000000E+00 -0.00000000000E+00 -0.31465050896E+02  0.31465051300E+02  0.50400000000E-02 0.  1.
         24    2    1    2    0    0  0.35527136788E-14  0.00000000000E+00  0.18592775584E+02  0.81522877845E+02  0.79374355482E+02 0.  0.
         66    2    3    3    0    0  0.13506415655E+02 -0.23430304451E+01  0.47527347299E+02  0.49505169308E+02  0.19999978501E+01 0.  0.
        -13    1    3    3    0    0 -0.13506415655E+02  0.23430304451E+01 -0.28934571716E+02  0.32017708537E+02  0.10566000000E+00 0.  1.
         13    1    4    4    0    0  0.27258391274E+01  0.16584287502E+00  0.10096608882E+02  0.10459941575E+02  0.10566000000E+00 0. -1.
        -13    1    4    4    0    0  0.37299287744E+00  0.18816845204E-01  0.99582834825E+00  0.10687917922E+01  0.10566000000E+00 0. -1.
         14    1    4    4    0    0  0.10407583651E+02 -0.25276901654E+01  0.36434910070E+02  0.37976435941E+02  0.00000000000E+00 0. -1.
<mgrwt>
<rscale>  0 0.79374355E+02</rscale>
<asrwt>0</asrwt>
<pdfrwt beam="1">  1        2 0.77012040E-02 0.79374355E+02</pdfrwt>
<pdfrwt beam="2">  1       -1 0.48407772E-02 0.79374355E+02</pdfrwt>
<totfact> 0.15271498E+05</totfact>
</mgrwt>
</event>
<event>
 8    1  0.2561077E-020  0.8150667E+02  0.7818608E-02  0.1324829E+00
         -1   -1    0    0    0  501 -0.00000000000E+00  0.00000000000E+00  0.21302390995E+01  0.21302450616E+01  0.50400000000E-02 0.  1.
          2   -1    0    0  501    0  0.00000000000E+00 -0.00000000000E+00 -0.77964581951E+03  0.77964581951E+03  0.25500000000E-02 0. -1.
         24    2    1    2    0    0  0.00000000000E+00  0.17763568394E-14 -0.77751558041E+03  0.78177606457E+03  0.81506670663E+02 0.  0.
         66    2    3    3    0    0  0.18709855653E+01 -0.11495782768E+02 -0.76332947662E+03  0.76342094776E+03  0.19999993918E+01 0.  0.
        -13    1    3    3    0    0 -0.18709855653E+01  0.11495782768E+02 -0.14186103790E+02  0.18355116813E+02  0.10566000000E+00 0.  1.
         13    1    4    4    0    0  0.15477109057E+01 -0.72807771784E+01 -0.49490144342E+03  0.49495742745E+03  0.10566000000E+00 0. -1.
        -13    1    4    4    0    0  0.38189561845E+00 -0.30621715324E+01 -0.22034649064E+03  0.22036812347E+03  0.10566000000E+00 0.  1.
        -14    1    4    4    0    0 -0.58620958829E-01 -0.11528340570E+01 -0.48081542556E+02  0.48095396842E+02  0.00000000000E+00 0.  1.
<mgrwt>
<rscale>  0 0.81506671E+02</rscale>
<asrwt>0</asrwt>
<pdfrwt beam="1">  1        2 0.11994528E+00 0.81506671E+02</pdfrwt>
<pdfrwt beam="2">  1       -1 0.32773017E-03 0.81506671E+02</pdfrwt>
<totfact> 0.32587754E+05</totfact>
</mgrwt>
</event>
<event>
 8    1  0.2561077E-020  0.7891103E+02  0.7818608E-02  0.1332170E+00
         -1   -1    0    0    0  501 -0.00000000000E+00  0.00000000000E+00  0.25022003629E+02  0.25022004136E+02  0.50400000000E-02 0.  1.
          2   -1    0    0  501    0  0.00000000000E+00 -0.00000000000E+00 -0.62214748096E+02  0.62214748148E+02  0.25500000000E-02 0. -1.
         24    2    1    2    0    0  0.00000000000E+00  0.00000000000E+00 -0.37192744467E+02  0.87236752284E+02  0.78911030332E+02 0.  0.
         66    2    3    3    0    0 -0.19262564587E+02  0.22241355241E+02 -0.47626723903E+02  0.56018114128E+02  0.20000008347E+01 0.  0.
        -13    1    3    3    0    0  0.19262564587E+02 -0.22241355241E+02  0.10433979436E+02  0.31218638156E+02  0.10566000000E+00 0.  1.
         13    1    4    4    0    0 -0.10152843119E+02  0.12495990689E+02 -0.26251837962E+02  0.30796106363E+02  0.10566000000E+00 0. -1.
        -13    1    4    4    0    0 -0.66443483992E+01  0.75970589027E+01 -0.15452395487E+02  0.18456715849E+02  0.10566000000E+00 0.  1.
        -14    1    4    4    0    0 -0.24653730693E+01  0.21483056487E+01 -0.59224904534E+01  0.67652919155E+01  0.00000000000E+00 0.  1.
<mgrwt>
<rscale>  0 0.78911030E+02</rscale>
<asrwt>0</asrwt>
<pdfrwt beam="1">  1        2 0.95714997E-02 0.78911030E+02</pdfrwt>
<pdfrwt beam="2">  1       -1 0.38495391E-02 0.78911030E+02</pdfrwt>
<totfact> 0.16292985E+05</totfact>
</mgrwt>
</event>
<event>
 8    1  0.2561077E-020  0.8144263E+02  0.7818608E-02  0.1325007E+00
         -1   -1    0    0    0  501 -0.00000000000E+00  0.00000000000E+00  0.16416914866E+01  0.16416992230E+01  0.50400000000E-02 0.  1.
          2   -1    0    0  501    0  0.00000000000E+00 -0.00000000000E+00 -0.10100690607E+04  0.10100690607E+04  0.25500000000E-02 0. -1.
         24    2    1    2    0    0  0.00000000000E+00  0.00000000000E+00 -0.10084273692E+04  0.10117107599E+04  0.81442634852E+02 0.  0.
         66    2    3    3    0    0  0.30987634576E+02 -0.23926100404E+01 -0.83088803368E+03  0.83147151641E+03  0.19999999624E+01 0.  0.
        -13    1    3    3    0    0 -0.30987634576E+02  0.23926100404E+01 -0.17753933549E+03  0.18023924348E+03  0.10566000000E+00 0.  1.
         13    1    4    4    0    0  0.10472326815E+02 -0.13850377627E+01 -0.26599800006E+03  0.26620769177E+03  0.10566000000E+00 0. -1.
        -13    1    4    4    0    0  0.18249643469E+02 -0.10935683235E+01 -0.50571359598E+03  0.50604396815E+03  0.10566000000E+00 0.  1.
        -14    1    4    4    0    0  0.22656642928E+01  0.85996045793E-01 -0.59176437648E+02  0.59219856490E+02  0.00000000000E+00 0.  1.
<mgrwt>
<rscale>  0 0.81442635E+02</rscale>
<asrwt>0</asrwt>
<pdfrwt beam="1">  1        2 0.15539474E+00 0.81442635E+02</pdfrwt>
<pdfrwt beam="2">  1       -1 0.25256932E-03 0.81442635E+02</pdfrwt>
<totfact> 0.33645294E+05</totfact>
</mgrwt>
</event>
<event>
 8    1  0.2561077E-020  0.8134737E+02  0.7818608E-02  0.1325271E+00
          2   -1    0    0  501    0  0.00000000000E+00  0.00000000000E+00  0.62777216442E+03  0.62777216442E+03  0.25500000000E-02 0. -1.
         -1   -1    0    0    0  501 -0.00000000000E+00 -0.00000000000E+00 -0.26352669258E+01  0.26352717454E+01  0.50400000000E-02 0.  1.
         24    2    1    2    0    0  0.00000000000E+00 -0.35527136788E-14  0.62513689749E+03  0.63040743617E+03  0.81347372240E+02 0.  0.
         66    2    3    3    0    0 -0.11069502754E+02 -0.27648805089E+02  0.52714897961E+03  0.52799340623E+03  0.20000000540E+01 0.  0.
        -13    1    3    3    0    0  0.11069502754E+02  0.27648805089E+02  0.97987917875E+02  0.10241402994E+03  0.10566000000E+00 0.  1.
         13    1    4    4    0    0 -0.77842820063E+01 -0.17187356577E+02  0.32811016245E+03  0.32865223283E+03  0.10566000000E+00 0. -1.
        -13    1    4    4    0    0 -0.20619854777E+00 -0.63931550977E+00  0.11524116635E+02  0.11544161746E+02  0.10566000000E+00 0.  1.
         14    1    4    4    0    0 -0.30790221997E+01 -0.98221330021E+01  0.18751470053E+03  0.18779701166E+03  0.00000000000E+00 0. -1.
<mgrwt>
<rscale>  0 0.81347372E+02</rscale>
<asrwt>0</asrwt>
<pdfrwt beam="1">  1        2 0.96580488E-01 0.81347372E+02</pdfrwt>
<pdfrwt beam="2">  1       -1 0.40542540E-03 0.81347372E+02</pdfrwt>
<totfact> 0.31176091E+05</totfact>
</mgrwt>
</event>
<event>
 8    1  0.2561077E-020  0.7942074E+02  0.7818608E-02  0.1330703E+00
          2   -1    0    0  501    0  0.00000000000E+00  0.00000000000E+00  0.63105827072E+02  0.63105827123E+02  0.25500000000E-02 0. -1.
         -1   -1    0    0    0  501 -0.00000000000E+00 -0.00000000000E+00 -0.24988397565E+02  0.24988398074E+02  0.50400000000E-02 0.  1.
         24    2    1    2    0    0  0.00000000000E+00  0.00000000000E+00  0.38117429506E+02  0.88094225197E+02  0.79420740873E+02 0.  0.
         66    2    3    3    0    0 -0.16504201876E+02 -0.18964837229E+02  0.53130083246E+02  0.58812069077E+02  0.19999981718E+01 0.  0.
        -13    1    3    3    0    0  0.16504201876E+02  0.18964837229E+02 -0.15012653740E+02  0.29282156120E+02  0.10566000000E+00 0.  1.
         13    1    4    4    0    0 -0.11959830059E+02 -0.13803706905E+02  0.39762463195E+02  0.43756650954E+02  0.10566000000E+00 0. -1.
        -13    1    4    4    0    0 -0.28578472454E+01 -0.38122730443E+01  0.93126839014E+01  0.10461260064E+02  0.10566000000E+00 0.  1.
         14    1    4    4    0    0 -0.16865245710E+01 -0.13488572795E+01  0.40549361502E+01  0.45941580591E+01  0.00000000000E+00 0. -1.
<mgrwt>
<rscale>  0 0.79420741E+02</rscale>
<asrwt>0</asrwt>
<pdfrwt beam="1">  1        2 0.97085886E-02 0.79420741E+02</pdfrwt>
<pdfrwt beam="2">  1       -1 0.38443690E-02 0.79420741E+02</pdfrwt>
<totfact> 0.16064137E+05</totfact>
</mgrwt>
</event>
<event>
 8    1  0.2561077E-020  0.8032271E+02  0.7818608E-02  0.1328138E+00
         -1   -1    0    0    0  501 -0.00000000000E+00  0.00000000000E+00  0.16054018821E+02  0.16054019613E+02  0.50400000000E-02 0.  1.
          2   -1    0    0  501    0  0.00000000000E+00 -0.00000000000E+00 -0.10046919881E+03  0.10046919884E+03  0.25500000000E-02 0. -1.
         24    2    1    2    0    0  0.00000000000E+00  0.00000000000E+00 -0.84415179986E+02  0.11652321845E+03  0.80322710527E+02 0.  0.
         66    2    3    3    0    0 -0.36154058408E+02 -0.10337973366E+02 -0.62591957826E+02  0.73046169080E+02  0.20000000160E+01 0.  0.
        -13    1    3    3    0    0  0.36154058408E+02  0.10337973366E+02 -0.21823222159E+02  0.43477049372E+02  0.10566000000E+00 0.  1.
         13    1    4    4    0    0 -0.97247627032E+01 -0.34327020493E+01 -0.17750313986E+02  0.20528985937E+02  0.10566000000E+00 0. -1.
        -13    1    4    4    0    0 -0.15277039482E+02 -0.39596424526E+01 -0.24921474699E+02  0.29498436720E+02  0.10566000000E+00 0.  1.
        -14    1    4    4    0    0 -0.11152256223E+02 -0.29456288644E+01 -0.19920169141E+02  0.23018746423E+02  0.00000000000E+00 0.  1.
<mgrwt>
<rscale>  0 0.80322711E+02</rscale>
<asrwt>0</asrwt>
<pdfrwt beam="1">  1        2 0.15456799E-01 0.80322711E+02</pdfrwt>
<pdfrwt beam="2">  1       -1 0.24698492E-02 0.80322711E+02</pdfrwt>
<totfact> 0.17558702E+05</totfact>
</mgrwt>
</event>
<event>
 8    1  0.2561077E-020  0.7902541E+02  0.7818608E-02  0.1331840E+00
         -1   -1    0    0    0  501 -0.00000000000E+00  0.00000000000E+00  0.28301820184E+01  0.28301865061E+01  0.50400000000E-02 0.  1.
          2   -1    0    0  501    0  0.00000000000E+00 -0.00000000000E+00 -0.55164382547E+03  0.55164382548E+03  0.25500000000E-02 0. -1.
         24    2    1    2    0    0 -0.88817841970E-15  0.00000000000E+00 -0.54881364345E+03  0.55447401198E+03  0.79025405566E+02 0.  0.
         66    2    3    3    0    0 -0.62362944460E+01  0.21499836542E+02 -0.50281631887E+03  0.50331837327E+03  0.20000013044E+01 0.  0.
        -13    1    3    3    0    0  0.62362944460E+01 -0.21499836542E+02 -0.45997324581E+02  0.51155638716E+02  0.10566000000E+00 0.  1.
         13    1    4    4    0    0 -0.44588684711E+01  0.13706694481E+02 -0.31012274993E+03  0.31045754326E+03  0.10566000000E+00 0. -1.
        -13    1    4    4    0    0 -0.37679163033E+00  0.22021828914E+01 -0.46702011216E+02  0.46755540817E+02  0.10566000000E+00 0.  1.
        -14    1    4    4    0    0 -0.14006343445E+01  0.55909591693E+01 -0.14599155773E+03  0.14610528919E+03  0.00000000000E+00 0.  1.
<mgrwt>
<rscale>  0 0.79025406E+02</rscale>
<asrwt>0</asrwt>
<pdfrwt beam="1">  1        2 0.84868196E-01 0.79025406E+02</pdfrwt>
<pdfrwt beam="2">  1       -1 0.43541340E-03 0.79025406E+02</pdfrwt>
<totfact> 0.32408575E+05</totfact>
</mgrwt>
</event>
<event>
 8    1  0.2561077E-020  0.7913858E+02  0.7818608E-02  0.1331514E+00
          2   -1    0    0  501    0  0.00000000000E+00  0.00000000000E+00  0.72818969060E+02  0.72818969105E+02  0.25500000000E-02 0. -1.
         -1   -1    0    0    0  501 -0.00000000000E+00 -0.00000000000E+00 -0.21501661473E+02  0.21501662064E+02  0.50400000000E-02 0.  1.
         24    2    1    2    0    0  0.00000000000E+00  0.00000000000E+00  0.51317307587E+02  0.94320631169E+02  0.79138583549E+02 0.  0.
         66    2    3    3    0    0 -0.24680866527E+02 -0.67867480026E+01  0.61599053206E+02  0.66735661022E+02  0.19999937905E+01 0.  0.
        -13    1    3    3    0    0  0.24680866527E+02  0.67867480026E+01 -0.10281745619E+02  0.27584970147E+02  0.10566000000E+00 0.  1.
         13    1    4    4    0    0 -0.14095103726E+02 -0.43208178103E+01  0.33634096383E+02  0.36723357950E+02  0.10566000000E+00 0. -1.
        -13    1    4    4    0    0 -0.27897593866E+01 -0.97685148893E+00  0.74998229267E+01  0.80619789279E+01  0.10566000000E+00 0.  1.
         14    1    4    4    0    0 -0.77960034149E+01 -0.14890787033E+01  0.20465133896E+02  0.21950324144E+02  0.00000000000E+00 0. -1.
<mgrwt>
<rscale>  0 0.79138584E+02</rscale>
<asrwt>0</asrwt>
<pdfrwt beam="1">  1        2 0.11202918E-01 0.79138584E+02</pdfrwt>
<pdfrwt beam="2">  1       -1 0.33079480E-02 0.79138584E+02</pdfrwt>
<totfact> 0.16788019E+05</totfact>
</mgrwt>
</event>
<event>
 8    1  0.2561077E-020  0.7982837E+02  0.7818608E-02  0.1329539E+00
          2   -1    0    0  501    0  0.00000000000E+00  0.00000000000E+00  0.61657692610E+02  0.61657692663E+02  0.25500000000E-02 0. -1.
         -1   -1    0    0    0  501 -0.00000000000E+00 -0.00000000000E+00 -0.25838496792E+02  0.25838497284E+02  0.50400000000E-02 0.  1.
         24    2    1    2    0    0  0.00000000000E+00  0.00000000000E+00  0.35819195817E+02  0.87496189947E+02  0.79828368806E+02 0.  0.
         66    2    3    3    0    0 -0.72115952354E+01  0.91102056040E+01  0.59745484493E+02  0.60897667322E+02  0.20000039911E+01 0.  0.
        -13    1    3    3    0    0  0.72115952354E+01 -0.91102056040E+01 -0.23926288676E+02  0.26598522625E+02  0.10566000000E+00 0.  1.
         13    1    4    4    0    0 -0.14931874228E+01  0.22179746857E+01  0.10635049389E+02  0.10966515396E+02  0.10566000000E+00 0. -1.
        -13    1    4    4    0    0 -0.85330211138E+00  0.16038323414E+01  0.10911181643E+02  0.11061891861E+02  0.10566000000E+00 0.  1.
         14    1    4    4    0    0 -0.48651057012E+01  0.52883985769E+01  0.38199253461E+02  0.38869260064E+02  0.00000000000E+00 0. -1.
<mgrwt>
<rscale>  0 0.79828369E+02</rscale>
<asrwt>0</asrwt>
<pdfrwt beam="1">  1        2 0.94857990E-02 0.79828369E+02</pdfrwt>
<pdfrwt beam="2">  1       -1 0.39751534E-02 0.79828369E+02</pdfrwt>
<totfact> 0.15756654E+05</totfact>
</mgrwt>
</event>
<event>
 8    1  0.2561077E-020  0.8218620E+02  0.7818608E-02  0.1322959E+00
         -1   -1    0    0    0  501 -0.00000000000E+00  0.00000000000E+00  0.12018739270E+02  0.12018740327E+02  0.50400000000E-02 0.  1.
          2   -1    0    0  501    0  0.00000000000E+00 -0.00000000000E+00 -0.14050083678E+03  0.14050083680E+03  0.25500000000E-02 0. -1.
         24    2    1    2    0    0  0.35527136788E-14  0.00000000000E+00 -0.12848209751E+03  0.15251957713E+03  0.82186203388E+02 0.  0.
         66    2    3    3    0    0  0.26581262436E+02  0.19825961496E+02 -0.10924121655E+03  0.11418089006E+03  0.19999998130E+01 0.  0.
        -13    1    3    3    0    0 -0.26581262436E+02 -0.19825961496E+02 -0.19240880951E+02  0.38338687064E+02  0.10566000000E+00 0.  1.
         13    1    4    4    0    0  0.15579114995E+02  0.11087520933E+02 -0.61289072342E+02  0.64202830912E+02  0.10566000000E+00 0.  1.
        -13    1    4    4    0    0  0.82298587987E+01  0.59871584096E+01 -0.34293249105E+02  0.35771703061E+02  0.10566000000E+00 0. -1.
        -14    1    4    4    0    0  0.27722886424E+01  0.27512821535E+01 -0.13658895107E+02  0.14206356090E+02  0.00000000000E+00 0.  1.
<mgrwt>
<rscale>  0 0.82186203E+02</rscale>
<asrwt>0</asrwt>
<pdfrwt beam="1">  1        2 0.21615512E-01 0.82186203E+02</pdfrwt>
<pdfrwt beam="2">  1       -1 0.18490370E-02 0.82186203E+02</pdfrwt>
<totfact> 0.18258186E+05</totfact>
</mgrwt>
</event>
<event>
 8    1  0.2561077E-020  0.8024876E+02  0.7818608E-02  0.1328347E+00
         -1   -1    0    0    0  501 -0.00000000000E+00  0.00000000000E+00  0.11965133415E+03  0.11965133425E+03  0.50400000000E-02 0.  1.
          2   -1    0    0  501    0  0.00000000000E+00 -0.00000000000E+00 -0.13455478610E+02  0.13455478852E+02  0.25500000000E-02 0. -1.
         24    2    1    2    0    0  0.00000000000E+00  0.00000000000E+00  0.10619585554E+03  0.13310681311E+03  0.80248762991E+02 0.  0.
         66    2    3    3    0    0  0.31307351529E+02 -0.22723858407E+02  0.70640434292E+02  0.80564228998E+02  0.20000091268E+01 0.  0.
        -13    1    3    3    0    0 -0.31307351529E+02  0.22723858407E+02  0.35555421246E+02  0.52542584107E+02  0.10566000000E+00 0.  1.
         13    1    4    4    0    0  0.19644489058E+02 -0.14680515314E+02  0.44986204942E+02  0.51236640008E+02  0.10566000000E+00 0. -1.
        -13    1    4    4    0    0  0.26730344724E+01 -0.15206577554E+01  0.63467540303E+01  0.70533654418E+01  0.10566000000E+00 0.  1.
        -14    1    4    4    0    0  0.89898279978E+01 -0.65226853374E+01  0.19307475320E+02  0.22274223548E+02  0.00000000000E+00 0.  1.
<mgrwt>
<rscale>  0 0.80248763E+02</rscale>
<asrwt>0</asrwt>
<pdfrwt beam="1">  1        2 0.20700736E-02 0.80248763E+02</pdfrwt>
<pdfrwt beam="2">  1       -1 0.18407898E-01 0.80248763E+02</pdfrwt>
<totfact> 0.11303624E+05</totfact>
</mgrwt>
</event>
<event>
 8    1  0.2561077E-020  0.8082612E+02  0.7818608E-02  0.1326723E+00
          2   -1    0    0  501    0  0.00000000000E+00  0.00000000000E+00  0.51719118215E+02  0.51719118277E+02  0.25500000000E-02 0. -1.
         -1   -1    0    0    0  501 -0.00000000000E+00 -0.00000000000E+00 -0.31578562787E+02  0.31578563189E+02  0.50400000000E-02 0.  1.
         24    2    1    2    0    0  0.00000000000E+00  0.14210854715E-13  0.20140555427E+02  0.83297681467E+02  0.80826120560E+02 0.  0.
         66    2    3    3    0    0 -0.11324271329E+02  0.38195878517E+02  0.16916101601E+02  0.43328036443E+02  0.19999979507E+01 0.  0.
        -13    1    3    3    0    0  0.11324271329E+02 -0.38195878517E+02  0.32244538266E+01  0.39969645024E+02  0.10566000000E+00 0.  1.
         13    1    4    4    0    0 -0.11883764048E+01  0.47341898115E+01  0.17712259322E+01  0.51935726614E+01  0.10566000000E+00 0. -1.
        -13    1    4    4    0    0 -0.17818485708E-01  0.46946663418E+00  0.11793149133E+00  0.49577040179E+00  0.10566000000E+00 0.  1.
        -14    1    4    4    0    0 -0.10118076438E+02  0.32992222071E+02  0.15026944177E+02  0.37638693380E+02  0.00000000000E+00 0.  1.
<mgrwt>
<rscale>  0 0.80826121E+02</rscale>
<asrwt>0</asrwt>
<pdfrwt beam="1">  1        2 0.79567875E-02 0.80826121E+02</pdfrwt>
<pdfrwt beam="2">  1       -1 0.48582404E-02 0.80826121E+02</pdfrwt>
<totfact> 0.14636414E+05</totfact>
</mgrwt>
</event>
<event>
 8    1  0.2561077E-020  0.8045057E+02  0.7818608E-02  0.1327778E+00
          2   -1    0    0  501    0  0.00000000000E+00  0.00000000000E+00  0.31121250407E+02  0.31121250511E+02  0.25500000000E-02 0. -1.
         -1   -1    0    0    0  501 -0.00000000000E+00 -0.00000000000E+00 -0.51992561702E+02  0.51992561946E+02  0.50400000000E-02 0.  1.
         24    2    1    2    0    0  0.00000000000E+00  0.88817841970E-15 -0.20871311296E+02  0.83113812458E+02  0.80450569830E+02 0.  0.
         66    2    3    3    0    0  0.16605041075E+02 -0.69302027691E+01  0.26696725724E+02  0.32256321274E+02  0.19999995616E+01 0.  0.
        -13    1    3    3    0    0 -0.16605041075E+02  0.69302027691E+01 -0.47568037019E+02  0.50857491183E+02  0.10566000000E+00 0.  1.
         13    1    4    4    0    0  0.80065009969E+01 -0.33380302658E+01  0.11818986668E+02  0.14661040692E+02  0.10566000000E+00 0. -1.
        -13    1    4    4    0    0  0.47492897022E+01 -0.16582064113E+01  0.70639908156E+01  0.86727464771E+01  0.10566000000E+00 0.  1.
        -14    1    4    4    0    0  0.38492503763E+01 -0.19339660920E+01  0.78137482397E+01  0.89225341052E+01  0.00000000000E+00 0.  1.
<mgrwt>
<rscale>  0 0.80450570E+02</rscale>
<asrwt>0</asrwt>
<pdfrwt beam="1">  1        2 0.47878847E-02 0.80450570E+02</pdfrwt>
<pdfrwt beam="2">  1       -1 0.79988557E-02 0.80450570E+02</pdfrwt>
<totfact> 0.13341781E+05</totfact>
</mgrwt>
</event>
<event>
 8    1  0.2561077E-020  0.7976578E+02  0.7818608E-02  0.1329717E+00
         -1   -1    0    0    0  501 -0.00000000000E+00  0.00000000000E+00  0.27265355066E+01  0.27265401648E+01  0.50400000000E-02 0.  1.
          2   -1    0    0  501    0  0.00000000000E+00 -0.00000000000E+00 -0.58339365277E+03  0.58339365277E+03  0.25500000000E-02 0. -1.
         24    2    1    2    0    0  0.00000000000E+00  0.35527136788E-14 -0.58066711726E+03  0.58612019294E+03  0.79765779012E+02 0.  0.
         66    2    3    3    0    0 -0.20595876471E+02 -0.27491169179E+02 -0.43906283328E+03  0.44040904403E+03  0.19999961786E+01 0.  0.
        -13    1    3    3    0    0  0.20595876471E+02  0.27491169179E+02 -0.14160428398E+03  0.14571114891E+03  0.10566000000E+00 0.  1.
         13    1    4    4    0    0 -0.12368977185E+02 -0.16145083114E+02 -0.26550376871E+03  0.26628165102E+03  0.10566000000E+00 0. -1.
        -13    1    4    4    0    0 -0.21448450780E+01 -0.35740670573E+01 -0.47558060654E+02  0.47740492383E+02  0.10566000000E+00 0.  1.
        -14    1    4    4    0    0 -0.60820542081E+01 -0.77720190072E+01 -0.12600100391E+03  0.12638690063E+03  0.00000000000E+00 0.  1.
<mgrwt>
<rscale>  0 0.79765779E+02</rscale>
<asrwt>0</asrwt>
<pdfrwt beam="1">  1        2 0.89752770E-01 0.79765779E+02</pdfrwt>
<pdfrwt beam="2">  1       -1 0.41946783E-03 0.79765779E+02</pdfrwt>
<totfact> 0.32154258E+05</totfact>
</mgrwt>
</event>
<event>
 8    1  0.2561077E-020  0.7993471E+02  0.7818608E-02  0.1329237E+00
         -1   -1    0    0    0  501 -0.00000000000E+00  0.00000000000E+00  0.63681856626E+01  0.63681876570E+01  0.50400000000E-02 0.  1.
          2   -1    0    0  501    0  0.00000000000E+00 -0.00000000000E+00 -0.25083895424E+03  0.25083895425E+03  0.25500000000E-02 0. -1.
         24    2    1    2    0    0  0.35527136788E-14 -0.35527136788E-14 -0.24447076857E+03  0.25720714191E+03  0.79934705608E+02 0.  0.
         66    2    3    3    0    0  0.14695661533E+02 -0.29948549007E+02 -0.19299211356E+03  0.19586432536E+03  0.19999993781E+01 0.  0.
        -13    1    3    3    0    0 -0.14695661533E+02  0.29948549007E+02 -0.51478655012E+02  0.61342816543E+02  0.10566000000E+00 0.  1.
         13    1    4    4    0    0  0.32946205053E+01 -0.60129815792E+01 -0.37892060685E+02  0.38507530416E+02  0.10566000000E+00 0. -1.
        -13    1    4    4    0    0  0.37283307859E+01 -0.83189147161E+01 -0.57384758664E+02  0.58104444610E+02  0.10566000000E+00 0.  1.
        -14    1    4    4    0    0  0.76727102415E+01 -0.15616652712E+02 -0.97715294213E+02  0.99252350338E+02  0.00000000000E+00 0.  1.
<mgrwt>
<rscale>  0 0.79934706E+02</rscale>
<asrwt>0</asrwt>
<pdfrwt beam="1">  1        2 0.38590601E-01 0.79934706E+02</pdfrwt>
<pdfrwt beam="2">  1       -1 0.97972122E-03 0.79934706E+02</pdfrwt>
<totfact> 0.23948378E+05</totfact>
</mgrwt>
</event>
<event>
 8    1  0.2561077E-020  0.7908830E+02  0.7818608E-02  0.1331659E+00
          2   -1    0    0  501    0  0.00000000000E+00  0.00000000000E+00  0.29865150627E+03  0.29865150628E+03  0.25500000000E-02 0. -1.
         -1   -1    0    0    0  501 -0.00000000000E+00 -0.00000000000E+00 -0.52360009271E+01  0.52360033527E+01  0.50400000000E-02 0.  1.
         24    2    1    2    0    0  0.00000000000E+00  0.17763568394E-14  0.29341550535E+03  0.30388750964E+03  0.79088303407E+02 0.  0.
         66    2    3    3    0    0 -0.24839845705E+02 -0.14538305690E+02  0.25085503541E+03  0.25250867127E+03  0.20000019499E+01 0.  0.
        -13    1    3    3    0    0  0.24839845705E+02  0.14538305690E+02  0.42560469939E+02  0.51378838372E+02  0.10566000000E+00 0.  1.
         13    1    4    4    0    0 -0.39648234823E+01 -0.22310839186E+01  0.42870166436E+02  0.43111018255E+02  0.10566000000E+00 0. -1.
        -13    1    4    4    0    0 -0.14974608793E+02 -0.88025443623E+01  0.14285377705E+03  0.14390599876E+03  0.10566000000E+00 0.  1.
        -14    1    4    4    0    0 -0.59004134296E+01 -0.35046774090E+01  0.65131091920E+02  0.65491654255E+02  0.00000000000E+00 0.  1.
<mgrwt>
<rscale>  0 0.79088303E+02</rscale>
<asrwt>0</asrwt>
<pdfrwt beam="1">  1        2 0.45946396E-01 0.79088303E+02</pdfrwt>
<pdfrwt beam="2">  1       -1 0.80553861E-03 0.79088303E+02</pdfrwt>
<totfact> 0.26229008E+05</totfact>
</mgrwt>
</event>
<event>
 8    1  0.2561077E-020  0.8243518E+02  0.7818608E-02  0.1322279E+00
          2   -1    0    0  501    0  0.00000000000E+00  0.00000000000E+00  0.46228159238E+03  0.46228159239E+03  0.25500000000E-02 0. -1.
         -1   -1    0    0    0  501 -0.00000000000E+00 -0.00000000000E+00 -0.36750089111E+01  0.36750123671E+01  0.50400000000E-02 0.  1.
         24    2    1    2    0    0  0.71054273576E-14 -0.88817841970E-15  0.45860658347E+03  0.46595660475E+03  0.82435181282E+02 0.  0.
         66    2    3    3    0    0 -0.40437064510E+02  0.78564577982E+01  0.22982415611E+03  0.23349523087E+03  0.19999981214E+01 0.  0.
        -13    1    3    3    0    0  0.40437064510E+02 -0.78564577982E+01  0.22878242736E+03  0.23246137389E+03  0.10566000000E+00 0.  1.
         13    1    4    4    0    0 -0.32791103380E+02  0.64090211293E+01  0.18412307790E+03  0.18713003765E+03  0.10566000000E+00 0. -1.
        -13    1    4    4    0    0 -0.55095452504E+01  0.12806057318E+01  0.31651184149E+02  0.32152817326E+02  0.10566000000E+00 0.  1.
        -14    1    4    4    0    0 -0.21364158803E+01  0.16683093709E+00  0.14049894055E+02  0.14212375887E+02  0.00000000000E+00 0.  1.
<mgrwt>
<rscale>  0 0.82435181E+02</rscale>
<asrwt>0</asrwt>
<pdfrwt beam="1">  1        2 0.71120275E-01 0.82435181E+02</pdfrwt>
<pdfrwt beam="2">  1       -1 0.56538602E-03 0.82435181E+02</pdfrwt>
<totfact> 0.27447790E+05</totfact>
</mgrwt>
</event>
<event>
 8    1  0.2561077E-020  0.7884999E+02  0.7818608E-02  0.1332347E+00
          2   -1    0    0  501    0  0.00000000000E+00  0.00000000000E+00  0.75485821125E+03  0.75485821125E+03  0.25500000000E-02 0. -1.
         -1   -1    0    0    0  501 -0.00000000000E+00 -0.00000000000E+00 -0.20590989425E+01  0.20591051106E+01  0.50400000000E-02 0.  1.
         24    2    1    2    0    0  0.00000000000E+00 -0.17763568394E-14  0.75279911231E+03  0.75691731636E+03  0.78849986189E+02 0.  0.
         66    2    3    3    0    0 -0.29995600294E+02  0.10355678246E+02  0.60081444928E+03  0.60165519906E+03  0.19999972413E+01 0.  0.
        -13    1    3    3    0    0  0.29995600294E+02 -0.10355678246E+02  0.15198466303E+03  0.15526211730E+03  0.10566000000E+00 0.  1.
         13    1    4    4    0    0 -0.13795163519E+02  0.49475755117E+01  0.26533105131E+03  0.26573551323E+03  0.10566000000E+00 0. -1.
        -13    1    4    4    0    0 -0.63977965702E+01  0.23011655533E+01  0.12362305285E+03  0.12380992498E+03  0.10566000000E+00 0.  1.
        -14    1    4    4    0    0 -0.98026402056E+01  0.31069371806E+01  0.21186034511E+03  0.21210976084E+03  0.00000000000E+00 0.  1.
<mgrwt>
<rscale>  0 0.78849986E+02</rscale>
<asrwt>0</asrwt>
<pdfrwt beam="1">  1        2 0.11613204E+00 0.78849986E+02</pdfrwt>
<pdfrwt beam="2">  1       -1 0.31678491E-03 0.78849986E+02</pdfrwt>
<totfact> 0.35299182E+05</totfact>
</mgrwt>
</event>
<event>
 8    1  0.2561077E-020  0.7986403E+02  0.7818608E-02  0.1329438E+00
          2   -1    0    0  501    0  0.00000000000E+00  0.00000000000E+00  0.79214999923E+03  0.79214999923E+03  0.25500000000E-02 0. -1.
         -1   -1    0    0    0  501 -0.00000000000E+00 -0.00000000000E+00 -0.20129563323E+01  0.20129626418E+01  0.50400000000E-02 0.  1.
         24    2    1    2    0    0  0.00000000000E+00  0.00000000000E+00  0.79013704289E+03  0.79416296187E+03  0.79864031055E+02 0.  0.
         66    2    3    3    0    0 -0.11282405993E+02  0.23863887909E+02  0.69293402357E+03  0.69343949906E+03  0.20000011401E+01 0.  0.
        -13    1    3    3    0    0  0.11282405993E+02 -0.23863887909E+02  0.97203019320E+02  0.10072346281E+03  0.10566000000E+00 0.  1.
         13    1    4    4    0    0 -0.31019932469E+01  0.55139056519E+01  0.17060748563E+03  0.17072478096E+03  0.10566000000E+00 0. -1.
        -13    1    4    4    0    0 -0.54912230575E+01  0.13843862398E+02  0.38658168074E+03  0.38686847003E+03  0.10566000000E+00 0.  1.
        -14    1    4    4    0    0 -0.26891896889E+01  0.45061198585E+01  0.13574485720E+03  0.13584624807E+03  0.00000000000E+00 0.  1.
<mgrwt>
<rscale>  0 0.79864031E+02</rscale>
<asrwt>0</asrwt>
<pdfrwt beam="1">  1        2 0.12186926E+00 0.79864031E+02</pdfrwt>
<pdfrwt beam="2">  1       -1 0.30968601E-03 0.79864031E+02</pdfrwt>
<totfact> 0.34458400E+05</totfact>
</mgrwt>
</event>
<event>
 8    1  0.2561077E-020  0.8051784E+02  0.7818608E-02  0.1327588E+00
         -1   -1    0    0    0  501 -0.00000000000E+00  0.00000000000E+00  0.57710648998E+01  0.57710671006E+01  0.50400000000E-02 0.  1.
          2   -1    0    0  501    0  0.00000000000E+00 -0.00000000000E+00 -0.28084596143E+03  0.28084596144E+03  0.25500000000E-02 0. -1.
         24    2    1    2    0    0 -0.88817841970E-15  0.35527136788E-14 -0.27507489653E+03  0.28661702854E+03  0.80517838702E+02 0.  0.
         66    2    3    3    0    0 -0.52496308677E+01  0.15502555689E+02 -0.26845573721E+03  0.26896165284E+03  0.19999999211E+01 0.  0.
        -13    1    3    3    0    0  0.52496308677E+01 -0.15502555689E+02 -0.66191593226E+01  0.17655375706E+02  0.10566000000E+00 0.  1.
         13    1    4    4    0    0 -0.32235514129E+01  0.10717724766E+02 -0.18849375673E+03  0.18882576201E+03  0.10566000000E+00 0. -1.
        -13    1    4    4    0    0 -0.31683985402E+00  0.13305534475E+01 -0.16461923062E+02  0.16518984076E+02  0.10566000000E+00 0.  1.
        -14    1    4    4    0    0 -0.17092396007E+01  0.34542774752E+01 -0.63500057416E+02  0.63616906752E+02  0.00000000000E+00 0.  1.
<mgrwt>
<rscale>  0 0.80517839E+02</rscale>
<asrwt>0</asrwt>
<pdfrwt beam="1">  1        2 0.43207060E-01 0.80517839E+02</pdfrwt>
<pdfrwt beam="2">  1       -1 0.88785653E-03 0.80517839E+02</pdfrwt>
<totfact> 0.24474312E+05</totfact>
</mgrwt>
</event>
<event>
 8    1  0.2561077E-020  0.8681091E+02  0.7818608E-02  0.1310764E+00
         -1   -1    0    0    0  501 -0.00000000000E+00  0.00000000000E+00  0.10553289896E+02  0.10553291099E+02  0.50400000000E-02 0.  1.
          2   -1    0    0  501    0  0.00000000000E+00 -0.00000000000E+00 -0.17852568960E+03  0.17852568962E+03  0.25500000000E-02 0. -1.
         24    2    1    2    0    0  0.00000000000E+00  0.00000000000E+00 -0.16797239970E+03  0.18907898072E+03  0.86810908800E+02 0.  0.
         66    2    3    3    0    0  0.36724664972E+02 -0.20366752451E+02 -0.10774274599E+03  0.11565467975E+03  0.20000026794E+01 0.  0.
        -13    1    3    3    0    0 -0.36724664972E+02  0.20366752451E+02 -0.60229653712E+02  0.73424300970E+02  0.10566000000E+00 0.  1.
         13    1    4    4    0    0  0.22160178829E+01 -0.89088795040E+00 -0.64105990809E+01  0.68418828702E+01  0.10566000000E+00 0. -1.
        -13    1    4    4    0    0  0.11957066400E+02 -0.72477857546E+01 -0.34442727710E+02  0.37172765453E+02  0.10566000000E+00 0.  1.
         14    1    4    4    0    0  0.22551580689E+02 -0.12228078746E+02 -0.66889419199E+02  0.71640031422E+02  0.00000000000E+00 0. -1.
<mgrwt>
<rscale>  0 0.86810909E+02</rscale>
<asrwt>0</asrwt>
<pdfrwt beam="1">  1        2 0.27465489E-01 0.86810909E+02</pdfrwt>
<pdfrwt beam="2">  1       -1 0.16235833E-02 0.86810909E+02</pdfrwt>
<totfact> 0.17076777E+05</totfact>
</mgrwt>
</event>
<event>
 8    1  0.2561077E-020  0.7995863E+02  0.7818608E-02  0.1329169E+00
         -1   -1    0    0    0  501 -0.00000000000E+00  0.00000000000E+00  0.20726916309E+01  0.20726977586E+01  0.50400000000E-02 0.  1.
          2   -1    0    0  501    0  0.00000000000E+00 -0.00000000000E+00 -0.77114371576E+03  0.77114371577E+03  0.25500000000E-02 0. -1.
         24    2    1    2    0    0  0.35527136788E-14  0.00000000000E+00 -0.76907102413E+03  0.77321641352E+03  0.79958626715E+02 0.  0.
         66    2    3    3    0    0  0.20816621056E+02  0.17377148522E+02 -0.66853354078E+03  0.66908623670E+03  0.19999976447E+01 0.  0.
        -13    1    3    3    0    0 -0.20816621056E+02 -0.17377148522E+02 -0.10053748335E+03  0.10413017682E+03  0.10566000000E+00 0.  1.
         13    1    4    4    0    0  0.84157407311E+01  0.72447234356E+01 -0.27132551374E+03  0.27155267680E+03  0.10566000000E+00 0. -1.
        -13    1    4    4    0    0  0.10206438145E+02  0.75749177123E+01 -0.31031332180E+03  0.31057353334E+03  0.10566000000E+00 0.  1.
        -14    1    4    4    0    0  0.21944421795E+01  0.25575073745E+01 -0.86894705239E+02  0.86960026558E+02  0.00000000000E+00 0.  1.
<mgrwt>
<rscale>  0 0.79958627E+02</rscale>
<asrwt>0</asrwt>
<pdfrwt beam="1">  1        2 0.11863727E+00 0.79958627E+02</pdfrwt>
<pdfrwt beam="2">  1       -1 0.31887672E-03 0.79958627E+02</pdfrwt>
<totfact> 0.34183784E+05</totfact>
</mgrwt>
</event>
<event>
 8    1  0.2561077E-020  0.7326411E+02  0.7818608E-02  0.1349332E+00
          2   -1    0    0  501    0  0.00000000000E+00  0.00000000000E+00  0.26044205577E+02  0.26044205702E+02  0.25500000000E-02 0. -1.
         -1   -1    0    0    0  501 -0.00000000000E+00 -0.00000000000E+00 -0.51524228400E+02  0.51524228647E+02  0.50400000000E-02 0.  1.
         24    2    1    2    0    0  0.35527136788E-14  0.00000000000E+00 -0.25480022824E+02  0.77568434349E+02  0.73264114300E+02 0.  0.
         66    2    3    3    0    0  0.28196253153E+02  0.10096715807E+02  0.95328956784E+01  0.31493625743E+02  0.20000001166E+01 0.  0.
        -13    1    3    3    0    0 -0.28196253153E+02 -0.10096715807E+02 -0.35012918502E+02  0.46074808606E+02  0.10566000000E+00 0.  1.
         13    1    4    4    0    0  0.10816700340E+02  0.42829058481E+01  0.42074266224E+01  0.12371656783E+02  0.10566000000E+00 0. -1.
        -13    1    4    4    0    0  0.14586764243E+02  0.44262900523E+01  0.45512046908E+01  0.15908814000E+02  0.10566000000E+00 0.  1.
        -14    1    4    4    0    0  0.27927885705E+01  0.13875199063E+01  0.77426436520E+00  0.32131549600E+01  0.00000000000E+00 0.  1.
<mgrwt>
<rscale>  0 0.73264114E+02</rscale>
<asrwt>0</asrwt>
<pdfrwt beam="1">  1        2 0.40068009E-02 0.73264114E+02</pdfrwt>
<pdfrwt beam="2">  1       -1 0.79268044E-02 0.73264114E+02</pdfrwt>
<totfact> 0.16740784E+05</totfact>
</mgrwt>
</event>
<event>
 8    1  0.2561077E-020  0.7854822E+02  0.7818608E-02  0.1333223E+00
          2   -1    0    0  501    0  0.00000000000E+00  0.00000000000E+00  0.23229068169E+02  0.23229068309E+02  0.25500000000E-02 0. -1.
         -1   -1    0    0    0  501 -0.00000000000E+00 -0.00000000000E+00 -0.66401954632E+02  0.66401954824E+02  0.50400000000E-02 0.  1.
         24    2    1    2    0    0  0.00000000000E+00  0.17763568394E-14 -0.43172886464E+02  0.89631023132E+02  0.78548215652E+02 0.  0.
         66    2    3    3    0    0 -0.28026177883E+02  0.11579984985E+02  0.68329902018E+01  0.31148875736E+02  0.20000013837E+01 0.  0.
        -13    1    3    3    0    0  0.28026177883E+02 -0.11579984985E+02 -0.50005876665E+02  0.58482147396E+02  0.10566000000E+00 0.  1.
         13    1    4    4    0    0 -0.63154019661E+01  0.25820680826E+01  0.14212203501E+01  0.69701082414E+01  0.10566000000E+00 0. -1.
        -13    1    4    4    0    0 -0.18098254120E+02  0.80269653555E+01  0.49622433370E+01  0.20411124369E+02  0.10566000000E+00 0.  1.
        -14    1    4    4    0    0 -0.36125217965E+01  0.97095154672E+00  0.44952651467E+00  0.37676431258E+01  0.00000000000E+00 0.  1.
<mgrwt>
<rscale>  0 0.78548216E+02</rscale>
<asrwt>0</asrwt>
<pdfrwt beam="1">  1        2 0.35737028E-02 0.78548216E+02</pdfrwt>
<pdfrwt beam="2">  1       -1 0.10215685E-01 0.78548216E+02</pdfrwt>
<totfact> 0.13475977E+05</totfact>
</mgrwt>
</event>
<event>
 8    1  0.2561077E-020  0.7970412E+02  0.7818608E-02  0.1329893E+00
         -1   -1    0    0    0  501 -0.00000000000E+00  0.00000000000E+00  0.16708711305E+02  0.16708712065E+02  0.50400000000E-02 0.  1.
          2   -1    0    0  501    0  0.00000000000E+00 -0.00000000000E+00 -0.95051410900E+02  0.95051410934E+02  0.25500000000E-02 0. -1.
         24    2    1    2    0    0  0.71054273576E-14 -0.71054273576E-14 -0.78342699595E+02  0.11176012300E+03  0.79704118545E+02 0.  0.
         66    2    3    3    0    0 -0.28568964006E+02  0.18334654799E+02 -0.68401744412E+02  0.76388113939E+02  0.20000104058E+01 0.  0.
        -13    1    3    3    0    0  0.28568964006E+02 -0.18334654799E+02 -0.99409551837E+01  0.35372009060E+02  0.10566000000E+00 0.  1.
         13    1    4    4    0    0 -0.17437316095E+02  0.12229448342E+02 -0.42959248169E+02  0.47949218623E+02  0.10566000000E+00 0. -1.
        -13    1    4    4    0    0 -0.29555887701E+01  0.14035666318E+01 -0.67249339572E+01  0.74793987079E+01  0.10566000000E+00 0.  1.
         14    1    4    4    0    0 -0.81760591410E+01  0.47016398249E+01 -0.18717562286E+02  0.20959496608E+02  0.00000000000E+00 0. -1.
<mgrwt>
<rscale>  0 0.79704119E+02</rscale>
<asrwt>0</asrwt>
<pdfrwt beam="1">  1        2 0.14623294E-01 0.79704119E+02</pdfrwt>
<pdfrwt beam="2">  1       -1 0.25705711E-02 0.79704119E+02</pdfrwt>
<totfact> 0.17652733E+05</totfact>
</mgrwt>
</event>
<event>
 8    1  0.2561077E-020  0.7559095E+02  0.7818608E-02  0.1342051E+00
         -1   -1    0    0    0  501 -0.00000000000E+00  0.00000000000E+00  0.38931869891E+01  0.38931902514E+01  0.50400000000E-02 0.  1.
          2   -1    0    0  501    0  0.00000000000E+00 -0.00000000000E+00 -0.36692237268E+03  0.36692237269E+03  0.25500000000E-02 0. -1.
         24    2    1    2    0    0  0.88817841970E-15  0.00000000000E+00 -0.36302918569E+03  0.37081556294E+03  0.75590952206E+02 0.  0.
         66    2    3    3    0    0 -0.67284455649E+01 -0.19739472437E+02 -0.33611366607E+03  0.33676596511E+03  0.19999966902E+01 0.  0.
        -13    1    3    3    0    0  0.67284455649E+01  0.19739472437E+02 -0.26915519621E+02  0.34049597828E+02  0.10566000000E+00 0.  1.
         13    1    4    4    0    0 -0.24609629279E+01 -0.69083576603E+01 -0.11586590501E+03  0.11609780727E+03  0.10566000000E+00 0. -1.
        -13    1    4    4    0    0 -0.31809234507E+01 -0.10605385672E+02 -0.18768572472E+03  0.18801206053E+03  0.10566000000E+00 0.  1.
        -14    1    4    4    0    0 -0.10865591862E+01 -0.22257291040E+01 -0.32562036341E+02  0.32656097311E+02  0.00000000000E+00 0.  1.
<mgrwt>
<rscale>  0 0.75590952E+02</rscale>
<asrwt>0</asrwt>
<pdfrwt beam="1">  1        2 0.56449569E-01 0.75590952E+02</pdfrwt>
<pdfrwt beam="2">  1       -1 0.59895239E-03 0.75590952E+02</pdfrwt>
<totfact> 0.31771965E+05</totfact>
</mgrwt>
</event>
<event>
 8    1  0.2561077E-020  0.7833442E+02  0.7818608E-02  0.1333846E+00
          2   -1    0    0  501    0  0.00000000000E+00  0.00000000000E+00  0.12140969610E+03  0.12140969613E+03  0.25500000000E-02 0. -1.
         -1   -1    0    0    0  501 -0.00000000000E+00 -0.00000000000E+00 -0.12635484681E+02  0.12635485686E+02  0.50400000000E-02 0.  1.
         24    2    1    2    0    0  0.17763568394E-14  0.00000000000E+00  0.10877421142E+03  0.13404518181E+03  0.78334422176E+02 0.  0.
         66    2    3    3    0    0 -0.12492415625E+02 -0.31039376396E+02  0.89179537693E+02  0.95270631685E+02  0.19999958614E+01 0.  0.
        -13    1    3    3    0    0  0.12492415625E+02  0.31039376396E+02  0.19594673728E+02  0.38774550129E+02  0.10566000000E+00 0.  1.
         13    1    4    4    0    0 -0.57957683154E+01 -0.15233939048E+02  0.44120910698E+02  0.47035409578E+02  0.10566000000E+00 0. -1.
        -13    1    4    4    0    0 -0.26305860496E+01 -0.70153896325E+01  0.21233958630E+02  0.22517278650E+02  0.10566000000E+00 0.  1.
        -14    1    4    4    0    0 -0.40660612597E+01 -0.87900477158E+01  0.23824668364E+02  0.25717943457E+02  0.00000000000E+00 0.  1.
<mgrwt>
<rscale>  0 0.78334422E+02</rscale>
<asrwt>0</asrwt>
<pdfrwt beam="1">  1        2 0.18678415E-01 0.78334422E+02</pdfrwt>
<pdfrwt beam="2">  1       -1 0.19439208E-02 0.78334422E+02</pdfrwt>
<totfact> 0.19832575E+05</totfact>
</mgrwt>
</event>
<event>
 8    1  0.2561077E-020  0.8332085E+02  0.7818608E-02  0.1319883E+00
         -1   -1    0    0    0  501 -0.00000000000E+00  0.00000000000E+00  0.17818411453E+03  0.17818411460E+03  0.50400000000E-02 0.  1.
          2   -1    0    0  501    0  0.00000000000E+00 -0.00000000000E+00 -0.97404350816E+01  0.97404354154E+01  0.25500000000E-02 0. -1.
         24    2    1    2    0    0 -0.35527136788E-14 -0.35527136788E-14  0.16844367945E+03  0.18792455002E+03  0.83320845848E+02 0.  0.
         66    2    3    3    0    0 -0.21942755124E+02 -0.30900517068E+02  0.45383840693E+02  0.59160962244E+02  0.20000000308E+01 0.  0.
        -13    1    3    3    0    0  0.21942755124E+02  0.30900517068E+02  0.12305983875E+03  0.12876358777E+03  0.10566000000E+00 0.  1.
         13    1    4    4    0    0 -0.14106014716E+02 -0.19970015421E+02  0.29747323462E+02  0.38505786374E+02  0.10566000000E+00 0. -1.
        -13    1    4    4    0    0 -0.63272009642E+01 -0.95079304325E+01  0.13186124191E+02  0.17444748446E+02  0.10566000000E+00 0.  1.
        -14    1    4    4    0    0 -0.15095394438E+01 -0.14225712143E+01  0.24503930399E+01  0.32104274237E+01  0.00000000000E+00 0.  1.
<mgrwt>
<rscale>  0 0.83320846E+02</rscale>
<asrwt>0</asrwt>
<pdfrwt beam="1">  1        2 0.14985285E-02 0.83320846E+02</pdfrwt>
<pdfrwt beam="2">  1       -1 0.27412940E-01 0.83320846E+02</pdfrwt>
<totfact> 0.92905600E+04</totfact>
</mgrwt>
</event>
<event>
 8    1  0.2561077E-020  0.8043882E+02  0.7818608E-02  0.1327811E+00
          2   -1    0    0  501    0  0.00000000000E+00  0.00000000000E+00  0.72267521176E+03  0.72267521176E+03  0.25500000000E-02 0. -1.
         -1   -1    0    0    0  501 -0.00000000000E+00 -0.00000000000E+00 -0.22383483933E+01  0.22383540675E+01  0.50400000000E-02 0.  1.
         24    2    1    2    0    0  0.00000000000E+00  0.00000000000E+00  0.72043686336E+03  0.72491356583E+03  0.80438820413E+02 0.  0.
         66    2    3    3    0    0  0.26649633411E+02 -0.92915764356E+01  0.61835650359E+03  0.61900347486E+03  0.20000005891E+01 0.  0.
        -13    1    3    3    0    0 -0.26649633411E+02  0.92915764356E+01  0.10208035977E+03  0.10591009097E+03  0.10566000000E+00 0.  1.
         13    1    4    4    0    0  0.15513391709E+02 -0.51699660944E+01  0.37117892101E+03  0.37153895682E+03  0.10566000000E+00 0. -1.
        -13    1    4    4    0    0  0.65136447816E+01 -0.21096043052E+01  0.13446270924E+03  0.13463695384E+03  0.10566000000E+00 0.  1.
         14    1    4    4    0    0  0.46225969199E+01 -0.20120060361E+01  0.11271487334E+03  0.11282756420E+03  0.00000000000E+00 0. -1.
<mgrwt>
<rscale>  0 0.80438820E+02</rscale>
<asrwt>0</asrwt>
<pdfrwt beam="1">  1        2 0.11118081E+00 0.80438820E+02</pdfrwt>
<pdfrwt beam="2">  1       -1 0.34436171E-03 0.80438820E+02</pdfrwt>
<totfact> 0.33214436E+05</totfact>
</mgrwt>
</event>
<event>
 8    1  0.2561077E-020  0.8042074E+02  0.7818608E-02  0.1327862E+00
         -1   -1    0    0    0  501 -0.00000000000E+00  0.00000000000E+00  0.13423268388E+02  0.13423269335E+02  0.50400000000E-02 0.  1.
          2   -1    0    0  501    0  0.00000000000E+00 -0.00000000000E+00 -0.12045306010E+03  0.12045306012E+03  0.25500000000E-02 0. -1.
         24    2    1    2    0    0 -0.35527136788E-14  0.00000000000E+00 -0.10702979171E+03  0.13387632946E+03  0.80420739092E+02 0.  0.
         66    2    3    3    0    0 -0.22656103655E+02 -0.19000177125E+02 -0.98849837805E+02  0.10319688074E+03  0.19999993518E+01 0.  0.
        -13    1    3    3    0    0  0.22656103655E+02  0.19000177125E+02 -0.81799539036E+01  0.30679448716E+02  0.10566000000E+00 0.  1.
         13    1    4    4    0    0 -0.36901020788E+01 -0.32332788607E+01 -0.16259981231E+02  0.16984378093E+02  0.10566000000E+00 0. -1.
        -13    1    4    4    0    0 -0.17931331023E+02 -0.15011368113E+02 -0.76747004037E+02  0.80230839442E+02  0.10566000000E+00 0.  1.
        -14    1    4    4    0    0 -0.10346705531E+01 -0.75553015133E+00 -0.58428525363E+01  0.59816632072E+01  0.00000000000E+00 0.  1.
<mgrwt>
<rscale>  0 0.80420739E+02</rscale>
<asrwt>0</asrwt>
<pdfrwt beam="1">  1        2 0.18531239E-01 0.80420739E+02</pdfrwt>
<pdfrwt beam="2">  1       -1 0.20651184E-02 0.80420739E+02</pdfrwt>
<totfact> 0.18447707E+05</totfact>
</mgrwt>
</event>
<event>
 8    1  0.2561077E-020  0.7852612E+02  0.7818608E-02  0.1333287E+00
          2   -1    0    0  501    0  0.00000000000E+00  0.00000000000E+00  0.32182207846E+02  0.32182207947E+02  0.25500000000E-02 0. -1.
         -1   -1    0    0    0  501 -0.00000000000E+00 -0.00000000000E+00 -0.47901871054E+02  0.47901871320E+02  0.50400000000E-02 0.  1.
         24    2    1    2    0    0  0.17763568394E-14  0.00000000000E+00 -0.15719663209E+02  0.80084079266E+02  0.78526122663E+02 0.  0.
         66    2    3    3    0    0  0.13115298748E+02 -0.13155664107E+02  0.27382330868E+02  0.33149277501E+02  0.19999989272E+01 0.  0.
        -13    1    3    3    0    0 -0.13115298748E+02  0.13155664107E+02 -0.43101994076E+02  0.46934801765E+02  0.10566000000E+00 0.  1.
         13    1    4    4    0    0  0.33848263774E+01 -0.26992143544E+01  0.73859364792E+01  0.85618940339E+01  0.10566000000E+00 0. -1.
        -13    1    4    4    0    0  0.63174568255E+01 -0.73278748477E+01  0.13381772710E+02  0.16513358696E+02  0.10566000000E+00 0.  1.
         14    1    4    4    0    0  0.34130155455E+01 -0.31285749052E+01  0.66146216785E+01  0.80740247709E+01  0.00000000000E+00 0. -1.
<mgrwt>
<rscale>  0 0.78526123E+02</rscale>
<asrwt>0</asrwt>
<pdfrwt beam="1">  1        2 0.49511089E-02 0.78526123E+02</pdfrwt>
<pdfrwt beam="2">  1       -1 0.73695187E-02 0.78526123E+02</pdfrwt>
<totfact> 0.14369671E+05</totfact>
</mgrwt>
</event>
<event>
 8    1  0.2561077E-020  0.8016512E+02  0.7818608E-02  0.1328584E+00
         -1   -1    0    0    0  501 -0.00000000000E+00  0.00000000000E+00  0.62434344834E+02  0.62434345038E+02  0.50400000000E-02 0.  1.
          2   -1    0    0  501    0  0.00000000000E+00 -0.00000000000E+00 -0.25732816597E+02  0.25732816723E+02  0.25500000000E-02 0. -1.
         24    2    1    2    0    0  0.00000000000E+00  0.35527136788E-14  0.36701528238E+02  0.88167161761E+02  0.80165118586E+02 0.  0.
         66    2    3    3    0    0  0.13183768894E+02  0.30933844512E+02  0.42304194405E+02  0.54077346115E+02  0.19999999890E+01 0.  0.
        -13    1    3    3    0    0 -0.13183768894E+02 -0.30933844512E+02 -0.56026661675E+01  0.34089815646E+02  0.10566000000E+00 0.  1.
         13    1    4    4    0    0  0.33595882416E+01  0.87084742833E+01  0.11833919960E+02  0.15072398056E+02  0.10566000000E+00 0. -1.
        -13    1    4    4    0    0  0.93891662480E+01  0.21683428952E+02  0.29263486535E+02  0.37612369536E+02  0.10566000000E+00 0.  1.
        -14    1    4    4    0    0  0.43501440438E+00  0.54194127710E+00  0.12067879106E+01  0.13925785224E+01  0.00000000000E+00 0.  1.
<mgrwt>
<rscale>  0 0.80165119E+02</rscale>
<asrwt>0</asrwt>
<pdfrwt beam="1">  1        2 0.39588949E-02 0.80165119E+02</pdfrwt>
<pdfrwt beam="2">  1       -1 0.96052838E-02 0.80165119E+02</pdfrwt>
<totfact> 0.12978677E+05</totfact>
</mgrwt>
</event>
<event>
 8    1  0.2561077E-020  0.8327277E+02  0.7818608E-02  0.1320012E+00
         -1   -1    0    0    0  501 -0.00000000000E+00  0.00000000000E+00  0.98934321844E+02  0.98934321973E+02  0.50400000000E-02 0.  1.
          2   -1    0    0  501    0  0.00000000000E+00 -0.00000000000E+00 -0.17522618672E+02  0.17522618858E+02  0.25500000000E-02 0. -1.
         24    2    1    2    0    0  0.00000000000E+00  0.00000000000E+00  0.81411703172E+02  0.11645694083E+03  0.83272766583E+02 0.  0.
         66    2    3    3    0    0 -0.40596873138E+02 -0.31859393985E+01  0.28753741200E+02  0.49890219104E+02  0.20000026855E+01 0.  0.
        -13    1    3    3    0    0  0.40596873138E+02  0.31859393985E+01  0.52657961972E+02  0.66566721727E+02  0.10566000000E+00 0.  1.
         13    1    4    4    0    0 -0.24449533859E+02 -0.21908841245E+01  0.18195723380E+02  0.30556099105E+02  0.10566000000E+00 0. -1.
        -13    1    4    4    0    0 -0.12292155651E+02 -0.10863007546E+01  0.80589818987E+01  0.14738910853E+02  0.10566000000E+00 0.  1.
         14    1    4    4    0    0 -0.38551836291E+01  0.91245480571E-01  0.24990359215E+01  0.45952091452E+01  0.00000000000E+00 0. -1.
<mgrwt>
<rscale>  0 0.83272767E+02</rscale>
<asrwt>0</asrwt>
<pdfrwt beam="1">  1        2 0.26957876E-02 0.83272767E+02</pdfrwt>
<pdfrwt beam="2">  1       -1 0.15220665E-01 0.83272767E+02</pdfrwt>
<totfact> 0.10750968E+05</totfact>
</mgrwt>
</event>
<event>
 8    1  0.2561077E-020  0.8098167E+02  0.7818608E-02  0.1326288E+00
          2   -1    0    0  501    0  0.00000000000E+00  0.00000000000E+00  0.10320170757E+02  0.10320171072E+02  0.25500000000E-02 0. -1.
         -1   -1    0    0    0  501 -0.00000000000E+00 -0.00000000000E+00 -0.15886438190E+03  0.15886438198E+03  0.50400000000E-02 0.  1.
         24    2    1    2    0    0  0.00000000000E+00  0.00000000000E+00 -0.14854421114E+03  0.16918455305E+03  0.80981666612E+02 0.  0.
         66    2    3    3    0    0 -0.22184365007E+02 -0.17407096367E+02 -0.13682728828E+02  0.31406530019E+02  0.20000012467E+01 0.  0.
        -13    1    3    3    0    0  0.22184365007E+02  0.17407096367E+02 -0.13486148231E+03  0.13777802303E+03  0.10566000000E+00 0.  1.
         13    1    4    4    0    0 -0.12988587434E+02 -0.10874112454E+02 -0.87462968738E+01  0.19064590167E+02  0.10566000000E+00 0. -1.
        -13    1    4    4    0    0 -0.48410761609E+01 -0.34623435017E+01 -0.21514914938E+01  0.63296066704E+01  0.10566000000E+00 0.  1.
         14    1    4    4    0    0 -0.43547014114E+01 -0.30706404114E+01 -0.27849404602E+01  0.60123331815E+01  0.00000000000E+00 0. -1.
<mgrwt>
<rscale>  0 0.80981667E+02</rscale>
<asrwt>0</asrwt>
<pdfrwt beam="1">  1        2 0.15877187E-02 0.80981667E+02</pdfrwt>
<pdfrwt beam="2">  1       -1 0.24440672E-01 0.80981667E+02</pdfrwt>
<totfact> 0.10304954E+05</totfact>
</mgrwt>
</event>
<event>
 8    1  0.2561077E-020  0.8048393E+02  0.7818608E-02  0.1327684E+00
         -1   -1    0    0    0  501 -0.00000000000E+00  0.00000000000E+00  0.59240528430E+01  0.59240549869E+01  0.50400000000E-02 0.  1.
          2   -1    0    0  501    0  0.00000000000E+00 -0.00000000000E+00 -0.27336273060E+03  0.27336273061E+03  0.25500000000E-02 0. -1.
         24    2    1    2    0    0  0.00000000000E+00  0.00000000000E+00 -0.26743867776E+03  0.27928678560E+03  0.80483925411E+02 0.  0.
         66    2    3    3    0    0 -0.25021624456E+02  0.10723282803E+02 -0.23652701987E+03  0.23809683243E+03  0.20000002233E+01 0.  0.
        -13    1    3    3    0    0  0.25021624456E+02 -0.10723282803E+02 -0.30911657883E+02  0.41189953163E+02  0.10566000000E+00 0.  1.
         13    1    4    4    0    0 -0.17850622086E+02  0.76472908707E+01 -0.17074536105E+03  0.17184619649E+03  0.10566000000E+00 0. -1.
        -13    1    4    4    0    0 -0.55616130960E+01  0.19810076630E+01 -0.47488939682E+02  0.47854639145E+02  0.10566000000E+00 0.  1.
         14    1    4    4    0    0 -0.16093892739E+01  0.10949842692E+01 -0.18292719144E+02  0.18395996795E+02  0.00000000000E+00 0. -1.
<mgrwt>
<rscale>  0 0.80483925E+02</rscale>
<asrwt>0</asrwt>
<pdfrwt beam="1">  1        2 0.42055795E-01 0.80483925E+02</pdfrwt>
<pdfrwt beam="2">  1       -1 0.91139313E-03 0.80483925E+02</pdfrwt>
<totfact> 0.24262747E+05</totfact>
</mgrwt>
</event>
<event>
 8    1  0.2561077E-020  0.7928711E+02  0.7818608E-02  0.1331087E+00
          2   -1    0    0  501    0  0.00000000000E+00  0.00000000000E+00  0.58881529125E+02  0.58881529180E+02  0.25500000000E-02 0. -1.
         -1   -1    0    0    0  501 -0.00000000000E+00 -0.00000000000E+00 -0.26691075573E+02  0.26691076049E+02  0.50400000000E-02 0.  1.
         24    2    1    2    0    0 -0.17763568394E-14  0.00000000000E+00  0.32190453552E+02  0.85572605229E+02  0.79287107816E+02 0.  0.
         66    2    3    3    0    0 -0.11919045831E+02 -0.64777093748E+01  0.56279737833E+02  0.57926101771E+02  0.20000009041E+01 0.  0.
        -13    1    3    3    0    0  0.11919045831E+02  0.64777093748E+01 -0.24089284280E+02  0.27646503458E+02  0.10566000000E+00 0.  1.
         13    1    4    4    0    0 -0.12468659238E+01 -0.59360744943E+00  0.70602750992E+01  0.71948379376E+01  0.10566000000E+00 0. -1.
        -13    1    4    4    0    0 -0.29579351605E+01 -0.10016056289E+01  0.14370556239E+02  0.14706347095E+02  0.10566000000E+00 0. -1.
         14    1    4    4    0    0 -0.77142447471E+01 -0.48824962965E+01  0.34848906495E+02  0.36024916738E+02  0.00000000000E+00 0. -1.
<mgrwt>
<rscale>  0 0.79287108E+02</rscale>
<asrwt>0</asrwt>
<pdfrwt beam="1">  1        2 0.90586968E-02 0.79287108E+02</pdfrwt>
<pdfrwt beam="2">  1       -1 0.41063194E-02 0.79287108E+02</pdfrwt>
<totfact> 0.15881010E+05</totfact>
</mgrwt>
</event>
<event>
 8    1  0.2561077E-020  0.8004592E+02  0.7818608E-02  0.1328921E+00
         -1   -1    0    0    0  501 -0.00000000000E+00  0.00000000000E+00  0.10952797933E+01  0.10952913892E+01  0.50400000000E-02 0.  1.
          2   -1    0    0  501    0  0.00000000000E+00 -0.00000000000E+00 -0.14624837697E+04  0.14624837697E+04  0.25500000000E-02 0. -1.
         24    2    1    2    0    0  0.35527136788E-14  0.13877787808E-16 -0.14613884899E+04  0.14635790611E+04  0.80045922030E+02 0.  0.
         66    2    3    3    0    0  0.21684082760E+02 -0.70746553980E-01 -0.13456814104E+04  0.13458575938E+04  0.20000084026E+01 0.  0.
        -13    1    3    3    0    0 -0.21684082760E+02  0.70746553980E-01 -0.11570707955E+03  0.11772146734E+03  0.10566000000E+00 0.  1.
         13    1    4    4    0    0  0.49463363082E+01 -0.13790410953E+00 -0.27876566616E+03  0.27880960001E+03  0.10566000000E+00 0. -1.
        -13    1    4    4    0    0  0.47240690512E+01 -0.40903827342E-01 -0.26234307900E+03  0.26238563369E+03  0.10566000000E+00 0.  1.
         14    1    4    4    0    0  0.12013677401E+02  0.10806138289E+00 -0.80457266521E+03  0.80466236007E+03  0.00000000000E+00 0. -1.
<mgrwt>
<rscale>  0 0.80045922E+02</rscale>
<asrwt>0</asrwt>
<pdfrwt beam="1">  1        2 0.22499594E+00 0.80045922E+02</pdfrwt>
<pdfrwt beam="2">  1       -1 0.16850665E-03 0.80045922E+02</pdfrwt>
<totfact> 0.33504876E+05</totfact>
</mgrwt>
</event>
<event>
 8    1  0.2561077E-020  0.7368452E+02  0.7818608E-02  0.1347994E+00
          2   -1    0    0  501    0  0.00000000000E+00  0.00000000000E+00  0.22259913366E+03  0.22259913368E+03  0.25500000000E-02 0. -1.
         -1   -1    0    0    0  501 -0.00000000000E+00 -0.00000000000E+00 -0.60977403090E+01  0.60977423918E+01  0.50400000000E-02 0.  1.
         24    2    1    2    0    0  0.17763568394E-14  0.00000000000E+00  0.21650139335E+03  0.22869687607E+03  0.73684515332E+02 0.  0.
         66    2    3    3    0    0  0.14410889591E+02 -0.19977776475E+02  0.19324784914E+03  0.19482175579E+03  0.20000096130E+01 0.  0.
        -13    1    3    3    0    0 -0.14410889591E+02  0.19977776475E+02  0.23253544213E+02  0.33875120283E+02  0.10566000000E+00 0.  1.
         13    1    4    4    0    0  0.61393138718E+01 -0.84835478322E+01  0.76762537379E+02  0.77473608846E+02  0.10566000000E+00 0. -1.
        -13    1    4    4    0    0  0.80789974618E+01 -0.11404800551E+02  0.11528978845E+03  0.11613391477E+03  0.10566000000E+00 0.  1.
        -14    1    4    4    0    0  0.19257825763E+00 -0.89428091433E-01  0.11955233133E+01  0.12142321695E+01  0.00000000000E+00 0.  1.
<mgrwt>
<rscale>  0 0.73684515E+02</rscale>
<asrwt>0</asrwt>
<pdfrwt beam="1">  1        2 0.34246021E-01 0.73684515E+02</pdfrwt>
<pdfrwt beam="2">  1       -1 0.93811403E-03 0.73684515E+02</pdfrwt>
<totfact> 0.28411988E+05</totfact>
</mgrwt>
</event>
<event>
 8    1  0.2561077E-020  0.7737731E+02  0.7818608E-02  0.1336663E+00
          2   -1    0    0  501    0  0.00000000000E+00  0.00000000000E+00  0.16575970682E+02  0.16575970878E+02  0.25500000000E-02 0. -1.
         -1   -1    0    0    0  501 -0.00000000000E+00 -0.00000000000E+00 -0.90300117109E+02  0.90300117249E+02  0.50400000000E-02 0.  1.
         24    2    1    2    0    0  0.00000000000E+00  0.00000000000E+00 -0.73724146427E+02  0.10687608813E+03  0.77377312224E+02 0.  0.
         66    2    3    3    0    0 -0.26305094318E+02  0.16817304029E+02 -0.53888433929E+01  0.31746170607E+02  0.20000033058E+01 0.  0.
        -13    1    3    3    0    0  0.26305094318E+02 -0.16817304029E+02 -0.68335303034E+02  0.75129917520E+02  0.10566000000E+00 0.  1.
         13    1    4    4    0    0 -0.11963013816E+02  0.76276570889E+01 -0.30606433400E+01  0.14514597960E+02  0.10566000000E+00 0. -1.
        -13    1    4    4    0    0 -0.20903079486E+01  0.15689404122E+01 -0.72458494897E+00  0.27142492002E+01  0.10566000000E+00 0.  1.
         14    1    4    4    0    0 -0.12251772552E+02  0.76207065281E+01 -0.16036151039E+01  0.14517323447E+02  0.00000000000E+00 0. -1.
<mgrwt>
<rscale>  0 0.77377312E+02</rscale>
<asrwt>0</asrwt>
<pdfrwt beam="1">  1        2 0.25501494E-02 0.77377312E+02</pdfrwt>
<pdfrwt beam="2">  1       -1 0.13892326E-01 0.77377312E+02</pdfrwt>
<totfact> 0.13155685E+05</totfact>
</mgrwt>
</event>
<event>
 8    1  0.2561077E-020  0.8968866E+02  0.7818608E-02  0.1303607E+00
         -1   -1    0    0    0  501 -0.00000000000E+00  0.00000000000E+00  0.49062341860E+01  0.49062367747E+01  0.50400000000E-02 0.  1.
          2   -1    0    0  501    0  0.00000000000E+00 -0.00000000000E+00 -0.40988937309E+03  0.40988937310E+03  0.25500000000E-02 0. -1.
         24    2    1    2    0    0 -0.17763568394E-14  0.17763568394E-14 -0.40498313890E+03  0.41479560987E+03  0.89688656881E+02 0.  0.
         66    2    3    3    0    0  0.12100158668E+02 -0.13867662446E+02 -0.39160496258E+03  0.39204230973E+03  0.20000005196E+01 0.  0.
        -13    1    3    3    0    0 -0.12100158668E+02  0.13867662446E+02 -0.13378176328E+02  0.22753300143E+02  0.10566000000E+00 0.  1.
         13    1    4    4    0    0  0.99356368982E+01 -0.11818837135E+02 -0.31991410103E+03  0.32028650455E+03  0.10566000000E+00 0. -1.
        -13    1    4    4    0    0  0.19051988972E+01 -0.14504766036E+01 -0.57669738178E+02  0.57719524693E+02  0.10566000000E+00 0.  1.
        -14    1    4    4    0    0  0.25932287282E+00 -0.59834870719E+00 -0.14021123367E+02  0.14036280490E+02  0.00000000000E+00 0.  1.
<mgrwt>
<rscale>  0 0.89688657E+02</rscale>
<asrwt>0</asrwt>
<pdfrwt beam="1">  1        2 0.63059877E-01 0.89688657E+02</pdfrwt>
<pdfrwt beam="2">  1       -1 0.75480578E-03 0.89688657E+02</pdfrwt>
<totfact> 0.21105030E+05</totfact>
</mgrwt>
</event>
<event>
 8    1  0.2561077E-020  0.7986386E+02  0.7818608E-02  0.1329438E+00
          2   -1    0    0  501    0  0.00000000000E+00  0.00000000000E+00  0.79981891058E+02  0.79981891098E+02  0.25500000000E-02 0. -1.
         -1   -1    0    0    0  501 -0.00000000000E+00 -0.00000000000E+00 -0.19936502147E+02  0.19936502784E+02  0.50400000000E-02 0.  1.
         24    2    1    2    0    0  0.35527136788E-14  0.00000000000E+00  0.60045388911E+02  0.99918393882E+02  0.79863863584E+02 0.  0.
         66    2    3    3    0    0 -0.19596454726E+02  0.23839331735E+02  0.61697726763E+02  0.69014087390E+02  0.19999987956E+01 0.  0.
        -13    1    3    3    0    0  0.19596454726E+02 -0.23839331735E+02 -0.16523378517E+01  0.30904306493E+02  0.10566000000E+00 0.  1.
         13    1    4    4    0    0 -0.14465523198E+01  0.19351541155E+01  0.60272472924E+01  0.64943212904E+01  0.10566000000E+00 0.  1.
        -13    1    4    4    0    0 -0.86753767816E+01  0.10483240270E+02  0.26046418750E+02  0.29386860713E+02  0.10566000000E+00 0. -1.
        -14    1    4    4    0    0 -0.94745256243E+01  0.11420937350E+02  0.29624060720E+02  0.33132905386E+02  0.00000000000E+00 0.  1.
<mgrwt>
<rscale>  0 0.79863864E+02</rscale>
<asrwt>0</asrwt>
<pdfrwt beam="1">  1        2 0.12304906E-01 0.79863864E+02</pdfrwt>
<pdfrwt beam="2">  1       -1 0.30671542E-02 0.79863864E+02</pdfrwt>
<totfact> 0.16771503E+05</totfact>
</mgrwt>
</event>
<event>
 8    1  0.2561077E-020  0.8020868E+02  0.7818608E-02  0.1328460E+00
         -1   -1    0    0    0  501 -0.00000000000E+00  0.00000000000E+00  0.46669267979E+01  0.46669295193E+01  0.50400000000E-02 0.  1.
          2   -1    0    0  501    0  0.00000000000E+00 -0.00000000000E+00 -0.34462883484E+03  0.34462883484E+03  0.25500000000E-02 0. -1.
         24    2    1    2    0    0  0.00000000000E+00  0.00000000000E+00 -0.33996190804E+03  0.34929576436E+03  0.80208678372E+02 0.  0.
         66    2    3    3    0    0  0.10815378755E+02 -0.35821376101E+02 -0.23262182081E+03  0.23562057405E+03  0.19999985786E+01 0.  0.
        -13    1    3    3    0    0 -0.10815378755E+02  0.35821376101E+02 -0.10734008723E+03  0.11367519032E+03  0.10566000000E+00 0.  1.
         13    1    4    4    0    0  0.58852068798E+00 -0.25174525332E+01 -0.16364716840E+02  0.16568012710E+02  0.10566000000E+00 0. -1.
        -13    1    4    4    0    0  0.38174989238E+01 -0.15275970660E+02 -0.95890626417E+02  0.97174852592E+02  0.10566000000E+00 0.  1.
         14    1    4    4    0    0  0.64093591434E+01 -0.18027952908E+02 -0.12036647755E+03  0.12187770875E+03  0.00000000000E+00 0. -1.
<mgrwt>
<rscale>  0 0.80208678E+02</rscale>
<asrwt>0</asrwt>
<pdfrwt beam="1">  1        2 0.53019801E-01 0.80208678E+02</pdfrwt>
<pdfrwt beam="2">  1       -1 0.71798922E-03 0.80208678E+02</pdfrwt>
<totfact> 0.26618897E+05</totfact>
</mgrwt>
</event>
<event>
 8    1  0.2561077E-020  0.8538247E+02  0.7818608E-02  0.1314435E+00
          2   -1    0    0  501    0  0.00000000000E+00  0.00000000000E+00  0.29746870387E+03  0.29746870388E+03  0.25500000000E-02 0. -1.
         -1   -1    0    0    0  501 -0.00000000000E+00 -0.00000000000E+00 -0.61268333455E+01  0.61268354185E+01  0.50400000000E-02 0.  1.
         24    2    1    2    0    0  0.35527136788E-14  0.00000000000E+00  0.29134187052E+03  0.30359553930E+03  0.85382468702E+02 0.  0.
         66    2    3    3    0    0  0.17634120856E+02 -0.28562331793E+02  0.23940621459E+03  0.24175629175E+03  0.20000004201E+01 0.  0.
        -13    1    3    3    0    0 -0.17634120856E+02  0.28562331793E+02  0.51935655934E+02  0.61839247547E+02  0.10566000000E+00 0.  1.
         13    1    4    4    0    0  0.11130257422E+02 -0.19449157093E+02  0.15879284484E+03  0.16036624045E+03  0.10566000000E+00 0. -1.
        -13    1    4    4    0    0  0.10548885374E+01 -0.12663485182E+01  0.10586412994E+02  0.10714463706E+02  0.10566000000E+00 0.  1.
         14    1    4    4    0    0  0.54489748968E+01 -0.78468261810E+01  0.70026956757E+02  0.70675587590E+02  0.00000000000E+00 0. -1.
<mgrwt>
<rscale>  0 0.85382469E+02</rscale>
<asrwt>0</asrwt>
<pdfrwt beam="1">  1        2 0.45764430E-01 0.85382469E+02</pdfrwt>
<pdfrwt beam="2">  1       -1 0.94258963E-03 0.85382469E+02</pdfrwt>
<totfact> 0.21415310E+05</totfact>
</mgrwt>
</event>
<event>
 8    1  0.2561077E-020  0.7890830E+02  0.7818608E-02  0.1332178E+00
         -1   -1    0    0    0  501 -0.00000000000E+00  0.00000000000E+00  0.13271779452E+01  0.13271875149E+01  0.50400000000E-02 0.  1.
          2   -1    0    0  501    0  0.00000000000E+00 -0.00000000000E+00 -0.11728828112E+04  0.11728828112E+04  0.25500000000E-02 0. -1.
         24    2    1    2    0    0  0.00000000000E+00 -0.88817841970E-15 -0.11715556333E+04  0.11742099987E+04  0.78908296634E+02 0.  0.
         66    2    3    3    0    0  0.22088403606E+02 -0.60306680387E+01 -0.10638112939E+04  0.10640595545E+04  0.19999994030E+01 0.  0.
        -13    1    3    3    0    0 -0.22088403606E+02  0.60306680387E+01 -0.10774433939E+03  0.11015044423E+03  0.10566000000E+00 0.  1.
         13    1    4    4    0    0  0.97523398377E+01 -0.23385752325E+01 -0.47792620458E+03  0.47803142706E+03  0.10566000000E+00 0. -1.
        -13    1    4    4    0    0  0.11463438349E+02 -0.37247552321E+01 -0.55374253291E+03  0.55387371136E+03  0.10566000000E+00 0.  1.
        -14    1    4    4    0    0  0.87262541930E+00  0.32662425930E-01 -0.32142556396E+02  0.32154416083E+02  0.00000000000E+00 0.  1.
<mgrwt>
<rscale>  0 0.78908297E+02</rscale>
<asrwt>0</asrwt>
<pdfrwt beam="1">  1        2 0.18044268E+00 0.78908297E+02</pdfrwt>
<pdfrwt beam="2">  1       -1 0.20418290E-03 0.78908297E+02</pdfrwt>
<totfact> 0.36392068E+05</totfact>
</mgrwt>
</event>
<event>
 8    1  0.2561077E-020  0.7912278E+02  0.7818608E-02  0.1331559E+00
         -1   -1    0    0    0  501 -0.00000000000E+00  0.00000000000E+00  0.11622812884E+01  0.11622922158E+01  0.50400000000E-02 0.  1.
          2   -1    0    0  501    0  0.00000000000E+00 -0.00000000000E+00 -0.13465727420E+04  0.13465727420E+04  0.25500000000E-02 0. -1.
         24    2    1    2    0    0  0.00000000000E+00  0.00000000000E+00 -0.13454104607E+04  0.13477350342E+04  0.79122782223E+02 0.  0.
         66    2    3    3    0    0 -0.91967211475E+01  0.48989062945E+01 -0.13227589212E+04  0.13228014751E+04  0.20000037362E+01 0.  0.
        -13    1    3    3    0    0  0.91967211475E+01 -0.48989062945E+01 -0.22651539502E+02  0.24933559084E+02  0.10566000000E+00 0.  1.
         13    1    4    4    0    0 -0.30225215257E+01  0.18233848391E+01 -0.40893038315E+03  0.40894563183E+03  0.10566000000E+00 0. -1.
        -13    1    4    4    0    0 -0.52857430917E+01  0.30341300687E+01 -0.83602527202E+03  0.83604749366E+03  0.10566000000E+00 0.  1.
        -14    1    4    4    0    0 -0.88845653006E+00  0.41391386705E-01 -0.77803266032E+02  0.77808349638E+02  0.00000000000E+00 0.  1.
<mgrwt>
<rscale>  0 0.79122782E+02</rscale>
<asrwt>0</asrwt>
<pdfrwt beam="1">  1        2 0.20716379E+00 0.79122782E+02</pdfrwt>
<pdfrwt beam="2">  1       -1 0.17881442E-03 0.79122782E+02</pdfrwt>
<totfact> 0.35354886E+05</totfact>
</mgrwt>
</event>
<event>
 8    1  0.2561077E-020  0.7438949E+02  0.7818608E-02  0.1345772E+00
         -1   -1    0    0    0  501 -0.00000000000E+00  0.00000000000E+00  0.97784161418E+02  0.97784161548E+02  0.50400000000E-02 0.  1.
          2   -1    0    0  501    0  0.00000000000E+00 -0.00000000000E+00 -0.14147987871E+02  0.14147988101E+02  0.25500000000E-02 0. -1.
         24    2    1    2    0    0  0.00000000000E+00  0.00000000000E+00  0.83636173547E+02  0.11193214965E+03  0.74389492535E+02 0.  0.
         66    2    3    3    0    0 -0.53612861923E+01 -0.16078771479E+02 -0.79239264257E+01  0.18816450904E+02  0.19999831759E+01 0.  0.
        -13    1    3    3    0    0  0.53612861923E+01  0.16078771479E+02  0.91560099972E+02  0.93115698746E+02  0.10566000000E+00 0.  1.
         13    1    4    4    0    0 -0.17796648098E+01 -0.53843108302E+01 -0.36220225883E+01  0.67296524143E+01  0.10566000000E+00 0. -1.
        -13    1    4    4    0    0 -0.98737945403E+00 -0.35360432533E+01 -0.11814544661E+01  0.38581755748E+01  0.10566000000E+00 0.  1.
        -14    1    4    4    0    0 -0.25942419285E+01 -0.71584173954E+01 -0.31204493713E+01  0.82286229145E+01  0.00000000000E+00 0.  1.
<mgrwt>
<rscale>  0 0.74389493E+02</rscale>
<asrwt>0</asrwt>
<pdfrwt beam="1">  1        2 0.21766135E-02 0.74389493E+02</pdfrwt>
<pdfrwt beam="2">  1       -1 0.15043717E-01 0.74389493E+02</pdfrwt>
<totfact> 0.14273071E+05</totfact>
</mgrwt>
</event>
<event>
 8    1  0.2561077E-020  0.8057865E+02  0.7818608E-02  0.1327417E+00
         -1   -1    0    0    0  501 -0.00000000000E+00  0.00000000000E+00  0.23490737167E+01  0.23490791234E+01  0.50400000000E-02 0.  1.
          2   -1    0    0  501    0  0.00000000000E+00 -0.00000000000E+00 -0.69100763971E+03  0.69100763971E+03  0.25500000000E-02 0. -1.
         24    2    1    2    0    0  0.00000000000E+00 -0.44408920985E-15 -0.68865856599E+03  0.69335671883E+03  0.80578651280E+02 0.  0.
         66    2    3    3    0    0  0.35558507704E+02 -0.22097209375E+01 -0.50596463975E+03  0.50722135899E+03  0.19999995591E+01 0.  0.
        -13    1    3    3    0    0 -0.35558507704E+02  0.22097209375E+01 -0.18269392624E+03  0.18613535985E+03  0.10566000000E+00 0.  1.
         13    1    4    4    0    0  0.37775171374E+01 -0.81177215755E-01 -0.54743044713E+02  0.54873384568E+02  0.10566000000E+00 0. -1.
        -13    1    4    4    0    0  0.18297435647E+02 -0.90461472158E+00 -0.24772873967E+03  0.24840522156E+03  0.10566000000E+00 0.  1.
         14    1    4    4    0    0  0.13483554920E+02 -0.12239290001E+01 -0.20349285537E+03  0.20394275286E+03  0.00000000000E+00 0. -1.
<mgrwt>
<rscale>  0 0.80578651E+02</rscale>
<asrwt>0</asrwt>
<pdfrwt beam="1">  1        2 0.10630871E+00 0.80578651E+02</pdfrwt>
<pdfrwt beam="2">  1       -1 0.36139693E-03 0.80578651E+02</pdfrwt>
<totfact> 0.32732549E+05</totfact>
</mgrwt>
</event>
<event>
 8    1  0.2561077E-020  0.8014156E+02  0.7818608E-02  0.1328650E+00
         -1   -1    0    0    0  501 -0.00000000000E+00  0.00000000000E+00  0.62424808362E+02  0.62424808566E+02  0.50400000000E-02 0.  1.
          2   -1    0    0  501    0  0.00000000000E+00 -0.00000000000E+00 -0.25721624896E+02  0.25721625022E+02  0.25500000000E-02 0. -1.
         24    2    1    2    0    0  0.00000000000E+00  0.00000000000E+00  0.36703183466E+02  0.88146433588E+02  0.80141562736E+02 0.  0.
         66    2    3    3    0    0  0.33705541833E+02 -0.98051179958E+01 -0.28353667867E+01  0.35273831899E+02  0.20000057233E+01 0.  0.
        -13    1    3    3    0    0 -0.33705541833E+02  0.98051179958E+01  0.39538550253E+02  0.52872601689E+02  0.10566000000E+00 0.  1.
         13    1    4    4    0    0  0.25960912395E+02 -0.80957272268E+01 -0.24401495490E+01  0.27303392931E+02  0.10566000000E+00 0. -1.
        -13    1    4    4    0    0  0.38450071175E+01 -0.76825415533E+00 -0.52103212591E+00  0.39568842152E+01  0.10566000000E+00 0.  1.
         14    1    4    4    0    0  0.38996223206E+01 -0.94113661377E+00  0.12581488824E+00  0.40135547530E+01  0.00000000000E+00 0. -1.
<mgrwt>
<rscale>  0 0.80141563E+02</rscale>
<asrwt>0</asrwt>
<pdfrwt beam="1">  1        2 0.39571731E-02 0.80141563E+02</pdfrwt>
<pdfrwt beam="2">  1       -1 0.96038167E-02 0.80141563E+02</pdfrwt>
<totfact> 0.12988352E+05</totfact>
</mgrwt>
</event>
<event>
 8    1  0.2561077E-020  0.8183076E+02  0.7818608E-02  0.1323935E+00
         -1   -1    0    0    0  501 -0.00000000000E+00  0.00000000000E+00  0.34907626193E+02  0.34907626557E+02  0.50400000000E-02 0.  1.
          2   -1    0    0  501    0  0.00000000000E+00 -0.00000000000E+00 -0.47957092081E+02  0.47957092149E+02  0.25500000000E-02 0. -1.
         24    2    1    2    0    0  0.00000000000E+00 -0.35527136788E-14 -0.13049465888E+02  0.82864718706E+02  0.81830758558E+02 0.  0.
         66    2    3    3    0    0 -0.11149152620E+02 -0.22938896835E+02 -0.38894426859E+02  0.46553979746E+02  0.19999993361E+01 0.  0.
        -13    1    3    3    0    0  0.11149152620E+02  0.22938896835E+02  0.25844960971E+02  0.36310738960E+02  0.10566000000E+00 0.  1.
         13    1    4    4    0    0 -0.58467636167E-01 -0.39341226293E+00 -0.45011698279E+00  0.60988606059E+00  0.10566000000E+00 0.  1.
        -13    1    4    4    0    0 -0.39733959527E+01 -0.73736542598E+01 -0.13736900133E+02  0.16089507197E+02  0.10566000000E+00 0.  1.
         14    1    4    4    0    0 -0.71172890315E+01 -0.15171830312E+02 -0.24707409744E+02  0.29854586489E+02  0.00000000000E+00 0. -1.
<mgrwt>
<rscale>  0 0.81830759E+02</rscale>
<asrwt>0</asrwt>
<pdfrwt beam="1">  1        2 0.73780142E-02 0.81830759E+02</pdfrwt>
<pdfrwt beam="2">  1       -1 0.53704041E-02 0.81830759E+02</pdfrwt>
<totfact> 0.13915951E+05</totfact>
</mgrwt>
</event>
<event>
 8    1  0.2561077E-020  0.7937135E+02  0.7818608E-02  0.1330845E+00
          2   -1    0    0  501    0  0.00000000000E+00  0.00000000000E+00  0.76483649229E+03  0.76483649229E+03  0.25500000000E-02 0. -1.
         -1   -1    0    0    0  501 -0.00000000000E+00 -0.00000000000E+00 -0.20591989725E+01  0.20592051403E+01  0.50400000000E-02 0.  1.
         24    2    1    2    0    0  0.17763568394E-14  0.00000000000E+00  0.76277729332E+03  0.76689569743E+03  0.79371352154E+02 0.  0.
         66    2    3    3    0    0  0.11767880111E+02  0.43233667159E+01  0.74518452655E+03  0.74529266273E+03  0.19999998518E+01 0.  0.
        -13    1    3    3    0    0 -0.11767880111E+02 -0.43233667159E+01  0.17592766764E+02  0.21603034706E+02  0.10566000000E+00 0.  1.
         13    1    4    4    0    0  0.42895162410E+01  0.21505324465E+01  0.24217245891E+03  0.24222001519E+03  0.10566000000E+00 0. -1.
        -13    1    4    4    0    0  0.31375977469E+01  0.10812371725E+01  0.22733768353E+03  0.22736192978E+03  0.10566000000E+00 0.  1.
         14    1    4    4    0    0  0.43407661235E+01  0.10915970969E+01  0.27567438411E+03  0.27571071776E+03  0.00000000000E+00 0. -1.
<mgrwt>
<rscale>  0 0.79371352E+02</rscale>
<asrwt>0</asrwt>
<pdfrwt beam="1">  1        2 0.11766731E+00 0.79371352E+02</pdfrwt>
<pdfrwt beam="2">  1       -1 0.31679989E-03 0.79371352E+02</pdfrwt>
<totfact> 0.34789897E+05</totfact>
</mgrwt>
</event>
<event>
 8    1  0.2561077E-020  0.8100382E+02  0.7818608E-02  0.1326227E+00
         -1   -1    0    0    0  501 -0.00000000000E+00  0.00000000000E+00  0.22817473887E+02  0.22817474444E+02  0.50400000000E-02 0.  1.
          2   -1    0    0  501    0  0.00000000000E+00 -0.00000000000E+00 -0.71892475132E+02  0.71892475177E+02  0.25500000000E-02 0. -1.
         24    2    1    2    0    0  0.00000000000E+00  0.00000000000E+00 -0.49075001245E+02  0.94709949621E+02  0.81003819725E+02 0.  0.
         66    2    3    3    0    0 -0.34347873243E+02  0.77497122343E+01 -0.47894512754E+02  0.59478725499E+02  0.19999997415E+01 0.  0.
        -13    1    3    3    0    0  0.34347873243E+02 -0.77497122343E+01 -0.11804884906E+01  0.35231224122E+02  0.10566000000E+00 0.  1.
         13    1    4    4    0    0 -0.20067260323E+02  0.44983437262E+01 -0.26502687363E+02  0.33545992825E+02  0.10566000000E+00 0. -1.
        -13    1    4    4    0    0 -0.75030972841E+01  0.19598137028E+01 -0.11006148294E+02  0.13464167368E+02  0.10566000000E+00 0.  1.
        -14    1    4    4    0    0 -0.67775156362E+01  0.12915548053E+01 -0.10385677097E+02  0.12468565305E+02  0.00000000000E+00 0.  1.
<mgrwt>
<rscale>  0 0.81003820E+02</rscale>
<asrwt>0</asrwt>
<pdfrwt beam="1">  1        2 0.11060381E-01 0.81003820E+02</pdfrwt>
<pdfrwt beam="2">  1       -1 0.35103807E-02 0.81003820E+02</pdfrwt>
<totfact> 0.15713152E+05</totfact>
</mgrwt>
</event>
<event>
 8    1  0.2561077E-020  0.7987362E+02  0.7818608E-02  0.1329410E+00
          2   -1    0    0  501    0  0.00000000000E+00  0.00000000000E+00  0.46980940547E+03  0.46980940548E+03  0.25500000000E-02 0. -1.
         -1   -1    0    0    0  501 -0.00000000000E+00 -0.00000000000E+00 -0.33948829143E+01  0.33948866555E+01  0.50400000000E-02 0.  1.
         24    2    1    2    0    0  0.00000000000E+00  0.00000000000E+00  0.46641452256E+03  0.47320429214E+03  0.79873620437E+02 0.  0.
         66    2    3    3    0    0  0.33801447087E+01  0.34507192642E+02  0.35046660318E+03  0.35218320763E+03  0.20000176835E+01 0.  0.
        -13    1    3    3    0    0 -0.33801447087E+01 -0.34507192642E+02  0.11594791938E+03  0.12102108450E+03  0.10566000000E+00 0.  1.
         13    1    4    4    0    0  0.93075030223E-01  0.30919608361E+01  0.31719643904E+02  0.31870297429E+02  0.10566000000E+00 0.  1.
        -13    1    4    4    0    0  0.12755734621E+01  0.69824147376E+01  0.66909480952E+02  0.67284998391E+02  0.10566000000E+00 0.  1.
         14    1    4    4    0    0  0.20114962164E+01  0.24432817068E+02  0.25183747833E+03  0.25302791181E+03  0.00000000000E+00 0. -1.
<mgrwt>
<rscale>  0 0.79873620E+02</rscale>
<asrwt>0</asrwt>
<pdfrwt beam="1">  1        2 0.72278376E-01 0.79873620E+02</pdfrwt>
<pdfrwt beam="2">  1       -1 0.52228993E-03 0.79873620E+02</pdfrwt>
<totfact> 0.29966188E+05</totfact>
</mgrwt>
</event>
<event>
 8    1  0.2561077E-020  0.7959893E+02  0.7818608E-02  0.1330193E+00
          2   -1    0    0  501    0  0.00000000000E+00  0.00000000000E+00  0.26789740916E+03  0.26789740917E+03  0.25500000000E-02 0. -1.
         -1   -1    0    0    0  501 -0.00000000000E+00 -0.00000000000E+00 -0.59127001698E+01  0.59127023179E+01  0.50400000000E-02 0.  1.
         24    2    1    2    0    0  0.00000000000E+00  0.35527136788E-14  0.26198470899E+03  0.27381011149E+03  0.79598928444E+02 0.  0.
         66    2    3    3    0    0 -0.20479318918E+02  0.23899689829E+02  0.21472771741E+03  0.21703131180E+03  0.19999997346E+01 0.  0.
        -13    1    3    3    0    0  0.20479318918E+02 -0.23899689829E+02  0.47256991579E+02  0.56778799692E+02  0.10566000000E+00 0.  1.
         13    1    4    4    0    0 -0.34984719176E+01  0.35978768822E+01  0.31825103584E+02  0.32218510300E+02  0.10566000000E+00 0. -1.
        -13    1    4    4    0    0 -0.14377485234E+01  0.20520930625E+01  0.19731781047E+02  0.19890514174E+02  0.10566000000E+00 0.  1.
        -14    1    4    4    0    0 -0.15543098477E+02  0.18249719885E+02  0.16317083278E+03  0.16492228732E+03  0.00000000000E+00 0.  1.
<mgrwt>
<rscale>  0 0.79598928E+02</rscale>
<asrwt>0</asrwt>
<pdfrwt beam="1">  1        2 0.41214985E-01 0.79598928E+02</pdfrwt>
<pdfrwt beam="2">  1       -1 0.90964637E-03 0.79598928E+02</pdfrwt>
<totfact> 0.24795565E+05</totfact>
</mgrwt>
</event>
<event>
 8    1  0.2561077E-020  0.7574180E+02  0.7818608E-02  0.1341589E+00
          2   -1    0    0  501    0  0.00000000000E+00  0.00000000000E+00  0.32170029341E+03  0.32170029342E+03  0.25500000000E-02 0. -1.
         -1   -1    0    0    0  501 -0.00000000000E+00 -0.00000000000E+00 -0.44582005351E+01  0.44582033839E+01  0.50400000000E-02 0.  1.
         24    2    1    2    0    0  0.00000000000E+00  0.00000000000E+00  0.31724209287E+03  0.32615849680E+03  0.75741795237E+02 0.  0.
         66    2    3    3    0    0 -0.85833945532E+01 -0.20176236498E+02  0.29155789004E+03  0.29238802715E+03  0.19999987812E+01 0.  0.
        -13    1    3    3    0    0  0.85833945532E+01  0.20176236498E+02  0.25684202832E+02  0.33770469651E+02  0.10566000000E+00 0.  1.
         13    1    4    4    0    0 -0.52556790821E+01 -0.11614423026E+02  0.16823822878E+03  0.16872056713E+03  0.10566000000E+00 0. -1.
        -13    1    4    4    0    0 -0.22900774981E+01 -0.65162812478E+01  0.85704719749E+02  0.85982652480E+02  0.10566000000E+00 0.  1.
         14    1    4    4    0    0 -0.10376379730E+01 -0.20455322246E+01  0.37614941510E+02  0.37684807541E+02  0.00000000000E+00 0. -1.
<mgrwt>
<rscale>  0 0.75741795E+02</rscale>
<asrwt>0</asrwt>
<pdfrwt beam="1">  1        2 0.49492362E-01 0.75741795E+02</pdfrwt>
<pdfrwt beam="2">  1       -1 0.68587710E-03 0.75741795E+02</pdfrwt>
<totfact> 0.30161962E+05</totfact>
</mgrwt>
</event>
<event>
 8    1  0.2561077E-020  0.8008987E+02  0.7818608E-02  0.1328797E+00
          2   -1    0    0  501    0  0.00000000000E+00  0.00000000000E+00  0.93104020920E+02  0.93104020955E+02  0.25500000000E-02 0. -1.
         -1   -1    0    0    0  501 -0.00000000000E+00 -0.00000000000E+00 -0.17223712309E+02  0.17223713047E+02  0.50400000000E-02 0.  1.
         24    2    1    2    0    0  0.44408920985E-15  0.00000000000E+00  0.75880308611E+02  0.11032773400E+03  0.80089872363E+02 0.  0.
         66    2    3    3    0    0  0.34978568549E+01  0.21419344951E+02  0.84282362096E+02  0.87054809658E+02  0.19999958527E+01 0.  0.
        -13    1    3    3    0    0 -0.34978568549E+01 -0.21419344951E+02 -0.84020534852E+01  0.23272924344E+02  0.10566000000E+00 0.  1.
         13    1    4    4    0    0  0.18846837946E+01  0.10532756708E+02  0.39907881204E+02  0.41317564584E+02  0.10566000000E+00 0. -1.
        -13    1    4    4    0    0  0.10432859381E+00  0.48316238359E+01  0.18537606036E+02  0.19157491352E+02  0.10566000000E+00 0.  1.
        -14    1    4    4    0    0  0.15088444664E+01  0.60549644075E+01  0.25836874856E+02  0.26579753722E+02  0.00000000000E+00 0.  1.
<mgrwt>
<rscale>  0 0.80089872E+02</rscale>
<asrwt>0</asrwt>
<pdfrwt beam="1">  1        2 0.14323696E-01 0.80089872E+02</pdfrwt>
<pdfrwt beam="2">  1       -1 0.26498019E-02 0.80089872E+02</pdfrwt>
<totfact> 0.17327204E+05</totfact>
</mgrwt>
</event>
<event>
 8    1  0.2561077E-020  0.8035282E+02  0.7818608E-02  0.1328053E+00
          2   -1    0    0  501    0  0.00000000000E+00  0.00000000000E+00  0.35675892048E+02  0.35675892139E+02  0.25500000000E-02 0. -1.
         -1   -1    0    0    0  501 -0.00000000000E+00 -0.00000000000E+00 -0.45244671539E+02  0.45244671820E+02  0.50400000000E-02 0.  1.
         24    2    1    2    0    0  0.00000000000E+00  0.17763568394E-14 -0.95687794910E+01  0.80920563960E+02  0.80352822792E+02 0.  0.
         66    2    3    3    0    0 -0.38142247455E+02  0.11201156158E+02 -0.10470098339E+02  0.41157258263E+02  0.20000020868E+01 0.  0.
        -13    1    3    3    0    0  0.38142247455E+02 -0.11201156158E+02  0.90131884826E+00  0.39763305696E+02  0.10566000000E+00 0.  1.
         13    1    4    4    0    0 -0.23709456458E+02  0.74030092720E+01 -0.71414463669E+01  0.25844811705E+02  0.10566000000E+00 0. -1.
        -13    1    4    4    0    0 -0.14279037290E+02  0.37577184446E+01 -0.33759061243E+01  0.15146592357E+02  0.10566000000E+00 0.  1.
        -14    1    4    4    0    0 -0.15375370671E+00  0.40428441275E-01  0.47254151910E-01  0.16585420122E+00  0.00000000000E+00 0.  1.
<mgrwt>
<rscale>  0 0.80352823E+02</rscale>
<asrwt>0</asrwt>
<pdfrwt beam="1">  1        2 0.54885988E-02 0.80352823E+02</pdfrwt>
<pdfrwt beam="2">  1       -1 0.69607188E-02 0.80352823E+02</pdfrwt>
<totfact> 0.13758102E+05</totfact>
</mgrwt>
</event>
<event>
 8    1  0.2561077E-020  0.8154924E+02  0.7818608E-02  0.1324712E+00
          2   -1    0    0  501    0  0.00000000000E+00  0.00000000000E+00  0.14473338678E+04  0.14473338678E+04  0.25500000000E-02 0. -1.
         -1   -1    0    0    0  501 -0.00000000000E+00 -0.00000000000E+00 -0.11487063209E+01  0.11487173774E+01  0.50400000000E-02 0.  1.
         24    2    1    2    0    0  0.00000000000E+00  0.00000000000E+00  0.14461851614E+04  0.14484825851E+04  0.81549238415E+02 0.  0.
         66    2    3    3    0    0  0.11722592464E+01 -0.14191267572E+02  0.14017017839E+04  0.14017755374E+04  0.20000012958E+01 0.  0.
        -13    1    3    3    0    0 -0.11722592464E+01  0.14191267572E+02  0.44483377555E+02  0.46707047753E+02  0.10566000000E+00 0.  1.
         13    1    4    4    0    0  0.10620679987E+01 -0.11764775317E+02  0.10950824975E+04  0.10951462119E+04  0.10566000000E+00 0. -1.
        -13    1    4    4    0    0 -0.57137741194E-01 -0.52444452313E+00  0.90749209639E+02  0.90750804519E+02  0.10566000000E+00 0.  1.
         14    1    4    4    0    0  0.16732898891E+00 -0.19020477324E+01  0.21587007673E+03  0.21587852096E+03  0.00000000000E+00 0. -1.
<mgrwt>
<rscale>  0 0.81549238E+02</rscale>
<asrwt>0</asrwt>
<pdfrwt beam="1">  1        2 0.22266695E+00 0.81549238E+02</pdfrwt>
<pdfrwt beam="2">  1       -1 0.17672474E-03 0.81549238E+02</pdfrwt>
<totfact> 0.32032767E+05</totfact>
</mgrwt>
</event>
<event>
 8    1  0.2561077E-020  0.8015976E+02  0.7818608E-02  0.1328599E+00
          2   -1    0    0  501    0  0.00000000000E+00  0.00000000000E+00  0.23206690323E+03  0.23206690324E+03  0.25500000000E-02 0. -1.
         -1   -1    0    0    0  501 -0.00000000000E+00 -0.00000000000E+00 -0.69221276064E+01  0.69221294412E+01  0.50400000000E-02 0.  1.
         24    2    1    2    0    0  0.00000000000E+00  0.00000000000E+00  0.22514477562E+03  0.23898903268E+03  0.80159763929E+02 0.  0.
         66    2    3    3    0    0 -0.94863457369E+01 -0.73445297825E+01  0.22657965323E+03  0.22690586625E+03  0.20000023687E+01 0.  0.
        -13    1    3    3    0    0  0.94863457369E+01  0.73445297825E+01 -0.14348776086E+01  0.12083166429E+02  0.10566000000E+00 0.  1.
         13    1    4    4    0    0 -0.40165847704E+01 -0.32217486794E+01  0.90341089270E+02  0.90487768191E+02  0.10566000000E+00 0. -1.
        -13    1    4    4    0    0 -0.81891006647E+00 -0.59901478201E+00  0.12288688137E+02  0.12330955055E+02  0.10566000000E+00 0.  1.
         14    1    4    4    0    0 -0.46508509000E+01 -0.35237663210E+01  0.12394987582E+03  0.12408714301E+03  0.00000000000E+00 0. -1.
<mgrwt>
<rscale>  0 0.80159764E+02</rscale>
<asrwt>0</asrwt>
<pdfrwt beam="1">  1        2 0.35702603E-01 0.80159764E+02</pdfrwt>
<pdfrwt beam="2">  1       -1 0.10649428E-02 0.80159764E+02</pdfrwt>
<totfact> 0.23120928E+05</totfact>
</mgrwt>
</event>
<event>
 8    1  0.2561077E-020  0.7946984E+02  0.7818608E-02  0.1330563E+00
          2   -1    0    0  501    0  0.00000000000E+00  0.00000000000E+00  0.11903431155E+04  0.11903431155E+04  0.25500000000E-02 0. -1.
         -1   -1    0    0    0  501 -0.00000000000E+00 -0.00000000000E+00 -0.13263890068E+01  0.13263985822E+01  0.50400000000E-02 0.  1.
         24    2    1    2    0    0  0.17763568394E-14  0.17763568394E-14  0.11890167264E+04  0.11916695140E+04  0.79469836533E+02 0.  0.
         66    2    3    3    0    0  0.79236924582E+01  0.15436426226E+02  0.11304871142E+04  0.11306220339E+04  0.20000064284E+01 0.  0.
        -13    1    3    3    0    0 -0.79236924582E+01 -0.15436426226E+02  0.58529612273E+02  0.61047480158E+02  0.10566000000E+00 0.  1.
         13    1    4    4    0    0  0.44549373105E+01  0.80033178619E+01  0.59288659427E+03  0.59295735461E+03  0.10566000000E+00 0. -1.
        -13    1    4    4    0    0  0.27615572280E+01  0.44531996681E+01  0.34527522680E+03  0.34531500197E+03  0.10566000000E+00 0.  1.
        -14    1    4    4    0    0  0.70719791968E+00  0.29799086963E+01  0.19232529311E+03  0.19234967729E+03  0.00000000000E+00 0.  1.
<mgrwt>
<rscale>  0 0.79469837E+02</rscale>
<asrwt>0</asrwt>
<pdfrwt beam="1">  1        2 0.18313083E+00 0.79469837E+02</pdfrwt>
<pdfrwt beam="2">  1       -1 0.20405933E-03 0.79469837E+02</pdfrwt>
<totfact> 0.35678578E+05</totfact>
</mgrwt>
</event>
<event>
 8    1  0.2561077E-020  0.8163845E+02  0.7818608E-02  0.1324465E+00
         -1   -1    0    0    0  501 -0.00000000000E+00  0.00000000000E+00  0.84353720582E+01  0.84353735639E+01  0.50400000000E-02 0.  1.
          2   -1    0    0  501    0  0.00000000000E+00 -0.00000000000E+00 -0.19752641733E+03  0.19752641735E+03  0.25500000000E-02 0. -1.
         24    2    1    2    0    0  0.00000000000E+00  0.00000000000E+00 -0.18909104527E+03  0.20596179091E+03  0.81638446292E+02 0.  0.
         66    2    3    3    0    0 -0.69172534586E+01  0.39456666802E+02 -0.11406686875E+03  0.12091289216E+03  0.19999988756E+01 0.  0.
        -13    1    3    3    0    0  0.69172534586E+01 -0.39456666802E+02 -0.75024176525E+02  0.85048898745E+02  0.10566000000E+00 0.  1.
         13    1    4    4    0    0 -0.16475253951E+01  0.84517541539E+01 -0.23497661795E+02  0.25025941782E+02  0.10566000000E+00 0. -1.
        -13    1    4    4    0    0 -0.14545548864E+01  0.52911765743E+01 -0.16432766806E+02  0.17325105148E+02  0.10566000000E+00 0.  1.
         14    1    4    4    0    0 -0.38151731772E+01  0.25713736073E+02 -0.74136440146E+02  0.78561845235E+02  0.00000000000E+00 0. -1.
<mgrwt>
<rscale>  0 0.81638446E+02</rscale>
<asrwt>0</asrwt>
<pdfrwt beam="1">  1        2 0.30388676E-01 0.81638446E+02</pdfrwt>
<pdfrwt beam="2">  1       -1 0.12977498E-02 0.81638446E+02</pdfrwt>
<totfact> 0.20818052E+05</totfact>
</mgrwt>
</event>
<event>
 8    1  0.2561077E-020  0.8326710E+02  0.7818608E-02  0.1320027E+00
         -1   -1    0    0    0  501 -0.00000000000E+00  0.00000000000E+00  0.17256637801E+01  0.17256711401E+01  0.50400000000E-02 0.  1.
          2   -1    0    0  501    0  0.00000000000E+00 -0.00000000000E+00 -0.10044533428E+04  0.10044533428E+04  0.25500000000E-02 0. -1.
         24    2    1    2    0    0  0.00000000000E+00  0.00000000000E+00 -0.10027276790E+04  0.10061790139E+04  0.83267099310E+02 0.  0.
         66    2    3    3    0    0  0.16626576092E+02 -0.26317958754E+02 -0.83527535181E+03  0.83585763819E+03  0.19999996306E+01 0.  0.
        -13    1    3    3    0    0 -0.16626576092E+02  0.26317958754E+02 -0.16745232721E+03  0.17032137576E+03  0.10566000000E+00 0.  1.
         13    1    4    4    0    0  0.33827954559E+01 -0.51702106159E+01 -0.15763493644E+03  0.15775601013E+03  0.10566000000E+00 0.  1.
        -13    1    4    4    0    0  0.76813850729E+01 -0.10738377097E+02 -0.35848006623E+03  0.35872313205E+03  0.10566000000E+00 0. -1.
        -14    1    4    4    0    0  0.55623955634E+01 -0.10409371041E+02 -0.31916034914E+03  0.31937849601E+03  0.00000000000E+00 0.  1.
<mgrwt>
<rscale>  0 0.83267099E+02</rscale>
<asrwt>0</asrwt>
<pdfrwt beam="1">  1        2 0.15453082E+00 0.83267099E+02</pdfrwt>
<pdfrwt beam="2">  1       -1 0.26548810E-03 0.83267099E+02</pdfrwt>
<totfact> 0.31752818E+05</totfact>
</mgrwt>
</event>
<event>
 8    1  0.2561077E-020  0.8027284E+02  0.7818608E-02  0.1328279E+00
          2   -1    0    0  501    0  0.00000000000E+00  0.00000000000E+00  0.17765143951E+03  0.17765143953E+03  0.25500000000E-02 0. -1.
         -1   -1    0    0    0  501 -0.00000000000E+00 -0.00000000000E+00 -0.90679377076E+01  0.90679391082E+01  0.50400000000E-02 0.  1.
         24    2    1    2    0    0  0.00000000000E+00  0.71054273576E-14  0.16858350181E+03  0.18671937864E+03  0.80272842721E+02 0.  0.
         66    2    3    3    0    0  0.20128871308E+01  0.27491878363E+02  0.15212260522E+03  0.15461287819E+03  0.19999983396E+01 0.  0.
        -13    1    3    3    0    0 -0.20128871308E+01 -0.27491878363E+02  0.16460896585E+02  0.32106500447E+02  0.10566000000E+00 0.  1.
         13    1    4    4    0    0 -0.26998785242E+00  0.35692838208E+01  0.19115825872E+02  0.19448358369E+02  0.10566000000E+00 0. -1.
        -13    1    4    4    0    0  0.13302714886E+01  0.86156369701E+01  0.48374331630E+02  0.49153697189E+02  0.10566000000E+00 0.  1.
         14    1    4    4    0    0  0.95260349460E+00  0.15306957573E+02  0.84632447719E+02  0.86010822636E+02  0.00000000000E+00 0. -1.
<mgrwt>
<rscale>  0 0.80272843E+02</rscale>
<asrwt>0</asrwt>
<pdfrwt beam="1">  1        2 0.27330992E-01 0.80272843E+02</pdfrwt>
<pdfrwt beam="2">  1       -1 0.13950674E-02 0.80272843E+02</pdfrwt>
<totfact> 0.20990037E+05</totfact>
</mgrwt>
</event>
<event>
 8    1  0.2561077E-020  0.7938422E+02  0.7818608E-02  0.1330808E+00
          2   -1    0    0  501    0  0.00000000000E+00  0.00000000000E+00  0.97232163395E+01  0.97232166739E+01  0.25500000000E-02 0. -1.
         -1   -1    0    0    0  501 -0.00000000000E+00 -0.00000000000E+00 -0.16203111887E+03  0.16203111894E+03  0.50400000000E-02 0.  1.
         24    2    1    2    0    0  0.00000000000E+00  0.00000000000E+00 -0.15230790253E+03  0.17175433562E+03  0.79384221554E+02 0.  0.
         66    2    3    3    0    0 -0.35128327155E+02 -0.83885901546E+01 -0.11169354474E+03  0.11740449628E+03  0.19999993173E+01 0.  0.
        -13    1    3    3    0    0  0.35128327155E+02  0.83885901546E+01 -0.40614357791E+02  0.54349839340E+02  0.10566000000E+00 0.  1.
         13    1    4    4    0    0 -0.45658568184E+00 -0.21563857649E-01 -0.15141695692E+01  0.15851842179E+01  0.10566000000E+00 0.  1.
        -13    1    4    4    0    0 -0.48066874289E+01 -0.76758399003E+00 -0.13867180255E+02  0.14697050095E+02  0.10566000000E+00 0.  1.
         14    1    4    4    0    0 -0.29865054044E+02 -0.75994423069E+01 -0.96312194911E+02  0.10112226197E+03  0.00000000000E+00 0. -1.
<mgrwt>
<rscale>  0 0.79384222E+02</rscale>
<asrwt>0</asrwt>
<pdfrwt beam="1">  1        2 0.14958796E-02 0.79384222E+02</pdfrwt>
<pdfrwt beam="2">  1       -1 0.24927863E-01 0.79384222E+02</pdfrwt>
<totfact> 0.10781760E+05</totfact>
</mgrwt>
</event>
<event>
 8    1  0.2561077E-020  0.7999394E+02  0.7818608E-02  0.1329069E+00
          2   -1    0    0  501    0  0.00000000000E+00  0.00000000000E+00  0.62917698804E+03  0.62917698804E+03  0.25500000000E-02 0. -1.
         -1   -1    0    0    0  501 -0.00000000000E+00 -0.00000000000E+00 -0.25426169518E+01  0.25426219469E+01  0.50400000000E-02 0.  1.
         24    2    1    2    0    0  0.00000000000E+00  0.17763568394E-14  0.62663437109E+03  0.63171960999E+03  0.79993941142E+02 0.  0.
         66    2    3    3    0    0  0.18833637307E+02 -0.15116219369E+02  0.56505030990E+03  0.56556967622E+03  0.19999883579E+01 0.  0.
        -13    1    3    3    0    0 -0.18833637307E+02  0.15116219369E+02  0.61584061183E+02  0.66149933772E+02  0.10566000000E+00 0.  1.
         13    1    4    4    0    0  0.40594281356E+01 -0.32676274603E+01  0.10859716840E+03  0.10872218032E+03  0.10566000000E+00 0. -1.
        -13    1    4    4    0    0  0.57331024641E+01 -0.53209390574E+01  0.18350634817E+03  0.18367300248E+03  0.10566000000E+00 0.  1.
         14    1    4    4    0    0  0.90411067071E+01 -0.65276528513E+01  0.27294679333E+03  0.27317449342E+03  0.00000000000E+00 0. -1.
<mgrwt>
<rscale>  0 0.79993941E+02</rscale>
<asrwt>0</asrwt>
<pdfrwt beam="1">  1        2 0.96796627E-01 0.79993941E+02</pdfrwt>
<pdfrwt beam="2">  1       -1 0.39117155E-03 0.79993941E+02</pdfrwt>
<totfact> 0.32587324E+05</totfact>
</mgrwt>
</event>
<event>
 8    1  0.2561077E-020  0.8051597E+02  0.7818608E-02  0.1327594E+00
          2   -1    0    0  501    0  0.00000000000E+00  0.00000000000E+00  0.17475296083E+03  0.17475296085E+03  0.25500000000E-02 0. -1.
         -1   -1    0    0    0  501 -0.00000000000E+00 -0.00000000000E+00 -0.92742652379E+01  0.92742666074E+01  0.50400000000E-02 0.  1.
         24    2    1    2    0    0  0.00000000000E+00  0.00000000000E+00  0.16547869559E+03  0.18402722746E+03  0.80515972020E+02 0.  0.
         66    2    3    3    0    0 -0.19247048201E+02 -0.19437473900E+02  0.15022264142E+03  0.15270594701E+03  0.20000001080E+01 0.  0.
        -13    1    3    3    0    0  0.19247048201E+02  0.19437473900E+02  0.15256054175E+02  0.31321280451E+02  0.10566000000E+00 0.  1.
         13    1    4    4    0    0 -0.53901984056E+01 -0.60116404469E+01  0.41712550501E+02  0.42486963801E+02  0.10566000000E+00 0. -1.
        -13    1    4    4    0    0 -0.12798117798E+02 -0.12195689735E+02  0.97478934577E+02  0.99069069429E+02  0.10566000000E+00 0.  1.
         14    1    4    4    0    0 -0.10587319968E+01 -0.12301437186E+01  0.11031156339E+02  0.11149913775E+02  0.00000000000E+00 0. -1.
<mgrwt>
<rscale>  0 0.80515972E+02</rscale>
<asrwt>0</asrwt>
<pdfrwt beam="1">  1        2 0.26885070E-01 0.80515972E+02</pdfrwt>
<pdfrwt beam="2">  1       -1 0.14268102E-02 0.80515972E+02</pdfrwt>
<totfact> 0.20707518E+05</totfact>
</mgrwt>
</event>
<event>
 8    1  0.2561077E-020  0.8262367E+02  0.7818608E-02  0.1321767E+00
          2   -1    0    0  501    0  0.00000000000E+00  0.00000000000E+00  0.77357508617E+01  0.77357512820E+01  0.25500000000E-02 0. -1.
         -1   -1    0    0    0  501 -0.00000000000E+00 -0.00000000000E+00 -0.22062079172E+03  0.22062079178E+03  0.50400000000E-02 0.  1.
         24    2    1    2    0    0  0.17763568394E-14  0.00000000000E+00 -0.21288504086E+03  0.22835654306E+03  0.82623665720E+02 0.  0.
         66    2    3    3    0    0  0.14035518585E+02 -0.37187280754E+02 -0.75632403901E+02  0.85464320921E+02  0.19999997342E+01 0.  0.
        -13    1    3    3    0    0 -0.14035518585E+02  0.37187280754E+02 -0.13725263696E+03  0.14289222214E+03  0.10566000000E+00 0.  1.
         13    1    4    4    0    0  0.29124818936E+01 -0.92297186358E+01 -0.19232843206E+02  0.21530993444E+02  0.10566000000E+00 0. -1.
        -13    1    4    4    0    0  0.51421171654E+00 -0.16062588329E+01 -0.27611534415E+01  0.32372231141E+01  0.10566000000E+00 0.  1.
         14    1    4    4    0    0  0.10608824975E+02 -0.26351303285E+02 -0.53638407253E+02  0.60696104363E+02  0.00000000000E+00 0. -1.
<mgrwt>
<rscale>  0 0.82623666E+02</rscale>
<asrwt>0</asrwt>
<pdfrwt beam="1">  1        2 0.11901157E-02 0.82623666E+02</pdfrwt>
<pdfrwt beam="2">  1       -1 0.33941656E-01 0.82623666E+02</pdfrwt>
<totfact> 0.88958952E+04</totfact>
</mgrwt>
</event>
<event>
 8    1  0.2561077E-020  0.7993917E+02  0.7818608E-02  0.1329224E+00
         -1   -1    0    0    0  501 -0.00000000000E+00  0.00000000000E+00  0.14552715078E+03  0.14552715087E+03  0.50400000000E-02 0.  1.
          2   -1    0    0  501    0  0.00000000000E+00 -0.00000000000E+00 -0.10977799084E+02  0.10977799380E+02  0.25500000000E-02 0. -1.
         24    2    1    2    0    0  0.00000000000E+00 -0.35527136788E-14  0.13454935170E+03  0.15650495025E+03  0.79939173189E+02 0.  0.
         66    2    3    3    0    0 -0.20742047952E+02 -0.31621792090E+02  0.42138365216E+02  0.56655203755E+02  0.20000003025E+01 0.  0.
        -13    1    3    3    0    0  0.20742047952E+02  0.31621792090E+02  0.92410986482E+02  0.99849746494E+02  0.10566000000E+00 0.  1.
         13    1    4    4    0    0 -0.11428551135E+02 -0.16323502550E+02  0.23126081013E+02  0.30526960274E+02  0.10566000000E+00 0. -1.
        -13    1    4    4    0    0 -0.50510631453E+01 -0.79730210032E+01  0.96155631065E+01  0.13474142671E+02  0.10566000000E+00 0.  1.
         14    1    4    4    0    0 -0.42624336720E+01 -0.73252685372E+01  0.93967210966E+01  0.12654100810E+02  0.00000000000E+00 0. -1.
<mgrwt>
<rscale>  0 0.79939173E+02</rscale>
<asrwt>0</asrwt>
<pdfrwt beam="1">  1        2 0.16888923E-02 0.79939173E+02</pdfrwt>
<pdfrwt beam="2">  1       -1 0.22388791E-01 0.79939173E+02</pdfrwt>
<totfact> 0.10891072E+05</totfact>
</mgrwt>
</event>
<event>
 8    1  0.2561077E-020  0.7926601E+02  0.7818608E-02  0.1331147E+00
          2   -1    0    0  501    0  0.00000000000E+00  0.00000000000E+00  0.38744168419E+03  0.38744168420E+03  0.25500000000E-02 0. -1.
         -1   -1    0    0    0  501 -0.00000000000E+00 -0.00000000000E+00 -0.40542215559E+01  0.40542246886E+01  0.50400000000E-02 0.  1.
         24    2    1    2    0    0 -0.88817841970E-15  0.00000000000E+00  0.38338746263E+03  0.39149590889E+03  0.79266008921E+02 0.  0.
         66    2    3    3    0    0 -0.54345573604E+01 -0.23345507913E+02  0.34754895772E+03  0.34838028814E+03  0.20000006377E+01 0.  0.
        -13    1    3    3    0    0  0.54345573604E+01  0.23345507913E+02  0.35838504913E+02  0.43115620741E+02  0.10566000000E+00 0.  1.
         13    1    4    4    0    0 -0.62838505596E+00 -0.38338464293E+01  0.48115870460E+02  0.48272573997E+02  0.10566000000E+00 0. -1.
        -13    1    4    4    0    0 -0.34492095866E+00 -0.19512114141E+01  0.27013395466E+02  0.27086175350E+02  0.10566000000E+00 0. -1.
         14    1    4    4    0    0 -0.44612513458E+01 -0.17560450069E+02  0.27241969179E+03  0.27302153880E+03  0.00000000000E+00 0. -1.
<mgrwt>
<rscale>  0 0.79266009E+02</rscale>
<asrwt>0</asrwt>
<pdfrwt beam="1">  1        2 0.59606433E-01 0.79266009E+02</pdfrwt>
<pdfrwt beam="2">  1       -1 0.62372642E-03 0.79266009E+02</pdfrwt>
<totfact> 0.28619839E+05</totfact>
</mgrwt>
</event>
<event>
 8    1  0.2561077E-020  0.7762915E+02  0.7818608E-02  0.1335917E+00
          2   -1    0    0  501    0  0.00000000000E+00  0.00000000000E+00  0.83778664944E+02  0.83778664983E+02  0.25500000000E-02 0. -1.
         -1   -1    0    0    0  501 -0.00000000000E+00 -0.00000000000E+00 -0.17982754618E+02  0.17982755324E+02  0.50400000000E-02 0.  1.
         24    2    1    2    0    0  0.00000000000E+00  0.00000000000E+00  0.65795910326E+02  0.10176142031E+03  0.77629149469E+02 0.  0.
         66    2    3    3    0    0 -0.15744978545E+02 -0.20393275312E+02  0.70929790323E+02  0.75490563542E+02  0.20000003226E+01 0.  0.
        -13    1    3    3    0    0  0.15744978545E+02  0.20393275312E+02 -0.51338799967E+01  0.26270856765E+02  0.10566000000E+00 0.  1.
         13    1    4    4    0    0 -0.20849656552E+01 -0.24389302848E+01  0.78503869383E+01  0.84814622462E+01  0.10566000000E+00 0. -1.
        -13    1    4    4    0    0 -0.34712890135E+01 -0.38815665530E+01  0.13195527107E+02  0.14186243548E+02  0.10566000000E+00 0.  1.
         14    1    4    4    0    0 -0.10188723877E+02 -0.14072778474E+02  0.49883876278E+02  0.52822857748E+02  0.00000000000E+00 0. -1.
<mgrwt>
<rscale>  0 0.77629149E+02</rscale>
<asrwt>0</asrwt>
<pdfrwt beam="1">  1        2 0.12889026E-01 0.77629149E+02</pdfrwt>
<pdfrwt beam="2">  1       -1 0.27665776E-02 0.77629149E+02</pdfrwt>
<totfact> 0.18319016E+05</totfact>
</mgrwt>
</event>
<event>
 8    1  0.2561077E-020  0.7937148E+02  0.7818608E-02  0.1330845E+00
          2   -1    0    0  501    0  0.00000000000E+00  0.00000000000E+00  0.47789663779E+03  0.47789663780E+03  0.25500000000E-02 0. -1.
         -1   -1    0    0    0  501 -0.00000000000E+00 -0.00000000000E+00 -0.32956019343E+01  0.32956057882E+01  0.50400000000E-02 0.  1.
         24    2    1    2    0    0  0.00000000000E+00  0.00000000000E+00  0.47460103586E+03  0.48119224359E+03  0.79371481347E+02 0.  0.
         66    2    3    3    0    0 -0.11957681687E+02  0.32578530557E+02  0.35384607944E+03  0.35554942657E+03  0.19999985920E+01 0.  0.
        -13    1    3    3    0    0  0.11957681687E+02 -0.32578530557E+02  0.12075495642E+03  0.12564281702E+03  0.10566000000E+00 0.  1.
         13    1    4    4    0    0 -0.41295549601E+01  0.12115466251E+02  0.12546886357E+03  0.12612011987E+03  0.10566000000E+00 0. -1.
        -13    1    4    4    0    0 -0.10581713738E+01  0.39094279301E+01  0.39477352489E+02  0.39684705832E+02  0.10566000000E+00 0.  1.
         14    1    4    4    0    0 -0.67699553535E+01  0.16553636376E+02  0.18889986338E+03  0.18974460086E+03  0.00000000000E+00 0. -1.
<mgrwt>
<rscale>  0 0.79371481E+02</rscale>
<asrwt>0</asrwt>
<pdfrwt beam="1">  1        2 0.73522543E-01 0.79371481E+02</pdfrwt>
<pdfrwt beam="2">  1       -1 0.50701610E-03 0.79371481E+02</pdfrwt>
<totfact> 0.30633682E+05</totfact>
</mgrwt>
</event>
<event>
 8    1  0.2561077E-020  0.8097018E+02  0.7818608E-02  0.1326321E+00
          2   -1    0    0  501    0  0.00000000000E+00  0.00000000000E+00  0.10263381816E+03  0.10263381819E+03  0.25500000000E-02 0. -1.
         -1   -1    0    0    0  501 -0.00000000000E+00 -0.00000000000E+00 -0.15969810636E+02  0.15969811432E+02  0.50400000000E-02 0.  1.
         24    2    1    2    0    0  0.00000000000E+00  0.00000000000E+00  0.86664007524E+02  0.11860362962E+03  0.80970184388E+02 0.  0.
         66    2    3    3    0    0  0.20611158578E+01  0.40193409179E+02  0.49447241748E+02  0.63787052214E+02  0.19999934173E+01 0.  0.
        -13    1    3    3    0    0 -0.20611158578E+01 -0.40193409179E+02  0.37216765777E+02  0.54816577410E+02  0.10566000000E+00 0.  1.
         13    1    4    4    0    0  0.69740548929E+00  0.48746292488E+01  0.64215628355E+01  0.80929610165E+01  0.10566000000E+00 0. -1.
        -13    1    4    4    0    0  0.10454279962E+01  0.33576623077E+02  0.40898641445E+02  0.52926293777E+02  0.10566000000E+00 0.  1.
        -14    1    4    4    0    0  0.31828237232E+00  0.17421568538E+01  0.21270374674E+01  0.27677974203E+01  0.00000000000E+00 0.  1.
<mgrwt>
<rscale>  0 0.80970184E+02</rscale>
<asrwt>0</asrwt>
<pdfrwt beam="1">  1        2 0.15789819E-01 0.80970184E+02</pdfrwt>
<pdfrwt beam="2">  1       -1 0.24568939E-02 0.80970184E+02</pdfrwt>
<totfact> 0.17288520E+05</totfact>
</mgrwt>
</event>
<event>
 8    1  0.2561077E-020  0.7946671E+02  0.7818608E-02  0.1330572E+00
         -1   -1    0    0    0  501 -0.00000000000E+00  0.00000000000E+00  0.38874156853E+02  0.38874157180E+02  0.50400000000E-02 0.  1.
          2   -1    0    0  501    0  0.00000000000E+00 -0.00000000000E+00 -0.40611546934E+02  0.40611547014E+02  0.25500000000E-02 0. -1.
         24    2    1    2    0    0  0.00000000000E+00  0.35527136788E-14 -0.17373900806E+01  0.79485704193E+02  0.79466714081E+02 0.  0.
         66    2    3    3    0    0 -0.33175220403E+02 -0.17840872396E+02 -0.13435793645E+02  0.40042633996E+02  0.20000024479E+01 0.  0.
        -13    1    3    3    0    0  0.33175220403E+02  0.17840872396E+02  0.11698403565E+02  0.39443070198E+02  0.10566000000E+00 0.  1.
         13    1    4    4    0    0 -0.71741969996E+01 -0.44124730186E+01 -0.34278856638E+01  0.90939861936E+01  0.10566000000E+00 0. -1.
        -13    1    4    4    0    0 -0.11815005739E+02 -0.63193932699E+01 -0.40275902130E+01  0.13991488086E+02  0.10566000000E+00 0.  1.
         14    1    4    4    0    0 -0.14186017665E+02 -0.71090061075E+01 -0.59803177685E+01  0.16957159716E+02  0.00000000000E+00 0. -1.
<mgrwt>
<rscale>  0 0.79466714E+02</rscale>
<asrwt>0</asrwt>
<pdfrwt beam="1">  1        2 0.62479303E-02 0.79466714E+02</pdfrwt>
<pdfrwt beam="2">  1       -1 0.59806395E-02 0.79466714E+02</pdfrwt>
<totfact> 0.14566367E+05</totfact>
</mgrwt>
</event>
<event>
 8    1  0.2561077E-020  0.7770116E+02  0.7818608E-02  0.1335705E+00
         -1   -1    0    0    0  501 -0.00000000000E+00  0.00000000000E+00  0.82824879784E+00  0.82826413222E+00  0.50400000000E-02 0.  1.
          2   -1    0    0  501    0  0.00000000000E+00 -0.00000000000E+00 -0.18223433857E+04  0.18223433857E+04  0.25500000000E-02 0. -1.
         24    2    1    2    0    0  0.00000000000E+00  0.00000000000E+00 -0.18215151369E+04  0.18231716498E+04  0.77701163406E+02 0.  0.
         66    2    3    3    0    0 -0.89849863887E+01 -0.62055908084E+01 -0.17855658880E+04  0.17856003975E+04  0.19999988039E+01 0.  0.
        -13    1    3    3    0    0  0.89849863887E+01  0.62055908084E+01 -0.35949248897E+02  0.37571252281E+02  0.10566000000E+00 0.  1.
         13    1    4    4    0    0 -0.15831293275E+00  0.21265068363E-01 -0.43136888882E+02  0.43137314029E+02  0.10566000000E+00 0.  1.
        -13    1    4    4    0    0 -0.27676964435E+01 -0.14172899583E+01 -0.57991623744E+03  0.57992458343E+03  0.10566000000E+00 0. -1.
        -14    1    4    4    0    0 -0.60589770125E+01 -0.48095659185E+01 -0.11625127617E+04  0.11625385001E+04  0.00000000000E+00 0.  1.
<mgrwt>
<rscale>  0 0.77701163E+02</rscale>
<asrwt>0</asrwt>
<pdfrwt beam="1">  1        2 0.28035731E+00 0.77701163E+02</pdfrwt>
<pdfrwt beam="2">  1       -1 0.12742553E-03 0.77701163E+02</pdfrwt>
<totfact> 0.32317658E+05</totfact>
</mgrwt>
</event>
<event>
 8    1  0.2561077E-020  0.7984843E+02  0.7818608E-02  0.1329482E+00
         -1   -1    0    0    0  501 -0.00000000000E+00  0.00000000000E+00  0.37972475790E+03  0.37972475793E+03  0.50400000000E-02 0.  1.
          2   -1    0    0  501    0  0.00000000000E+00 -0.00000000000E+00 -0.41976267360E+01  0.41976275105E+01  0.25500000000E-02 0. -1.
         24    2    1    2    0    0  0.00000000000E+00  0.00000000000E+00  0.37552713116E+03  0.38392238544E+03  0.79848430195E+02 0.  0.
         66    2    3    3    0    0 -0.36998968956E+02 -0.14461508405E+02  0.16996849606E+03  0.17456044392E+03  0.19999998117E+01 0.  0.
        -13    1    3    3    0    0  0.36998968956E+02  0.14461508405E+02  0.20555863510E+03  0.20936194152E+03  0.10566000000E+00 0.  1.
         13    1    4    4    0    0 -0.68363547926E+01 -0.24212448612E+01  0.33628832350E+02  0.34402146776E+02  0.10566000000E+00 0.  1.
        -13    1    4    4    0    0 -0.15622564639E+02 -0.60557131844E+01  0.72444929374E+02  0.74357347613E+02  0.10566000000E+00 0. -1.
         14    1    4    4    0    0 -0.14540049524E+02 -0.59845503592E+01  0.63894734338E+02  0.65800949532E+02  0.00000000000E+00 0. -1.
<mgrwt>
<rscale>  0 0.79848430E+02</rscale>
<asrwt>0</asrwt>
<pdfrwt beam="1">  1        2 0.64578869E-03 0.79848430E+02</pdfrwt>
<pdfrwt beam="2">  1       -1 0.58419203E-01 0.79848430E+02</pdfrwt>
<totfact> 0.78188478E+04</totfact>
</mgrwt>
</event>
<event>
 8    1  0.2561077E-020  0.8320397E+02  0.7818608E-02  0.1320197E+00
         -1   -1    0    0    0  501 -0.00000000000E+00  0.00000000000E+00  0.26164828549E+01  0.26164877090E+01  0.50400000000E-02 0.  1.
          2   -1    0    0  501    0  0.00000000000E+00 -0.00000000000E+00 -0.66146939991E+03  0.66146939992E+03  0.25500000000E-02 0. -1.
         24    2    1    2    0    0 -0.88817841970E-15 -0.71054273576E-14 -0.65885291706E+03  0.66408588763E+03  0.83203965226E+02 0.  0.
         66    2    3    3    0    0 -0.78432175547E+01 -0.35089169110E+02 -0.49626446043E+03  0.49756927211E+03  0.20000029848E+01 0.  0.
        -13    1    3    3    0    0  0.78432175547E+01  0.35089169110E+02 -0.16258845663E+03  0.16651661552E+03  0.10566000000E+00 0.  1.
         13    1    4    4    0    0 -0.13471731800E+01 -0.76895984921E+01 -0.11124710503E+03  0.11152073503E+03  0.10566000000E+00 0. -1.
        -13    1    4    4    0    0 -0.19483767780E+01 -0.99627015120E+01 -0.13095194432E+03  0.13134486849E+03  0.10566000000E+00 0.  1.
         14    1    4    4    0    0 -0.45476675967E+01 -0.17436869106E+02 -0.25406541108E+03  0.25470366859E+03  0.00000000000E+00 0. -1.
<mgrwt>
<rscale>  0 0.83203965E+02</rscale>
<asrwt>0</asrwt>
<pdfrwt beam="1">  1        2 0.10176439E+00 0.83203965E+02</pdfrwt>
<pdfrwt beam="2">  1       -1 0.40253672E-03 0.83203965E+02</pdfrwt>
<totfact> 0.29792670E+05</totfact>
</mgrwt>
</event>
<event>
 8    1  0.2561077E-020  0.7950172E+02  0.7818608E-02  0.1330471E+00
          2   -1    0    0  501    0  0.00000000000E+00  0.00000000000E+00  0.14508559142E+02  0.14508559366E+02  0.25500000000E-02 0. -1.
         -1   -1    0    0    0  501 -0.00000000000E+00 -0.00000000000E+00 -0.10891024005E+03  0.10891024017E+03  0.50400000000E-02 0.  1.
         24    2    1    2    0    0  0.00000000000E+00  0.00000000000E+00 -0.94401680909E+02  0.12341879953E+03  0.79501715201E+02 0.  0.
         66    2    3    3    0    0 -0.33469490618E+02 -0.42172904144E+01 -0.14662187182E+02  0.36837101903E+02  0.20000007523E+01 0.  0.
        -13    1    3    3    0    0  0.33469490618E+02  0.42172904144E+01 -0.79739493727E+02  0.86581697630E+02  0.10566000000E+00 0.  1.
         13    1    4    4    0    0 -0.31476543331E+02 -0.38346764331E+01 -0.13711711014E+02  0.34547065091E+02  0.10566000000E+00 0. -1.
        -13    1    4    4    0    0 -0.92983837273E+00 -0.23893815811E+00 -0.68737788217E+00  0.11854717337E+01  0.10566000000E+00 0.  1.
         14    1    4    4    0    0 -0.10631089144E+01 -0.14367582325E+00 -0.26309828615E+00  0.11045650792E+01  0.00000000000E+00 0. -1.
<mgrwt>
<rscale>  0 0.79501715E+02</rscale>
<asrwt>0</asrwt>
<pdfrwt beam="1">  1        2 0.22320861E-02 0.79501715E+02</pdfrwt>
<pdfrwt beam="2">  1       -1 0.16755421E-01 0.79501715E+02</pdfrwt>
<totfact> 0.11818416E+05</totfact>
</mgrwt>
</event>
<event>
 8    1  0.2561077E-020  0.7798029E+02  0.7818608E-02  0.1334883E+00
          2   -1    0    0  501    0  0.00000000000E+00  0.00000000000E+00  0.28853526827E+02  0.28853526939E+02  0.25500000000E-02 0. -1.
         -1   -1    0    0    0  501 -0.00000000000E+00 -0.00000000000E+00 -0.52687884663E+02  0.52687884904E+02  0.50400000000E-02 0.  1.
         24    2    1    2    0    0  0.00000000000E+00 -0.35527136788E-14 -0.23834357836E+02  0.81541411844E+02  0.77980287458E+02 0.  0.
         66    2    3    3    0    0  0.20618083080E+02 -0.30603040176E+02 -0.25009418404E+02  0.44621994875E+02  0.19999999693E+01 0.  0.
        -13    1    3    3    0    0 -0.20618083080E+02  0.30603040176E+02  0.11750605673E+01  0.36919416968E+02  0.10566000000E+00 0.  1.
         13    1    4    4    0    0  0.49707842913E+01 -0.70175262611E+01 -0.59736183250E+01  0.10471372939E+02  0.10566000000E+00 0. -1.
        -13    1    4    4    0    0  0.99977908002E+01 -0.14698961408E+02 -0.12883874923E+02  0.21954969470E+02  0.10566000000E+00 0.  1.
         14    1    4    4    0    0  0.56495079881E+01 -0.88865525072E+01 -0.61519251559E+01  0.12195652467E+02  0.00000000000E+00 0. -1.
<mgrwt>
<rscale>  0 0.77980287E+02</rscale>
<asrwt>0</asrwt>
<pdfrwt beam="1">  1        2 0.44390041E-02 0.77980287E+02</pdfrwt>
<pdfrwt beam="2">  1       -1 0.81058285E-02 0.77980287E+02</pdfrwt>
<totfact> 0.14344177E+05</totfact>
</mgrwt>
</event>
<event>
 8    1  0.2561077E-020  0.7697714E+02  0.7818608E-02  0.1337856E+00
         -1   -1    0    0    0  501 -0.00000000000E+00  0.00000000000E+00  0.23562422652E+02  0.23562423191E+02  0.50400000000E-02 0.  1.
          2   -1    0    0  501    0  0.00000000000E+00 -0.00000000000E+00 -0.62870015903E+02  0.62870015955E+02  0.25500000000E-02 0. -1.
         24    2    1    2    0    0  0.00000000000E+00 -0.35527136788E-14 -0.39307593251E+02  0.86432439146E+02  0.76977137188E+02 0.  0.
         66    2    3    3    0    0  0.20949674070E+02  0.20539269359E+02 -0.47594078504E+02  0.55945926860E+02  0.19999985435E+01 0.  0.
        -13    1    3    3    0    0 -0.20949674070E+02 -0.20539269359E+02  0.82864852533E+01  0.30486512286E+02  0.10566000000E+00 0.  1.
         13    1    4    4    0    0  0.52029702885E+01  0.44147168896E+01 -0.11818767215E+02  0.13647528991E+02  0.10566000000E+00 0. -1.
        -13    1    4    4    0    0  0.11253601554E+02  0.10808850273E+02 -0.25057295516E+02  0.29518706184E+02  0.10566000000E+00 0.  1.
        -14    1    4    4    0    0  0.44931022278E+01  0.53157021966E+01 -0.10718015773E+02  0.12779691686E+02  0.00000000000E+00 0.  1.
<mgrwt>
<rscale>  0 0.76977137E+02</rscale>
<asrwt>0</asrwt>
<pdfrwt beam="1">  1        2 0.96723100E-02 0.76977137E+02</pdfrwt>
<pdfrwt beam="2">  1       -1 0.36249882E-02 0.76977137E+02</pdfrwt>
<totfact> 0.17467521E+05</totfact>
</mgrwt>
</event>
<event>
 8    1  0.2561077E-020  0.7714222E+02  0.7818608E-02  0.1337363E+00
         -1   -1    0    0    0  501 -0.00000000000E+00  0.00000000000E+00  0.88771260939E+02  0.88771261082E+02  0.50400000000E-02 0.  1.
          2   -1    0    0  501    0  0.00000000000E+00 -0.00000000000E+00 -0.16759146657E+02  0.16759146851E+02  0.25500000000E-02 0. -1.
         24    2    1    2    0    0 -0.35527136788E-14 -0.17763568394E-14  0.72012114282E+02  0.10553040793E+03  0.77142221870E+02 0.  0.
         66    2    3    3    0    0  0.25503042586E+02 -0.11871477227E+02 -0.18270616698E-01  0.28201728483E+02  0.20000007251E+01 0.  0.
        -13    1    3    3    0    0 -0.25503042586E+02  0.11871477227E+02  0.72030384899E+02  0.77328679450E+02  0.10566000000E+00 0.  1.
         13    1    4    4    0    0  0.18678935573E+01 -0.87580749067E+00 -0.38822367231E+00  0.21018912335E+01  0.10566000000E+00 0. -1.
        -13    1    4    4    0    0  0.37545832375E+01 -0.12841187692E+01 -0.56868948740E-01  0.39699186911E+01  0.10566000000E+00 0. -1.
         14    1    4    4    0    0  0.19880565791E+02 -0.97115509669E+01  0.42682200435E+00  0.22129918558E+02  0.00000000000E+00 0. -1.
<mgrwt>
<rscale>  0 0.77142222E+02</rscale>
<asrwt>0</asrwt>
<pdfrwt beam="1">  1        2 0.25783302E-02 0.77142222E+02</pdfrwt>
<pdfrwt beam="2">  1       -1 0.13657118E-01 0.77142222E+02</pdfrwt>
<totfact> 0.13301630E+05</totfact>
</mgrwt>
</event>
<event>
 8    1  0.2561077E-020  0.8038816E+02  0.7818608E-02  0.1327954E+00
         -1   -1    0    0    0  501 -0.00000000000E+00  0.00000000000E+00  0.14747704556E+03  0.14747704565E+03  0.50400000000E-02 0.  1.
          2   -1    0    0  501    0  0.00000000000E+00 -0.00000000000E+00 -0.10954680083E+02  0.10954680379E+02  0.25500000000E-02 0. -1.
         24    2    1    2    0    0  0.00000000000E+00  0.00000000000E+00  0.13652236548E+03  0.15843172602E+03  0.80388155445E+02 0.  0.
         66    2    3    3    0    0 -0.22119734990E+02  0.12271307513E+02  0.68053550308E+01  0.26271287061E+02  0.20000006496E+01 0.  0.
        -13    1    3    3    0    0  0.22119734990E+02 -0.12271307513E+02  0.12971701045E+03  0.13216043896E+03  0.10566000000E+00 0.  1.
         13    1    4    4    0    0 -0.86174959461E+01  0.40487631573E+01  0.21405031285E+01  0.97594383631E+01  0.10566000000E+00 0. -1.
        -13    1    4    4    0    0 -0.12010903761E+02  0.69628363073E+01  0.42023083404E+01  0.14505635388E+02  0.10566000000E+00 0.  1.
        -14    1    4    4    0    0 -0.14913352837E+01  0.12597080488E+01  0.46254356189E+00  0.20062133095E+01  0.00000000000E+00 0.  1.
<mgrwt>
<rscale>  0 0.80388155E+02</rscale>
<asrwt>0</asrwt>
<pdfrwt beam="1">  1        2 0.16853355E-02 0.80388155E+02</pdfrwt>
<pdfrwt beam="2">  1       -1 0.22688776E-01 0.80388155E+02</pdfrwt>
<totfact> 0.10702131E+05</totfact>
</mgrwt>
</event>
<event>
 8    1  0.2561077E-020  0.7865544E+02  0.7818608E-02  0.1332911E+00
          2   -1    0    0  501    0  0.00000000000E+00  0.00000000000E+00  0.31692182220E+02  0.31692182322E+02  0.25500000000E-02 0. -1.
         -1   -1    0    0    0  501 -0.00000000000E+00 -0.00000000000E+00 -0.48802870952E+02  0.48802871212E+02  0.50400000000E-02 0.  1.
         24    2    1    2    0    0  0.00000000000E+00 -0.35527136788E-14 -0.17110688732E+02  0.80495053534E+02  0.78655438303E+02 0.  0.
         66    2    3    3    0    0  0.36166132092E+02  0.14153071274E+02 -0.14732325387E+02  0.41585333499E+02  0.20000034727E+01 0.  0.
        -13    1    3    3    0    0 -0.36166132092E+02 -0.14153071274E+02 -0.23783633449E+01  0.38909720035E+02  0.10566000000E+00 0.  1.
         13    1    4    4    0    0  0.63446438935E+01  0.22233245965E+01 -0.28312688813E+01  0.72955415090E+01  0.10566000000E+00 0. -1.
        -13    1    4    4    0    0  0.20647178068E+02  0.74725259029E+01 -0.80385383086E+01  0.23383196268E+02  0.10566000000E+00 0. -1.
         14    1    4    4    0    0  0.91743101307E+01  0.44572207749E+01 -0.38625181972E+01  0.10906595722E+02  0.00000000000E+00 0. -1.
<mgrwt>
<rscale>  0 0.78655438E+02</rscale>
<asrwt>0</asrwt>
<pdfrwt beam="1">  1        2 0.48757204E-02 0.78655438E+02</pdfrwt>
<pdfrwt beam="2">  1       -1 0.75081340E-02 0.78655438E+02</pdfrwt>
<totfact> 0.14261011E+05</totfact>
</mgrwt>
</event>
<event>
 8    1  0.2561077E-020  0.8453983E+02  0.7818608E-02  0.1316640E+00
          2   -1    0    0  501    0  0.00000000000E+00  0.00000000000E+00  0.10735719219E+02  0.10735719522E+02  0.25500000000E-02 0. -1.
         -1   -1    0    0    0  501 -0.00000000000E+00 -0.00000000000E+00 -0.16642997586E+03  0.16642997593E+03  0.50400000000E-02 0.  1.
         24    2    1    2    0    0  0.00000000000E+00  0.00000000000E+00 -0.15569425664E+03  0.17716569546E+03  0.84539825504E+02 0.  0.
         66    2    3    3    0    0  0.24401901349E+02  0.26202278087E+02 -0.30902792817E+02  0.47339146656E+02  0.20000089634E+01 0.  0.
        -13    1    3    3    0    0 -0.24401901349E+02 -0.26202278087E+02 -0.12479146382E+03  0.12982654880E+03  0.10566000000E+00 0.  1.
         13    1    4    4    0    0  0.75881974665E+01  0.80844888999E+01 -0.94712397100E+01  0.14582703701E+02  0.10566000000E+00 0. -1.
        -13    1    4    4    0    0  0.15638495408E+01  0.10844320771E+01 -0.18081127883E+01  0.26271760898E+01  0.10566000000E+00 0.  1.
        -14    1    4    4    0    0  0.15249854342E+02  0.17033357110E+02 -0.19623440319E+02  0.30129266865E+02  0.00000000000E+00 0.  1.
<mgrwt>
<rscale>  0 0.84539826E+02</rscale>
<asrwt>0</asrwt>
<pdfrwt beam="1">  1        2 0.16516493E-02 0.84539826E+02</pdfrwt>
<pdfrwt beam="2">  1       -1 0.25604610E-01 0.84539826E+02</pdfrwt>
<totfact> 0.91259015E+04</totfact>
</mgrwt>
</event>
<event>
 8    1  0.2561077E-020  0.7826167E+02  0.7818608E-02  0.1334058E+00
         -1   -1    0    0    0  501 -0.00000000000E+00  0.00000000000E+00  0.30727431461E+01  0.30727472794E+01  0.50400000000E-02 0.  1.
          2   -1    0    0  501    0  0.00000000000E+00 -0.00000000000E+00 -0.49832390758E+03  0.49832390758E+03  0.25500000000E-02 0. -1.
         24    2    1    2    0    0  0.00000000000E+00  0.44408920985E-15 -0.49525116443E+03  0.50139665486E+03  0.78261674130E+02 0.  0.
         66    2    3    3    0    0 -0.35207702655E+02  0.32661951098E+01 -0.35479301341E+03  0.35655621262E+03  0.20000092879E+01 0.  0.
        -13    1    3    3    0    0  0.35207702655E+02 -0.32661951098E+01 -0.14045815103E+03  0.14484044225E+03  0.10566000000E+00 0.  1.
         13    1    4    4    0    0 -0.20100756656E+02  0.14041938044E+01 -0.20679470490E+03  0.20777409203E+03  0.10566000000E+00 0. -1.
        -13    1    4    4    0    0 -0.59880027630E+01  0.86489125688E+00 -0.63250944699E+02  0.63539730746E+02  0.10566000000E+00 0.  1.
        -14    1    4    4    0    0 -0.91189432356E+01  0.99711004852E+00 -0.84747363804E+02  0.85242389842E+02  0.00000000000E+00 0.  1.
<mgrwt>
<rscale>  0 0.78261674E+02</rscale>
<asrwt>0</asrwt>
<pdfrwt beam="1">  1        2 0.76665152E-01 0.78261674E+02</pdfrwt>
<pdfrwt beam="2">  1       -1 0.47273043E-03 0.78261674E+02</pdfrwt>
<totfact> 0.32209248E+05</totfact>
</mgrwt>
</event>
<event>
 8    1  0.2561077E-020  0.8028227E+02  0.7818608E-02  0.1328252E+00
         -1   -1    0    0    0  501 -0.00000000000E+00  0.00000000000E+00  0.58914162115E+02  0.58914162330E+02  0.50400000000E-02 0.  1.
          2   -1    0    0  501    0  0.00000000000E+00 -0.00000000000E+00 -0.27350140791E+02  0.27350140909E+02  0.25500000000E-02 0. -1.
         24    2    1    2    0    0 -0.17763568394E-14  0.00000000000E+00  0.31564021324E+02  0.86264303240E+02  0.80282268100E+02 0.  0.
         66    2    3    3    0    0  0.14137463847E+02  0.33530997012E+02 -0.23515829427E+01  0.36520207897E+02  0.19999994470E+01 0.  0.
        -13    1    3    3    0    0 -0.14137463847E+02 -0.33530997012E+02  0.33915604267E+02  0.49744095343E+02  0.10566000000E+00 0.  1.
         13    1    4    4    0    0  0.36514646443E+01  0.84681538404E+01 -0.12235003380E+01  0.93032758008E+01  0.10566000000E+00 0. -1.
        -13    1    4    4    0    0  0.20998954165E+00  0.10134692690E+01 -0.15840667260E-01  0.10404953287E+01  0.10566000000E+00 0. -1.
         14    1    4    4    0    0  0.10276009662E+02  0.24049373903E+02 -0.11122419375E+01  0.26176436767E+02  0.00000000000E+00 0. -1.
<mgrwt>
<rscale>  0 0.80282268E+02</rscale>
<asrwt>0</asrwt>
<pdfrwt beam="1">  1        2 0.42077140E-02 0.80282268E+02</pdfrwt>
<pdfrwt beam="2">  1       -1 0.90637173E-02 0.80282268E+02</pdfrwt>
<totfact> 0.13081823E+05</totfact>
</mgrwt>
</event>
<event>
 8    1  0.2561077E-020  0.8200933E+02  0.7818608E-02  0.1323444E+00
          2   -1    0    0  501    0  0.00000000000E+00  0.00000000000E+00  0.13726585415E+03  0.13726585418E+03  0.25500000000E-02 0. -1.
         -1   -1    0    0    0  501 -0.00000000000E+00 -0.00000000000E+00 -0.12249096008E+02  0.12249097045E+02  0.50400000000E-02 0.  1.
         24    2    1    2    0    0  0.00000000000E+00  0.00000000000E+00  0.12501675815E+03  0.14951495122E+03  0.82009333749E+02 0.  0.
         66    2    3    3    0    0  0.19040901274E+02  0.17904270101E+02  0.12009043261E+03  0.12291798417E+03  0.20000045477E+01 0.  0.
        -13    1    3    3    0    0 -0.19040901274E+02 -0.17904270101E+02  0.49263255350E+01  0.26596967054E+02  0.10566000000E+00 0.  1.
         13    1    4    4    0    0  0.98280217298E+01  0.97907927334E+01  0.67355031983E+02  0.68768896538E+02  0.10566000000E+00 0. -1.
        -13    1    4    4    0    0  0.88168061107E+01  0.75990598318E+01  0.50203740190E+02  0.51535506920E+02  0.10566000000E+00 0.  1.
         14    1    4    4    0    0  0.39607343368E+00  0.51441753566E+00  0.25316604379E+01  0.26135807121E+01  0.00000000000E+00 0. -1.
<mgrwt>
<rscale>  0 0.82009334E+02</rscale>
<asrwt>0</asrwt>
<pdfrwt beam="1">  1        2 0.21117823E-01 0.82009334E+02</pdfrwt>
<pdfrwt beam="2">  1       -1 0.18844764E-02 0.82009334E+02</pdfrwt>
<totfact> 0.18228559E+05</totfact>
</mgrwt>
</event>
<event>
 8    1  0.2561077E-020  0.7161736E+02  0.7818608E-02  0.1354678E+00
         -1   -1    0    0    0  501 -0.00000000000E+00  0.00000000000E+00  0.12525231450E+02  0.12525232464E+02  0.50400000000E-02 0.  1.
          2   -1    0    0  501    0  0.00000000000E+00 -0.00000000000E+00 -0.10237426389E+03  0.10237426392E+03  0.25500000000E-02 0. -1.
         24    2    1    2    0    0  0.00000000000E+00 -0.35527136788E-14 -0.89849032440E+02  0.11489949639E+03  0.71617355713E+02 0.  0.
         66    2    3    3    0    0  0.27540658041E+02 -0.22264107184E+02 -0.53152386492E+02  0.63901130708E+02  0.20000004735E+01 0.  0.
        -13    1    3    3    0    0 -0.27540658041E+02  0.22264107184E+02 -0.36696645948E+02  0.50998365679E+02  0.10566000000E+00 0.  1.
         13    1    4    4    0    0  0.78397334757E+01 -0.66353034762E+01 -0.16217325252E+02  0.19196392254E+02  0.10566000000E+00 0. -1.
        -13    1    4    4    0    0  0.70175357582E+01 -0.49644633945E+01 -0.13425465103E+02  0.15941956661E+02  0.10566000000E+00 0.  1.
        -14    1    4    4    0    0  0.12683388807E+02 -0.10664340313E+02 -0.23509596137E+02  0.28762781793E+02  0.00000000000E+00 0.  1.
<mgrwt>
<rscale>  0 0.71617356E+02</rscale>
<asrwt>0</asrwt>
<pdfrwt beam="1">  1        2 0.15749886E-01 0.71617356E+02</pdfrwt>
<pdfrwt beam="2">  1       -1 0.19269588E-02 0.71617356E+02</pdfrwt>
<totfact> 0.23945203E+05</totfact>
</mgrwt>
</event>
<event>
 8    1  0.2561077E-020  0.7863564E+02  0.7818608E-02  0.1332968E+00
          2   -1    0    0  501    0  0.00000000000E+00  0.00000000000E+00  0.49551101574E+03  0.49551101574E+03  0.25500000000E-02 0. -1.
         -1   -1    0    0    0  501 -0.00000000000E+00 -0.00000000000E+00 -0.31197893918E+01  0.31197934629E+01  0.50400000000E-02 0.  1.
         24    2    1    2    0    0  0.00000000000E+00  0.00000000000E+00  0.49239122635E+03  0.49863080921E+03  0.78635641462E+02 0.  0.
         66    2    3    3    0    0  0.96242727252E+01  0.32049898530E+02  0.37693395788E+03  0.37842176368E+03  0.20000002807E+01 0.  0.
        -13    1    3    3    0    0 -0.96242727252E+01 -0.32049898530E+02  0.11545726847E+03  0.12020904553E+03  0.10566000000E+00 0.  1.
         13    1    4    4    0    0  0.49744275924E+00  0.22759362316E+01  0.24173196606E+02  0.24285426354E+02  0.10566000000E+00 0. -1.
        -13    1    4    4    0    0  0.20582769892E+01  0.90443709454E+01  0.10198115527E+03  0.10240216963E+03  0.10566000000E+00 0.  1.
         14    1    4    4    0    0  0.70685529768E+01  0.20729591354E+02  0.25077960600E+03  0.25173416769E+03  0.00000000000E+00 0. -1.
<mgrwt>
<rscale>  0 0.78635641E+02</rscale>
<asrwt>0</asrwt>
<pdfrwt beam="1">  1        2 0.76232423E-01 0.78635641E+02</pdfrwt>
<pdfrwt beam="2">  1       -1 0.47996817E-03 0.78635641E+02</pdfrwt>
<totfact> 0.31754856E+05</totfact>
</mgrwt>
</event>
<event>
 8    1  0.2561077E-020  0.8380077E+02  0.7818608E-02  0.1318599E+00
          2   -1    0    0  501    0  0.00000000000E+00  0.00000000000E+00  0.41661754136E+03  0.41661754137E+03  0.25500000000E-02 0. -1.
         -1   -1    0    0    0  501 -0.00000000000E+00 -0.00000000000E+00 -0.42140366496E+01  0.42140396635E+01  0.50400000000E-02 0.  1.
         24    2    1    2    0    0  0.00000000000E+00  0.00000000000E+00  0.41240350471E+03  0.42083158103E+03  0.83800769065E+02 0.  0.
         66    2    3    3    0    0  0.22088380594E+02  0.21867957680E+02  0.34724604242E+03  0.34864009825E+03  0.19999998338E+01 0.  0.
        -13    1    3    3    0    0 -0.22088380594E+02 -0.21867957680E+02  0.65157462288E+02  0.72191482782E+02  0.10566000000E+00 0.  1.
         13    1    4    4    0    0  0.15999437222E+01  0.23184446866E+01  0.32093524790E+02  0.32217084026E+02  0.10566000000E+00 0.  1.
        -13    1    4    4    0    0  0.99185952897E+01  0.91848449043E+01  0.14753976864E+03  0.14815780237E+03  0.10566000000E+00 0. -1.
        -14    1    4    4    0    0  0.10569841582E+02  0.10364668089E+02  0.16761274899E+03  0.16826521185E+03  0.00000000000E+00 0.  1.
<mgrwt>
<rscale>  0 0.83800769E+02</rscale>
<asrwt>0</asrwt>
<pdfrwt beam="1">  1        2 0.64094994E-01 0.83800769E+02</pdfrwt>
<pdfrwt beam="2">  1       -1 0.64831369E-03 0.83800769E+02</pdfrwt>
<totfact> 0.25378372E+05</totfact>
</mgrwt>
</event>
<event>
 8    1  0.2561077E-020  0.8075407E+02  0.7818608E-02  0.1326925E+00
         -1   -1    0    0    0  501 -0.00000000000E+00  0.00000000000E+00  0.94056355852E+02  0.94056355987E+02  0.50400000000E-02 0.  1.
          2   -1    0    0  501    0  0.00000000000E+00 -0.00000000000E+00 -0.17333278154E+02  0.17333278341E+02  0.25500000000E-02 0. -1.
         24    2    1    2    0    0  0.35527136788E-14  0.00000000000E+00  0.76723077698E+02  0.11138963433E+03  0.80754071008E+02 0.  0.
         66    2    3    3    0    0  0.16427743485E+02  0.15892532994E+02 -0.74851061612E+01  0.24134418130E+02  0.19999908125E+01 0.  0.
        -13    1    3    3    0    0 -0.16427743485E+02 -0.15892532994E+02  0.84208183860E+02  0.87255216199E+02  0.10566000000E+00 0.  1.
         13    1    4    4    0    0  0.11998484579E+02  0.10697807542E+02 -0.57132952336E+01  0.17060469656E+02  0.10566000000E+00 0. -1.
        -13    1    4    4    0    0  0.22313154027E+01  0.24822823158E+01 -0.11216592959E+01  0.35227514152E+01  0.10566000000E+00 0.  1.
         14    1    4    4    0    0  0.21979435031E+01  0.27124431353E+01 -0.65015163163E+00  0.35511970586E+01  0.00000000000E+00 0. -1.
<mgrwt>
<rscale>  0 0.80754071E+02</rscale>
<asrwt>0</asrwt>
<pdfrwt beam="1">  1        2 0.26666581E-02 0.80754071E+02</pdfrwt>
<pdfrwt beam="2">  1       -1 0.14470209E-01 0.80754071E+02</pdfrwt>
<totfact> 0.11731399E+05</totfact>
</mgrwt>
</event>
<event>
 8    1  0.2561077E-020  0.8454593E+02  0.7818608E-02  0.1316624E+00
          2   -1    0    0  501    0  0.00000000000E+00  0.00000000000E+00  0.30716215396E+03  0.30716215397E+03  0.25500000000E-02 0. -1.
         -1   -1    0    0    0  501 -0.00000000000E+00 -0.00000000000E+00 -0.58177845289E+01  0.58177867119E+01  0.50400000000E-02 0.  1.
         24    2    1    2    0    0  0.00000000000E+00  0.00000000000E+00  0.30134436943E+03  0.31297994068E+03  0.84545930013E+02 0.  0.
         66    2    3    3    0    0  0.36247048914E+02 -0.21651410624E+02  0.14506159395E+03  0.15109433535E+03  0.19999998217E+01 0.  0.
        -13    1    3    3    0    0 -0.36247048914E+02  0.21651410624E+02  0.15628277548E+03  0.16188560533E+03  0.10566000000E+00 0.  1.
         13    1    4    4    0    0  0.19245418804E+02 -0.12038218941E+02  0.77797519404E+02  0.81041779655E+02  0.10566000000E+00 0. -1.
        -13    1    4    4    0    0  0.11130978714E+02 -0.57844999030E+01  0.41850636920E+02  0.43690343337E+02  0.10566000000E+00 0.  1.
         14    1    4    4    0    0  0.58706513955E+01 -0.38286917803E+01  0.25413437624E+02  0.26362212358E+02  0.00000000000E+00 0. -1.
<mgrwt>
<rscale>  0 0.84545930E+02</rscale>
<asrwt>0</asrwt>
<pdfrwt beam="1">  1        2 0.47255727E-01 0.84545930E+02</pdfrwt>
<pdfrwt beam="2">  1       -1 0.89504374E-03 0.84545930E+02</pdfrwt>
<totfact> 0.22236790E+05</totfact>
</mgrwt>
</event>
<event>
 8    1  0.2561077E-020  0.7801682E+02  0.7818608E-02  0.1334776E+00
         -1   -1    0    0    0  501 -0.00000000000E+00  0.00000000000E+00  0.15248675408E+03  0.15248675416E+03  0.50400000000E-02 0.  1.
          2   -1    0    0  501    0  0.00000000000E+00 -0.00000000000E+00 -0.99789385383E+01  0.99789388641E+01  0.25500000000E-02 0. -1.
         24    2    1    2    0    0  0.00000000000E+00  0.35527136788E-14  0.14250781554E+03  0.16246569303E+03  0.78016818189E+02 0.  0.
         66    2    3    3    0    0  0.34053160293E+02 -0.18240569695E+02  0.82184230034E+02  0.90832724073E+02  0.19999968688E+01 0.  0.
        -13    1    3    3    0    0 -0.34053160293E+02  0.18240569695E+02  0.60323585507E+02  0.71632968954E+02  0.10566000000E+00 0.  1.
         13    1    4    4    0    0  0.13031312387E+02 -0.65128805302E+01  0.31187165271E+02  0.34422131791E+02  0.10566000000E+00 0. -1.
        -13    1    4    4    0    0  0.88727013647E+01 -0.45568104677E+01  0.22538397668E+02  0.24647107024E+02  0.10566000000E+00 0.  1.
        -14    1    4    4    0    0  0.12149146541E+02 -0.71708786971E+01  0.28458667094E+02  0.31763485258E+02  0.00000000000E+00 0.  1.
<mgrwt>
<rscale>  0 0.78016818E+02</rscale>
<asrwt>0</asrwt>
<pdfrwt beam="1">  1        2 0.15352215E-02 0.78016818E+02</pdfrwt>
<pdfrwt beam="2">  1       -1 0.23459498E-01 0.78016818E+02</pdfrwt>
<totfact> 0.11445672E+05</totfact>
</mgrwt>
</event>
<event>
 8    1  0.2561077E-020  0.8073390E+02  0.7818608E-02  0.1326982E+00
          2   -1    0    0  501    0  0.00000000000E+00  0.00000000000E+00  0.13710600557E+03  0.13710600559E+03  0.25500000000E-02 0. -1.
         -1   -1    0    0    0  501 -0.00000000000E+00 -0.00000000000E+00 -0.11884896023E+02  0.11884897091E+02  0.50400000000E-02 0.  1.
         24    2    1    2    0    0 -0.35527136788E-14  0.00000000000E+00  0.12522110955E+03  0.14899090269E+03  0.80733901223E+02 0.  0.
         66    2    3    3    0    0 -0.30444855276E+02  0.96309658807E+01  0.10814755263E+03  0.11278092856E+03  0.19999973235E+01 0.  0.
        -13    1    3    3    0    0  0.30444855276E+02 -0.96309658807E+01  0.17073556914E+02  0.36209974127E+02  0.10566000000E+00 0.  1.
         13    1    4    4    0    0 -0.98375577833E+01  0.25124171881E+01  0.32731573076E+02  0.34270349040E+02  0.10566000000E+00 0. -1.
        -13    1    4    4    0    0 -0.17828145888E+01  0.79149034906E+00  0.60314430119E+01  0.63399017084E+01  0.10566000000E+00 0.  1.
         14    1    4    4    0    0 -0.18824482904E+02  0.63270583435E+01  0.69384536545E+02  0.72170677809E+02  0.00000000000E+00 0. -1.
<mgrwt>
<rscale>  0 0.80733901E+02</rscale>
<asrwt>0</asrwt>
<pdfrwt beam="1">  1        2 0.21093231E-01 0.80733901E+02</pdfrwt>
<pdfrwt beam="2">  1       -1 0.18284457E-02 0.80733901E+02</pdfrwt>
<totfact> 0.18998718E+05</totfact>
</mgrwt>
</event>
<event>
 8    1  0.2561077E-020  0.7683528E+02  0.7818608E-02  0.1338280E+00
         -1   -1    0    0    0  501 -0.00000000000E+00  0.00000000000E+00  0.14662849507E+03  0.14662849516E+03  0.50400000000E-02 0.  1.
          2   -1    0    0  501    0  0.00000000000E+00 -0.00000000000E+00 -0.10065676762E+02  0.10065677085E+02  0.25500000000E-02 0. -1.
         24    2    1    2    0    0  0.35527136788E-14 -0.35527136788E-14  0.13656281831E+03  0.15669417225E+03  0.76835280117E+02 0.  0.
         66    2    3    3    0    0  0.25826897637E+02 -0.18345179141E+02  0.24099651056E+02  0.39854327191E+02  0.19999939013E+01 0.  0.
        -13    1    3    3    0    0 -0.25826897637E+02  0.18345179141E+02  0.11246316725E+03  0.11683984505E+03  0.10566000000E+00 0.  1.
         13    1    4    4    0    0  0.10209450804E+02 -0.71918627016E+01  0.88548353302E+01  0.15309312447E+02  0.10566000000E+00 0. -1.
        -13    1    4    4    0    0  0.98847613027E+01 -0.76788770377E+01  0.94471766493E+01  0.15682282017E+02  0.10566000000E+00 0.  1.
        -14    1    4    4    0    0  0.57326855297E+01 -0.34744394013E+01  0.57976390765E+01  0.88627327274E+01  0.00000000000E+00 0.  1.
<mgrwt>
<rscale>  0 0.76835280E+02</rscale>
<asrwt>0</asrwt>
<pdfrwt beam="1">  1        2 0.15485658E-02 0.76835280E+02</pdfrwt>
<pdfrwt beam="2">  1       -1 0.22558228E-01 0.76835280E+02</pdfrwt>
<totfact> 0.12013479E+05</totfact>
</mgrwt>
</event>
<event>
 8    1  0.2561077E-020  0.7946683E+02  0.7818608E-02  0.1330571E+00
         -1   -1    0    0    0  501 -0.00000000000E+00  0.00000000000E+00  0.63831057493E+02  0.63831057692E+02  0.50400000000E-02 0.  1.
          2   -1    0    0  501    0  0.00000000000E+00 -0.00000000000E+00 -0.24733166727E+02  0.24733166858E+02  0.25500000000E-02 0. -1.
         24    2    1    2    0    0 -0.17763568394E-14  0.35527136788E-14  0.39097890766E+02  0.88564224550E+02  0.79466828349E+02 0.  0.
         66    2    3    3    0    0 -0.14209839782E+02  0.27188538172E+02 -0.85360620988E+01  0.31906120239E+02  0.19999995011E+01 0.  0.
        -13    1    3    3    0    0  0.14209839782E+02 -0.27188538172E+02  0.47633952865E+02  0.56658104311E+02  0.10566000000E+00 0.  1.
         13    1    4    4    0    0 -0.89776481272E+01  0.18295896296E+02 -0.53055205342E+01  0.21059385066E+02  0.10566000000E+00 0.  1.
        -13    1    4    4    0    0 -0.49083438929E+01  0.83378910035E+01 -0.32410046153E+01  0.10204290329E+02  0.10566000000E+00 0. -1.
        -14    1    4    4    0    0 -0.32384776198E+00  0.55475087241E+00  0.10463050715E-01  0.64244484495E+00  0.00000000000E+00 0.  1.
<mgrwt>
<rscale>  0 0.79466828E+02</rscale>
<asrwt>0</asrwt>
<pdfrwt beam="1">  1        2 0.38051026E-02 0.79466828E+02</pdfrwt>
<pdfrwt beam="2">  1       -1 0.98201627E-02 0.79466828E+02</pdfrwt>
<totfact> 0.13200525E+05</totfact>
</mgrwt>
</event>
<event>
 8    1  0.2561077E-020  0.8047564E+02  0.7818608E-02  0.1327707E+00
          2   -1    0    0  501    0  0.00000000000E+00  0.00000000000E+00  0.75866199181E+03  0.75866199181E+03  0.25500000000E-02 0. -1.
         -1   -1    0    0    0  501 -0.00000000000E+00 -0.00000000000E+00 -0.21341255753E+01  0.21341315266E+01  0.50400000000E-02 0.  1.
         24    2    1    2    0    0  0.00000000000E+00  0.00000000000E+00  0.75652786623E+03  0.76079612334E+03  0.80475641661E+02 0.  0.
         66    2    3    3    0    0  0.13258525180E+02  0.70828950533E+01  0.73110019389E+03  0.73125744400E+03  0.20000015979E+01 0.  0.
        -13    1    3    3    0    0 -0.13258525180E+02 -0.70828950533E+01  0.25427672340E+02  0.29538679336E+02  0.10566000000E+00 0.  1.
         13    1    4    4    0    0  0.40543313673E+01  0.26198614743E+01  0.27054855657E+03  0.27059163680E+03  0.10566000000E+00 0. -1.
        -13    1    4    4    0    0  0.52956588363E+01  0.25271176262E+01  0.24809584692E+03  0.24816524888E+03  0.10566000000E+00 0.  1.
         14    1    4    4    0    0  0.39085349763E+01  0.19359159528E+01  0.21245579040E+03  0.21250055833E+03  0.00000000000E+00 0. -1.
<mgrwt>
<rscale>  0 0.80475642E+02</rscale>
<asrwt>0</asrwt>
<pdfrwt beam="1">  1        2 0.11671757E+00 0.80475642E+02</pdfrwt>
<pdfrwt beam="2">  1       -1 0.32832653E-03 0.80475642E+02</pdfrwt>
<totfact> 0.33510195E+05</totfact>
</mgrwt>
</event>
<event>
 8    1  0.2561077E-020  0.8206249E+02  0.7818608E-02  0.1323298E+00
         -1   -1    0    0    0  501 -0.00000000000E+00  0.00000000000E+00  0.11598457047E+01  0.11598566551E+01  0.50400000000E-02 0.  1.
          2   -1    0    0  501    0  0.00000000000E+00 -0.00000000000E+00 -0.14515338145E+04  0.14515338145E+04  0.25500000000E-02 0. -1.
         24    2    1    2    0    0  0.00000000000E+00  0.00000000000E+00 -0.14503739688E+04  0.14526936711E+04  0.82062493633E+02 0.  0.
         66    2    3    3    0    0 -0.50026780505E+01 -0.24315998361E+02 -0.13033903893E+04  0.13036283218E+04  0.20000000469E+01 0.  0.
        -13    1    3    3    0    0  0.50026780505E+01  0.24315998361E+02 -0.14698357948E+03  0.14906534931E+03  0.10566000000E+00 0.  1.
         13    1    4    4    0    0 -0.38990215469E+01 -0.16184499265E+02 -0.90809260003E+03  0.90824518814E+03  0.10566000000E+00 0. -1.
        -13    1    4    4    0    0 -0.84201688215E+00 -0.61655922799E+01 -0.30689848800E+03  0.30696158818E+03  0.10566000000E+00 0.  1.
         14    1    4    4    0    0 -0.26163962143E+00 -0.19659068161E+01 -0.88399301259E+02  0.88421545497E+02  0.00000000000E+00 0. -1.
<mgrwt>
<rscale>  0 0.82062494E+02</rscale>
<asrwt>0</asrwt>
<pdfrwt beam="1">  1        2 0.22331144E+00 0.82062494E+02</pdfrwt>
<pdfrwt beam="2">  1       -1 0.17843980E-03 0.82062494E+02</pdfrwt>
<totfact> 0.31483609E+05</totfact>
</mgrwt>
</event>
<event>
 8    1  0.2561077E-020  0.8187250E+02  0.7818608E-02  0.1323820E+00
          2   -1    0    0  501    0  0.00000000000E+00  0.00000000000E+00  0.28601334212E+02  0.28601334326E+02  0.25500000000E-02 0. -1.
         -1   -1    0    0    0  501 -0.00000000000E+00 -0.00000000000E+00 -0.58590848200E+02  0.58590848417E+02  0.50400000000E-02 0.  1.
         24    2    1    2    0    0  0.71054273576E-14  0.88817841970E-15 -0.29989513988E+02  0.87192182743E+02  0.81872497105E+02 0.  0.
         66    2    3    3    0    0  0.40228041727E+02  0.34866928342E+01 -0.79943070304E+01  0.41211179478E+02  0.20000002552E+01 0.  0.
        -13    1    3    3    0    0 -0.40228041727E+02 -0.34866928342E+01 -0.21995206958E+02  0.45981003265E+02  0.10566000000E+00 0.  1.
         13    1    4    4    0    0  0.24569928680E+02  0.25108952454E+01 -0.46982220772E+01  0.25141011217E+02  0.10566000000E+00 0. -1.
        -13    1    4    4    0    0  0.31868444260E+00  0.13681362256E+00 -0.12849753344E+00  0.38464710187E+00  0.10566000000E+00 0.  1.
        -14    1    4    4    0    0  0.15339428604E+02  0.83898396628E+00 -0.31675874197E+01  0.15685521160E+02  0.00000000000E+00 0.  1.
<mgrwt>
<rscale>  0 0.81872497E+02</rscale>
<asrwt>0</asrwt>
<pdfrwt beam="1">  1        2 0.44002053E-02 0.81872497E+02</pdfrwt>
<pdfrwt beam="2">  1       -1 0.90139767E-02 0.81872497E+02</pdfrwt>
<totfact> 0.12488511E+05</totfact>
</mgrwt>
</event>
<event>
 8    1  0.2561077E-020  0.7996382E+02  0.7818608E-02  0.1329154E+00
          2   -1    0    0  501    0  0.00000000000E+00  0.00000000000E+00  0.84999602568E+01  0.84999606393E+01  0.25500000000E-02 0. -1.
         -1   -1    0    0    0  501 -0.00000000000E+00 -0.00000000000E+00 -0.18806592515E+03  0.18806592522E+03  0.50400000000E-02 0.  1.
         24    2    1    2    0    0  0.00000000000E+00 -0.44408920985E-15 -0.17956596490E+03  0.19656588586E+03  0.79963815159E+02 0.  0.
         66    2    3    3    0    0  0.39073697377E+02 -0.31108760480E+01 -0.70779476598E+02  0.80933093899E+02  0.20000010075E+01 0.  0.
        -13    1    3    3    0    0 -0.39073697377E+02  0.31108760480E+01 -0.10878648830E+03  0.11563279196E+03  0.10566000000E+00 0.  1.
         13    1    4    4    0    0  0.30002626882E+02 -0.17999615733E+01 -0.54257042640E+02  0.62026085815E+02  0.10566000000E+00 0. -1.
        -13    1    4    4    0    0  0.64941832026E+01 -0.77812332109E+00 -0.11223732916E+02  0.12990890500E+02  0.10566000000E+00 0.  1.
         14    1    4    4    0    0  0.25768872921E+01 -0.53279115368E+00 -0.52987010418E+01  0.59161175834E+01  0.00000000000E+00 0. -1.
<mgrwt>
<rscale>  0 0.79963815E+02</rscale>
<asrwt>0</asrwt>
<pdfrwt beam="1">  1        2 0.13076864E-02 0.79963815E+02</pdfrwt>
<pdfrwt beam="2">  1       -1 0.28933216E-01 0.79963815E+02</pdfrwt>
<totfact> 0.10155574E+05</totfact>
</mgrwt>
</event>
<event>
 8    1  0.2561077E-020  0.7824726E+02  0.7818608E-02  0.1334100E+00
         -1   -1    0    0    0  501 -0.00000000000E+00  0.00000000000E+00  0.51863605996E+01  0.51863630484E+01  0.50400000000E-02 0.  1.
          2   -1    0    0  501    0  0.00000000000E+00 -0.00000000000E+00 -0.29513143905E+03  0.29513143906E+03  0.25500000000E-02 0. -1.
         24    2    1    2    0    0 -0.35527136788E-14  0.00000000000E+00 -0.28994507845E+03  0.30031780211E+03  0.78247260312E+02 0.  0.
         66    2    3    3    0    0 -0.25744059168E+02  0.21915461000E+02 -0.22043477988E+03  0.22302138056E+03  0.19999980305E+01 0.  0.
        -13    1    3    3    0    0  0.25744059168E+02 -0.21915461000E+02 -0.69510298572E+02  0.77296421553E+02  0.10566000000E+00 0.  1.
         13    1    4    4    0    0 -0.17843085737E+02  0.14571632115E+02 -0.15300836824E+03  0.15473293149E+03  0.10566000000E+00 0. -1.
        -13    1    4    4    0    0 -0.63141584849E+01  0.55307308971E+01 -0.50993185049E+02  0.51679528511E+02  0.10566000000E+00 0.  1.
         14    1    4    4    0    0 -0.15868149454E+01  0.18130979881E+01 -0.16433226589E+02  0.16608920558E+02  0.00000000000E+00 0. -1.
<mgrwt>
<rscale>  0 0.78247260E+02</rscale>
<asrwt>0</asrwt>
<pdfrwt beam="1">  1        2 0.45404824E-01 0.78247260E+02</pdfrwt>
<pdfrwt beam="2">  1       -1 0.79790205E-03 0.78247260E+02</pdfrwt>
<totfact> 0.26858066E+05</totfact>
</mgrwt>
</event>
<event>
 8    1  0.2561077E-020  0.8101077E+02  0.7818608E-02  0.1326207E+00
          2   -1    0    0  501    0  0.00000000000E+00  0.00000000000E+00  0.33092234277E+03  0.33092234278E+03  0.25500000000E-02 0. -1.
         -1   -1    0    0    0  501 -0.00000000000E+00 -0.00000000000E+00 -0.49579174265E+01  0.49579199882E+01  0.50400000000E-02 0.  1.
         24    2    1    2    0    0  0.17763568394E-14  0.00000000000E+00  0.32596442534E+03  0.33588026277E+03  0.81010766738E+02 0.  0.
         66    2    3    3    0    0  0.10429756766E+02  0.32931202712E+02  0.25058669597E+03  0.25296429815E+03  0.20000013303E+01 0.  0.
        -13    1    3    3    0    0 -0.10429756766E+02 -0.32931202712E+02  0.75377729373E+02  0.82915964613E+02  0.10566000000E+00 0.  1.
         13    1    4    4    0    0  0.44896257411E+01  0.11403072550E+02  0.86374993345E+02  0.87240113722E+02  0.10566000000E+00 0.  1.
        -13    1    4    4    0    0  0.36990214564E+01  0.12710357541E+02  0.98561187573E+02  0.99446240796E+02  0.10566000000E+00 0. -1.
         14    1    4    4    0    0  0.22411095687E+01  0.88177726209E+01  0.65650515050E+02  0.66277943635E+02  0.00000000000E+00 0. -1.
<mgrwt>
<rscale>  0 0.81010767E+02</rscale>
<asrwt>0</asrwt>
<pdfrwt beam="1">  1        2 0.50911131E-01 0.81010767E+02</pdfrwt>
<pdfrwt beam="2">  1       -1 0.76275670E-03 0.81010767E+02</pdfrwt>
<totfact> 0.25558883E+05</totfact>
</mgrwt>
</event>
<event>
 8    1  0.2561077E-020  0.7873943E+02  0.7818608E-02  0.1332667E+00
         -1   -1    0    0    0  501 -0.00000000000E+00  0.00000000000E+00  0.42576011043E+01  0.42576040874E+01  0.50400000000E-02 0.  1.
          2   -1    0    0  501    0  0.00000000000E+00 -0.00000000000E+00 -0.36404868908E+03  0.36404868909E+03  0.25500000000E-02 0. -1.
         24    2    1    2    0    0  0.00000000000E+00  0.17763568394E-14 -0.35979108798E+03  0.36830629318E+03  0.78739434889E+02 0.  0.
         66    2    3    3    0    0 -0.25711047620E+02  0.88622680071E+01 -0.31300234833E+03  0.31418794983E+03  0.20000000327E+01 0.  0.
        -13    1    3    3    0    0  0.25711047620E+02 -0.88622680071E+01 -0.46788739650E+02  0.54118343341E+02  0.10566000000E+00 0.  1.
         13    1    4    4    0    0 -0.12550343189E+02  0.46830236530E+01 -0.16198196566E+03  0.16253495066E+03  0.10566000000E+00 0. -1.
        -13    1    4    4    0    0 -0.47069153988E+01  0.16191132859E+01 -0.50070242717E+02  0.50317163574E+02  0.10566000000E+00 0.  1.
         14    1    4    4    0    0 -0.84537890324E+01  0.25601310682E+01 -0.10095013995E+03  0.10133583560E+03  0.00000000000E+00 0. -1.
<mgrwt>
<rscale>  0 0.78739435E+02</rscale>
<asrwt>0</asrwt>
<pdfrwt beam="1">  1        2 0.56007466E-01 0.78739435E+02</pdfrwt>
<pdfrwt beam="2">  1       -1 0.65501607E-03 0.78739435E+02</pdfrwt>
<totfact> 0.28487904E+05</totfact>
</mgrwt>
</event>
<event>
 8    1  0.2561077E-020  0.8159096E+02  0.7818608E-02  0.1324596E+00
          2   -1    0    0  501    0  0.00000000000E+00  0.00000000000E+00  0.48523322432E+03  0.48523322433E+03  0.25500000000E-02 0. -1.
         -1   -1    0    0    0  501 -0.00000000000E+00 -0.00000000000E+00 -0.34298357240E+01  0.34298394270E+01  0.50400000000E-02 0.  1.
         24    2    1    2    0    0  0.00000000000E+00  0.00000000000E+00  0.48180338860E+03  0.48866306376E+03  0.81590959147E+02 0.  0.
         66    2    3    3    0    0 -0.21897996885E+02 -0.26473898374E+02  0.37251868344E+03  0.37410501075E+03  0.19999986951E+01 0.  0.
        -13    1    3    3    0    0  0.21897996885E+02  0.26473898374E+02  0.10928470516E+03  0.11455805301E+03  0.10566000000E+00 0.  1.
         13    1    4    4    0    0 -0.53769841892E+01 -0.71343764936E+01  0.95841028770E+02  0.96256559500E+02  0.10566000000E+00 0. -1.
        -13    1    4    4    0    0 -0.12719892065E+02 -0.15721488627E+02  0.22265841764E+03  0.22357491578E+03  0.10566000000E+00 0.  1.
        -14    1    4    4    0    0 -0.38011206308E+01 -0.36180332538E+01  0.54019237028E+02  0.54273535464E+02  0.00000000000E+00 0.  1.
<mgrwt>
<rscale>  0 0.81590959E+02</rscale>
<asrwt>0</asrwt>
<pdfrwt beam="1">  1        2 0.74651281E-01 0.81590959E+02</pdfrwt>
<pdfrwt beam="2">  1       -1 0.52766721E-03 0.81590959E+02</pdfrwt>
<totfact> 0.28648813E+05</totfact>
</mgrwt>
</event>
<event>
 8    1  0.2561077E-020  0.7932342E+02  0.7818608E-02  0.1330983E+00
          2   -1    0    0  501    0  0.00000000000E+00  0.00000000000E+00  0.42636404162E+03  0.42636404162E+03  0.25500000000E-02 0. -1.
         -1   -1    0    0    0  501 -0.00000000000E+00 -0.00000000000E+00 -0.36894537520E+01  0.36894571944E+01  0.50400000000E-02 0.  1.
         24    2    1    2    0    0  0.00000000000E+00  0.00000000000E+00  0.42267458786E+03  0.43005349882E+03  0.79323417851E+02 0.  0.
         66    2    3    3    0    0 -0.38806092896E+02  0.63767456125E+01  0.23829025466E+03  0.24152188549E+03  0.19999930801E+01 0.  0.
        -13    1    3    3    0    0  0.38806092896E+02 -0.63767456125E+01  0.18438433320E+03  0.18853161333E+03  0.10566000000E+00 0.  1.
         13    1    4    4    0    0 -0.31896444333E+02  0.55717860885E+01  0.19627206712E+03  0.19892501968E+03  0.10566000000E+00 0. -1.
        -13    1    4    4    0    0 -0.68940213606E+01  0.85256830350E+00  0.41704692920E+02  0.42279391893E+02  0.10566000000E+00 0. -1.
         14    1    4    4    0    0 -0.15627202927E-01 -0.47608779470E-01  0.31349462355E+00  0.31747391128E+00  0.00000000000E+00 0. -1.
<mgrwt>
<rscale>  0 0.79323418E+02</rscale>
<asrwt>0</asrwt>
<pdfrwt beam="1">  1        2 0.65594416E-01 0.79323418E+02</pdfrwt>
<pdfrwt beam="2">  1       -1 0.56760898E-03 0.79323418E+02</pdfrwt>
<totfact> 0.29532207E+05</totfact>
</mgrwt>
</event>
<event>
 8    1  0.2561077E-020  0.8412505E+02  0.7818608E-02  0.1317737E+00
         -1   -1    0    0    0  501 -0.00000000000E+00  0.00000000000E+00  0.69777910309E+01  0.69777928510E+01  0.50400000000E-02 0.  1.
          2   -1    0    0  501    0  0.00000000000E+00 -0.00000000000E+00 -0.25355529466E+03  0.25355529467E+03  0.25500000000E-02 0. -1.
         24    2    1    2    0    0  0.00000000000E+00  0.00000000000E+00 -0.24657750363E+03  0.26053308752E+03  0.84125052147E+02 0.  0.
         66    2    3    3    0    0  0.16374731301E+02  0.14885829762E+01 -0.24317965067E+03  0.24374308237E+03  0.19999991984E+01 0.  0.
        -13    1    3    3    0    0 -0.16374731301E+02 -0.14885829762E+01 -0.33978529600E+01  0.16790005159E+02  0.10566000000E+00 0.  1.
         13    1    4    4    0    0  0.70039757467E+01  0.12210148347E+01 -0.10799012014E+03  0.10822395190E+03  0.10566000000E+00 0. -1.
        -13    1    4    4    0    0  0.13210044520E+01  0.34690915165E+00 -0.16376336498E+02  0.16433531570E+02  0.10566000000E+00 0.  1.
         14    1    4    4    0    0  0.80497511024E+01 -0.79341010144E-01 -0.11881319403E+03  0.11908559889E+03  0.00000000000E+00 0. -1.
<mgrwt>
<rscale>  0 0.84125052E+02</rscale>
<asrwt>0</asrwt>
<pdfrwt beam="1">  1        2 0.39008500E-01 0.84125052E+02</pdfrwt>
<pdfrwt beam="2">  1       -1 0.10735066E-02 0.84125052E+02</pdfrwt>
<totfact> 0.21012738E+05</totfact>
</mgrwt>
</event>
<event>
 8    1  0.2561077E-020  0.7980352E+02  0.7818608E-02  0.1329610E+00
         -1   -1    0    0    0  501 -0.00000000000E+00  0.00000000000E+00  0.20166598304E+03  0.20166598310E+03  0.50400000000E-02 0.  1.
          2   -1    0    0  501    0  0.00000000000E+00 -0.00000000000E+00 -0.78949876106E+01  0.78949880224E+01  0.25500000000E-02 0. -1.
         24    2    1    2    0    0 -0.71054273576E-14  0.00000000000E+00  0.19377099543E+03  0.20956097112E+03  0.79803520908E+02 0.  0.
         66    2    3    3    0    0  0.29012428749E+02  0.22996358487E+02  0.58033009440E+02  0.68864967166E+02  0.19999981335E+01 0.  0.
        -13    1    3    3    0    0 -0.29012428749E+02 -0.22996358487E+02  0.13573798599E+03  0.14069600396E+03  0.10566000000E+00 0.  1.
         13    1    4    4    0    0  0.10113112338E+02  0.70242403649E+01  0.19542092765E+02  0.23098042071E+02  0.10566000000E+00 0. -1.
        -13    1    4    4    0    0  0.23311364034E+01  0.23346287238E+01  0.52011897117E+01  0.61602131994E+01  0.10566000000E+00 0.  1.
        -14    1    4    4    0    0  0.16568180008E+02  0.13637489398E+02  0.33289726964E+02  0.39606711896E+02  0.00000000000E+00 0.  1.
<mgrwt>
<rscale>  0 0.79803521E+02</rscale>
<asrwt>0</asrwt>
<pdfrwt beam="1">  1        2 0.12146134E-02 0.79803521E+02</pdfrwt>
<pdfrwt beam="2">  1       -1 0.31025538E-01 0.79803521E+02</pdfrwt>
<totfact> 0.99977385E+04</totfact>
</mgrwt>
</event>
<event>
 8    1  0.2561077E-020  0.7990918E+02  0.7818608E-02  0.1329309E+00
          2   -1    0    0  501    0  0.00000000000E+00  0.00000000000E+00  0.82465037376E+02  0.82465037416E+02  0.25500000000E-02 0. -1.
         -1   -1    0    0    0  501 -0.00000000000E+00 -0.00000000000E+00 -0.19358133343E+02  0.19358133999E+02  0.50400000000E-02 0.  1.
         24    2    1    2    0    0  0.00000000000E+00  0.00000000000E+00  0.63106904034E+02  0.10182317141E+03  0.79909179073E+02 0.  0.
         66    2    3    3    0    0  0.24681829606E+02  0.18515719483E+02  0.63867942457E+02  0.70958710878E+02  0.19999987733E+01 0.  0.
        -13    1    3    3    0    0 -0.24681829606E+02 -0.18515719483E+02 -0.76103842354E+00  0.30864460536E+02  0.10566000000E+00 0.  1.
         13    1    4    4    0    0  0.85267559601E+00  0.85750536571E+00  0.29101487230E+01  0.31531731240E+01  0.10566000000E+00 0. -1.
        -13    1    4    4    0    0  0.52466720992E+01  0.40197114344E+01  0.12284709058E+02  0.13950300671E+02  0.10566000000E+00 0.  1.
         14    1    4    4    0    0  0.18582481911E+02  0.13638502682E+02  0.48673084676E+02  0.53855237083E+02  0.00000000000E+00 0. -1.
<mgrwt>
<rscale>  0 0.79909179E+02</rscale>
<asrwt>0</asrwt>
<pdfrwt beam="1">  1        2 0.12686928E-01 0.79909179E+02</pdfrwt>
<pdfrwt beam="2">  1       -1 0.29781745E-02 0.79909179E+02</pdfrwt>
<totfact> 0.16878637E+05</totfact>
</mgrwt>
</event>
<event>
 8    1  0.2561077E-020  0.7797377E+02  0.7818608E-02  0.1334902E+00
          2   -1    0    0  501    0  0.00000000000E+00  0.00000000000E+00  0.66097189374E+02  0.66097189423E+02  0.25500000000E-02 0. -1.
         -1   -1    0    0    0  501 -0.00000000000E+00 -0.00000000000E+00 -0.22996093550E+02  0.22996094102E+02  0.50400000000E-02 0.  1.
         24    2    1    2    0    0  0.00000000000E+00  0.00000000000E+00  0.43101095824E+02  0.89093283525E+02  0.77973769358E+02 0.  0.
         66    2    3    3    0    0  0.32673778163E+02 -0.11754927335E+02  0.41754183798E+02  0.54343039898E+02  0.20000061551E+01 0.  0.
        -13    1    3    3    0    0 -0.32673778163E+02  0.11754927335E+02  0.13469120259E+01  0.34750243627E+02  0.10566000000E+00 0.  1.
         13    1    4    4    0    0  0.85904957447E+01 -0.33675780753E+01  0.11493840197E+02  0.14739631127E+02  0.10566000000E+00 0. -1.
        -13    1    4    4    0    0  0.17624235272E+02 -0.66401198467E+01  0.23064841091E+02  0.29777557305E+02  0.10566000000E+00 0.  1.
        -14    1    4    4    0    0  0.64590471461E+01 -0.17472294132E+01  0.71955025102E+01  0.98258514660E+01  0.00000000000E+00 0.  1.
<mgrwt>
<rscale>  0 0.77973769E+02</rscale>
<asrwt>0</asrwt>
<pdfrwt beam="1">  1        2 0.10168798E-01 0.77973769E+02</pdfrwt>
<pdfrwt beam="2">  1       -1 0.35378606E-02 0.77973769E+02</pdfrwt>
<totfact> 0.17069529E+05</totfact>
</mgrwt>
</event>
<event>
 8    1  0.2561077E-020  0.7840076E+02  0.7818608E-02  0.1333652E+00
         -1   -1    0    0    0  501 -0.00000000000E+00  0.00000000000E+00  0.14520190456E+01  0.14520277926E+01  0.50400000000E-02 0.  1.
          2   -1    0    0  501    0  0.00000000000E+00 -0.00000000000E+00 -0.10582954217E+04  0.10582954217E+04  0.25500000000E-02 0. -1.
         24    2    1    2    0    0  0.00000000000E+00  0.00000000000E+00 -0.10568434026E+04  0.10597474495E+04  0.78400758786E+02 0.  0.
         66    2    3    3    0    0 -0.95400978319E+01 -0.12775824390E+02 -0.10124466721E+04  0.10125741944E+04  0.20000001590E+01 0.  0.
        -13    1    3    3    0    0  0.95400978319E+01  0.12775824390E+02 -0.44396730474E+02  0.47173255096E+02  0.10566000000E+00 0.  1.
         13    1    4    4    0    0 -0.24719381954E+01 -0.33108703650E+01 -0.24806467756E+03  0.24809910874E+03  0.10566000000E+00 0. -1.
        -13    1    4    4    0    0 -0.69538490054E+00 -0.33431881858E+00 -0.60853657354E+02  0.60858640362E+02  0.10566000000E+00 0.  1.
        -14    1    4    4    0    0 -0.63727747359E+01 -0.91306352064E+01 -0.70352833723E+03  0.70361644526E+03  0.00000000000E+00 0.  1.
<mgrwt>
<rscale>  0 0.78400759E+02</rscale>
<asrwt>0</asrwt>
<pdfrwt beam="1">  1        2 0.16281406E+00 0.78400759E+02</pdfrwt>
<pdfrwt beam="2">  1       -1 0.22338906E-03 0.78400759E+02</pdfrwt>
<totfact> 0.37169871E+05</totfact>
</mgrwt>
</event>
<event>
 8    1  0.2561077E-020  0.8236860E+02  0.7818608E-02  0.1322461E+00
          2   -1    0    0  501    0  0.00000000000E+00  0.00000000000E+00  0.70513815331E+02  0.70513815377E+02  0.25500000000E-02 0. -1.
         -1   -1    0    0    0  501 -0.00000000000E+00 -0.00000000000E+00 -0.24054103440E+02  0.24054103968E+02  0.50400000000E-02 0.  1.
         24    2    1    2    0    0  0.00000000000E+00  0.00000000000E+00  0.46459711891E+02  0.94567919345E+02  0.82368601666E+02 0.  0.
         66    2    3    3    0    0 -0.39519821273E+02  0.10769548699E+02  0.27884787991E+02  0.49591943374E+02  0.19999984210E+01 0.  0.
        -13    1    3    3    0    0  0.39519821273E+02 -0.10769548699E+02  0.18574923900E+02  0.44975975971E+02  0.10566000000E+00 0.  1.
         13    1    4    4    0    0 -0.17212908376E+02  0.55428003781E+01  0.12592716389E+02  0.22036209312E+02  0.10566000000E+00 0. -1.
        -13    1    4    4    0    0 -0.45368079694E+01  0.95236053961E+00  0.34137600463E+01  0.57579978150E+01  0.10566000000E+00 0.  1.
         14    1    4    4    0    0 -0.17770104928E+02  0.42743877816E+01  0.11878311556E+02  0.21797736247E+02  0.00000000000E+00 0. -1.
<mgrwt>
<rscale>  0 0.82368602E+02</rscale>
<asrwt>0</asrwt>
<pdfrwt beam="1">  1        2 0.10848279E-01 0.82368602E+02</pdfrwt>
<pdfrwt beam="2">  1       -1 0.37006315E-02 0.82368602E+02</pdfrwt>
<totfact> 0.14945051E+05</totfact>
</mgrwt>
</event>
<event>
 8    1  0.2561077E-020  0.7989139E+02  0.7818608E-02  0.1329360E+00
          2   -1    0    0  501    0  0.00000000000E+00  0.00000000000E+00  0.12719442300E+03  0.12719442302E+03  0.25500000000E-02 0. -1.
         -1   -1    0    0    0  501 -0.00000000000E+00 -0.00000000000E+00 -0.12545035622E+02  0.12545036634E+02  0.50400000000E-02 0.  1.
         24    2    1    2    0    0  0.00000000000E+00  0.00000000000E+00  0.11464938737E+03  0.13973945966E+03  0.79891392276E+02 0.  0.
         66    2    3    3    0    0 -0.92752096836E+01  0.10011005619E+02  0.12297934396E+03  0.12375042939E+03  0.19999961256E+01 0.  0.
        -13    1    3    3    0    0  0.92752096836E+01 -0.10011005619E+02 -0.83299565858E+01  0.15989030269E+02  0.10566000000E+00 0.  1.
         13    1    4    4    0    0 -0.48226801868E+01  0.41753384176E+01  0.56653174793E+02  0.57011271458E+02  0.10566000000E+00 0. -1.
        -13    1    4    4    0    0 -0.27170530750E+01  0.37869976448E+01  0.46214702443E+02  0.46449258493E+02  0.10566000000E+00 0.  1.
        -14    1    4    4    0    0 -0.17354764218E+01  0.20486695571E+01  0.20111466724E+02  0.20289899437E+02  0.00000000000E+00 0.  1.
<mgrwt>
<rscale>  0 0.79891392E+02</rscale>
<asrwt>0</asrwt>
<pdfrwt beam="1">  1        2 0.19568373E-01 0.79891392E+02</pdfrwt>
<pdfrwt beam="2">  1       -1 0.19300056E-02 0.79891392E+02</pdfrwt>
<totfact> 0.19087667E+05</totfact>
</mgrwt>
</event>
<event>
 8    1  0.2561077E-020  0.8048107E+02  0.7818608E-02  0.1327692E+00
         -1   -1    0    0    0  501 -0.00000000000E+00  0.00000000000E+00  0.12640845127E+01  0.12640945601E+01  0.50400000000E-02 0.  1.
          2   -1    0    0  501    0  0.00000000000E+00 -0.00000000000E+00 -0.12810016334E+04  0.12810016334E+04  0.25500000000E-02 0. -1.
         24    2    1    2    0    0  0.00000000000E+00  0.00000000000E+00 -0.12797375489E+04  0.12822657279E+04  0.80481072778E+02 0.  0.
         66    2    3    3    0    0 -0.11446223262E+01  0.21005292381E+02 -0.11863468445E+04  0.11865350260E+04  0.19999998577E+01 0.  0.
        -13    1    3    3    0    0  0.11446223262E+01 -0.21005292381E+02 -0.93390704357E+02  0.95730701933E+02  0.10566000000E+00 0.  1.
         13    1    4    4    0    0  0.60142947395E-01  0.52798288031E+01 -0.29602283505E+03  0.29606994147E+03  0.10566000000E+00 0. -1.
        -13    1    4    4    0    0 -0.28899834180E+00  0.12075943839E+02 -0.66694735373E+03  0.66705674103E+03  0.10566000000E+00 0.  1.
        -14    1    4    4    0    0 -0.91576693177E+00  0.36495197396E+01 -0.22337665573E+03  0.22340834351E+03  0.00000000000E+00 0.  1.
<mgrwt>
<rscale>  0 0.80481073E+02</rscale>
<asrwt>0</asrwt>
<pdfrwt beam="1">  1        2 0.19707614E+00 0.80481073E+02</pdfrwt>
<pdfrwt beam="2">  1       -1 0.19447634E-03 0.80481073E+02</pdfrwt>
<totfact> 0.34175325E+05</totfact>
</mgrwt>
</event>
<event>
 8    1  0.2561077E-020  0.8125934E+02  0.7818608E-02  0.1325515E+00
         -1   -1    0    0    0  501 -0.00000000000E+00  0.00000000000E+00  0.16393199731E+02  0.16393200505E+02  0.50400000000E-02 0.  1.
          2   -1    0    0  501    0  0.00000000000E+00 -0.00000000000E+00 -0.10069847358E+03  0.10069847361E+03  0.25500000000E-02 0. -1.
         24    2    1    2    0    0 -0.44408920985E-15  0.00000000000E+00 -0.84305273848E+02  0.11709167412E+03  0.81259343763E+02 0.  0.
         66    2    3    3    0    0 -0.37349845773E+01 -0.38459293782E+02 -0.60158280536E+02  0.71526821016E+02  0.20000048910E+01 0.  0.
        -13    1    3    3    0    0  0.37349845773E+01  0.38459293782E+02 -0.24146993311E+02  0.45564853100E+02  0.10566000000E+00 0.  1.
         13    1    4    4    0    0 -0.27871014016E+01 -0.22299201527E+02 -0.36045250215E+02  0.42476976706E+02  0.10566000000E+00 0. -1.
        -13    1    4    4    0    0 -0.35585486968E+00 -0.39410025809E+01 -0.54946587059E+01  0.67720434405E+01  0.10566000000E+00 0.  1.
        -14    1    4    4    0    0 -0.59202830608E+00 -0.12219089674E+02 -0.18618371615E+02  0.22277800869E+02  0.00000000000E+00 0.  1.
<mgrwt>
<rscale>  0 0.81259344E+02</rscale>
<asrwt>0</asrwt>
<pdfrwt beam="1">  1        2 0.15492072E-01 0.81259344E+02</pdfrwt>
<pdfrwt beam="2">  1       -1 0.25220309E-02 0.81259344E+02</pdfrwt>
<totfact> 0.17032138E+05</totfact>
</mgrwt>
</event>
<event>
 8    1  0.2561077E-020  0.7975593E+02  0.7818608E-02  0.1329746E+00
         -1   -1    0    0    0  501 -0.00000000000E+00  0.00000000000E+00  0.69398393196E+02  0.69398393379E+02  0.50400000000E-02 0.  1.
          2   -1    0    0  501    0  0.00000000000E+00 -0.00000000000E+00 -0.22914824525E+02  0.22914824667E+02  0.25500000000E-02 0. -1.
         24    2    1    2    0    0 -0.88817841970E-15  0.35527136788E-14  0.46483568671E+02  0.92313218046E+02  0.79755928116E+02 0.  0.
         66    2    3    3    0    0 -0.74816210898E+01  0.25143274095E+02 -0.11468736533E+02  0.28700014001E+02  0.19999999248E+01 0.  0.
        -13    1    3    3    0    0  0.74816210898E+01 -0.25143274095E+02  0.57952305204E+02  0.63613204044E+02  0.10566000000E+00 0.  1.
         13    1    4    4    0    0 -0.53116451292E+00  0.11544412085E+01 -0.72292347947E+00  0.14658283107E+01  0.10566000000E+00 0. -1.
        -13    1    4    4    0    0 -0.42651336454E+01  0.12030671228E+02 -0.57198553843E+01  0.13987720502E+02  0.10566000000E+00 0.  1.
         14    1    4    4    0    0 -0.26853229314E+01  0.11958161658E+02 -0.50259576692E+01  0.13246465188E+02  0.00000000000E+00 0. -1.
<mgrwt>
<rscale>  0 0.79755928E+02</rscale>
<asrwt>0</asrwt>
<pdfrwt beam="1">  1        2 0.35253577E-02 0.79755928E+02</pdfrwt>
<pdfrwt beam="2">  1       -1 0.10676676E-01 0.79755928E+02</pdfrwt>
<totfact> 0.12870036E+05</totfact>
</mgrwt>
</event>
<event>
 8    1  0.2561077E-020  0.8334609E+02  0.7818608E-02  0.1319815E+00
          2   -1    0    0  501    0  0.00000000000E+00  0.00000000000E+00  0.44201540050E+03  0.44201540050E+03  0.25500000000E-02 0. -1.
         -1   -1    0    0    0  501 -0.00000000000E+00 -0.00000000000E+00 -0.39289173747E+01  0.39289206073E+01  0.50400000000E-02 0.  1.
         24    2    1    2    0    0 -0.44408920985E-15 -0.71054273576E-14  0.43808648312E+03  0.44594432111E+03  0.83346090714E+02 0.  0.
         66    2    3    3    0    0 -0.22101784611E+01 -0.41445627062E+02  0.23771362565E+03  0.24131803231E+03  0.20000022119E+01 0.  0.
        -13    1    3    3    0    0  0.22101784611E+01  0.41445627062E+02  0.20037285747E+03  0.20462628880E+03  0.10566000000E+00 0.  1.
         13    1    4    4    0    0 -0.18929951082E+01 -0.22714600303E+02  0.13008587274E+03  0.13206771728E+03  0.10566000000E+00 0. -1.
        -13    1    4    4    0    0 -0.15027383021E+00 -0.14035773358E+01  0.70396495066E+01  0.71805599206E+01  0.10566000000E+00 0.  1.
         14    1    4    4    0    0 -0.16690952270E+00 -0.17327449424E+02  0.10058810340E+03  0.10206975511E+03  0.00000000000E+00 0. -1.
<mgrwt>
<rscale>  0 0.83346091E+02</rscale>
<asrwt>0</asrwt>
<pdfrwt beam="1">  1        2 0.68002325E-01 0.83346091E+02</pdfrwt>
<pdfrwt beam="2">  1       -1 0.60444947E-03 0.83346091E+02</pdfrwt>
<totfact> 0.26270802E+05</totfact>
</mgrwt>
</event>
<event>
 8    1  0.2561077E-020  0.7938879E+02  0.7818608E-02  0.1330795E+00
         -1   -1    0    0    0  501 -0.00000000000E+00  0.00000000000E+00  0.21765467825E+02  0.21765468408E+02  0.50400000000E-02 0.  1.
          2   -1    0    0  501    0  0.00000000000E+00 -0.00000000000E+00 -0.72391960550E+02  0.72391960594E+02  0.25500000000E-02 0. -1.
         24    2    1    2    0    0 -0.44408920985E-15  0.35527136788E-14 -0.50626492725E+02  0.94157429002E+02  0.79388788067E+02 0.  0.
         66    2    3    3    0    0 -0.20674887385E+01  0.30636296744E+02 -0.55116854414E+02  0.63124676949E+02  0.20000028746E+01 0.  0.
        -13    1    3    3    0    0  0.20674887385E+01 -0.30636296744E+02  0.44903616890E+01  0.31032752054E+02  0.10566000000E+00 0.  1.
         13    1    4    4    0    0 -0.32867069536E+00  0.68959373194E+01 -0.12905702681E+02  0.14636608270E+02  0.10566000000E+00 0. -1.
        -13    1    4    4    0    0 -0.55714564851E-01  0.12209931421E+00 -0.44973290806E+00  0.48107803884E+00  0.10566000000E+00 0. -1.
        -14    1    4    4    0    0 -0.16831034783E+01  0.23618260111E+02 -0.41761418825E+02  0.48006990640E+02  0.00000000000E+00 0.  1.
<mgrwt>
<rscale>  0 0.79388788E+02</rscale>
<asrwt>0</asrwt>
<pdfrwt beam="1">  1        2 0.11137225E-01 0.79388788E+02</pdfrwt>
<pdfrwt beam="2">  1       -1 0.33485336E-02 0.79388788E+02</pdfrwt>
<totfact> 0.16621370E+05</totfact>
</mgrwt>
</event>
<event>
 8    1  0.2561077E-020  0.7618646E+02  0.7818608E-02  0.1340236E+00
         -1   -1    0    0    0  501 -0.00000000000E+00  0.00000000000E+00  0.14636680372E+02  0.14636681240E+02  0.50400000000E-02 0.  1.
          2   -1    0    0  501    0  0.00000000000E+00 -0.00000000000E+00 -0.99140919560E+02  0.99140919593E+02  0.25500000000E-02 0. -1.
         24    2    1    2    0    0  0.00000000000E+00  0.00000000000E+00 -0.84504239188E+02  0.11377760083E+03  0.76186455559E+02 0.  0.
         66    2    3    3    0    0  0.44203682229E+01 -0.12252099012E+02 -0.95699227222E+02  0.96602254940E+02  0.19999957736E+01 0.  0.
        -13    1    3    3    0    0 -0.44203682229E+01  0.12252099012E+02  0.11194988034E+02  0.17175345893E+02  0.10566000000E+00 0.  1.
         13    1    4    4    0    0  0.36386198267E+01 -0.11460558518E+02 -0.87933799553E+02  0.88752173064E+02  0.10566000000E+00 0. -1.
        -13    1    4    4    0    0  0.77038920539E+00 -0.81218552689E+00 -0.76573756644E+01  0.77394903553E+01  0.10566000000E+00 0.  1.
         14    1    4    4    0    0  0.11359190848E-01  0.20645032615E-01 -0.10805200512E+00  0.11059152047E+00  0.00000000000E+00 0. -1.
<mgrwt>
<rscale>  0 0.76186456E+02</rscale>
<asrwt>0</asrwt>
<pdfrwt beam="1">  1        2 0.15252449E-01 0.76186456E+02</pdfrwt>
<pdfrwt beam="2">  1       -1 0.22517971E-02 0.76186456E+02</pdfrwt>
<totfact> 0.20148089E+05</totfact>
</mgrwt>
</event>
<event>
 8    1  0.2561077E-020  0.8028043E+02  0.7818608E-02  0.1328257E+00
         -1   -1    0    0    0  501 -0.00000000000E+00  0.00000000000E+00  0.25900854068E+01  0.25900903104E+01  0.50400000000E-02 0.  1.
          2   -1    0    0  501    0  0.00000000000E+00 -0.00000000000E+00 -0.62207805362E+03  0.62207805363E+03  0.25500000000E-02 0. -1.
         24    2    1    2    0    0  0.00000000000E+00  0.00000000000E+00 -0.61948796822E+03  0.62466814394E+03  0.80280429042E+02 0.  0.
         66    2    3    3    0    0 -0.35398059294E+02 -0.14556611755E+01 -0.45635443648E+03  0.45773192290E+03  0.20000007280E+01 0.  0.
        -13    1    3    3    0    0  0.35398059294E+02  0.14556611755E+01 -0.16313353174E+03  0.16693622104E+03  0.10566000000E+00 0.  1.
         13    1    4    4    0    0 -0.28405741889E+02 -0.90667385851E+00 -0.37099243573E+03  0.37207943609E+03  0.10566000000E+00 0. -1.
        -13    1    4    4    0    0 -0.39002324362E+01 -0.15496076406E-01 -0.45180519367E+02  0.45348677462E+02  0.10566000000E+00 0.  1.
         14    1    4    4    0    0 -0.30920849687E+01 -0.53349124058E+00 -0.40181481379E+02  0.40303809351E+02  0.00000000000E+00 0. -1.
<mgrwt>
<rscale>  0 0.80280429E+02</rscale>
<asrwt>0</asrwt>
<pdfrwt beam="1">  1        2 0.95704197E-01 0.80280429E+02</pdfrwt>
<pdfrwt beam="2">  1       -1 0.39847555E-03 0.80280429E+02</pdfrwt>
<totfact> 0.32188194E+05</totfact>
</mgrwt>
</event>
<event>
 8    1  0.2561077E-020  0.7622361E+02  0.7818608E-02  0.1340123E+00
          2   -1    0    0  501    0  0.00000000000E+00  0.00000000000E+00  0.16834752884E+02  0.16834753077E+02  0.25500000000E-02 0. -1.
         -1   -1    0    0    0  501 -0.00000000000E+00 -0.00000000000E+00 -0.86280421717E+02  0.86280421864E+02  0.50400000000E-02 0.  1.
         24    2    1    2    0    0  0.71054273576E-14 -0.35527136788E-14 -0.69445668833E+02  0.10311517494E+03  0.76223607783E+02 0.  0.
         66    2    3    3    0    0  0.32976423468E+02 -0.15835133024E+02 -0.20410280403E+02  0.41937757333E+02  0.20000003431E+01 0.  0.
        -13    1    3    3    0    0 -0.32976423468E+02  0.15835133024E+02 -0.49035388430E+02  0.61177417607E+02  0.10566000000E+00 0.  1.
         13    1    4    4    0    0  0.97003368110E+01 -0.51383105846E+01 -0.53534853541E+01  0.12213506433E+02  0.10566000000E+00 0.  1.
        -13    1    4    4    0    0  0.11256374052E+02 -0.52627801283E+01 -0.68639051088E+01  0.14196026517E+02  0.10566000000E+00 0. -1.
         14    1    4    4    0    0  0.12019712605E+02 -0.54340423110E+01 -0.81928899405E+01  0.15528224384E+02  0.00000000000E+00 0. -1.
<mgrwt>
<rscale>  0 0.76223608E+02</rscale>
<asrwt>0</asrwt>
<pdfrwt beam="1">  1        2 0.25899620E-02 0.76223608E+02</pdfrwt>
<pdfrwt beam="2">  1       -1 0.13273911E-01 0.76223608E+02</pdfrwt>
<totfact> 0.13781564E+05</totfact>
</mgrwt>
</event>
<event>
 8    1  0.2561077E-020  0.7967105E+02  0.7818608E-02  0.1329988E+00
          2   -1    0    0  501    0  0.00000000000E+00  0.00000000000E+00  0.52809601790E+03  0.52809601790E+03  0.25500000000E-02 0. -1.
         -1   -1    0    0    0  501 -0.00000000000E+00 -0.00000000000E+00 -0.30048852881E+01  0.30048895148E+01  0.50400000000E-02 0.  1.
         24    2    1    2    0    0  0.00000000000E+00 -0.35527136788E-14  0.52509113261E+03  0.53110090742E+03  0.79671050675E+02 0.  0.
         66    2    3    3    0    0 -0.15213473919E+02 -0.28669802446E+02  0.41638811747E+03  0.41765592505E+03  0.19999986998E+01 0.  0.
        -13    1    3    3    0    0  0.15213473919E+02  0.28669802446E+02  0.10870301513E+03  0.11344498237E+03  0.10566000000E+00 0.  1.
         13    1    4    4    0    0 -0.13821609662E+02 -0.26119967671E+02  0.37159976480E+03  0.37277296839E+03  0.10566000000E+00 0. -1.
        -13    1    4    4    0    0 -0.12908470891E+01 -0.24338338334E+01  0.42043722592E+02  0.42134019589E+02  0.10566000000E+00 0.  1.
         14    1    4    4    0    0 -0.10101716812E+00 -0.11600094210E+00  0.27446300859E+01  0.27489370664E+01  0.00000000000E+00 0. -1.
<mgrwt>
<rscale>  0 0.79671051E+02</rscale>
<asrwt>0</asrwt>
<pdfrwt beam="1">  1        2 0.81245535E-01 0.79671051E+02</pdfrwt>
<pdfrwt beam="2">  1       -1 0.46229041E-03 0.79671051E+02</pdfrwt>
<totfact> 0.31311885E+05</totfact>
</mgrwt>
</event>
<event>
 8    1  0.2561077E-020  0.7964036E+02  0.7818608E-02  0.1330075E+00
         -1   -1    0    0    0  501 -0.00000000000E+00  0.00000000000E+00  0.17268157966E+01  0.17268231516E+01  0.50400000000E-02 0.  1.
          2   -1    0    0  501    0  0.00000000000E+00 -0.00000000000E+00 -0.91824699979E+03  0.91824699979E+03  0.25500000000E-02 0. -1.
         24    2    1    2    0    0 -0.35527136788E-14  0.00000000000E+00 -0.91652018399E+03  0.91997382294E+03  0.79640361859E+02 0.  0.
         66    2    3    3    0    0 -0.25151335121E+02  0.93084165061E+01 -0.79817436516E+03  0.79862729322E+03  0.20000014939E+01 0.  0.
        -13    1    3    3    0    0  0.25151335121E+02 -0.93084165061E+01 -0.11834581884E+03  0.12134652972E+03  0.10566000000E+00 0.  1.
         13    1    4    4    0    0 -0.43201132590E+00  0.31471823729E+00 -0.21776563211E+02  0.21783377852E+02  0.10566000000E+00 0. -1.
        -13    1    4    4    0    0 -0.17093832850E+02  0.66090567219E+01 -0.53270401117E+03  0.53301918674E+03  0.10566000000E+00 0.  1.
         14    1    4    4    0    0 -0.76254909451E+01  0.23846415469E+01 -0.24369379078E+03  0.24382472863E+03  0.00000000000E+00 0. -1.
<mgrwt>
<rscale>  0 0.79640362E+02</rscale>
<asrwt>0</asrwt>
<pdfrwt beam="1">  1        2 0.14126838E+00 0.79640362E+02</pdfrwt>
<pdfrwt beam="2">  1       -1 0.26566527E-03 0.79640362E+02</pdfrwt>
<totfact> 0.35431605E+05</totfact>
</mgrwt>
</event>
<event>
 8    1  0.2561077E-020  0.8098730E+02  0.7818608E-02  0.1326273E+00
          2   -1    0    0  501    0  0.00000000000E+00  0.00000000000E+00  0.67576931803E+02  0.67576931851E+02  0.25500000000E-02 0. -1.
         -1   -1    0    0    0  501 -0.00000000000E+00 -0.00000000000E+00 -0.24264724164E+02  0.24264724688E+02  0.50400000000E-02 0.  1.
         24    2    1    2    0    0  0.00000000000E+00 -0.17763568394E-14  0.43312207639E+02  0.91841656539E+02  0.80987298666E+02 0.  0.
         66    2    3    3    0    0 -0.45315145457E+01 -0.10308220592E+02  0.65749713891E+02  0.66736938124E+02  0.19999994065E+01 0.  0.
        -13    1    3    3    0    0  0.45315145457E+01  0.10308220592E+02 -0.22437506252E+02  0.25104718415E+02  0.10566000000E+00 0.  1.
         13    1    4    4    0    0 -0.57519760905E+00 -0.25820797213E+01  0.13371255173E+02  0.13630833316E+02  0.10566000000E+00 0. -1.
        -13    1    4    4    0    0 -0.22705655761E+01 -0.46702432540E+01  0.27793086048E+02  0.28274253946E+02  0.10566000000E+00 0.  1.
         14    1    4    4    0    0 -0.16857513606E+01 -0.30558976165E+01  0.24585372670E+02  0.24831850862E+02  0.00000000000E+00 0. -1.
<mgrwt>
<rscale>  0 0.80987299E+02</rscale>
<asrwt>0</asrwt>
<pdfrwt beam="1">  1        2 0.10396451E-01 0.80987299E+02</pdfrwt>
<pdfrwt beam="2">  1       -1 0.37330346E-02 0.80987299E+02</pdfrwt>
<totfact> 0.15485294E+05</totfact>
</mgrwt>
</event>
<event>
 8    1  0.2561077E-020  0.7985896E+02  0.7818608E-02  0.1329452E+00
          2   -1    0    0  501    0  0.00000000000E+00  0.00000000000E+00  0.31156502152E+03  0.31156502153E+03  0.25500000000E-02 0. -1.
         -1   -1    0    0    0  501 -0.00000000000E+00 -0.00000000000E+00 -0.51172716704E+01  0.51172741524E+01  0.50400000000E-02 0.  1.
         24    2    1    2    0    0  0.00000000000E+00  0.00000000000E+00  0.30644774985E+03  0.31668229568E+03  0.79858956987E+02 0.  0.
         66    2    3    3    0    0 -0.23018213413E+02  0.16467081595E+01  0.28241602642E+03  0.28336436220E+03  0.19999975485E+01 0.  0.
        -13    1    3    3    0    0  0.23018213413E+02 -0.16467081595E+01  0.24031723430E+02  0.33317933482E+02  0.10566000000E+00 0.  1.
         13    1    4    4    0    0 -0.68798385010E+01  0.49846783427E+00  0.77524302050E+02  0.77830644481E+02  0.10566000000E+00 0. -1.
        -13    1    4    4    0    0 -0.89388828423E+01  0.12667662199E-01  0.11049014578E+03  0.11085119425E+03  0.10566000000E+00 0.  1.
         14    1    4    4    0    0 -0.71994920695E+01  0.11355726630E+01  0.94401578582E+02  0.94682523467E+02  0.00000000000E+00 0. -1.
<mgrwt>
<rscale>  0 0.79858957E+02</rscale>
<asrwt>0</asrwt>
<pdfrwt beam="1">  1        2 0.47933093E-01 0.79858957E+02</pdfrwt>
<pdfrwt beam="2">  1       -1 0.78727256E-03 0.79858957E+02</pdfrwt>
<totfact> 0.25965524E+05</totfact>
</mgrwt>
</event>
<event>
 8    1  0.2561077E-020  0.7897862E+02  0.7818608E-02  0.1331975E+00
          2   -1    0    0  501    0  0.00000000000E+00  0.00000000000E+00  0.88476275097E+01  0.88476278772E+01  0.25500000000E-02 0. -1.
         -1   -1    0    0    0  501 -0.00000000000E+00 -0.00000000000E+00 -0.17625128895E+03  0.17625128902E+03  0.50400000000E-02 0.  1.
         24    2    1    2    0    0  0.00000000000E+00 -0.17763568394E-14 -0.16740366144E+03  0.18509891690E+03  0.78978624789E+02 0.  0.
         66    2    3    3    0    0  0.26088714978E+02  0.14568983156E+02 -0.23339655356E+02  0.37968616374E+02  0.19999994622E+01 0.  0.
        -13    1    3    3    0    0 -0.26088714978E+02 -0.14568983156E+02 -0.14406400608E+03  0.14713030052E+03  0.10566000000E+00 0.  1.
         13    1    4    4    0    0  0.23392371847E+01  0.11933542129E+01 -0.14245807952E+01  0.29894346224E+01  0.10566000000E+00 0.  1.
        -13    1    4    4    0    0  0.13292301656E+02  0.71708495506E+01 -0.12168226550E+02  0.19395444517E+02  0.10566000000E+00 0. -1.
        -14    1    4    4    0    0  0.10457176137E+02  0.62047793929E+01 -0.97468480101E+01  0.15583737235E+02  0.00000000000E+00 0.  1.
<mgrwt>
<rscale>  0 0.78978625E+02</rscale>
<asrwt>0</asrwt>
<pdfrwt beam="1">  1        2 0.13611736E-02 0.78978625E+02</pdfrwt>
<pdfrwt beam="2">  1       -1 0.27115580E-01 0.78978625E+02</pdfrwt>
<totfact> 0.10675887E+05</totfact>
</mgrwt>
</event>
<event>
 8    1  0.2561077E-020  0.7995586E+02  0.7818608E-02  0.1329177E+00
          2   -1    0    0  501    0  0.00000000000E+00  0.00000000000E+00  0.42698829070E+03  0.42698829071E+03  0.25500000000E-02 0. -1.
         -1   -1    0    0    0  501 -0.00000000000E+00 -0.00000000000E+00 -0.37430399861E+01  0.37430433793E+01  0.50400000000E-02 0.  1.
         24    2    1    2    0    0  0.35527136788E-14 -0.17763568394E-14  0.42324525071E+03  0.43073133409E+03  0.79955862277E+02 0.  0.
         66    2    3    3    0    0  0.20941791026E+02 -0.11596616083E+02  0.38407410729E+03  0.38482458342E+03  0.19999986079E+01 0.  0.
        -13    1    3    3    0    0 -0.20941791026E+02  0.11596616083E+02  0.39171143421E+02  0.45906750668E+02  0.10566000000E+00 0.  1.
         13    1    4    4    0    0  0.49551441761E+01 -0.25343550467E+01  0.92524415522E+02  0.92691720456E+02  0.10566000000E+00 0. -1.
        -13    1    4    4    0    0  0.10069458814E+02 -0.57302609310E+01  0.19600791786E+03  0.19635005709E+03  0.10566000000E+00 0.  1.
        -14    1    4    4    0    0  0.59171880362E+01 -0.33320001057E+01  0.95541773909E+02  0.95782805872E+02  0.00000000000E+00 0.  1.
<mgrwt>
<rscale>  0 0.79955862E+02</rscale>
<asrwt>0</asrwt>
<pdfrwt beam="1">  1        2 0.65690476E-01 0.79955862E+02</pdfrwt>
<pdfrwt beam="2">  1       -1 0.57585283E-03 0.79955862E+02</pdfrwt>
<totfact> 0.28941077E+05</totfact>
</mgrwt>
</event>
<event>
 8    1  0.2561077E-020  0.8164842E+02  0.7818608E-02  0.1324437E+00
         -1   -1    0    0    0  501 -0.00000000000E+00  0.00000000000E+00  0.26721795438E+01  0.26721842967E+01  0.50400000000E-02 0.  1.
          2   -1    0    0  501    0  0.00000000000E+00 -0.00000000000E+00 -0.62369109856E+03  0.62369109857E+03  0.25500000000E-02 0. -1.
         24    2    1    2    0    0 -0.35527136788E-14 -0.35527136788E-14 -0.62101891902E+03  0.62636328287E+03  0.81648419100E+02 0.  0.
         66    2    3    3    0    0 -0.30373654373E+02 -0.20027054521E+02 -0.45235163591E+03  0.45381675190E+03  0.20000003711E+01 0.  0.
        -13    1    3    3    0    0  0.30373654373E+02  0.20027054521E+02 -0.16866728311E+03  0.17254653097E+03  0.10566000000E+00 0.  1.
         13    1    4    4    0    0 -0.26224548176E+01 -0.15107140293E+01 -0.44021398043E+02  0.44125436834E+02  0.10566000000E+00 0.  1.
        -13    1    4    4    0    0 -0.12143516091E+02 -0.77400428797E+01 -0.17684233244E+03  0.17742771755E+03  0.10566000000E+00 0. -1.
         14    1    4    4    0    0 -0.15607683464E+02 -0.10776297612E+02 -0.23148790543E+03  0.23226359752E+03  0.00000000000E+00 0. -1.
<mgrwt>
<rscale>  0 0.81648419E+02</rscale>
<asrwt>0</asrwt>
<pdfrwt beam="1">  1        2 0.95952361E-01 0.81648419E+02</pdfrwt>
<pdfrwt beam="2">  1       -1 0.41110541E-03 0.81648419E+02</pdfrwt>
<totfact> 0.30823750E+05</totfact>
</mgrwt>
</event>
<event>
 8    1  0.2561077E-020  0.8534107E+02  0.7818608E-02  0.1314543E+00
         -1   -1    0    0    0  501 -0.00000000000E+00  0.00000000000E+00  0.12249085181E+03  0.12249085192E+03  0.50400000000E-02 0.  1.
          2   -1    0    0  501    0  0.00000000000E+00 -0.00000000000E+00 -0.14864576401E+02  0.14864576620E+02  0.25500000000E-02 0. -1.
         24    2    1    2    0    0  0.00000000000E+00  0.00000000000E+00  0.10762627541E+03  0.13735542854E+03  0.85341072113E+02 0.  0.
         66    2    3    3    0    0  0.37749487448E+02  0.21482116853E+01  0.22093201311E+02  0.43837748148E+02  0.20000006313E+01 0.  0.
        -13    1    3    3    0    0 -0.37749487448E+02 -0.21482116853E+01  0.85533074103E+02  0.93517680390E+02  0.10566000000E+00 0.  1.
         13    1    4    4    0    0  0.13728904775E+02  0.10251251235E+01  0.83957342118E+01  0.16125545722E+02  0.10566000000E+00 0. -1.
        -13    1    4    4    0    0  0.15809021135E+02  0.64918941767E-01  0.91309751325E+01  0.18256922923E+02  0.10566000000E+00 0.  1.
        -14    1    4    4    0    0  0.82115615377E+01  0.10581676200E+01  0.45664919670E+01  0.94552795032E+01  0.00000000000E+00 0.  1.
<mgrwt>
<rscale>  0 0.85341072E+02</rscale>
<asrwt>0</asrwt>
<pdfrwt beam="1">  1        2 0.22868579E-02 0.85341072E+02</pdfrwt>
<pdfrwt beam="2">  1       -1 0.18844746E-01 0.85341072E+02</pdfrwt>
<totfact> 0.96326472E+04</totfact>
</mgrwt>
</event>
<event>
 8    1  0.2561077E-020  0.8071114E+02  0.7818608E-02  0.1327045E+00
         -1   -1    0    0    0  501 -0.00000000000E+00  0.00000000000E+00  0.23747318335E+01  0.23747371818E+01  0.50400000000E-02 0.  1.
          2   -1    0    0  501    0  0.00000000000E+00 -0.00000000000E+00 -0.68579117281E+03  0.68579117281E+03  0.25500000000E-02 0. -1.
         24    2    1    2    0    0 -0.35527136788E-14  0.00000000000E+00 -0.68341644098E+03  0.68816591000E+03  0.80711138540E+02 0.  0.
         66    2    3    3    0    0 -0.15056834283E+02  0.60198327729E+00 -0.66088431885E+03  0.66105911501E+03  0.20000008151E+01 0.  0.
        -13    1    3    3    0    0  0.15056834283E+02 -0.60198327729E+00 -0.22532122128E+02  0.27106794980E+02  0.10566000000E+00 0.  1.
         13    1    4    4    0    0 -0.38920659534E+00 -0.39484349998E-01 -0.27838167410E+02  0.27841116529E+02  0.10566000000E+00 0. -1.
        -13    1    4    4    0    0 -0.41464412047E+01  0.75681411013E+00 -0.19350349362E+03  0.19354942249E+03  0.10566000000E+00 0.  1.
         14    1    4    4    0    0 -0.10521186483E+02 -0.11534648284E+00 -0.43954265782E+03  0.43966857599E+03  0.00000000000E+00 0. -1.
<mgrwt>
<rscale>  0 0.80711139E+02</rscale>
<asrwt>0</asrwt>
<pdfrwt beam="1">  1        2 0.10550618E+00 0.80711139E+02</pdfrwt>
<pdfrwt beam="2">  1       -1 0.36534432E-03 0.80711139E+02</pdfrwt>
<totfact> 0.32534935E+05</totfact>
</mgrwt>
</event>
<event>
 8    1  0.2561077E-020  0.7961537E+02  0.7818608E-02  0.1330147E+00
         -1   -1    0    0    0  501 -0.00000000000E+00  0.00000000000E+00  0.36409396156E+01  0.36409431039E+01  0.50400000000E-02 0.  1.
          2   -1    0    0  501    0  0.00000000000E+00 -0.00000000000E+00 -0.43523133122E+03  0.43523133123E+03  0.25500000000E-02 0. -1.
         24    2    1    2    0    0  0.00000000000E+00 -0.71054273576E-14 -0.43159039161E+03  0.43887227433E+03  0.79615369443E+02 0.  0.
         66    2    3    3    0    0  0.10134118993E+02 -0.33507359769E+02 -0.32011449596E+03  0.32202908883E+03  0.19999991706E+01 0.  0.
        -13    1    3    3    0    0 -0.10134118993E+02  0.33507359769E+02 -0.11147589564E+03  0.11684318551E+03  0.10566000000E+00 0.  1.
         13    1    4    4    0    0  0.38677929237E+01 -0.13648214166E+02 -0.12888091024E+03  0.12965929878E+03  0.10566000000E+00 0. -1.
        -13    1    4    4    0    0  0.48957896395E+01 -0.16452980052E+02 -0.15280827021E+03  0.15376946354E+03  0.10566000000E+00 0.  1.
        -14    1    4    4    0    0  0.13705364295E+01 -0.34061655500E+01 -0.38425315506E+02  0.38600326496E+02  0.00000000000E+00 0.  1.
<mgrwt>
<rscale>  0 0.79615369E+02</rscale>
<asrwt>0</asrwt>
<pdfrwt beam="1">  1        2 0.66958625E-01 0.79615369E+02</pdfrwt>
<pdfrwt beam="2">  1       -1 0.56014517E-03 0.79615369E+02</pdfrwt>
<totfact> 0.29456731E+05</totfact>
</mgrwt>
</event>
<event>
 8    1  0.2561077E-020  0.7993141E+02  0.7818608E-02  0.1329246E+00
         -1   -1    0    0    0  501 -0.00000000000E+00  0.00000000000E+00  0.54039169470E+02  0.54039169705E+02  0.50400000000E-02 0.  1.
          2   -1    0    0  501    0  0.00000000000E+00 -0.00000000000E+00 -0.29557401735E+02  0.29557401845E+02  0.25500000000E-02 0. -1.
         24    2    1    2    0    0  0.00000000000E+00  0.35527136788E-14  0.24481767734E+02  0.83596571550E+02  0.79931406991E+02 0.  0.
         66    2    3    3    0    0 -0.26390193597E+02 -0.22359865963E+02 -0.86383714980E+01  0.35707525717E+02  0.20000016867E+01 0.  0.
        -13    1    3    3    0    0  0.26390193597E+02  0.22359865963E+02  0.33120139232E+02  0.47889045833E+02  0.10566000000E+00 0.  1.
         13    1    4    4    0    0 -0.55007710147E+01 -0.38397084285E+01 -0.19485865208E+01  0.69864151062E+01  0.10566000000E+00 0. -1.
        -13    1    4    4    0    0 -0.26872062488E+01 -0.20252749303E+01 -0.76231154297E+00  0.34518254433E+01  0.10566000000E+00 0. -1.
        -14    1    4    4    0    0 -0.18202216333E+02 -0.16494882604E+02 -0.59274734343E+01  0.25269285168E+02  0.00000000000E+00 0.  1.
<mgrwt>
<rscale>  0 0.79931407E+02</rscale>
<asrwt>0</asrwt>
<pdfrwt beam="1">  1        2 0.45472927E-02 0.79931407E+02</pdfrwt>
<pdfrwt beam="2">  1       -1 0.83137183E-02 0.79931407E+02</pdfrwt>
<totfact> 0.13448138E+05</totfact>
</mgrwt>
</event>
<event>
 8    1  0.2561077E-020  0.8832478E+02  0.7818608E-02  0.1306960E+00
          2   -1    0    0  501    0  0.00000000000E+00  0.00000000000E+00  0.46184006020E+03  0.46184006021E+03  0.25500000000E-02 0. -1.
         -1   -1    0    0    0  501 -0.00000000000E+00 -0.00000000000E+00 -0.42229254708E+01  0.42229284784E+01  0.50400000000E-02 0.  1.
         24    2    1    2    0    0  0.17763568394E-14 -0.71054273576E-14  0.45761713473E+03  0.46606298869E+03  0.88324783751E+02 0.  0.
         66    2    3    3    0    0 -0.86583538942E+01  0.40089003179E+02  0.31502087644E+03  0.31768576904E+03  0.19999971854E+01 0.  0.
        -13    1    3    3    0    0  0.86583538942E+01 -0.40089003179E+02  0.14259625829E+03  0.14837721965E+03  0.10566000000E+00 0.  1.
         13    1    4    4    0    0 -0.22354980287E+00  0.10963191311E+01  0.88663736303E+01  0.89373170213E+01  0.10566000000E+00 0.  1.
        -13    1    4    4    0    0 -0.27663302499E+01  0.17124733724E+02  0.13272304236E+03  0.13385188166E+03  0.10566000000E+00 0.  1.
         14    1    4    4    0    0 -0.56684738414E+01  0.21867950324E+02  0.17343146045E+03  0.17489657035E+03  0.00000000000E+00 0. -1.
<mgrwt>
<rscale>  0 0.88324784E+02</rscale>
<asrwt>0</asrwt>
<pdfrwt beam="1">  1        2 0.71052294E-01 0.88324784E+02</pdfrwt>
<pdfrwt beam="2">  1       -1 0.64968128E-03 0.88324784E+02</pdfrwt>
<totfact> 0.22893365E+05</totfact>
</mgrwt>
</event>
<event>
 8    1  0.2561077E-020  0.7716983E+02  0.7818608E-02  0.1337280E+00
         -1   -1    0    0    0  501 -0.00000000000E+00  0.00000000000E+00  0.18075836114E+02  0.18075836816E+02  0.50400000000E-02 0.  1.
          2   -1    0    0  501    0  0.00000000000E+00 -0.00000000000E+00 -0.82363866261E+02  0.82363866301E+02  0.25500000000E-02 0. -1.
         24    2    1    2    0    0  0.00000000000E+00  0.00000000000E+00 -0.64288030148E+02  0.10043970312E+03  0.77169833108E+02 0.  0.
         66    2    3    3    0    0 -0.89086483489E+01  0.11932229113E+02 -0.78458136843E+02  0.79883798982E+02  0.19999989663E+01 0.  0.
        -13    1    3    3    0    0  0.89086483489E+01 -0.11932229113E+02  0.14170106695E+02  0.20555904135E+02  0.10566000000E+00 0.  1.
         13    1    4    4    0    0 -0.43115783622E+01  0.48636919647E+01 -0.34114932915E+02  0.34728734779E+02  0.10566000000E+00 0. -1.
        -13    1    4    4    0    0 -0.40571420221E+00  0.57778952527E+00 -0.59066033503E+01  0.59495858615E+01  0.10566000000E+00 0.  1.
         14    1    4    4    0    0 -0.41913557845E+01  0.64907476231E+01 -0.38436600578E+02  0.39205478342E+02  0.00000000000E+00 0. -1.
<mgrwt>
<rscale>  0 0.77169833E+02</rscale>
<asrwt>0</asrwt>
<pdfrwt beam="1">  1        2 0.12671364E-01 0.77169833E+02</pdfrwt>
<pdfrwt beam="2">  1       -1 0.27808980E-02 0.77169833E+02</pdfrwt>
<totfact> 0.18531290E+05</totfact>
</mgrwt>
</event>
<event>
 8    1  0.2561077E-020  0.7900765E+02  0.7818608E-02  0.1331891E+00
         -1   -1    0    0    0  501 -0.00000000000E+00  0.00000000000E+00  0.27131929597E+02  0.27131930065E+02  0.50400000000E-02 0.  1.
          2   -1    0    0  501    0  0.00000000000E+00 -0.00000000000E+00 -0.57517182371E+02  0.57517182428E+02  0.25500000000E-02 0. -1.
         24    2    1    2    0    0  0.17763568394E-14  0.44408920985E-15 -0.30385252775E+02  0.84649112493E+02  0.79007649374E+02 0.  0.
         66    2    3    3    0    0  0.13318106865E+02 -0.36829156521E+01 -0.54824172970E+02  0.56574073357E+02  0.19999990363E+01 0.  0.
        -13    1    3    3    0    0 -0.13318106865E+02  0.36829156521E+01  0.24438920195E+02  0.28075039136E+02  0.10566000000E+00 0.  1.
         13    1    4    4    0    0  0.75996845306E+01 -0.21518546491E+01 -0.33953231270E+02  0.34859987968E+02  0.10566000000E+00 0. -1.
        -13    1    4    4    0    0  0.21126317577E+01 -0.13507538657E+00 -0.69339171624E+01  0.72506433890E+01  0.10566000000E+00 0.  1.
         14    1    4    4    0    0  0.36057905763E+01 -0.13959856165E+01 -0.13937024538E+02  0.14463442000E+02  0.00000000000E+00 0. -1.
<mgrwt>
<rscale>  0 0.79007649E+02</rscale>
<asrwt>0</asrwt>
<pdfrwt beam="1">  1        2 0.88487973E-02 0.79007649E+02</pdfrwt>
<pdfrwt beam="2">  1       -1 0.41741431E-02 0.79007649E+02</pdfrwt>
<totfact> 0.15948968E+05</totfact>
</mgrwt>
</event>
<event>
 8    1  0.2561077E-020  0.8219484E+02  0.7818608E-02  0.1322936E+00
         -1   -1    0    0    0  501 -0.00000000000E+00  0.00000000000E+00  0.17403609701E+01  0.17403682679E+01  0.50400000000E-02 0.  1.
          2   -1    0    0  501    0  0.00000000000E+00 -0.00000000000E+00 -0.97048513525E+03  0.97048513525E+03  0.25500000000E-02 0. -1.
         24    2    1    2    0    0  0.35527136788E-14  0.88817841970E-15 -0.96874477428E+03  0.97222550352E+03  0.82194841702E+02 0.  0.
         66    2    3    3    0    0 -0.28537061314E+02 -0.49387885194E+01 -0.82915198643E+03  0.82966003405E+03  0.20000015109E+01 0.  0.
        -13    1    3    3    0    0  0.28537061314E+02  0.49387885194E+01 -0.13959278785E+03  0.14256546947E+03  0.10566000000E+00 0.  1.
         13    1    4    4    0    0 -0.12369564938E+02 -0.18615112651E+01 -0.36304018871E+03  0.36325564158E+03  0.10566000000E+00 0. -1.
        -13    1    4    4    0    0 -0.47103723362E+01 -0.12928168039E+01 -0.15289432516E+03  0.15297236617E+03  0.10566000000E+00 0.  1.
        -14    1    4    4    0    0 -0.11457124040E+02 -0.17844604504E+01 -0.31321747256E+03  0.31343202630E+03  0.00000000000E+00 0.  1.
<mgrwt>
<rscale>  0 0.82194842E+02</rscale>
<asrwt>0</asrwt>
<pdfrwt beam="1">  1        2 0.14930497E+00 0.82194842E+02</pdfrwt>
<pdfrwt beam="2">  1       -1 0.26774918E-03 0.82194842E+02</pdfrwt>
<totfact> 0.32785874E+05</totfact>
</mgrwt>
</event>
<event>
 8    1  0.2561077E-020  0.7048627E+02  0.7818608E-02  0.1358447E+00
          2   -1    0    0  501    0  0.00000000000E+00  0.00000000000E+00  0.15390437239E+04  0.15390437239E+04  0.25500000000E-02 0. -1.
         -1   -1    0    0    0  501 -0.00000000000E+00 -0.00000000000E+00 -0.80703771956E+00  0.80705345696E+00  0.50400000000E-02 0.  1.
         24    2    1    2    0    0 -0.17763568394E-14  0.88817841970E-15  0.15382366862E+04  0.15398507773E+04  0.70486266903E+02 0.  0.
         66    2    3    3    0    0  0.15697945219E+02 -0.54705375054E+01  0.14479234888E+04  0.14480202974E+04  0.19999983322E+01 0.  0.
        -13    1    3    3    0    0 -0.15697945219E+02  0.54705375054E+01  0.90313197365E+02  0.91830479946E+02  0.10566000000E+00 0.  1.
         13    1    4    4    0    0  0.13169997162E+02 -0.45296248365E+01  0.11784776975E+04  0.11785599946E+04  0.10566000000E+00 0. -1.
        -13    1    4    4    0    0  0.24846731531E+01 -0.91777855674E+00  0.26860521510E+03  0.26861829547E+03  0.10566000000E+00 0.  1.
        -14    1    4    4    0    0  0.43274904715E-01 -0.23134112241E-01  0.84057624761E+00  0.84200732335E+00  0.00000000000E+00 0.  1.
<mgrwt>
<rscale>  0 0.70486267E+02</rscale>
<asrwt>0</asrwt>
<pdfrwt beam="1">  1        2 0.23677509E+00 0.70486267E+02</pdfrwt>
<pdfrwt beam="2">  1       -1 0.12416132E-03 0.70486267E+02</pdfrwt>
<totfact> 0.45653619E+05</totfact>
</mgrwt>
</event>
<event>
 8    1  0.2561077E-020  0.8123159E+02  0.7818608E-02  0.1325592E+00
         -1   -1    0    0    0  501 -0.00000000000E+00  0.00000000000E+00  0.36449589862E+01  0.36449624707E+01  0.50400000000E-02 0.  1.
          2   -1    0    0  501    0  0.00000000000E+00 -0.00000000000E+00 -0.45258180373E+03  0.45258180373E+03  0.25500000000E-02 0. -1.
         24    2    1    2    0    0  0.35527136788E-14 -0.17763568394E-14 -0.44893684474E+03  0.45622676620E+03  0.81231592598E+02 0.  0.
         66    2    3    3    0    0  0.14014606206E+02 -0.11528955514E+02 -0.42852649007E+03  0.42891523486E+03  0.20000013545E+01 0.  0.
        -13    1    3    3    0    0 -0.14014606206E+02  0.11528955514E+02 -0.20410354674E+02  0.27311531343E+02  0.10566000000E+00 0.  1.
         13    1    4    4    0    0  0.85934599555E+01 -0.64527838564E+01 -0.26881779039E+03  0.26903252883E+03  0.10566000000E+00 0. -1.
        -13    1    4    4    0    0  0.34351499841E+00 -0.52801879454E+00 -0.14698695500E+02  0.14712566732E+02  0.10566000000E+00 0.  1.
         14    1    4    4    0    0  0.50776312521E+01 -0.45481528629E+01 -0.14501000417E+03  0.14517013930E+03  0.00000000000E+00 0. -1.
<mgrwt>
<rscale>  0 0.81231593E+02</rscale>
<asrwt>0</asrwt>
<pdfrwt beam="1">  1        2 0.69627925E-01 0.81231593E+02</pdfrwt>
<pdfrwt beam="2">  1       -1 0.56076355E-03 0.81231593E+02</pdfrwt>
<totfact> 0.28322481E+05</totfact>
</mgrwt>
</event>
<event>
 8    1  0.2561077E-020  0.8055247E+02  0.7818608E-02  0.1327491E+00
         -1   -1    0    0    0  501 -0.00000000000E+00  0.00000000000E+00  0.23754808738E+02  0.23754809273E+02  0.50400000000E-02 0.  1.
          2   -1    0    0  501    0  0.00000000000E+00 -0.00000000000E+00 -0.68288288791E+02  0.68288288838E+02  0.25500000000E-02 0. -1.
         24    2    1    2    0    0  0.00000000000E+00  0.35527136788E-14 -0.44533480052E+02  0.92043098111E+02  0.80552473980E+02 0.  0.
         66    2    3    3    0    0 -0.29643671271E+02  0.25547149151E+02 -0.33045977848E+02  0.51258567378E+02  0.20000003983E+01 0.  0.
        -13    1    3    3    0    0  0.29643671271E+02 -0.25547149151E+02 -0.11487502205E+02  0.40784530733E+02  0.10566000000E+00 0.  1.
         13    1    4    4    0    0 -0.62945023754E+01  0.53461005494E+01 -0.70243849209E+01  0.10842264468E+02  0.10566000000E+00 0. -1.
        -13    1    4    4    0    0 -0.65194162339E+01  0.64453749777E+01 -0.84006160949E+01  0.12434917026E+02  0.10566000000E+00 0.  1.
        -14    1    4    4    0    0 -0.16829752662E+02  0.13755673624E+02 -0.17620976832E+02  0.27981385884E+02  0.00000000000E+00 0.  1.
<mgrwt>
<rscale>  0 0.80552474E+02</rscale>
<asrwt>0</asrwt>
<pdfrwt beam="1">  1        2 0.10505890E-01 0.80552474E+02</pdfrwt>
<pdfrwt beam="2">  1       -1 0.36545861E-02 0.80552474E+02</pdfrwt>
<totfact> 0.15753038E+05</totfact>
</mgrwt>
</event>
<event>
 8    1  0.2561077E-020  0.7560727E+02  0.7818608E-02  0.1342001E+00
         -1   -1    0    0    0  501 -0.00000000000E+00  0.00000000000E+00  0.52507074912E+03  0.52507074914E+03  0.50400000000E-02 0.  1.
          2   -1    0    0  501    0  0.00000000000E+00 -0.00000000000E+00 -0.27217559509E+01  0.27217571455E+01  0.25500000000E-02 0. -1.
         24    2    1    2    0    0  0.35527136788E-14  0.00000000000E+00  0.52234899317E+03  0.52779250629E+03  0.75607268373E+02 0.  0.
         66    2    3    3    0    0 -0.25810315832E+02 -0.25038994770E+02  0.34216015352E+03  0.34405042412E+03  0.20000042123E+01 0.  0.
        -13    1    3    3    0    0  0.25810315832E+02  0.25038994770E+02  0.18018883965E+03  0.18374208217E+03  0.10566000000E+00 0.  1.
         13    1    4    4    0    0 -0.57844812195E+01 -0.58817149699E+01  0.72255692061E+02  0.72725174412E+02  0.10566000000E+00 0. -1.
        -13    1    4    4    0    0 -0.83190521771E+01 -0.75553508432E+01  0.10585406851E+03  0.10644897811E+03  0.10566000000E+00 0.  1.
        -14    1    4    4    0    0 -0.11706782436E+02 -0.11601928957E+02  0.16405039295E+03  0.16487627160E+03  0.00000000000E+00 0.  1.
<mgrwt>
<rscale>  0 0.75607268E+02</rscale>
<asrwt>0</asrwt>
<pdfrwt beam="1">  1        2 0.41873214E-03 0.75607268E+02</pdfrwt>
<pdfrwt beam="2">  1       -1 0.80780045E-01 0.75607268E+02</pdfrwt>
<totfact> 0.74870383E+04</totfact>
</mgrwt>
</event>
<event>
 8    1  0.2561077E-020  0.7898063E+02  0.7818608E-02  0.1331969E+00
         -1   -1    0    0    0  501 -0.00000000000E+00  0.00000000000E+00  0.67033841364E+02  0.67033841554E+02  0.50400000000E-02 0.  1.
          2   -1    0    0  501    0  0.00000000000E+00 -0.00000000000E+00 -0.23264146233E+02  0.23264146373E+02  0.25500000000E-02 0. -1.
         24    2    1    2    0    0  0.00000000000E+00 -0.35527136788E-14  0.43769695131E+02  0.90297987927E+02  0.78980633144E+02 0.  0.
         66    2    3    3    0    0  0.18802364305E+02  0.24944957783E+02 -0.56756247800E+01  0.31811830185E+02  0.20000002105E+01 0.  0.
        -13    1    3    3    0    0 -0.18802364305E+02 -0.24944957783E+02  0.49445319911E+02  0.58486157742E+02  0.10566000000E+00 0.  1.
         13    1    4    4    0    0  0.10639407038E+02  0.13766736638E+02 -0.33108375401E+01  0.17711375696E+02  0.10566000000E+00 0. -1.
        -13    1    4    4    0    0  0.39241308972E+01  0.47338644463E+01 -0.15642134450E+01  0.63455656668E+01  0.10566000000E+00 0.  1.
         14    1    4    4    0    0  0.42388263693E+01  0.64443566988E+01 -0.80057379490E+00  0.77548888226E+01  0.00000000000E+00 0. -1.
<mgrwt>
<rscale>  0 0.78980633E+02</rscale>
<asrwt>0</asrwt>
<pdfrwt beam="1">  1        2 0.35790994E-02 0.78980633E+02</pdfrwt>
<pdfrwt beam="2">  1       -1 0.10312899E-01 0.78980633E+02</pdfrwt>
<totfact> 0.13271716E+05</totfact>
</mgrwt>
</event>
<event>
 8    1  0.2561077E-020  0.7467627E+02  0.7818608E-02  0.1344876E+00
          2   -1    0    0  501    0  0.00000000000E+00  0.00000000000E+00  0.11849458776E+04  0.11849458776E+04  0.25500000000E-02 0. -1.
         -1   -1    0    0    0  501 -0.00000000000E+00 -0.00000000000E+00 -0.11765345632E+01  0.11765453582E+01  0.50400000000E-02 0.  1.
         24    2    1    2    0    0  0.17763568394E-14  0.35527136788E-14  0.11837693430E+04  0.11861224229E+04  0.74676266221E+02 0.  0.
         66    2    3    3    0    0 -0.99853753334E+01 -0.19697951021E+02  0.10699809767E+04  0.10702107304E+04  0.19999914280E+01 0.  0.
        -13    1    3    3    0    0  0.99853753334E+01  0.19697951021E+02  0.11378836633E+03  0.11591169255E+03  0.10566000000E+00 0.  1.
         13    1    4    4    0    0 -0.71519553593E+01 -0.12278293641E+02  0.69044129101E+03  0.69058749950E+03  0.10566000000E+00 0. -1.
        -13    1    4    4    0    0 -0.10454816245E+01 -0.34537227104E+01  0.17780037643E+03  0.17783702161E+03  0.10566000000E+00 0.  1.
        -14    1    4    4    0    0 -0.17879383496E+01 -0.39659346691E+01  0.20173930923E+03  0.20178620927E+03  0.00000000000E+00 0.  1.
<mgrwt>
<rscale>  0 0.74676266E+02</rscale>
<asrwt>0</asrwt>
<pdfrwt beam="1">  1        2 0.18229949E+00 0.74676266E+02</pdfrwt>
<pdfrwt beam="2">  1       -1 0.18100603E-03 0.74676266E+02</pdfrwt>
<totfact> 0.41925994E+05</totfact>
</mgrwt>
</event>
<event>
 8    1  0.2561077E-020  0.8180532E+02  0.7818608E-02  0.1324005E+00
          2   -1    0    0  501    0  0.00000000000E+00  0.00000000000E+00  0.38446371846E+03  0.38446371847E+03  0.25500000000E-02 0. -1.
         -1   -1    0    0    0  501 -0.00000000000E+00 -0.00000000000E+00 -0.43515857450E+01  0.43515886636E+01  0.50400000000E-02 0.  1.
         24    2    1    2    0    0  0.00000000000E+00  0.00000000000E+00  0.38011213272E+03  0.38881530713E+03  0.81805315372E+02 0.  0.
         66    2    3    3    0    0  0.21832203870E+02 -0.60301379693E+01  0.35190988331E+03  0.35264369222E+03  0.20000007053E+01 0.  0.
        -13    1    3    3    0    0 -0.21832203870E+02  0.60301379693E+01  0.28202249410E+02  0.36171614916E+02  0.10566000000E+00 0.  1.
         13    1    4    4    0    0  0.81207520366E+01 -0.25844212715E+01  0.11909715328E+03  0.11940171242E+03  0.10566000000E+00 0. -1.
        -13    1    4    4    0    0  0.25448241545E+01 -0.50593129879E+00  0.43153227597E+02  0.43231288583E+02  0.10566000000E+00 0.  1.
         14    1    4    4    0    0  0.11166627679E+02 -0.29397853990E+01  0.18965950243E+03  0.19001069121E+03  0.00000000000E+00 0. -1.
<mgrwt>
<rscale>  0 0.81805315E+02</rscale>
<asrwt>0</asrwt>
<pdfrwt beam="1">  1        2 0.59148286E-01 0.81805315E+02</pdfrwt>
<pdfrwt beam="2">  1       -1 0.66947471E-03 0.81805315E+02</pdfrwt>
<totfact> 0.26282912E+05</totfact>
</mgrwt>
</event>
<event>
 8    1  0.2561077E-020  0.8023140E+02  0.7818608E-02  0.1328396E+00
          2   -1    0    0  501    0  0.00000000000E+00  0.00000000000E+00  0.10968897159E+03  0.10968897162E+03  0.25500000000E-02 0. -1.
         -1   -1    0    0    0  501 -0.00000000000E+00 -0.00000000000E+00 -0.14671206138E+02  0.14671207003E+02  0.50400000000E-02 0.  1.
         24    2    1    2    0    0  0.35527136788E-14  0.00000000000E+00  0.95017765457E+02  0.12436017863E+03  0.80231404549E+02 0.  0.
         66    2    3    3    0    0 -0.27916794038E+02  0.49104897562E+01  0.91483589137E+02  0.95795132412E+02  0.20000033952E+01 0.  0.
        -13    1    3    3    0    0  0.27916794038E+02 -0.49104897562E+01  0.35341763204E+01  0.28565046216E+02  0.10566000000E+00 0.  1.
         13    1    4    4    0    0 -0.10408259436E+02  0.20395315662E+01  0.34407418403E+02  0.36005182387E+02  0.10566000000E+00 0. -1.
        -13    1    4    4    0    0 -0.12254696321E+02  0.24773084135E+01  0.41868868391E+02  0.43695857279E+02  0.10566000000E+00 0.  1.
        -14    1    4    4    0    0 -0.52538382806E+01  0.39364977658E+00  0.15207302342E+02  0.16094092747E+02  0.00000000000E+00 0.  1.
<mgrwt>
<rscale>  0 0.80231405E+02</rscale>
<asrwt>0</asrwt>
<pdfrwt beam="1">  1        2 0.16875226E-01 0.80231405E+02</pdfrwt>
<pdfrwt beam="2">  1       -1 0.22571087E-02 0.80231405E+02</pdfrwt>
<totfact> 0.18058870E+05</totfact>
</mgrwt>
</event>
<event>
 8    1  0.2561077E-020  0.7994055E+02  0.7818608E-02  0.1329220E+00
          2   -1    0    0  501    0  0.00000000000E+00  0.00000000000E+00  0.84189926562E+03  0.84189926562E+03  0.25500000000E-02 0. -1.
         -1   -1    0    0    0  501 -0.00000000000E+00 -0.00000000000E+00 -0.18976377910E+01  0.18976444839E+01  0.50400000000E-02 0.  1.
         24    2    1    2    0    0  0.00000000000E+00  0.00000000000E+00  0.84000162783E+03  0.84379691011E+03  0.79940545107E+02 0.  0.
         66    2    3    3    0    0  0.86503365347E+01  0.13024542087E+02  0.80825492777E+03  0.80840861900E+03  0.19999982706E+01 0.  0.
        -13    1    3    3    0    0 -0.86503365347E+01 -0.13024542087E+02  0.31746700062E+02  0.35388291109E+02  0.10566000000E+00 0.  1.
         13    1    4    4    0    0  0.10544857129E+01  0.11789518299E+01  0.86648269523E+02  0.86662769648E+02  0.10566000000E+00 0. -1.
        -13    1    4    4    0    0  0.22364301053E+01  0.30842475595E+01  0.23402769499E+03  0.23405872637E+03  0.10566000000E+00 0.  1.
         14    1    4    4    0    0  0.53594207164E+01  0.87613426981E+01  0.48757896325E+03  0.48768712298E+03  0.00000000000E+00 0. -1.
<mgrwt>
<rscale>  0 0.79940545E+02</rscale>
<asrwt>0</asrwt>
<pdfrwt beam="1">  1        2 0.12952266E+00 0.79940545E+02</pdfrwt>
<pdfrwt beam="2">  1       -1 0.29194548E-03 0.79940545E+02</pdfrwt>
<totfact> 0.34714277E+05</totfact>
</mgrwt>
</event>
<event>
 8    1  0.2561077E-020  0.8072401E+02  0.7818608E-02  0.1327009E+00
         -1   -1    0    0    0  501 -0.00000000000E+00  0.00000000000E+00  0.35005066644E+02  0.35005067007E+02  0.50400000000E-02 0.  1.
          2   -1    0    0  501    0  0.00000000000E+00 -0.00000000000E+00 -0.46538731363E+02  0.46538731433E+02  0.25500000000E-02 0. -1.
         24    2    1    2    0    0 -0.35527136788E-14  0.00000000000E+00 -0.11533664719E+02  0.81543798440E+02  0.80724009081E+02 0.  0.
         66    2    3    3    0    0  0.28083550824E+02  0.27334824626E+02 -0.15417636519E+02  0.42161380216E+02  0.20000004134E+01 0.  0.
        -13    1    3    3    0    0 -0.28083550824E+02 -0.27334824626E+02  0.38839717996E+01  0.39382418224E+02  0.10566000000E+00 0.  1.
         13    1    4    4    0    0  0.24284937219E+02  0.23631628704E+02 -0.12851051682E+02  0.36240484879E+02  0.10566000000E+00 0. -1.
        -13    1    4    4    0    0  0.28062495231E+01  0.23811060227E+01 -0.18178383073E+01  0.41061420365E+01  0.10566000000E+00 0.  1.
        -14    1    4    4    0    0  0.99236408157E+00  0.13220899001E+01 -0.74874652960E+00  0.18147533000E+01  0.00000000000E+00 0.  1.
<mgrwt>
<rscale>  0 0.80724009E+02</rscale>
<asrwt>0</asrwt>
<pdfrwt beam="1">  1        2 0.71598048E-02 0.80724009E+02</pdfrwt>
<pdfrwt beam="2">  1       -1 0.53853949E-02 0.80724009E+02</pdfrwt>
<totfact> 0.14353954E+05</totfact>
</mgrwt>
</event>
<event>
 8    1  0.2561077E-020  0.7908874E+02  0.7818608E-02  0.1331658E+00
         -1   -1    0    0    0  501 -0.00000000000E+00  0.00000000000E+00  0.26595961534E+02  0.26595962011E+02  0.50400000000E-02 0.  1.
          2   -1    0    0  501    0  0.00000000000E+00 -0.00000000000E+00 -0.58796790469E+02  0.58796790524E+02  0.25500000000E-02 0. -1.
         24    2    1    2    0    0  0.17763568394E-14  0.00000000000E+00 -0.32200828935E+02  0.85392752536E+02  0.79088740042E+02 0.  0.
         66    2    3    3    0    0 -0.86301991631E+01 -0.55778979290E+01 -0.57311965737E+02  0.58260232593E+02  0.20000005726E+01 0.  0.
        -13    1    3    3    0    0  0.86301991631E+01  0.55778979290E+01  0.25111136802E+02  0.27132519942E+02  0.10566000000E+00 0.  1.
         13    1    4    4    0    0 -0.51155798385E+01 -0.30014926177E+01 -0.30069433015E+02  0.30648981727E+02  0.10566000000E+00 0. -1.
        -13    1    4    4    0    0 -0.13812821932E+01 -0.16852738272E+01 -0.13789092355E+02  0.13960598855E+02  0.10566000000E+00 0.  1.
        -14    1    4    4    0    0 -0.21333371314E+01 -0.89113148404E+00 -0.13453440367E+02  0.13650652012E+02  0.00000000000E+00 0.  1.
<mgrwt>
<rscale>  0 0.79088740E+02</rscale>
<asrwt>0</asrwt>
<pdfrwt beam="1">  1        2 0.90456600E-02 0.79088740E+02</pdfrwt>
<pdfrwt beam="2">  1       -1 0.40916865E-02 0.79088740E+02</pdfrwt>
<totfact> 0.15984279E+05</totfact>
</mgrwt>
</event>
<event>
 8    1  0.2561077E-020  0.8028601E+02  0.7818608E-02  0.1328242E+00
          2   -1    0    0  501    0  0.00000000000E+00  0.00000000000E+00  0.40302319347E+03  0.40302319348E+03  0.25500000000E-02 0. -1.
         -1   -1    0    0    0  501 -0.00000000000E+00 -0.00000000000E+00 -0.39984306635E+01  0.39984338399E+01  0.50400000000E-02 0.  1.
         24    2    1    2    0    0  0.00000000000E+00  0.00000000000E+00  0.39902476281E+03  0.40702162732E+03  0.80286012304E+02 0.  0.
         66    2    3    3    0    0  0.23880349819E+02 -0.10762574276E+02  0.35368567095E+03  0.35465991873E+03  0.20000001602E+01 0.  0.
        -13    1    3    3    0    0 -0.23880349819E+02  0.10762574276E+02  0.45339091853E+02  0.52361708592E+02  0.10566000000E+00 0.  1.
         13    1    4    4    0    0  0.53569968929E+01 -0.20711768782E+01  0.68910910331E+02  0.69149923471E+02  0.10566000000E+00 0. -1.
        -13    1    4    4    0    0  0.15121534444E+01 -0.51021734286E+00  0.21499362646E+02  0.21558772877E+02  0.10566000000E+00 0.  1.
         14    1    4    4    0    0  0.17011199482E+02 -0.81811800553E+01  0.26327539798E+03  0.26395122238E+03  0.00000000000E+00 0. -1.
<mgrwt>
<rscale>  0 0.80286012E+02</rscale>
<asrwt>0</asrwt>
<pdfrwt beam="1">  1        2 0.62003560E-01 0.80286012E+02</pdfrwt>
<pdfrwt beam="2">  1       -1 0.61514351E-03 0.80286012E+02</pdfrwt>
<totfact> 0.28065111E+05</totfact>
</mgrwt>
</event>
<event>
 8    1  0.2561077E-020  0.7962920E+02  0.7818608E-02  0.1330107E+00
         -1   -1    0    0    0  501 -0.00000000000E+00  0.00000000000E+00  0.58119837850E+01  0.58119859702E+01  0.50400000000E-02 0.  1.
          2   -1    0    0  501    0  0.00000000000E+00 -0.00000000000E+00 -0.27274718375E+03  0.27274718377E+03  0.25500000000E-02 0. -1.
         24    2    1    2    0    0  0.35527136788E-14  0.00000000000E+00 -0.26693519997E+03  0.27855916974E+03  0.79629203573E+02 0.  0.
         66    2    3    3    0    0  0.24604888235E+02  0.27350456736E+02 -0.18657555409E+03  0.19017856180E+03  0.19999942822E+01 0.  0.
        -13    1    3    3    0    0 -0.24604888235E+02 -0.27350456736E+02 -0.80359645885E+02  0.88380607938E+02  0.10566000000E+00 0.  1.
         13    1    4    4    0    0  0.11124172669E+02  0.13048534922E+02 -0.87544353796E+02  0.89207827721E+02  0.10566000000E+00 0. -1.
        -13    1    4    4    0    0  0.99798562363E+01  0.11369752053E+02 -0.76195966215E+02  0.77683365168E+02  0.10566000000E+00 0.  1.
        -14    1    4    4    0    0  0.35008593296E+01  0.29321697608E+01 -0.22835234074E+02  0.23287368910E+02  0.00000000000E+00 0.  1.
<mgrwt>
<rscale>  0 0.79629204E+02</rscale>
<asrwt>0</asrwt>
<pdfrwt beam="1">  1        2 0.41961095E-01 0.79629204E+02</pdfrwt>
<pdfrwt beam="2">  1       -1 0.89415174E-03 0.79629204E+02</pdfrwt>
<totfact> 0.24932119E+05</totfact>
</mgrwt>
</event>
<event>
 8    1  0.2561077E-020  0.7965504E+02  0.7818608E-02  0.1330033E+00
         -1   -1    0    0    0  501 -0.00000000000E+00  0.00000000000E+00  0.16627622702E+02  0.16627623466E+02  0.50400000000E-02 0.  1.
          2   -1    0    0  501    0  0.00000000000E+00 -0.00000000000E+00 -0.95397367912E+02  0.95397367946E+02  0.25500000000E-02 0. -1.
         24    2    1    2    0    0  0.00000000000E+00  0.71054273576E-14 -0.78769745210E+02  0.11202499141E+03  0.79655043409E+02 0.  0.
         66    2    3    3    0    0  0.25540640187E+01  0.38360077557E+02 -0.53903346955E+02  0.66238883046E+02  0.20000052639E+01 0.  0.
        -13    1    3    3    0    0 -0.25540640187E+01 -0.38360077557E+02 -0.24866398255E+02  0.45786108367E+02  0.10566000000E+00 0.  1.
         13    1    4    4    0    0  0.62296085416E+00  0.14019867278E+02 -0.18941747919E+02  0.23574260052E+02  0.10566000000E+00 0. -1.
        -13    1    4    4    0    0  0.39814145880E+00  0.13310601617E+02 -0.19182499202E+02  0.23351875122E+02  0.10566000000E+00 0.  1.
        -14    1    4    4    0    0  0.15329617058E+01  0.11029608662E+02 -0.15779099834E+02  0.19312747872E+02  0.00000000000E+00 0.  1.
<mgrwt>
<rscale>  0 0.79655043E+02</rscale>
<asrwt>0</asrwt>
<pdfrwt beam="1">  1        2 0.14676518E-01 0.79655043E+02</pdfrwt>
<pdfrwt beam="2">  1       -1 0.25580959E-02 0.79655043E+02</pdfrwt>
<totfact> 0.17699548E+05</totfact>
</mgrwt>
</event>
<event>
 8    1  0.2561077E-020  0.8563804E+02  0.7818608E-02  0.1313772E+00
          2   -1    0    0  501    0  0.00000000000E+00  0.00000000000E+00  0.17206799214E+03  0.17206799216E+03  0.25500000000E-02 0. -1.
         -1   -1    0    0    0  501 -0.00000000000E+00 -0.00000000000E+00 -0.10655487456E+02  0.10655488648E+02  0.50400000000E-02 0.  1.
         24    2    1    2    0    0  0.00000000000E+00 -0.88817841970E-15  0.16141250469E+03  0.18272348081E+03  0.85638039269E+02 0.  0.
         66    2    3    3    0    0 -0.22836272836E+02  0.43882957927E+01  0.15740543840E+03  0.15912644199E+03  0.20000007569E+01 0.  0.
        -13    1    3    3    0    0  0.22836272836E+02 -0.43882957927E+01  0.40070662838E+01  0.23597038824E+02  0.10566000000E+00 0.  1.
         13    1    4    4    0    0 -0.80672525504E+01  0.89143184104E+00  0.57208492870E+02  0.57781467919E+02  0.10566000000E+00 0. -1.
        -13    1    4    4    0    0 -0.66492880463E+01  0.11314886575E+01  0.42821789158E+02  0.43349856849E+02  0.10566000000E+00 0.  1.
        -14    1    4    4    0    0 -0.81197322396E+01  0.23653752942E+01  0.57375156375E+02  0.57995117216E+02  0.00000000000E+00 0.  1.
<mgrwt>
<rscale>  0 0.85638039E+02</rscale>
<asrwt>0</asrwt>
<pdfrwt beam="1">  1        2 0.26471998E-01 0.85638039E+02</pdfrwt>
<pdfrwt beam="2">  1       -1 0.16393059E-02 0.85638039E+02</pdfrwt>
<totfact> 0.17486845E+05</totfact>
</mgrwt>
</event>
<event>
 8    1  0.2561077E-020  0.7746451E+02  0.7818608E-02  0.1336405E+00
          2   -1    0    0  501    0  0.00000000000E+00  0.00000000000E+00  0.16705169086E+02  0.16705169281E+02  0.25500000000E-02 0. -1.
         -1   -1    0    0    0  501 -0.00000000000E+00 -0.00000000000E+00 -0.89803789395E+02  0.89803789536E+02  0.50400000000E-02 0.  1.
         24    2    1    2    0    0  0.00000000000E+00 -0.35527136788E-14 -0.73098620309E+02  0.10650895882E+03  0.77464508114E+02 0.  0.
         66    2    3    3    0    0 -0.22703077366E+02  0.23155561239E+02 -0.75180266706E+01  0.33348620080E+02  0.19999995096E+01 0.  0.
        -13    1    3    3    0    0  0.22703077366E+02 -0.23155561239E+02 -0.65580593638E+02  0.73160338737E+02  0.10566000000E+00 0.  1.
         13    1    4    4    0    0 -0.17554214176E+02  0.17438448332E+02 -0.52066710035E+01  0.25285776685E+02  0.10566000000E+00 0. -1.
        -13    1    4    4    0    0 -0.49382692255E+01  0.54484589993E+01 -0.23471444035E+01  0.77196152298E+01  0.10566000000E+00 0.  1.
        -14    1    4    4    0    0 -0.21059396464E+00  0.26865390768E+00  0.35788736415E-01  0.34322816567E+00  0.00000000000E+00 0.  1.
<mgrwt>
<rscale>  0 0.77464508E+02</rscale>
<asrwt>0</asrwt>
<pdfrwt beam="1">  1        2 0.25700261E-02 0.77464508E+02</pdfrwt>
<pdfrwt beam="2">  1       -1 0.13815967E-01 0.77464508E+02</pdfrwt>
<totfact> 0.13133751E+05</totfact>
</mgrwt>
</event>
<event>
 8    1  0.2561077E-020  0.7776761E+02  0.7818608E-02  0.1335509E+00
         -1   -1    0    0    0  501 -0.00000000000E+00  0.00000000000E+00  0.69772227952E+01  0.69772246155E+01  0.50400000000E-02 0.  1.
          2   -1    0    0  501    0  0.00000000000E+00 -0.00000000000E+00 -0.21669795748E+03  0.21669795749E+03  0.25500000000E-02 0. -1.
         24    2    1    2    0    0 -0.88817841970E-15  0.35527136788E-14 -0.20972073468E+03  0.22367518211E+03  0.77767605951E+02 0.  0.
         66    2    3    3    0    0 -0.52664775614E+01 -0.31637144867E+02 -0.16802921732E+03  0.17107443586E+03  0.20000030855E+01 0.  0.
        -13    1    3    3    0    0  0.52664775614E+01  0.31637144867E+02 -0.41691517364E+02  0.52600746244E+02  0.10566000000E+00 0.  1.
         13    1    4    4    0    0 -0.26739337060E+01 -0.18198068873E+02 -0.98366291514E+02  0.10007126512E+03  0.10566000000E+00 0.  1.
        -13    1    4    4    0    0 -0.18687852877E+01 -0.72922707765E+01 -0.39738534573E+02  0.40445418351E+02  0.10566000000E+00 0. -1.
        -14    1    4    4    0    0 -0.72375856763E+00 -0.61468052181E+01 -0.29924391230E+02  0.30557752394E+02  0.00000000000E+00 0.  1.
<mgrwt>
<rscale>  0 0.77767606E+02</rscale>
<asrwt>0</asrwt>
<pdfrwt beam="1">  1        2 0.33338142E-01 0.77767606E+02</pdfrwt>
<pdfrwt beam="2">  1       -1 0.10734192E-02 0.77767606E+02</pdfrwt>
<totfact> 0.24439844E+05</totfact>
</mgrwt>
</event>
<event>
 8    1  0.2561077E-020  0.8019083E+02  0.7818608E-02  0.1328511E+00
         -1   -1    0    0    0  501 -0.00000000000E+00  0.00000000000E+00  0.65086431587E+02  0.65086431783E+02  0.50400000000E-02 0.  1.
          2   -1    0    0  501    0  0.00000000000E+00 -0.00000000000E+00 -0.24700115469E+02  0.24700115601E+02  0.25500000000E-02 0. -1.
         24    2    1    2    0    0  0.00000000000E+00  0.00000000000E+00  0.40386316118E+02  0.89786547383E+02  0.80190832153E+02 0.  0.
         66    2    3    3    0    0  0.38447429507E+02 -0.64276070034E+01  0.30596141864E+02  0.49594786493E+02  0.19999957042E+01 0.  0.
        -13    1    3    3    0    0 -0.38447429507E+02  0.64276070034E+01  0.97901742542E+01  0.40191760890E+02  0.10566000000E+00 0.  1.
         13    1    4    4    0    0  0.10831198583E+02 -0.23646375690E+01  0.87263431475E+01  0.14109096440E+02  0.10566000000E+00 0. -1.
        -13    1    4    4    0    0  0.21584802669E+02 -0.26339528701E+01  0.16848915733E+02  0.27508881101E+02  0.10566000000E+00 0.  1.
        -14    1    4    4    0    0  0.60314282550E+01 -0.14290165643E+01  0.50208829833E+01  0.79768089527E+01  0.00000000000E+00 0.  1.
<mgrwt>
<rscale>  0 0.80190832E+02</rscale>
<asrwt>0</asrwt>
<pdfrwt beam="1">  1        2 0.38000178E-02 0.80190832E+02</pdfrwt>
<pdfrwt beam="2">  1       -1 0.10013297E-01 0.80190832E+02</pdfrwt>
<totfact> 0.12862343E+05</totfact>
</mgrwt>
</event>
<event>
 8    1  0.2561077E-020  0.7796589E+02  0.7818608E-02  0.1334925E+00
          2   -1    0    0  501    0  0.00000000000E+00  0.00000000000E+00  0.74125273790E+02  0.74125273834E+02  0.25500000000E-02 0. -1.
         -1   -1    0    0    0  501 -0.00000000000E+00 -0.00000000000E+00 -0.20501371666E+02  0.20501372286E+02  0.50400000000E-02 0.  1.
         24    2    1    2    0    0 -0.35527136788E-14 -0.88817841970E-15  0.53623902124E+02  0.94626646120E+02  0.77965885340E+02 0.  0.
         66    2    3    3    0    0  0.26288535823E+02  0.53042202847E+01  0.61124544321E+02  0.66778977170E+02  0.20000012467E+01 0.  0.
        -13    1    3    3    0    0 -0.26288535823E+02 -0.53042202847E+01 -0.75006421965E+01  0.27847668949E+02  0.10566000000E+00 0.  1.
         13    1    4    4    0    0  0.52960209468E+01  0.11282497142E+01  0.12172638677E+02  0.13323103305E+02  0.10566000000E+00 0. -1.
        -13    1    4    4    0    0  0.11561547120E+02  0.14533183530E+01  0.27268213842E+02  0.29653805088E+02  0.10566000000E+00 0.  1.
        -14    1    4    4    0    0  0.94309677554E+01  0.27226522175E+01  0.21683691802E+02  0.23802068777E+02  0.00000000000E+00 0.  1.
<mgrwt>
<rscale>  0 0.77965885E+02</rscale>
<asrwt>0</asrwt>
<pdfrwt beam="1">  1        2 0.11403888E-01 0.77965885E+02</pdfrwt>
<pdfrwt beam="2">  1       -1 0.31540573E-02 0.77965885E+02</pdfrwt>
<totfact> 0.17554616E+05</totfact>
</mgrwt>
</event>
<event>
 8    1  0.2561077E-020  0.8019218E+02  0.7818608E-02  0.1328507E+00
          2   -1    0    0  501    0  0.00000000000E+00  0.00000000000E+00  0.34714894294E+03  0.34714894295E+03  0.25500000000E-02 0. -1.
         -1   -1    0    0    0  501 -0.00000000000E+00 -0.00000000000E+00 -0.46311417294E+01  0.46311444719E+01  0.50400000000E-02 0.  1.
         24    2    1    2    0    0  0.00000000000E+00  0.00000000000E+00  0.34251780121E+03  0.35178008743E+03  0.80192180168E+02 0.  0.
         66    2    3    3    0    0  0.80473162675E+01  0.25208704767E+02  0.30336462551E+03  0.30452312575E+03  0.20000023156E+01 0.  0.
        -13    1    3    3    0    0 -0.80473162675E+01 -0.25208704767E+02  0.39153175702E+02  0.47256961675E+02  0.10566000000E+00 0.  1.
         13    1    4    4    0    0  0.40057853676E+01  0.12757889943E+02  0.15502347514E+03  0.15559916157E+03  0.10566000000E+00 0. -1.
        -13    1    4    4    0    0  0.38517528584E+01  0.11462278855E+02  0.13240906955E+03  0.13296011695E+03  0.10566000000E+00 0.  1.
        -14    1    4    4    0    0  0.18977804146E+00  0.98853596984E+00  0.15932080826E+02  0.15963847234E+02  0.00000000000E+00 0.  1.
<mgrwt>
<rscale>  0 0.80192180E+02</rscale>
<asrwt>0</asrwt>
<pdfrwt beam="1">  1        2 0.53407517E-01 0.80192180E+02</pdfrwt>
<pdfrwt beam="2">  1       -1 0.71248373E-03 0.80192180E+02</pdfrwt>
<totfact> 0.26702745E+05</totfact>
</mgrwt>
</event>
<event>
 8    1  0.2561077E-020  0.7702919E+02  0.7818608E-02  0.1337700E+00
         -1   -1    0    0    0  501 -0.00000000000E+00  0.00000000000E+00  0.23773196509E+02  0.23773197044E+02  0.50400000000E-02 0.  1.
          2   -1    0    0  501    0  0.00000000000E+00 -0.00000000000E+00 -0.62396916361E+02  0.62396916413E+02  0.25500000000E-02 0. -1.
         24    2    1    2    0    0  0.00000000000E+00  0.00000000000E+00 -0.38623719852E+02  0.86170113457E+02  0.77029193933E+02 0.  0.
         66    2    3    3    0    0 -0.28435646517E+02  0.21459111592E+02 -0.35624027066E+02  0.50419745850E+02  0.20000010055E+01 0.  0.
        -13    1    3    3    0    0  0.28435646517E+02 -0.21459111592E+02 -0.29996927860E+01  0.35750367607E+02  0.10566000000E+00 0.  1.
         13    1    4    4    0    0 -0.19823583064E+02  0.14957606570E+02 -0.26025482862E+02  0.35972786409E+02  0.10566000000E+00 0. -1.
        -13    1    4    4    0    0 -0.50080923740E+01  0.36167693218E+01 -0.56499508696E+01  0.83722827483E+01  0.10566000000E+00 0.  1.
         14    1    4    4    0    0 -0.36039710788E+01  0.28847357007E+01 -0.39485933341E+01  0.60746766925E+01  0.00000000000E+00 0. -1.
<mgrwt>
<rscale>  0 0.77029194E+02</rscale>
<asrwt>0</asrwt>
<pdfrwt beam="1">  1        2 0.95995255E-02 0.77029194E+02</pdfrwt>
<pdfrwt beam="2">  1       -1 0.36574149E-02 0.77029194E+02</pdfrwt>
<totfact> 0.17405226E+05</totfact>
</mgrwt>
</event>
<event>
 8    1  0.2561077E-020  0.7972961E+02  0.7818608E-02  0.1329821E+00
         -1   -1    0    0    0  501 -0.00000000000E+00  0.00000000000E+00  0.54818109483E+01  0.54818132652E+01  0.50400000000E-02 0.  1.
          2   -1    0    0  501    0  0.00000000000E+00 -0.00000000000E+00 -0.28990462021E+03  0.28990462022E+03  0.25500000000E-02 0. -1.
         24    2    1    2    0    0  0.00000000000E+00  0.00000000000E+00 -0.28442280926E+03  0.29538643349E+03  0.79729609679E+02 0.  0.
         66    2    3    3    0    0 -0.15959165245E+02  0.35240412586E+02 -0.17756804799E+03  0.18174430747E+03  0.19999992401E+01 0.  0.
        -13    1    3    3    0    0  0.15959165245E+02 -0.35240412586E+02 -0.10685476127E+03  0.11364212601E+03  0.10566000000E+00 0.  1.
         13    1    4    4    0    0 -0.14532889739E+02  0.31134450017E+02 -0.15595402427E+03  0.15969416931E+03  0.10566000000E+00 0. -1.
        -13    1    4    4    0    0 -0.69487033473E+00  0.24818748483E+01 -0.12372986592E+02  0.12639007429E+02  0.10566000000E+00 0.  1.
         14    1    4    4    0    0 -0.73140517183E+00  0.16240877207E+01 -0.92410371300E+01  0.94111307338E+01  0.00000000000E+00 0. -1.
<mgrwt>
<rscale>  0 0.79729610E+02</rscale>
<asrwt>0</asrwt>
<pdfrwt beam="1">  1        2 0.44600699E-01 0.79729610E+02</pdfrwt>
<pdfrwt beam="2">  1       -1 0.84335594E-03 0.79729610E+02</pdfrwt>
<totfact> 0.25404917E+05</totfact>
</mgrwt>
</event>
<event>
 8    1  0.2561077E-020  0.7952680E+02  0.7818608E-02  0.1330400E+00
         -1   -1    0    0    0  501 -0.00000000000E+00  0.00000000000E+00  0.14077221407E+02  0.14077222310E+02  0.50400000000E-02 0.  1.
          2   -1    0    0  501    0  0.00000000000E+00 -0.00000000000E+00 -0.11231817495E+03  0.11231817498E+03  0.25500000000E-02 0. -1.
         24    2    1    2    0    0 -0.71054273576E-14 -0.35527136788E-14 -0.98240953543E+02  0.12639539729E+03  0.79526797388E+02 0.  0.
         66    2    3    3    0    0  0.28989708088E+02  0.16200112507E+02 -0.83836893107E+02  0.90196848404E+02  0.19999990192E+01 0.  0.
        -13    1    3    3    0    0 -0.28989708088E+02 -0.16200112507E+02 -0.14404060436E+02  0.36198548884E+02  0.10566000000E+00 0.  1.
         13    1    4    4    0    0  0.10975871871E+02  0.66773474625E+01 -0.31388684695E+02  0.33916329745E+02  0.10566000000E+00 0. -1.
        -13    1    4    4    0    0  0.12088397502E+02  0.66066194664E+01 -0.33942150956E+02  0.36631373855E+02  0.10566000000E+00 0. -1.
         14    1    4    4    0    0  0.59254387139E+01  0.29161455783E+01 -0.18506057456E+02  0.19649144805E+02  0.00000000000E+00 0. -1.
<mgrwt>
<rscale>  0 0.79526797E+02</rscale>
<asrwt>0</asrwt>
<pdfrwt beam="1">  1        2 0.17279719E-01 0.79526797E+02</pdfrwt>
<pdfrwt beam="2">  1       -1 0.21657265E-02 0.79526797E+02</pdfrwt>
<totfact> 0.18617254E+05</totfact>
</mgrwt>
</event>
<event>
 8    1  0.2561077E-020  0.7932895E+02  0.7818608E-02  0.1330967E+00
          2   -1    0    0  501    0  0.00000000000E+00  0.00000000000E+00  0.16496229542E+03  0.16496229544E+03  0.25500000000E-02 0. -1.
         -1   -1    0    0    0  501 -0.00000000000E+00 -0.00000000000E+00 -0.95371525236E+01  0.95371538553E+01  0.50400000000E-02 0.  1.
         24    2    1    2    0    0  0.00000000000E+00  0.35527136788E-14  0.15542514290E+03  0.17449944930E+03  0.79328952848E+02 0.  0.
         66    2    3    3    0    0  0.18772848978E+02  0.17020303303E+02  0.14481301454E+03  0.14702693548E+03  0.19999980273E+01 0.  0.
        -13    1    3    3    0    0 -0.18772848978E+02 -0.17020303303E+02  0.10612128357E+02  0.27472513819E+02  0.10566000000E+00 0.  1.
         13    1    4    4    0    0  0.11159048441E+02  0.98411374955E+01  0.88315252760E+02  0.89559853637E+02  0.10566000000E+00 0. -1.
        -13    1    4    4    0    0  0.73949801064E+01  0.71364516882E+01  0.54881614818E+02  0.55835629150E+02  0.10566000000E+00 0.  1.
        -14    1    4    4    0    0  0.21882042989E+00  0.42714119007E-01  0.16161469642E+01  0.16314526920E+01  0.00000000000E+00 0.  1.
<mgrwt>
<rscale>  0 0.79328953E+02</rscale>
<asrwt>0</asrwt>
<pdfrwt beam="1">  1        2 0.25378813E-01 0.79328953E+02</pdfrwt>
<pdfrwt beam="2">  1       -1 0.14672544E-02 0.79328953E+02</pdfrwt>
<totfact> 0.21127708E+05</totfact>
</mgrwt>
</event>
<event>
 8    1  0.2561077E-020  0.8038773E+02  0.7818608E-02  0.1327955E+00
         -1   -1    0    0    0  501 -0.00000000000E+00  0.00000000000E+00  0.48949987924E+01  0.48950013870E+01  0.50400000000E-02 0.  1.
          2   -1    0    0  501    0  0.00000000000E+00 -0.00000000000E+00 -0.33004020532E+03  0.33004020533E+03  0.25500000000E-02 0. -1.
         24    2    1    2    0    0  0.00000000000E+00  0.88817841970E-15 -0.32514520653E+03  0.33493520672E+03  0.80387731468E+02 0.  0.
         66    2    3    3    0    0  0.93626047502E+01  0.44274115177E+01 -0.32437819642E+03  0.32454964901E+03  0.20000039286E+01 0.  0.
        -13    1    3    3    0    0 -0.93626047502E+01 -0.44274115177E+01 -0.76701010749E+00  0.10385557712E+02  0.10566000000E+00 0.  1.
         13    1    4    4    0    0  0.37537371737E+01  0.16368593454E+01 -0.14056389769E+03  0.14062357679E+03  0.10566000000E+00 0. -1.
        -13    1    4    4    0    0  0.43693351358E+01  0.16339524371E+01 -0.12402258767E+03  0.12411033118E+03  0.10566000000E+00 0.  1.
         14    1    4    4    0    0  0.12395324407E+01  0.11565997352E+01 -0.59791711066E+02  0.59815741037E+02  0.00000000000E+00 0. -1.
<mgrwt>
<rscale>  0 0.80387731E+02</rscale>
<asrwt>0</asrwt>
<pdfrwt beam="1">  1        2 0.50775399E-01 0.80387731E+02</pdfrwt>
<pdfrwt beam="2">  1       -1 0.75307720E-03 0.80387731E+02</pdfrwt>
<totfact> 0.26056228E+05</totfact>
</mgrwt>
</event>
<event>
 8    1  0.2561077E-020  0.7983559E+02  0.7818608E-02  0.1329519E+00
          2   -1    0    0  501    0  0.00000000000E+00  0.00000000000E+00  0.13886447421E+02  0.13886447655E+02  0.25500000000E-02 0. -1.
         -1   -1    0    0    0  501 -0.00000000000E+00 -0.00000000000E+00 -0.11474716872E+03  0.11474716883E+03  0.50400000000E-02 0.  1.
         24    2    1    2    0    0 -0.35527136788E-14 -0.35527136788E-14 -0.10086072130E+03  0.12863361649E+03  0.79835594750E+02 0.  0.
         66    2    3    3    0    0  0.25538848893E+02  0.26573327474E+02 -0.25864846744E+02  0.45070664765E+02  0.19999973631E+01 0.  0.
        -13    1    3    3    0    0 -0.25538848893E+02 -0.26573327474E+02 -0.74995874556E+02  0.83562951721E+02  0.10566000000E+00 0.  1.
         13    1    4    4    0    0  0.85131528179E+01  0.91044344335E+01 -0.84243778539E+01  0.15044793236E+02  0.10566000000E+00 0. -1.
        -13    1    4    4    0    0  0.14941195143E+02  0.15664645033E+02 -0.15971402628E+02  0.26901994020E+02  0.10566000000E+00 0.  1.
        -14    1    4    4    0    0  0.20845009319E+01  0.18042480080E+01 -0.14690662616E+01  0.31238775089E+01  0.00000000000E+00 0.  1.
<mgrwt>
<rscale>  0 0.79835595E+02</rscale>
<asrwt>0</asrwt>
<pdfrwt beam="1">  1        2 0.21363766E-02 0.79835595E+02</pdfrwt>
<pdfrwt beam="2">  1       -1 0.17653410E-01 0.79835595E+02</pdfrwt>
<totfact> 0.11560128E+05</totfact>
</mgrwt>
</event>
<event>
 8    1  0.2561077E-020  0.8155152E+02  0.7818608E-02  0.1324705E+00
         -1   -1    0    0    0  501 -0.00000000000E+00  0.00000000000E+00  0.19984962542E+01  0.19985026093E+01  0.50400000000E-02 0.  1.
          2   -1    0    0  501    0  0.00000000000E+00 -0.00000000000E+00 -0.83195558643E+03  0.83195558643E+03  0.25500000000E-02 0. -1.
         24    2    1    2    0    0  0.00000000000E+00  0.00000000000E+00 -0.82995709017E+03  0.83395408904E+03  0.81551524197E+02 0.  0.
         66    2    3    3    0    0 -0.15862080498E+02 -0.16300079792E+02 -0.76100871684E+03  0.76135114455E+03  0.20000016819E+01 0.  0.
        -13    1    3    3    0    0  0.15862080498E+02  0.16300079792E+02 -0.68948373334E+02  0.72602944489E+02  0.10566000000E+00 0.  1.
         13    1    4    4    0    0 -0.30558971805E+01 -0.26345781886E+01 -0.11745898875E+03  0.11752831451E+03  0.10566000000E+00 0.  1.
        -13    1    4    4    0    0 -0.54156418998E+01 -0.56198921075E+01 -0.25350160266E+03  0.25362173819E+03  0.10566000000E+00 0. -1.
        -14    1    4    4    0    0 -0.73905414177E+01 -0.80456094959E+01 -0.39004812542E+03  0.39020109185E+03  0.00000000000E+00 0.  1.
<mgrwt>
<rscale>  0 0.81551524E+02</rscale>
<asrwt>0</asrwt>
<pdfrwt beam="1">  1        2 0.12799289E+00 0.81551524E+02</pdfrwt>
<pdfrwt beam="2">  1       -1 0.30746212E-03 0.81551524E+02</pdfrwt>
<totfact> 0.32900898E+05</totfact>
</mgrwt>
</event>
<event>
 8    1  0.2561077E-020  0.7712950E+02  0.7818608E-02  0.1337401E+00
          2   -1    0    0  501    0  0.00000000000E+00  0.00000000000E+00  0.63486933101E+03  0.63486933101E+03  0.25500000000E-02 0. -1.
         -1   -1    0    0    0  501 -0.00000000000E+00 -0.00000000000E+00 -0.23425893743E+01  0.23425947960E+01  0.50400000000E-02 0.  1.
         24    2    1    2    0    0 -0.35527136788E-14 -0.17763568394E-14  0.63252674163E+03  0.63721192581E+03  0.77129498324E+02 0.  0.
         66    2    3    3    0    0  0.25027525415E+02 -0.14264766467E+02  0.52797433105E+03  0.52876342045E+03  0.19999930394E+01 0.  0.
        -13    1    3    3    0    0 -0.25027525415E+02  0.14264766467E+02  0.10455241058E+03  0.10844850535E+03  0.10566000000E+00 0.  1.
         13    1    4    4    0    0  0.11231006151E+02 -0.65368665256E+01  0.24794581477E+03  0.24828613403E+03  0.10566000000E+00 0. -1.
        -13    1    4    4    0    0  0.64460787924E+01 -0.42912641084E+01  0.13851758623E+03  0.13873391704E+03  0.10566000000E+00 0.  1.
        -14    1    4    4    0    0  0.73504404718E+01 -0.34366358326E+01  0.14151093005E+03  0.14174336939E+03  0.00000000000E+00 0.  1.
<mgrwt>
<rscale>  0 0.77129498E+02</rscale>
<asrwt>0</asrwt>
<pdfrwt beam="1">  1        2 0.97672190E-01 0.77129498E+02</pdfrwt>
<pdfrwt beam="2">  1       -1 0.36039884E-03 0.77129498E+02</pdfrwt>
<totfact> 0.35908345E+05</totfact>
</mgrwt>
</event>
<event>
 8    1  0.2561077E-020  0.7953711E+02  0.7818608E-02  0.1330370E+00
         -1   -1    0    0    0  501 -0.00000000000E+00  0.00000000000E+00  0.13129751649E+02  0.13129752616E+02  0.50400000000E-02 0.  1.
          2   -1    0    0  501    0  0.00000000000E+00 -0.00000000000E+00 -0.12045451165E+03  0.12045451168E+03  0.25500000000E-02 0. -1.
         24    2    1    2    0    0  0.88817841970E-15  0.00000000000E+00 -0.10732476000E+03  0.13358426429E+03  0.79537108053E+02 0.  0.
         66    2    3    3    0    0  0.61265856672E+01 -0.11486898806E+02 -0.11676328006E+03  0.11750381900E+03  0.20000033192E+01 0.  0.
        -13    1    3    3    0    0 -0.61265856672E+01  0.11486898806E+02  0.94385200538E+01  0.16080445297E+02  0.10566000000E+00 0.  1.
         13    1    4    4    0    0  0.13130876276E+01 -0.16457995366E+01 -0.20769895573E+02  0.20876603684E+02  0.10566000000E+00 0. -1.
        -13    1    4    4    0    0  0.12013457395E+01 -0.39992353423E+01 -0.35071363941E+02  0.35319241889E+02  0.10566000000E+00 0.  1.
        -14    1    4    4    0    0  0.36121523001E+01 -0.58418639274E+01 -0.60922020542E+02  0.61307973424E+02  0.00000000000E+00 0.  1.
<mgrwt>
<rscale>  0 0.79537108E+02</rscale>
<asrwt>0</asrwt>
<pdfrwt beam="1">  1        2 0.18531463E-01 0.79537108E+02</pdfrwt>
<pdfrwt beam="2">  1       -1 0.20199620E-02 0.79537108E+02</pdfrwt>
<totfact> 0.18999349E+05</totfact>
</mgrwt>
</event>
<event>
 8    1  0.2561077E-020  0.8828510E+02  0.7818608E-02  0.1307059E+00
         -1   -1    0    0    0  501 -0.00000000000E+00  0.00000000000E+00  0.38555830111E+01  0.38555863052E+01  0.50400000000E-02 0.  1.
          2   -1    0    0  501    0  0.00000000000E+00 -0.00000000000E+00 -0.50538765400E+03  0.50538765400E+03  0.25500000000E-02 0. -1.
         24    2    1    2    0    0  0.00000000000E+00 -0.71054273576E-14 -0.50153207098E+03  0.50924324031E+03  0.88285103911E+02 0.  0.
         66    2    3    3    0    0  0.15656746768E+02  0.39617159276E+02 -0.31714216357E+03  0.31999657019E+03  0.19999984455E+01 0.  0.
        -13    1    3    3    0    0 -0.15656746768E+02 -0.39617159276E+02 -0.18438990742E+03  0.18924667011E+03  0.10566000000E+00 0.  1.
         13    1    4    4    0    0  0.50158540285E+01  0.11151411253E+02 -0.94664469168E+02  0.95450959406E+02  0.10566000000E+00 0. -1.
        -13    1    4    4    0    0  0.36951239806E+01  0.11163665544E+02 -0.85790616738E+02  0.86592854520E+02  0.10566000000E+00 0.  1.
        -14    1    4    4    0    0  0.69457687585E+01  0.17302082480E+02 -0.13668707766E+03  0.13795275627E+03  0.00000000000E+00 0.  1.
<mgrwt>
<rscale>  0 0.88285104E+02</rscale>
<asrwt>0</asrwt>
<pdfrwt beam="1">  1        2 0.77751894E-01 0.88285104E+02</pdfrwt>
<pdfrwt beam="2">  1       -1 0.59316727E-03 0.88285104E+02</pdfrwt>
<totfact> 0.23605877E+05</totfact>
</mgrwt>
</event>
<event>
 8    1  0.2561077E-020  0.7903493E+02  0.7818608E-02  0.1331813E+00
         -1   -1    0    0    0  501 -0.00000000000E+00  0.00000000000E+00  0.21537838697E+02  0.21537839287E+02  0.50400000000E-02 0.  1.
          2   -1    0    0  501    0  0.00000000000E+00 -0.00000000000E+00 -0.72506350195E+02  0.72506350239E+02  0.25500000000E-02 0. -1.
         24    2    1    2    0    0  0.00000000000E+00  0.00000000000E+00 -0.50968511498E+02  0.94044189526E+02  0.79034931640E+02 0.  0.
         66    2    3    3    0    0  0.13565523433E+02  0.29832680461E+02 -0.51722057222E+02  0.61263230958E+02  0.20000036581E+01 0.  0.
        -13    1    3    3    0    0 -0.13565523433E+02 -0.29832680461E+02  0.75354572405E+00  0.32780958569E+02  0.10566000000E+00 0.  1.
         13    1    4    4    0    0  0.94282693794E+01  0.20759449729E+02 -0.36039947114E+02  0.42646640765E+02  0.10566000000E+00 0. -1.
        -13    1    4    4    0    0  0.18116004666E+01  0.36581381102E+01 -0.73960903358E+01  0.84485020551E+01  0.10566000000E+00 0.  1.
         14    1    4    4    0    0  0.23256535866E+01  0.54150926222E+01 -0.82860197720E+01  0.10168088138E+02  0.00000000000E+00 0. -1.
<mgrwt>
<rscale>  0 0.79034932E+02</rscale>
<asrwt>0</asrwt>
<pdfrwt beam="1">  1        2 0.11154823E-01 0.79034932E+02</pdfrwt>
<pdfrwt beam="2">  1       -1 0.33135137E-02 0.79034932E+02</pdfrwt>
<totfact> 0.16829653E+05</totfact>
</mgrwt>
</event>
<event>
 8    1  0.2561077E-020  0.7947983E+02  0.7818608E-02  0.1330534E+00
         -1   -1    0    0    0  501 -0.00000000000E+00  0.00000000000E+00  0.72324300650E+01  0.72324318211E+01  0.50400000000E-02 0.  1.
          2   -1    0    0  501    0  0.00000000000E+00 -0.00000000000E+00 -0.21835824964E+03  0.21835824965E+03  0.25500000000E-02 0. -1.
         24    2    1    2    0    0  0.00000000000E+00 -0.35527136788E-14 -0.21112581957E+03  0.22559068147E+03  0.79479833150E+02 0.  0.
         66    2    3    3    0    0  0.34463220761E+02  0.18435012868E+02 -0.12563788755E+03  0.13159195292E+03  0.19999999668E+01 0.  0.
        -13    1    3    3    0    0 -0.34463220761E+02 -0.18435012868E+02 -0.85487932019E+02  0.93998728553E+02  0.10566000000E+00 0.  1.
         13    1    4    4    0    0  0.45319852843E+01  0.28813804557E+01 -0.17351434302E+02  0.18163828900E+02  0.10566000000E+00 0. -1.
        -13    1    4    4    0    0  0.32950276884E+01  0.17479547230E+01 -0.10534189245E+02  0.11175547426E+02  0.10566000000E+00 0.  1.
        -14    1    4    4    0    0  0.26636207788E+02  0.13805677690E+02 -0.97752264007E+02  0.10225257659E+03  0.00000000000E+00 0.  1.
<mgrwt>
<rscale>  0 0.79479833E+02</rscale>
<asrwt>0</asrwt>
<pdfrwt beam="1">  1        2 0.33593572E-01 0.79479833E+02</pdfrwt>
<pdfrwt beam="2">  1       -1 0.11126819E-02 0.79479833E+02</pdfrwt>
<totfact> 0.23141249E+05</totfact>
</mgrwt>
</event>
<event>
 8    1  0.2561077E-020  0.8289604E+02  0.7818608E-02  0.1321028E+00
         -1   -1    0    0    0  501 -0.00000000000E+00  0.00000000000E+00  0.34791310262E+02  0.34791310627E+02  0.50400000000E-02 0.  1.
          2   -1    0    0  501    0  0.00000000000E+00 -0.00000000000E+00 -0.49378369981E+02  0.49378370047E+02  0.25500000000E-02 0. -1.
         24    2    1    2    0    0  0.00000000000E+00 -0.35527136788E-14 -0.14587059719E+02  0.84169680675E+02  0.82896036296E+02 0.  0.
         66    2    3    3    0    0 -0.11694408098E+02  0.30814568411E+02 -0.32775851389E+02  0.46524759190E+02  0.19999940793E+01 0.  0.
        -13    1    3    3    0    0  0.11694408098E+02 -0.30814568411E+02  0.18188791670E+02  0.37644921484E+02  0.10566000000E+00 0.  1.
         13    1    4    4    0    0 -0.31813027101E+01  0.78003911327E+01 -0.87798614023E+01  0.12168151833E+02  0.10566000000E+00 0. -1.
        -13    1    4    4    0    0 -0.44628085912E+01  0.10967712686E+02 -0.10628009512E+02  0.15911415157E+02  0.10566000000E+00 0.  1.
        -14    1    4    4    0    0 -0.40502967972E+01  0.12046464592E+02 -0.13367980475E+02  0.18445192200E+02  0.00000000000E+00 0.  1.
<mgrwt>
<rscale>  0 0.82896036E+02</rscale>
<asrwt>0</asrwt>
<pdfrwt beam="1">  1        2 0.75966723E-02 0.82896036E+02</pdfrwt>
<pdfrwt beam="2">  1       -1 0.53525093E-02 0.82896036E+02</pdfrwt>
<totfact> 0.13515236E+05</totfact>
</mgrwt>
</event>
<event>
 8    1  0.2561077E-020  0.8163429E+02  0.7818608E-02  0.1324477E+00
         -1   -1    0    0    0  501 -0.00000000000E+00  0.00000000000E+00  0.18192037320E+01  0.18192107135E+01  0.50400000000E-02 0.  1.
          2   -1    0    0  501    0  0.00000000000E+00 -0.00000000000E+00 -0.91580515073E+03  0.91580515074E+03  0.25500000000E-02 0. -1.
         24    2    1    2    0    0  0.17763568394E-14  0.44408920985E-15 -0.91398594700E+03  0.91762436145E+03  0.81634290659E+02 0.  0.
         66    2    3    3    0    0 -0.11017145662E+02 -0.34051055863E+01 -0.89710042590E+03  0.89717676429E+03  0.19999989335E+01 0.  0.
        -13    1    3    3    0    0  0.11017145662E+02  0.34051055863E+01 -0.16885521102E+02  0.20447597158E+02  0.10566000000E+00 0.  1.
         13    1    4    4    0    0 -0.44161139986E+00 -0.21902923882E+00 -0.35391515470E+02  0.35395105958E+02  0.10566000000E+00 0. -1.
        -13    1    4    4    0    0  0.29222593930E-01 -0.49652123192E-03 -0.50571627784E+01  0.50583508784E+01  0.10566000000E+00 0. -1.
        -14    1    4    4    0    0 -0.10604756856E+02 -0.31855798262E+01 -0.85665174765E+03  0.85672330746E+03  0.00000000000E+00 0.  1.
<mgrwt>
<rscale>  0 0.81634291E+02</rscale>
<asrwt>0</asrwt>
<pdfrwt beam="1">  1        2 0.14089273E+00 0.81634291E+02</pdfrwt>
<pdfrwt beam="2">  1       -1 0.27987877E-03 0.81634291E+02</pdfrwt>
<totfact> 0.33217675E+05</totfact>
</mgrwt>
</event>
<event>
 8    1  0.2561077E-020  0.7991830E+02  0.7818608E-02  0.1329283E+00
         -1   -1    0    0    0  501 -0.00000000000E+00  0.00000000000E+00  0.83714556335E+02  0.83714556487E+02  0.50400000000E-02 0.  1.
          2   -1    0    0  501    0  0.00000000000E+00 -0.00000000000E+00 -0.19073549089E+02  0.19073549260E+02  0.25500000000E-02 0. -1.
         24    2    1    2    0    0 -0.35527136788E-14  0.00000000000E+00  0.64641007246E+02  0.10278810575E+03  0.79918301191E+02 0.  0.
         66    2    3    3    0    0  0.22547030638E+02 -0.29994336197E+02  0.14766765197E+02  0.40374325390E+02  0.20000004487E+01 0.  0.
        -13    1    3    3    0    0 -0.22547030638E+02  0.29994336197E+02  0.49874242049E+02  0.62413780357E+02  0.10566000000E+00 0.  1.
         13    1    4    4    0    0  0.17920511641E+02 -0.23778999095E+02  0.12137929972E+02  0.32154720392E+02  0.10566000000E+00 0. -1.
        -13    1    4    4    0    0  0.38890497024E+01 -0.55537408530E+01  0.21119206434E+01  0.71021206615E+01  0.10566000000E+00 0.  1.
         14    1    4    4    0    0  0.73746929479E+00 -0.66159624872E+00  0.51691458189E+00  0.11174843364E+01  0.00000000000E+00 0. -1.
<mgrwt>
<rscale>  0 0.79918301E+02</rscale>
<asrwt>0</asrwt>
<pdfrwt beam="1">  1        2 0.29343922E-02 0.79918301E+02</pdfrwt>
<pdfrwt beam="2">  1       -1 0.12879162E-01 0.79918301E+02</pdfrwt>
<totfact> 0.12332872E+05</totfact>
</mgrwt>
</event>
<event>
 8    1  0.2561077E-020  0.7864632E+02  0.7818608E-02  0.1332937E+00
          2   -1    0    0  501    0  0.00000000000E+00  0.00000000000E+00  0.46397910183E+03  0.46397910183E+03  0.25500000000E-02 0. -1.
         -1   -1    0    0    0  501 -0.00000000000E+00 -0.00000000000E+00 -0.33327146338E+01  0.33327184448E+01  0.50400000000E-02 0.  1.
         24    2    1    2    0    0  0.35527136788E-14  0.00000000000E+00  0.46064638719E+03  0.46731182028E+03  0.78646318020E+02 0.  0.
         66    2    3    3    0    0  0.31268125363E+02 -0.15190182483E+02  0.33936801310E+03  0.34114965284E+03  0.20000014745E+01 0.  0.
        -13    1    3    3    0    0 -0.31268125363E+02  0.15190182483E+02  0.12127837409E+03  0.12616216744E+03  0.10566000000E+00 0.  1.
         13    1    4    4    0    0  0.43189086895E+01 -0.20433016754E+01  0.53546599083E+02  0.53759440951E+02  0.10566000000E+00 0. -1.
        -13    1    4    4    0    0  0.10934760176E+02 -0.53970737499E+01  0.11466726476E+03  0.11531387669E+03  0.10566000000E+00 0.  1.
         14    1    4    4    0    0  0.16014456498E+02 -0.77498070572E+01  0.17115414926E+03  0.17207633520E+03  0.00000000000E+00 0. -1.
<mgrwt>
<rscale>  0 0.78646318E+02</rscale>
<asrwt>0</asrwt>
<pdfrwt beam="1">  1        2 0.71381426E-01 0.78646318E+02</pdfrwt>
<pdfrwt beam="2">  1       -1 0.51272544E-03 0.78646318E+02</pdfrwt>
<totfact> 0.31071652E+05</totfact>
</mgrwt>
</event>
<event>
 8    1  0.2561077E-020  0.8483279E+02  0.7818608E-02  0.1315870E+00
          2   -1    0    0  501    0  0.00000000000E+00  0.00000000000E+00  0.15754410625E+03  0.15754410627E+03  0.25500000000E-02 0. -1.
         -1   -1    0    0    0  501 -0.00000000000E+00 -0.00000000000E+00 -0.11419980080E+02  0.11419981192E+02  0.50400000000E-02 0.  1.
         24    2    1    2    0    0  0.00000000000E+00  0.88817841970E-15  0.14612412617E+03  0.16896408746E+03  0.84832792026E+02 0.  0.
         66    2    3    3    0    0 -0.27861887135E+02  0.77963105244E+01  0.13481660182E+03  0.13790062849E+03  0.19999997927E+01 0.  0.
        -13    1    3    3    0    0  0.27861887135E+02 -0.77963105244E+01  0.11307524354E+02  0.31063458976E+02  0.10566000000E+00 0.  1.
         13    1    4    4    0    0 -0.13919970446E+02  0.44612590020E+01  0.68979387839E+02  0.70511243924E+02  0.10566000000E+00 0. -1.
        -13    1    4    4    0    0 -0.13487268938E+02  0.32648580208E+01  0.64477370780E+02  0.65953834066E+02  0.10566000000E+00 0.  1.
        -14    1    4    4    0    0 -0.45464775022E+00  0.70193501611E-01  0.13598431993E+01  0.14355504976E+01  0.00000000000E+00 0.  1.
<mgrwt>
<rscale>  0 0.84832792E+02</rscale>
<asrwt>0</asrwt>
<pdfrwt beam="1">  1        2 0.24237553E-01 0.84832792E+02</pdfrwt>
<pdfrwt beam="2">  1       -1 0.17569202E-02 0.84832792E+02</pdfrwt>
<totfact> 0.17412305E+05</totfact>
</mgrwt>
</event>
<event>
 8    1  0.2561077E-020  0.8651320E+02  0.7818608E-02  0.1311522E+00
          2   -1    0    0  501    0  0.00000000000E+00  0.00000000000E+00  0.33174845985E+03  0.33174845986E+03  0.25500000000E-02 0. -1.
         -1   -1    0    0    0  501 -0.00000000000E+00 -0.00000000000E+00 -0.56402157072E+01  0.56402179591E+01  0.50400000000E-02 0.  1.
         24    2    1    2    0    0  0.35527136788E-14  0.35527136788E-14  0.32610824414E+03  0.33738867782E+03  0.86513195655E+02 0.  0.
         66    2    3    3    0    0 -0.24324276071E+02 -0.17056705485E+02  0.28563156075E+03  0.28717936921E+03  0.19999986656E+01 0.  0.
        -13    1    3    3    0    0  0.24324276071E+02  0.17056705485E+02  0.40476683386E+02  0.50209308602E+02  0.10566000000E+00 0.  1.
         13    1    4    4    0    0 -0.62768695735E+01 -0.48745701758E+01  0.81612548741E+02  0.81998657318E+02  0.10566000000E+00 0. -1.
        -13    1    4    4    0    0 -0.56917387286E+01 -0.33489690746E+01  0.59042901360E+02  0.59411167710E+02  0.10566000000E+00 0.  1.
         14    1    4    4    0    0 -0.12355667769E+02 -0.88331662350E+01  0.14497611065E+03  0.14576954419E+03  0.00000000000E+00 0. -1.
<mgrwt>
<rscale>  0 0.86513196E+02</rscale>
<asrwt>0</asrwt>
<pdfrwt beam="1">  1        2 0.51038239E-01 0.86513196E+02</pdfrwt>
<pdfrwt beam="2">  1       -1 0.86772543E-03 0.86513196E+02</pdfrwt>
<totfact> 0.21521491E+05</totfact>
</mgrwt>
</event>
<event>
 8    1  0.2561077E-020  0.7997917E+02  0.7818608E-02  0.1329111E+00
         -1   -1    0    0    0  501 -0.00000000000E+00  0.00000000000E+00  0.83314648701E+02  0.83314648853E+02  0.50400000000E-02 0.  1.
          2   -1    0    0  501    0  0.00000000000E+00 -0.00000000000E+00 -0.19194306466E+02  0.19194306635E+02  0.25500000000E-02 0. -1.
         24    2    1    2    0    0  0.00000000000E+00  0.00000000000E+00  0.64120342235E+02  0.10250895549E+03  0.79979170207E+02 0.  0.
         66    2    3    3    0    0 -0.23851187087E+02  0.18225286526E+02 -0.17362485752E+01  0.30133946600E+02  0.19999960453E+01 0.  0.
        -13    1    3    3    0    0  0.23851187087E+02 -0.18225286526E+02  0.65856590811E+02  0.72375008889E+02  0.10566000000E+00 0.  1.
         13    1    4    4    0    0 -0.11895632571E+02  0.96906317580E+01 -0.40598651452E+00  0.15348954597E+02  0.10566000000E+00 0. -1.
        -13    1    4    4    0    0 -0.20745673933E+01  0.11712367085E+01  0.48567315636E-01  0.23851935176E+01  0.10566000000E+00 0. -1.
        -14    1    4    4    0    0 -0.98809871229E+01  0.73634180592E+01 -0.13788293763E+01  0.12399798486E+02  0.00000000000E+00 0.  1.
<mgrwt>
<rscale>  0 0.79979170E+02</rscale>
<asrwt>0</asrwt>
<pdfrwt beam="1">  1        2 0.29529703E-02 0.79979170E+02</pdfrwt>
<pdfrwt beam="2">  1       -1 0.12817638E-01 0.79979170E+02</pdfrwt>
<totfact> 0.12321703E+05</totfact>
</mgrwt>
</event>
<event>
 8    1  0.2561077E-020  0.7924319E+02  0.7818608E-02  0.1331213E+00
          2   -1    0    0  501    0  0.00000000000E+00  0.00000000000E+00  0.17166006203E+03  0.17166006205E+03  0.25500000000E-02 0. -1.
         -1   -1    0    0    0  501 -0.00000000000E+00 -0.00000000000E+00 -0.91452302637E+01  0.91452316525E+01  0.50400000000E-02 0.  1.
         24    2    1    2    0    0  0.00000000000E+00  0.00000000000E+00  0.16251483177E+03  0.18080529370E+03  0.79243193314E+02 0.  0.
         66    2    3    3    0    0  0.10522852372E+02 -0.31106009823E+02  0.13179241574E+03  0.13583650141E+03  0.20000003358E+01 0.  0.
        -13    1    3    3    0    0 -0.10522852372E+02  0.31106009823E+02  0.30722416031E+02  0.44968792290E+02  0.10566000000E+00 0.  1.
         13    1    4    4    0    0  0.60226806355E+01 -0.16776920543E+02  0.72901892651E+02  0.75049549373E+02  0.10566000000E+00 0. -1.
        -13    1    4    4    0    0  0.18039857866E+01 -0.72012982664E+01  0.30625296745E+02  0.31512426536E+02  0.10566000000E+00 0.  1.
        -14    1    4    4    0    0  0.26961859500E+01 -0.71277910139E+01  0.28265226343E+02  0.29274525507E+02  0.00000000000E+00 0.  1.
<mgrwt>
<rscale>  0 0.79243193E+02</rscale>
<asrwt>0</asrwt>
<pdfrwt beam="1">  1        2 0.26409239E-01 0.79243193E+02</pdfrwt>
<pdfrwt beam="2">  1       -1 0.14069587E-02 0.79243193E+02</pdfrwt>
<totfact> 0.21470223E+05</totfact>
</mgrwt>
</event>
<event>
 8    1  0.2561077E-020  0.8263578E+02  0.7818608E-02  0.1321734E+00
         -1   -1    0    0    0  501 -0.00000000000E+00  0.00000000000E+00  0.11742415266E+01  0.11742523427E+01  0.50400000000E-02 0.  1.
          2   -1    0    0  501    0  0.00000000000E+00 -0.00000000000E+00 -0.14538406253E+04  0.14538406253E+04  0.25500000000E-02 0. -1.
         24    2    1    2    0    0  0.00000000000E+00  0.00000000000E+00 -0.14526663838E+04  0.14550148777E+04  0.82635776894E+02 0.  0.
         66    2    3    3    0    0  0.13755033306E+02  0.15627294497E+02 -0.13546714128E+04  0.13548328494E+04  0.20000003391E+01 0.  0.
        -13    1    3    3    0    0 -0.13755033306E+02 -0.15627294497E+02 -0.97994971030E+02  0.10018202826E+03  0.10566000000E+00 0.  1.
         13    1    4    4    0    0  0.21834355001E+01  0.30641674610E+01 -0.23236198676E+03  0.23239247098E+03  0.10566000000E+00 0. -1.
        -13    1    4    4    0    0  0.18399767329E+01  0.28185281899E+01 -0.23229660418E+03  0.23232101302E+03  0.10566000000E+00 0.  1.
        -14    1    4    4    0    0  0.97316210725E+01  0.97445988457E+01 -0.89001282182E+03  0.89011936540E+03  0.00000000000E+00 0.  1.
<mgrwt>
<rscale>  0 0.82635777E+02</rscale>
<asrwt>0</asrwt>
<pdfrwt beam="1">  1        2 0.22366635E+00 0.82635777E+02</pdfrwt>
<pdfrwt beam="2">  1       -1 0.18065454E-03 0.82635777E+02</pdfrwt>
<totfact> 0.30901173E+05</totfact>
</mgrwt>
</event>
<event>
 8    1  0.2561077E-020  0.8031373E+02  0.7818608E-02  0.1328163E+00
          2   -1    0    0  501    0  0.00000000000E+00  0.00000000000E+00  0.36375110148E+03  0.36375110149E+03  0.25500000000E-02 0. -1.
         -1   -1    0    0    0  501 -0.00000000000E+00 -0.00000000000E+00 -0.44331780056E+01  0.44331808706E+01  0.50400000000E-02 0.  1.
         24    2    1    2    0    0 -0.35527136788E-14  0.35527136788E-14  0.35931792347E+03  0.36818428236E+03  0.80313732615E+02 0.  0.
         66    2    3    3    0    0 -0.21210389680E+02  0.22882763462E+02  0.29547932917E+03  0.29712881965E+03  0.20000014016E+01 0.  0.
        -13    1    3    3    0    0  0.21210389680E+02 -0.22882763462E+02  0.63838594299E+02  0.71055462705E+02  0.10566000000E+00 0.  1.
         13    1    4    4    0    0 -0.24318706594E+01  0.29335420635E+01  0.37985795644E+02  0.38176583119E+02  0.10566000000E+00 0. -1.
        -13    1    4    4    0    0 -0.15311527240E+02  0.15436287953E+02  0.20732174311E+03  0.20845872057E+03  0.10566000000E+00 0.  1.
        -14    1    4    4    0    0 -0.34669917804E+01  0.45129334461E+01  0.50171790419E+02  0.50493515962E+02  0.00000000000E+00 0.  1.
<mgrwt>
<rscale>  0 0.80313733E+02</rscale>
<asrwt>0</asrwt>
<pdfrwt beam="1">  1        2 0.55961735E-01 0.80313733E+02</pdfrwt>
<pdfrwt beam="2">  1       -1 0.68202728E-03 0.80313733E+02</pdfrwt>
<totfact> 0.27043543E+05</totfact>
</mgrwt>
</event>
<event>
 8    1  0.2561077E-020  0.7784307E+02  0.7818608E-02  0.1335286E+00
          2   -1    0    0  501    0  0.00000000000E+00  0.00000000000E+00  0.19937831473E+03  0.19937831475E+03  0.25500000000E-02 0. -1.
         -1   -1    0    0    0  501 -0.00000000000E+00 -0.00000000000E+00 -0.75980468382E+01  0.75980485098E+01  0.50400000000E-02 0.  1.
         24    2    1    2    0    0  0.00000000000E+00 -0.35527136788E-14  0.19178026789E+03  0.20697636326E+03  0.77843071586E+02 0.  0.
         66    2    3    3    0    0 -0.12388440188E+02  0.23784985233E+02  0.17086054266E+03  0.17296393846E+03  0.19999989197E+01 0.  0.
        -13    1    3    3    0    0  0.12388440188E+02 -0.23784985233E+02  0.20919725229E+02  0.34012424796E+02  0.10566000000E+00 0.  1.
         13    1    4    4    0    0 -0.77511438238E+01  0.13206547437E+02  0.95238667030E+02  0.96461950983E+02  0.10566000000E+00 0.  1.
        -13    1    4    4    0    0 -0.28257888963E+01  0.56325217388E+01  0.41738959582E+02  0.42212110763E+02  0.10566000000E+00 0. -1.
        -14    1    4    4    0    0 -0.18115074680E+01  0.49459160572E+01  0.33882916050E+02  0.34289876713E+02  0.00000000000E+00 0.  1.
<mgrwt>
<rscale>  0 0.77843072E+02</rscale>
<asrwt>0</asrwt>
<pdfrwt beam="1">  1        2 0.30673586E-01 0.77843072E+02</pdfrwt>
<pdfrwt beam="2">  1       -1 0.11689304E-02 0.77843072E+02</pdfrwt>
<totfact> 0.23680246E+05</totfact>
</mgrwt>
</event>
<event>
 8    1  0.2561077E-020  0.7931014E+02  0.7818608E-02  0.1331021E+00
          2   -1    0    0  501    0  0.00000000000E+00  0.00000000000E+00  0.63663386326E+02  0.63663386377E+02  0.25500000000E-02 0. -1.
         -1   -1    0    0    0  501 -0.00000000000E+00 -0.00000000000E+00 -0.24700611306E+02  0.24700611820E+02  0.50400000000E-02 0.  1.
         24    2    1    2    0    0  0.35527136788E-14  0.00000000000E+00  0.38962775020E+02  0.88363998197E+02  0.79310140210E+02 0.  0.
         66    2    3    3    0    0  0.15763694773E+02  0.30383115415E+02  0.41746006715E+02  0.54021818331E+02  0.20000009751E+01 0.  0.
        -13    1    3    3    0    0 -0.15763694773E+02 -0.30383115415E+02 -0.27832316953E+01  0.34342179866E+02  0.10566000000E+00 0.  1.
         13    1    4    4    0    0  0.13310538389E+01  0.30842814691E+01  0.37323596990E+01  0.50225660235E+01  0.10566000000E+00 0. -1.
        -13    1    4    4    0    0  0.54228470878E+01  0.11765232240E+02  0.16356402993E+02  0.20865546797E+02  0.10566000000E+00 0.  1.
         14    1    4    4    0    0  0.90097938467E+01  0.15533601706E+02  0.21657244023E+02  0.28133705511E+02  0.00000000000E+00 0. -1.
<mgrwt>
<rscale>  0 0.79310140E+02</rscale>
<asrwt>0</asrwt>
<pdfrwt beam="1">  1        2 0.97943670E-02 0.79310140E+02</pdfrwt>
<pdfrwt beam="2">  1       -1 0.38000942E-02 0.79310140E+02</pdfrwt>
<totfact> 0.16158314E+05</totfact>
</mgrwt>
</event>
<event>
 8    1  0.2561077E-020  0.7963988E+02  0.7818608E-02  0.1330077E+00
         -1   -1    0    0    0  501 -0.00000000000E+00  0.00000000000E+00  0.45045548677E+01  0.45045576873E+01  0.50400000000E-02 0.  1.
          2   -1    0    0  501    0  0.00000000000E+00 -0.00000000000E+00 -0.35200529107E+03  0.35200529108E+03  0.25500000000E-02 0. -1.
         24    2    1    2    0    0  0.00000000000E+00  0.35527136788E-14 -0.34750073621E+03  0.35650984877E+03  0.79639880754E+02 0.  0.
         66    2    3    3    0    0  0.16200258830E+02  0.22766542856E+02 -0.30070089417E+03  0.30200296628E+03  0.20000074496E+01 0.  0.
        -13    1    3    3    0    0 -0.16200258830E+02 -0.22766542856E+02 -0.46799842037E+02  0.54506882488E+02  0.10566000000E+00 0.  1.
         13    1    4    4    0    0  0.92422561257E+01  0.11490142395E+02 -0.16072420273E+03  0.16139926635E+03  0.10566000000E+00 0. -1.
        -13    1    4    4    0    0  0.68710232582E+01  0.11023346692E+02 -0.13769967579E+03  0.13831101550E+03  0.10566000000E+00 0.  1.
        -14    1    4    4    0    0  0.86979445693E-01  0.25305376876E+00 -0.22770156427E+01  0.22926844246E+01  0.00000000000E+00 0.  1.
<mgrwt>
<rscale>  0 0.79639881E+02</rscale>
<asrwt>0</asrwt>
<pdfrwt beam="1">  1        2 0.54154639E-01 0.79639881E+02</pdfrwt>
<pdfrwt beam="2">  1       -1 0.69300894E-03 0.79639881E+02</pdfrwt>
<totfact> 0.27325167E+05</totfact>
</mgrwt>
</event>
<event>
 8    1  0.2561077E-020  0.8010616E+02  0.7818608E-02  0.1328750E+00
          2   -1    0    0  501    0  0.00000000000E+00  0.00000000000E+00  0.10083519023E+02  0.10083519345E+02  0.25500000000E-02 0. -1.
         -1   -1    0    0    0  501 -0.00000000000E+00 -0.00000000000E+00 -0.15909615169E+03  0.15909615177E+03  0.50400000000E-02 0.  1.
         24    2    1    2    0    0 -0.35527136788E-14  0.71054273576E-14 -0.14901263267E+03  0.16917967112E+03  0.80106157219E+02 0.  0.
         66    2    3    3    0    0  0.23562137622E+02 -0.23217281084E+02 -0.26950546189E+02  0.42714732932E+02  0.19999998266E+01 0.  0.
        -13    1    3    3    0    0 -0.23562137622E+02  0.23217281084E+02 -0.12206208648E+03  0.12646493819E+03  0.10566000000E+00 0.  1.
         13    1    4    4    0    0  0.46643898893E+01 -0.53975625105E+01 -0.58604528565E+01  0.92328915196E+01  0.10566000000E+00 0. -1.
        -13    1    4    4    0    0  0.93915785613E+01 -0.80828326297E+01 -0.10393958999E+02  0.16173418899E+02  0.10566000000E+00 0.  1.
        -14    1    4    4    0    0  0.95061691716E+01 -0.97368859439E+01 -0.10696134333E+02  0.17308422513E+02  0.00000000000E+00 0.  1.
<mgrwt>
<rscale>  0 0.80106157E+02</rscale>
<asrwt>0</asrwt>
<pdfrwt beam="1">  1        2 0.15513108E-02 0.80106157E+02</pdfrwt>
<pdfrwt beam="2">  1       -1 0.24476329E-01 0.80106157E+02</pdfrwt>
<totfact> 0.10588444E+05</totfact>
</mgrwt>
</event>
<event>
 8    1  0.2561077E-020  0.7052245E+02  0.7818608E-02  0.1358325E+00
         -1   -1    0    0    0  501 -0.00000000000E+00  0.00000000000E+00  0.46911271198E+01  0.46911298272E+01  0.50400000000E-02 0.  1.
          2   -1    0    0  501    0  0.00000000000E+00 -0.00000000000E+00 -0.26504367243E+03  0.26504367244E+03  0.25500000000E-02 0. -1.
         24    2    1    2    0    0  0.17763568394E-14 -0.88817841970E-15 -0.26035254531E+03  0.26973480227E+03  0.70522448240E+02 0.  0.
         66    2    3    3    0    0 -0.14333661532E+02  0.69524719525E+01 -0.25047695154E+03  0.25099102369E+03  0.19999999339E+01 0.  0.
        -13    1    3    3    0    0  0.14333661532E+02 -0.69524719525E+01 -0.98755937700E+01  0.18743778582E+02  0.10566000000E+00 0.  1.
         13    1    4    4    0    0 -0.22555700406E+01  0.45970152796E+00 -0.32203427667E+02  0.32285768370E+02  0.10566000000E+00 0. -1.
        -13    1    4    4    0    0 -0.33424170630E+01  0.14482340630E+01 -0.60121660854E+02  0.60232004794E+02  0.10566000000E+00 0. -1.
         14    1    4    4    0    0 -0.87356744288E+01  0.50445363615E+01 -0.15815186302E+03  0.15847325052E+03  0.00000000000E+00 0. -1.
<mgrwt>
<rscale>  0 0.70522448E+02</rscale>
<asrwt>0</asrwt>
<pdfrwt beam="1">  1        2 0.40775938E-01 0.70522448E+02</pdfrwt>
<pdfrwt beam="2">  1       -1 0.72171228E-03 0.70522448E+02</pdfrwt>
<totfact> 0.33866682E+05</totfact>
</mgrwt>
</event>
<event>
 8    1  0.2561077E-020  0.7933727E+02  0.7818608E-02  0.1330943E+00
          2   -1    0    0  501    0  0.00000000000E+00  0.00000000000E+00  0.49822827576E+02  0.49822827642E+02  0.25500000000E-02 0. -1.
         -1   -1    0    0    0  501 -0.00000000000E+00 -0.00000000000E+00 -0.31583930876E+02  0.31583931278E+02  0.50400000000E-02 0.  1.
         24    2    1    2    0    0  0.00000000000E+00 -0.35527136788E-14  0.18238896701E+02  0.81406758919E+02  0.79337273995E+02 0.  0.
         66    2    3    3    0    0 -0.22948034279E+02  0.31177868150E+02  0.36291693135E+00  0.38766008968E+02  0.20000007327E+01 0.  0.
        -13    1    3    3    0    0  0.22948034279E+02 -0.31177868150E+02  0.17875979769E+02  0.42640749951E+02  0.10566000000E+00 0.  1.
         13    1    4    4    0    0 -0.63813816840E+01  0.97812998595E+01 -0.33568750664E+00  0.11684164894E+02  0.10566000000E+00 0. -1.
        -13    1    4    4    0    0 -0.10104753877E+01  0.11823123401E+01  0.18280963586E+00  0.15695561084E+01  0.10566000000E+00 0.  1.
        -14    1    4    4    0    0 -0.15556177207E+02  0.20214255951E+02  0.51579480214E+00  0.25512287965E+02  0.00000000000E+00 0.  1.
<mgrwt>
<rscale>  0 0.79337274E+02</rscale>
<asrwt>0</asrwt>
<pdfrwt beam="1">  1        2 0.76650503E-02 0.79337274E+02</pdfrwt>
<pdfrwt beam="2">  1       -1 0.48590664E-02 0.79337274E+02</pdfrwt>
<totfact> 0.15275448E+05</totfact>
</mgrwt>
</event>
<event>
 8    1  0.2561077E-020  0.8217470E+02  0.7818608E-02  0.1322991E+00
          2   -1    0    0  501    0  0.00000000000E+00  0.00000000000E+00  0.64205543893E+03  0.64205543893E+03  0.25500000000E-02 0. -1.
         -1   -1    0    0    0  501 -0.00000000000E+00 -0.00000000000E+00 -0.26293194173E+01  0.26293242477E+01  0.50400000000E-02 0.  1.
         24    2    1    2    0    0  0.00000000000E+00  0.00000000000E+00  0.63942611951E+03  0.64468476318E+03  0.82174701489E+02 0.  0.
         66    2    3    3    0    0 -0.63433689348E+00  0.36442323609E+02  0.46828381375E+03  0.46970434908E+03  0.19999980719E+01 0.  0.
        -13    1    3    3    0    0  0.63433689348E+00 -0.36442323609E+02  0.17114230576E+03  0.17498041410E+03  0.10566000000E+00 0.  1.
         13    1    4    4    0    0  0.53975611034E-01  0.17663459585E+02  0.23198985094E+03  0.23266134793E+03  0.10566000000E+00 0. -1.
        -13    1    4    4    0    0 -0.89818025781E+00  0.10268942414E+02  0.12592350932E+03  0.12634476352E+03  0.10566000000E+00 0.  1.
        -14    1    4    4    0    0  0.20986775330E+00  0.85099216096E+01  0.11037045349E+03  0.11069823763E+03  0.00000000000E+00 0.  1.
<mgrwt>
<rscale>  0 0.82174701E+02</rscale>
<asrwt>0</asrwt>
<pdfrwt beam="1">  1        2 0.98777885E-01 0.82174701E+02</pdfrwt>
<pdfrwt beam="2">  1       -1 0.40451054E-03 0.82174701E+02</pdfrwt>
<totfact> 0.30544109E+05</totfact>
</mgrwt>
</event>
<event>
 8    1  0.2561077E-020  0.7647381E+02  0.7818608E-02  0.1339367E+00
          2   -1    0    0  501    0  0.00000000000E+00  0.00000000000E+00  0.32581959198E+02  0.32581959298E+02  0.25500000000E-02 0. -1.
         -1   -1    0    0    0  501 -0.00000000000E+00 -0.00000000000E+00 -0.44873324188E+02  0.44873324471E+02  0.50400000000E-02 0.  1.
         24    2    1    2    0    0  0.71054273576E-14  0.88817841970E-15 -0.12291364990E+02  0.77455283769E+02  0.76473808133E+02 0.  0.
         66    2    3    3    0    0 -0.24706391807E+02  0.54897530654E+01  0.22844663327E+02  0.34152918536E+02  0.20000043006E+01 0.  0.
        -13    1    3    3    0    0  0.24706391807E+02 -0.54897530654E+01 -0.35136028316E+02  0.43302365232E+02  0.10566000000E+00 0.  1.
         13    1    4    4    0    0 -0.15585345052E+01  0.47324663228E+00  0.19600471162E+01  0.25506745994E+01  0.10566000000E+00 0. -1.
        -13    1    4    4    0    0 -0.20897345714E+01  0.37857452694E+00  0.14505455908E+01  0.25740155007E+01  0.10566000000E+00 0.  1.
         14    1    4    4    0    0 -0.21058122730E+02  0.46379319061E+01  0.19434070620E+02  0.29028228436E+02  0.00000000000E+00 0. -1.
<mgrwt>
<rscale>  0 0.76473808E+02</rscale>
<asrwt>0</asrwt>
<pdfrwt beam="1">  1        2 0.50126091E-02 0.76473808E+02</pdfrwt>
<pdfrwt beam="2">  1       -1 0.69035884E-02 0.76473808E+02</pdfrwt>
<totfact> 0.15503646E+05</totfact>
</mgrwt>
</event>
<event>
 8    1  0.2561077E-020  0.8222887E+02  0.7818608E-02  0.1322843E+00
          2   -1    0    0  501    0  0.00000000000E+00  0.00000000000E+00  0.10723495412E+03  0.10723495415E+03  0.25500000000E-02 0. -1.
         -1   -1    0    0    0  501 -0.00000000000E+00 -0.00000000000E+00 -0.15763484465E+02  0.15763485271E+02  0.50400000000E-02 0.  1.
         24    2    1    2    0    0  0.00000000000E+00 -0.17763568394E-14  0.91471469659E+02  0.12299843943E+03  0.82228865611E+02 0.  0.
         66    2    3    3    0    0  0.39202702824E+02 -0.10980744767E+02  0.54086029994E+02  0.67725381546E+02  0.20000001934E+01 0.  0.
        -13    1    3    3    0    0 -0.39202702824E+02  0.10980744767E+02  0.37385439665E+02  0.55273057879E+02  0.10566000000E+00 0.  1.
         13    1    4    4    0    0  0.12852174471E+02 -0.30961562241E+01  0.17519298200E+02  0.21947700231E+02  0.10566000000E+00 0. -1.
        -13    1    4    4    0    0  0.16832678158E+02 -0.48997642903E+01  0.22203609852E+02  0.28290602655E+02  0.10566000000E+00 0.  1.
        -14    1    4    4    0    0  0.95178501956E+01 -0.29848242524E+01  0.14363121942E+02  0.17487078661E+02  0.00000000000E+00 0.  1.
<mgrwt>
<rscale>  0 0.82228866E+02</rscale>
<asrwt>0</asrwt>
<pdfrwt beam="1">  1        2 0.16497686E-01 0.82228866E+02</pdfrwt>
<pdfrwt beam="2">  1       -1 0.24251515E-02 0.82228866E+02</pdfrwt>
<totfact> 0.16797487E+05</totfact>
</mgrwt>
</event>
<event>
 8    1  0.2561077E-020  0.8899398E+02  0.7818608E-02  0.1305306E+00
          2   -1    0    0  501    0  0.00000000000E+00  0.00000000000E+00  0.20511174350E+02  0.20511174508E+02  0.25500000000E-02 0. -1.
         -1   -1    0    0    0  501 -0.00000000000E+00 -0.00000000000E+00 -0.96531882001E+02  0.96531882133E+02  0.50400000000E-02 0.  1.
         24    2    1    2    0    0 -0.35527136788E-14 -0.35527136788E-14 -0.76020707652E+02  0.11704305664E+03  0.88993983594E+02 0.  0.
         66    2    3    3    0    0  0.27881162109E+02 -0.22662159969E+02 -0.35566272442E+01  0.36160507173E+02  0.19999966676E+01 0.  0.
        -13    1    3    3    0    0 -0.27881162109E+02  0.22662159969E+02 -0.72464080407E+02  0.80882549467E+02  0.10566000000E+00 0.  1.
         13    1    4    4    0    0  0.66787956645E+01 -0.59555193274E+01 -0.38487561928E+00  0.89573330443E+01  0.10566000000E+00 0. -1.
        -13    1    4    4    0    0  0.73675249546E+01 -0.63298232671E+01 -0.14936913670E+01  0.98279888322E+01  0.10566000000E+00 0.  1.
         14    1    4    4    0    0  0.13834841490E+02 -0.10376817374E+02 -0.16780602579E+01  0.17375185297E+02  0.00000000000E+00 0. -1.
<mgrwt>
<rscale>  0 0.88993984E+02</rscale>
<asrwt>0</asrwt>
<pdfrwt beam="1">  1        2 0.31555654E-02 0.88993984E+02</pdfrwt>
<pdfrwt beam="2">  1       -1 0.14851059E-01 0.88993984E+02</pdfrwt>
<totfact> 0.91625747E+04</totfact>
</mgrwt>
</event>
<event>
 8    1  0.2561077E-020  0.7867446E+02  0.7818608E-02  0.1332856E+00
         -1   -1    0    0    0  501 -0.00000000000E+00  0.00000000000E+00  0.10160303249E+02  0.10160304499E+02  0.50400000000E-02 0.  1.
          2   -1    0    0  501    0  0.00000000000E+00 -0.00000000000E+00 -0.15230032573E+03  0.15230032575E+03  0.25500000000E-02 0. -1.
         24    2    1    2    0    0 -0.22204460493E-15 -0.35527136788E-14 -0.14214002248E+03  0.16246063025E+03  0.78674458312E+02 0.  0.
         66    2    3    3    0    0 -0.10589173143E+01 -0.18784219368E+02 -0.14239311650E+03  0.14364458859E+03  0.20000004210E+01 0.  0.
        -13    1    3    3    0    0  0.10589173143E+01  0.18784219368E+02  0.25309401910E+00  0.18816041660E+02  0.10566000000E+00 0.  1.
         13    1    4    4    0    0 -0.29647758395E+00 -0.28368387403E+01 -0.20544798226E+02  0.20742117809E+02  0.10566000000E+00 0. -1.
        -13    1    4    4    0    0 -0.83480573058E+00 -0.14472078955E+02 -0.11381459592E+03  0.11473408987E+03  0.10566000000E+00 0. -1.
         14    1    4    4    0    0  0.72366000216E-01 -0.14753016730E+01 -0.80337223544E+01  0.81683809125E+01  0.00000000000E+00 0. -1.
<mgrwt>
<rscale>  0 0.78674458E+02</rscale>
<asrwt>0</asrwt>
<pdfrwt beam="1">  1        2 0.23430818E-01 0.78674458E+02</pdfrwt>
<pdfrwt beam="2">  1       -1 0.15631238E-02 0.78674458E+02</pdfrwt>
<totfact> 0.21040034E+05</totfact>
</mgrwt>
</event>
<event>
 8    1  0.2561077E-020  0.7986397E+02  0.7818608E-02  0.1329438E+00
         -1   -1    0    0    0  501 -0.00000000000E+00  0.00000000000E+00  0.35713532704E+01  0.35713568266E+01  0.50400000000E-02 0.  1.
          2   -1    0    0  501    0  0.00000000000E+00 -0.00000000000E+00 -0.44648694638E+03  0.44648694639E+03  0.25500000000E-02 0. -1.
         24    2    1    2    0    0  0.00000000000E+00 -0.35527136788E-14 -0.44291559311E+03  0.45005830321E+03  0.79863969799E+02 0.  0.
         66    2    3    3    0    0 -0.19801621489E+02 -0.31456119396E+02 -0.30344747148E+03  0.30572202997E+03  0.19999989566E+01 0.  0.
        -13    1    3    3    0    0  0.19801621489E+02  0.31456119396E+02 -0.13946812162E+03  0.14433627325E+03  0.10566000000E+00 0.  1.
         13    1    4    4    0    0 -0.81099549379E+01 -0.12136062326E+02 -0.12120259098E+03  0.12207839531E+03  0.10566000000E+00 0. -1.
        -13    1    4    4    0    0 -0.38705055609E+01 -0.58270267025E+01 -0.52109769708E+02  0.52577317510E+02  0.10566000000E+00 0.  1.
        -14    1    4    4    0    0 -0.78211609906E+01 -0.13493030367E+02 -0.13013511080E+03  0.13106631715E+03  0.00000000000E+00 0.  1.
<mgrwt>
<rscale>  0 0.79863970E+02</rscale>
<asrwt>0</asrwt>
<pdfrwt beam="1">  1        2 0.68690255E-01 0.79863970E+02</pdfrwt>
<pdfrwt beam="2">  1       -1 0.54943959E-03 0.79863970E+02</pdfrwt>
<totfact> 0.29471642E+05</totfact>
</mgrwt>
</event>
<event>
 8    1  0.2561077E-020  0.8015747E+02  0.7818608E-02  0.1328605E+00
         -1   -1    0    0    0  501 -0.00000000000E+00  0.00000000000E+00  0.13670285618E+01  0.13670378526E+01  0.50400000000E-02 0.  1.
          2   -1    0    0  501    0  0.00000000000E+00 -0.00000000000E+00 -0.11750300096E+04  0.11750300096E+04  0.25500000000E-02 0. -1.
         24    2    1    2    0    0 -0.35527136788E-14  0.35527136788E-14 -0.11736629811E+04  0.11763970475E+04  0.80157471282E+02 0.  0.
         66    2    3    3    0    0  0.20799751435E+02 -0.17029914896E+02 -0.10229670981E+04  0.10233222032E+04  0.19999999249E+01 0.  0.
        -13    1    3    3    0    0 -0.20799751435E+02  0.17029914896E+02 -0.15069588294E+03  0.15307484431E+03  0.10566000000E+00 0.  1.
         13    1    4    4    0    0  0.97692031115E+01 -0.70872826060E+01 -0.46701363762E+03  0.46716957927E+03  0.10566000000E+00 0. -1.
        -13    1    4    4    0    0  0.56177061082E+00 -0.36228067373E+00 -0.31049113261E+02  0.31056487757E+02  0.10566000000E+00 0.  1.
        -14    1    4    4    0    0  0.10468777712E+02 -0.95803516164E+01 -0.52490434726E+03  0.52509613616E+03  0.00000000000E+00 0.  1.
<mgrwt>
<rscale>  0 0.80157471E+02</rscale>
<asrwt>0</asrwt>
<pdfrwt beam="1">  1        2 0.18077304E+00 0.80157471E+02</pdfrwt>
<pdfrwt beam="2">  1       -1 0.21031374E-03 0.80157471E+02</pdfrwt>
<totfact> 0.34933136E+05</totfact>
</mgrwt>
</event>
<event>
 8    1  0.2561077E-020  0.8102607E+02  0.7818608E-02  0.1326165E+00
          2   -1    0    0  501    0  0.00000000000E+00  0.00000000000E+00  0.17670436167E+03  0.17670436169E+03  0.25500000000E-02 0. -1.
         -1   -1    0    0    0  501 -0.00000000000E+00 -0.00000000000E+00 -0.92884297030E+01  0.92884310704E+01  0.50400000000E-02 0.  1.
         24    2    1    2    0    0  0.00000000000E+00  0.00000000000E+00  0.16741593197E+03  0.18599279276E+03  0.81026074086E+02 0.  0.
         66    2    3    3    0    0 -0.74116525609E+01 -0.22642400117E+02  0.15890484248E+03  0.16069337211E+03  0.20000000955E+01 0.  0.
        -13    1    3    3    0    0  0.74116525609E+01  0.22642400117E+02  0.85110894854E+01  0.25299420645E+02  0.10566000000E+00 0.  1.
         13    1    4    4    0    0 -0.70400229104E+00 -0.26039099368E+01  0.15044077563E+02  0.15284351472E+02  0.10566000000E+00 0. -1.
        -13    1    4    4    0    0 -0.35148212696E+00 -0.76069601156E+00  0.70991273252E+01  0.71491937254E+01  0.10566000000E+00 0.  1.
        -14    1    4    4    0    0 -0.63561681429E+01 -0.19277794168E+02  0.13676163759E+03  0.13825982691E+03  0.00000000000E+00 0.  1.
<mgrwt>
<rscale>  0 0.81026074E+02</rscale>
<asrwt>0</asrwt>
<pdfrwt beam="1">  1        2 0.27185285E-01 0.81026074E+02</pdfrwt>
<pdfrwt beam="2">  1       -1 0.14289894E-02 0.81026074E+02</pdfrwt>
<totfact> 0.20440429E+05</totfact>
</mgrwt>
</event>
<event>
 8    1  0.2561077E-020  0.7939047E+02  0.7818608E-02  0.1330790E+00
         -1   -1    0    0    0  501 -0.00000000000E+00  0.00000000000E+00  0.33894635529E+02  0.33894635904E+02  0.50400000000E-02 0.  1.
          2   -1    0    0  501    0  0.00000000000E+00 -0.00000000000E+00 -0.46488522868E+02  0.46488522938E+02  0.25500000000E-02 0. -1.
         24    2    1    2    0    0  0.00000000000E+00  0.00000000000E+00 -0.12593887339E+02  0.80383158842E+02  0.79390466853E+02 0.  0.
         66    2    3    3    0    0 -0.17877249969E+02 -0.34150130203E+02 -0.15792533156E+02  0.41704095275E+02  0.19999999582E+01 0.  0.
        -13    1    3    3    0    0  0.17877249969E+02  0.34150130203E+02  0.31986458174E+01  0.38679063567E+02  0.10566000000E+00 0.  1.
         13    1    4    4    0    0 -0.11748950078E+02 -0.21061734839E+02 -0.92009923710E+01  0.25812863596E+02  0.10566000000E+00 0. -1.
        -13    1    4    4    0    0 -0.50301396880E+01 -0.10347218044E+02 -0.51641987409E+01  0.12611397195E+02  0.10566000000E+00 0.  1.
        -14    1    4    4    0    0 -0.10981602027E+01 -0.27411773203E+01 -0.14273420440E+01  0.32798344841E+01  0.00000000000E+00 0.  1.
<mgrwt>
<rscale>  0 0.79390467E+02</rscale>
<asrwt>0</asrwt>
<pdfrwt beam="1">  1        2 0.71520804E-02 0.79390467E+02</pdfrwt>
<pdfrwt beam="2">  1       -1 0.52145594E-02 0.79390467E+02</pdfrwt>
<totfact> 0.15022642E+05</totfact>
</mgrwt>
</event>
<event>
 8    1  0.2561077E-020  0.7921884E+02  0.7818608E-02  0.1331283E+00
          2   -1    0    0  501    0  0.00000000000E+00  0.00000000000E+00  0.75027289875E+02  0.75027289918E+02  0.25500000000E-02 0. -1.
         -1   -1    0    0    0  501 -0.00000000000E+00 -0.00000000000E+00 -0.20911137063E+02  0.20911137670E+02  0.50400000000E-02 0.  1.
         24    2    1    2    0    0  0.00000000000E+00  0.00000000000E+00  0.54116152812E+02  0.95938427588E+02  0.79218835468E+02 0.  0.
         66    2    3    3    0    0 -0.65490162980E+00  0.33151751316E+02  0.53258555864E+02  0.62768951439E+02  0.19999951121E+01 0.  0.
        -13    1    3    3    0    0  0.65490162980E+00 -0.33151751316E+02  0.85759694778E+00  0.33169476150E+02  0.10566000000E+00 0.  1.
         13    1    4    4    0    0 -0.89439245551E+00  0.15643494943E+02  0.23654163257E+02  0.28373393793E+02  0.10566000000E+00 0. -1.
        -13    1    4    4    0    0  0.73698437858E-01  0.87673157067E+01  0.14741295088E+02  0.17151915376E+02  0.10566000000E+00 0.  1.
         14    1    4    4    0    0  0.16579238785E+00  0.87409406663E+01  0.14863097519E+02  0.17243642269E+02  0.00000000000E+00 0. -1.
<mgrwt>
<rscale>  0 0.79218835E+02</rscale>
<asrwt>0</asrwt>
<pdfrwt beam="1">  1        2 0.11542660E-01 0.79218835E+02</pdfrwt>
<pdfrwt beam="2">  1       -1 0.32170980E-02 0.79218835E+02</pdfrwt>
<totfact> 0.16866871E+05</totfact>
</mgrwt>
</event>
<event>
 8    1  0.2561077E-020  0.8039529E+02  0.7818608E-02  0.1327933E+00
          2   -1    0    0  501    0  0.00000000000E+00  0.00000000000E+00  0.51770510986E+03  0.51770510986E+03  0.25500000000E-02 0. -1.
         -1   -1    0    0    0  501 -0.00000000000E+00 -0.00000000000E+00 -0.31211776704E+01  0.31211817397E+01  0.50400000000E-02 0.  1.
         24    2    1    2    0    0  0.00000000000E+00  0.35527136788E-14  0.51458393219E+03  0.52082629160E+03  0.80395290660E+02 0.  0.
         66    2    3    3    0    0 -0.20420285026E+02  0.28322854194E+02  0.38615157829E+03  0.38773214146E+03  0.19999992018E+01 0.  0.
        -13    1    3    3    0    0  0.20420285026E+02 -0.28322854194E+02  0.12843235390E+03  0.13309415014E+03  0.10566000000E+00 0.  1.
         13    1    4    4    0    0 -0.11257596019E+02  0.14412252650E+02  0.20480442099E+03  0.20561932914E+03  0.10566000000E+00 0. -1.
        -13    1    4    4    0    0 -0.27522425900E+01  0.49249875894E+01  0.60337458822E+02  0.60600746226E+02  0.10566000000E+00 0.  1.
        -14    1    4    4    0    0 -0.64104464173E+01  0.89856139547E+01  0.12100969847E+03  0.12151206609E+03  0.00000000000E+00 0.  1.
<mgrwt>
<rscale>  0 0.80395291E+02</rscale>
<asrwt>0</asrwt>
<pdfrwt beam="1">  1        2 0.79646939E-01 0.80395291E+02</pdfrwt>
<pdfrwt beam="2">  1       -1 0.48018150E-03 0.80395291E+02</pdfrwt>
<totfact> 0.30394446E+05</totfact>
</mgrwt>
</event>
<event>
 8    1  0.2561077E-020  0.7949411E+02  0.7818608E-02  0.1330493E+00
          2   -1    0    0  501    0  0.00000000000E+00  0.00000000000E+00  0.51734351596E+01  0.51734357880E+01  0.25500000000E-02 0. -1.
         -1   -1    0    0    0  501 -0.00000000000E+00 -0.00000000000E+00 -0.30537319212E+03  0.30537319216E+03  0.50400000000E-02 0.  1.
         24    2    1    2    0    0  0.00000000000E+00  0.71054273576E-14 -0.30019975696E+03  0.31054662795E+03  0.79494113315E+02 0.  0.
         66    2    3    3    0    0 -0.86776286401E+01 -0.38459906453E+02 -0.16907492386E+03  0.17362256629E+03  0.20000004376E+01 0.  0.
        -13    1    3    3    0    0  0.86776286401E+01  0.38459906453E+02 -0.13112483310E+03  0.13692406166E+03  0.10566000000E+00 0.  1.
         13    1    4    4    0    0 -0.21792899845E+01 -0.92848162896E+01 -0.43306640879E+02  0.44344485865E+02  0.10566000000E+00 0. -1.
        -13    1    4    4    0    0 -0.24440811600E+01 -0.83940166359E+01 -0.35909997915E+02  0.36959060625E+02  0.10566000000E+00 0.  1.
         14    1    4    4    0    0 -0.40542574956E+01 -0.20781073528E+02 -0.89858285068E+02  0.92319019797E+02  0.00000000000E+00 0. -1.
<mgrwt>
<rscale>  0 0.79494113E+02</rscale>
<asrwt>0</asrwt>
<pdfrwt beam="1">  1        2 0.79591339E-03 0.79494113E+02</pdfrwt>
<pdfrwt beam="2">  1       -1 0.46980477E-01 0.79494113E+02</pdfrwt>
<totfact> 0.87215530E+04</totfact>
</mgrwt>
</event>
<event>
 8    1  0.2561077E-020  0.7854372E+02  0.7818608E-02  0.1333236E+00
         -1   -1    0    0    0  501 -0.00000000000E+00  0.00000000000E+00  0.18084741264E+01  0.18084811493E+01  0.50400000000E-02 0.  1.
          2   -1    0    0  501    0  0.00000000000E+00 -0.00000000000E+00 -0.85280502150E+03  0.85280502151E+03  0.25500000000E-02 0. -1.
         24    2    1    2    0    0  0.00000000000E+00  0.00000000000E+00 -0.85099654738E+03  0.85461350266E+03  0.78543715695E+02 0.  0.
         66    2    3    3    0    0 -0.12157122394E+02  0.19469176016E+02 -0.77215519420E+03  0.77249885978E+03  0.19999985542E+01 0.  0.
        -13    1    3    3    0    0  0.12157122394E+02 -0.19469176016E+02 -0.78841353176E+02  0.82114642874E+02  0.10566000000E+00 0.  1.
         13    1    4    4    0    0 -0.92320577413E+01  0.14902033384E+02 -0.60875667407E+03  0.60900903185E+03  0.10566000000E+00 0. -1.
        -13    1    4    4    0    0 -0.94966354745E+00  0.13776640216E+01 -0.42318859604E+02  0.42352058524E+02  0.10566000000E+00 0.  1.
        -14    1    4    4    0    0 -0.19754011057E+01  0.31894786103E+01 -0.12107966052E+03  0.12113776940E+03  0.00000000000E+00 0.  1.
<mgrwt>
<rscale>  0 0.78543716E+02</rscale>
<asrwt>0</asrwt>
<pdfrwt beam="1">  1        2 0.13120045E+00 0.78543716E+02</pdfrwt>
<pdfrwt beam="2">  1       -1 0.27822801E-03 0.78543716E+02</pdfrwt>
<totfact> 0.36406046E+05</totfact>
</mgrwt>
</event>
<event>
 8    1  0.2561077E-020  0.7963103E+02  0.7818608E-02  0.1330102E+00
          2   -1    0    0  501    0  0.00000000000E+00  0.00000000000E+00  0.12054289169E+02  0.12054289438E+02  0.25500000000E-02 0. -1.
         -1   -1    0    0    0  501 -0.00000000000E+00 -0.00000000000E+00 -0.13151130294E+03  0.13151130304E+03  0.50400000000E-02 0.  1.
         24    2    1    2    0    0  0.00000000000E+00  0.71054273576E-14 -0.11945701378E+03  0.14356559248E+03  0.79631031663E+02 0.  0.
         66    2    3    3    0    0 -0.21666137376E+01 -0.32270404462E+02 -0.17979687307E+02  0.37058634160E+02  0.19999977203E+01 0.  0.
        -13    1    3    3    0    0  0.21666137376E+01  0.32270404462E+02 -0.10147732647E+03  0.10650695832E+03  0.10566000000E+00 0.  1.
         13    1    4    4    0    0 -0.10542775337E+01 -0.14087479980E+02 -0.79760058207E+01  0.16223329689E+02  0.10566000000E+00 0. -1.
        -13    1    4    4    0    0 -0.32293707387E+00 -0.14703337063E+02 -0.79483169365E+01  0.16717634860E+02  0.10566000000E+00 0.  1.
        -14    1    4    4    0    0 -0.78939913001E+00 -0.34795874189E+01 -0.20553645500E+01  0.41176696111E+01  0.00000000000E+00 0.  1.
<mgrwt>
<rscale>  0 0.79631032E+02</rscale>
<asrwt>0</asrwt>
<pdfrwt beam="1">  1        2 0.18545061E-02 0.79631032E+02</pdfrwt>
<pdfrwt beam="2">  1       -1 0.20232507E-01 0.79631032E+02</pdfrwt>
<totfact> 0.11273450E+05</totfact>
</mgrwt>
</event>
<event>
 8    1  0.2561077E-020  0.7785009E+02  0.7818608E-02  0.1335266E+00
          2   -1    0    0  501    0  0.00000000000E+00  0.00000000000E+00  0.33204541813E+03  0.33204541814E+03  0.25500000000E-02 0. -1.
         -1   -1    0    0    0  501 -0.00000000000E+00 -0.00000000000E+00 -0.45631070570E+01  0.45631098403E+01  0.50400000000E-02 0.  1.
         24    2    1    2    0    0  0.00000000000E+00  0.00000000000E+00  0.32748231108E+03  0.33660852798E+03  0.77850093405E+02 0.  0.
         66    2    3    3    0    0  0.37082335332E+02 -0.21397728356E+01  0.21380263263E+03  0.21701438650E+03  0.20000017138E+01 0.  0.
        -13    1    3    3    0    0 -0.37082335332E+02  0.21397728356E+01  0.11367967845E+03  0.11959414148E+03  0.10566000000E+00 0.  1.
         13    1    4    4    0    0  0.81297929098E+01 -0.21207566679E+00  0.47435866665E+02  0.48128069971E+02  0.10566000000E+00 0. -1.
        -13    1    4    4    0    0  0.15679637696E+02 -0.65602751553E+00  0.94123591759E+02  0.95422969457E+02  0.10566000000E+00 0.  1.
        -14    1    4    4    0    0  0.13272904727E+02 -0.12716696533E+01  0.72243174206E+02  0.73463347072E+02  0.00000000000E+00 0.  1.
<mgrwt>
<rscale>  0 0.77850093E+02</rscale>
<asrwt>0</asrwt>
<pdfrwt beam="1">  1        2 0.51083919E-01 0.77850093E+02</pdfrwt>
<pdfrwt beam="2">  1       -1 0.70201657E-03 0.77850093E+02</pdfrwt>
<totfact> 0.28398238E+05</totfact>
</mgrwt>
</event>
<event>
 8    1  0.2561077E-020  0.8006360E+02  0.7818608E-02  0.1328871E+00
         -1   -1    0    0    0  501 -0.00000000000E+00  0.00000000000E+00  0.49162229870E+01  0.49162255705E+01  0.50400000000E-02 0.  1.
          2   -1    0    0  501    0  0.00000000000E+00 -0.00000000000E+00 -0.32597065744E+03  0.32597065745E+03  0.25500000000E-02 0. -1.
         24    2    1    2    0    0  0.00000000000E+00  0.00000000000E+00 -0.32105443445E+03  0.33088688302E+03  0.80063596428E+02 0.  0.
         66    2    3    3    0    0 -0.17366694614E+02 -0.70374663684E+01 -0.30670929894E+03  0.30728768618E+03  0.20000015063E+01 0.  0.
        -13    1    3    3    0    0  0.17366694614E+02  0.70374663684E+01 -0.14345135515E+02  0.23599196844E+02  0.10566000000E+00 0.  1.
         13    1    4    4    0    0 -0.73491697188E+01 -0.26444315861E+01 -0.11975119302E+03  0.12000567782E+03  0.10566000000E+00 0. -1.
        -13    1    4    4    0    0 -0.25400731817E+01 -0.11617656764E+01 -0.57480357718E+02  0.57548278503E+02  0.10566000000E+00 0.  1.
        -14    1    4    4    0    0 -0.74774517135E+01 -0.32312691059E+01 -0.12947774819E+03  0.12973372985E+03  0.00000000000E+00 0.  1.
<mgrwt>
<rscale>  0 0.80063596E+02</rscale>
<asrwt>0</asrwt>
<pdfrwt beam="1">  1        2 0.50149315E-01 0.80063596E+02</pdfrwt>
<pdfrwt beam="2">  1       -1 0.75634246E-03 0.80063596E+02</pdfrwt>
<totfact> 0.26216086E+05</totfact>
</mgrwt>
</event>
<event>
 8    1  0.2561077E-020  0.7156001E+02  0.7818608E-02  0.1354867E+00
         -1   -1    0    0    0  501 -0.00000000000E+00  0.00000000000E+00  0.12670015487E+02  0.12670016490E+02  0.50400000000E-02 0.  1.
          2   -1    0    0  501    0  0.00000000000E+00 -0.00000000000E+00 -0.10104239965E+03  0.10104239969E+03  0.25500000000E-02 0. -1.
         24    2    1    2    0    0  0.00000000000E+00  0.35527136788E-14 -0.88372384167E+02  0.11371241618E+03  0.71560011943E+02 0.  0.
         66    2    3    3    0    0  0.40111827304E+01 -0.27596520825E+02 -0.79772254388E+02  0.84529699634E+02  0.20000003789E+01 0.  0.
        -13    1    3    3    0    0 -0.40111827304E+01  0.27596520825E+02 -0.86001297786E+01  0.29182716542E+02  0.10566000000E+00 0.  1.
         13    1    4    4    0    0  0.89832738967E+00 -0.38731368415E+01 -0.11615185668E+02  0.12277291364E+02  0.10566000000E+00 0. -1.
        -13    1    4    4    0    0  0.28499813794E+00 -0.64782259186E+01 -0.17199739816E+02  0.18381807549E+02  0.10566000000E+00 0.  1.
        -14    1    4    4    0    0  0.28278572028E+01 -0.17245158065E+02 -0.50957328904E+02  0.53870600721E+02  0.00000000000E+00 0.  1.
<mgrwt>
<rscale>  0 0.71560012E+02</rscale>
<asrwt>0</asrwt>
<pdfrwt beam="1">  1        2 0.15544984E-01 0.71560012E+02</pdfrwt>
<pdfrwt beam="2">  1       -1 0.19492333E-02 0.71560012E+02</pdfrwt>
<totfact> 0.23909773E+05</totfact>
</mgrwt>
</event>
<event>
 8    1  0.2561077E-020  0.7926140E+02  0.7818608E-02  0.1331161E+00
         -1   -1    0    0    0  501 -0.00000000000E+00  0.00000000000E+00  0.14351372579E+01  0.14351461077E+01  0.50400000000E-02 0.  1.
          2   -1    0    0  501    0  0.00000000000E+00 -0.00000000000E+00 -0.10943814626E+04  0.10943814626E+04  0.25500000000E-02 0. -1.
         24    2    1    2    0    0  0.00000000000E+00  0.00000000000E+00 -0.10929463254E+04  0.10958166087E+04  0.79261402002E+02 0.  0.
         66    2    3    3    0    0 -0.10811246979E+02 -0.20572429003E+02 -0.99019796187E+03  0.99047267079E+03  0.19999988110E+01 0.  0.
        -13    1    3    3    0    0  0.10811246979E+02  0.20572429003E+02 -0.10274836348E+03  0.10534393793E+03  0.10566000000E+00 0.  1.
         13    1    4    4    0    0 -0.44026329819E+01 -0.10112887671E+02 -0.46333958194E+03  0.46347085456E+03  0.10566000000E+00 0. -1.
        -13    1    4    4    0    0 -0.62743838746E+01 -0.10257382759E+02 -0.52033683506E+03  0.52047575821E+03  0.10566000000E+00 0.  1.
        -14    1    4    4    0    0 -0.13423012265E+00 -0.20215857298E+00 -0.65215448662E+01  0.65260580182E+01  0.00000000000E+00 0.  1.
<mgrwt>
<rscale>  0 0.79261402E+02</rscale>
<asrwt>0</asrwt>
<pdfrwt beam="1">  1        2 0.16836571E+00 0.79261402E+02</pdfrwt>
<pdfrwt beam="2">  1       -1 0.22079190E-03 0.79261402E+02</pdfrwt>
<totfact> 0.36116120E+05</totfact>
</mgrwt>
</event>
<event>
 8    1  0.2561077E-020  0.7906375E+02  0.7818608E-02  0.1331730E+00
         -1   -1    0    0    0  501 -0.00000000000E+00  0.00000000000E+00  0.27884308275E+01  0.27884353823E+01  0.50400000000E-02 0.  1.
          2   -1    0    0  501    0  0.00000000000E+00 -0.00000000000E+00 -0.56044707103E+03  0.56044707104E+03  0.25500000000E-02 0. -1.
         24    2    1    2    0    0  0.00000000000E+00  0.00000000000E+00 -0.55765864021E+03  0.56323550642E+03  0.79063750844E+02 0.  0.
         66    2    3    3    0    0  0.12027425468E+02  0.27839390358E+01 -0.54635015358E+03  0.54649327498E+03  0.19999997999E+01 0.  0.
        -13    1    3    3    0    0 -0.12027425468E+02 -0.27839390358E+01 -0.11308486629E+02  0.16742231446E+02  0.10566000000E+00 0.  1.
         13    1    4    4    0    0  0.71426846350E+00  0.56360678066E+00 -0.40272875039E+02  0.40283290084E+02  0.10566000000E+00 0.  1.
        -13    1    4    4    0    0  0.32464649707E+01  0.90049989205E+00 -0.16903154361E+03  0.16906514820E+03  0.10566000000E+00 0.  1.
         14    1    4    4    0    0  0.80666920335E+01  0.13198323631E+01 -0.33704573493E+03  0.33714483670E+03  0.00000000000E+00 0. -1.
<mgrwt>
<rscale>  0 0.79063751E+02</rscale>
<asrwt>0</asrwt>
<pdfrwt beam="1">  1        2 0.86222537E-01 0.79063751E+02</pdfrwt>
<pdfrwt beam="2">  1       -1 0.42899016E-03 0.79063751E+02</pdfrwt>
<totfact> 0.32520529E+05</totfact>
</mgrwt>
</event>
<event>
 8    1  0.2561077E-020  0.7877340E+02  0.7818608E-02  0.1332569E+00
         -1   -1    0    0    0  501 -0.00000000000E+00  0.00000000000E+00  0.29887683698E+01  0.29887726193E+01  0.50400000000E-02 0.  1.
          2   -1    0    0  501    0  0.00000000000E+00 -0.00000000000E+00 -0.51904690125E+03  0.51904690125E+03  0.25500000000E-02 0. -1.
         24    2    1    2    0    0  0.00000000000E+00 -0.35527136788E-14 -0.51605813288E+03  0.52203567387E+03  0.78773398345E+02 0.  0.
         66    2    3    3    0    0 -0.35345790639E+01  0.17237184178E+02 -0.49152877720E+03  0.49184769246E+03  0.19999998809E+01 0.  0.
        -13    1    3    3    0    0  0.35345790639E+01 -0.17237184178E+02 -0.24529355680E+02  0.30187981411E+02  0.10566000000E+00 0.  1.
         13    1    4    4    0    0 -0.51206343593E+00  0.13269396381E+01 -0.34814039614E+02  0.34843241755E+02  0.10566000000E+00 0.  1.
        -13    1    4    4    0    0 -0.31225565612E+01  0.14428367098E+02 -0.42133912760E+03  0.42159767522E+03  0.10566000000E+00 0. -1.
        -14    1    4    4    0    0  0.10004093318E+00  0.14818774417E+01 -0.35375609983E+02  0.35406775490E+02  0.00000000000E+00 0.  1.
<mgrwt>
<rscale>  0 0.78773398E+02</rscale>
<asrwt>0</asrwt>
<pdfrwt beam="1">  1        2 0.79853298E-01 0.78773398E+02</pdfrwt>
<pdfrwt beam="2">  1       -1 0.45981126E-03 0.78773398E+02</pdfrwt>
<totfact> 0.32076917E+05</totfact>
</mgrwt>
</event>
<event>
 8    1  0.2561077E-020  0.7980195E+02  0.7818608E-02  0.1329614E+00
          2   -1    0    0  501    0  0.00000000000E+00  0.00000000000E+00  0.69004135586E+03  0.69004135586E+03  0.25500000000E-02 0. -1.
         -1   -1    0    0    0  501 -0.00000000000E+00 -0.00000000000E+00 -0.23072324767E+01  0.23072379815E+01  0.50400000000E-02 0.  1.
         24    2    1    2    0    0  0.00000000000E+00  0.00000000000E+00  0.68773412338E+03  0.69234859385E+03  0.79801948191E+02 0.  0.
         66    2    3    3    0    0 -0.14000928047E+02 -0.33019497168E+02  0.49529347432E+03  0.49659434037E+03  0.20000002197E+01 0.  0.
        -13    1    3    3    0    0  0.14000928047E+02  0.33019497168E+02  0.19244064906E+03  0.19575425348E+03  0.10566000000E+00 0.  1.
         13    1    4    4    0    0 -0.70437790511E+01 -0.18011624852E+02  0.26639367411E+03  0.26709480381E+03  0.10566000000E+00 0. -1.
        -13    1    4    4    0    0 -0.68089611871E+00 -0.14170940682E+01  0.17800294300E+02  0.17869902527E+02  0.10566000000E+00 0.  1.
         14    1    4    4    0    0 -0.62762528769E+01 -0.13590778248E+02  0.21109950591E+03  0.21162963403E+03  0.00000000000E+00 0. -1.
<mgrwt>
<rscale>  0 0.79801948E+02</rscale>
<asrwt>0</asrwt>
<pdfrwt beam="1">  1        2 0.10616023E+00 0.79801948E+02</pdfrwt>
<pdfrwt beam="2">  1       -1 0.35495919E-03 0.79801948E+02</pdfrwt>
<totfact> 0.33556463E+05</totfact>
</mgrwt>
</event>
<event>
 8    1  0.2561077E-020  0.7908158E+02  0.7818608E-02  0.1331678E+00
         -1   -1    0    0    0  501 -0.00000000000E+00  0.00000000000E+00  0.64539827087E+01  0.64539846766E+01  0.50400000000E-02 0.  1.
          2   -1    0    0  501    0  0.00000000000E+00 -0.00000000000E+00 -0.24224943647E+03  0.24224943648E+03  0.25500000000E-02 0. -1.
         24    2    1    2    0    0  0.00000000000E+00  0.00000000000E+00 -0.23579545376E+03  0.24870342116E+03  0.79081576124E+02 0.  0.
         66    2    3    3    0    0  0.32282117028E+02 -0.21178407762E+02 -0.91509229034E+02  0.99340822612E+02  0.20000008840E+01 0.  0.
        -13    1    3    3    0    0 -0.32282117028E+02  0.21178407762E+02 -0.14428622473E+03  0.14936259855E+03  0.10566000000E+00 0.  1.
         13    1    4    4    0    0  0.20947128664E+02 -0.14139674110E+02 -0.59736084727E+02  0.64862343203E+02  0.10566000000E+00 0. -1.
        -13    1    4    4    0    0  0.94998705199E+01 -0.61662900249E+01 -0.27716837601E+02  0.29941692057E+02  0.10566000000E+00 0.  1.
        -14    1    4    4    0    0  0.18351178446E+01 -0.87244362650E+00 -0.40563067060E+01  0.45367873521E+01  0.00000000000E+00 0.  1.
<mgrwt>
<rscale>  0 0.79081576E+02</rscale>
<asrwt>0</asrwt>
<pdfrwt beam="1">  1        2 0.37269137E-01 0.79081576E+02</pdfrwt>
<pdfrwt beam="2">  1       -1 0.99292076E-03 0.79081576E+02</pdfrwt>
<totfact> 0.24328370E+05</totfact>
</mgrwt>
</event>
<event>
 8    1  0.2561077E-020  0.7941882E+02  0.7818608E-02  0.1330709E+00
         -1   -1    0    0    0  501 -0.00000000000E+00  0.00000000000E+00  0.23010101465E+02  0.23010102017E+02  0.50400000000E-02 0.  1.
          2   -1    0    0  501    0  0.00000000000E+00 -0.00000000000E+00 -0.68528034083E+02  0.68528034130E+02  0.25500000000E-02 0. -1.
         24    2    1    2    0    0  0.00000000000E+00 -0.17763568394E-14 -0.45517932618E+02  0.91538136147E+02  0.79418815022E+02 0.  0.
         66    2    3    3    0    0  0.31996471722E+02 -0.10665218688E+02 -0.46876512782E+02  0.57783462450E+02  0.19999974439E+01 0.  0.
        -13    1    3    3    0    0 -0.31996471722E+02  0.10665218688E+02  0.13585801639E+01  0.33754673698E+02  0.10566000000E+00 0.  1.
         13    1    4    4    0    0  0.97563159897E+01 -0.26503386241E+01 -0.14659471797E+02  0.17807899200E+02  0.10566000000E+00 0. -1.
        -13    1    4    4    0    0  0.83079791185E+01 -0.34784448618E+01 -0.12742163423E+02  0.15604357994E+02  0.10566000000E+00 0.  1.
        -14    1    4    4    0    0  0.13932176614E+02 -0.45364352017E+01 -0.19474877562E+02  0.24371205255E+02  0.00000000000E+00 0.  1.
<mgrwt>
<rscale>  0 0.79418815E+02</rscale>
<asrwt>0</asrwt>
<pdfrwt beam="1">  1        2 0.10542774E-01 0.79418815E+02</pdfrwt>
<pdfrwt beam="2">  1       -1 0.35400157E-02 0.79418815E+02</pdfrwt>
<totfact> 0.16383500E+05</totfact>
</mgrwt>
</event>
<event>
 8    1  0.2561077E-020  0.8051870E+02  0.7818608E-02  0.1327586E+00
         -1   -1    0    0    0  501 -0.00000000000E+00  0.00000000000E+00  0.26467020773E+02  0.26467021253E+02  0.50400000000E-02 0.  1.
          2   -1    0    0  501    0  0.00000000000E+00 -0.00000000000E+00 -0.61239058239E+02  0.61239058292E+02  0.25500000000E-02 0. -1.
         24    2    1    2    0    0  0.00000000000E+00 -0.35527136788E-14 -0.34772037466E+02  0.87706079545E+02  0.80518704657E+02 0.  0.
         66    2    3    3    0    0 -0.26688453052E+01 -0.23176148147E+02 -0.53103194185E+02  0.58036245557E+02  0.19999968676E+01 0.  0.
        -13    1    3    3    0    0  0.26688453052E+01  0.23176148147E+02  0.18331156719E+02  0.29669833988E+02  0.10566000000E+00 0.  1.
         13    1    4    4    0    0 -0.13601145739E+01 -0.82432811863E+01 -0.20133787280E+02  0.21798673140E+02  0.10566000000E+00 0. -1.
        -13    1    4    4    0    0  0.22156752998E+00 -0.17502273685E+01 -0.39929006329E+01  0.43665555661E+01  0.10566000000E+00 0.  1.
        -14    1    4    4    0    0 -0.15302982612E+01 -0.13182639592E+02 -0.28976506272E+02  0.31871016851E+02  0.00000000000E+00 0.  1.
<mgrwt>
<rscale>  0 0.80518705E+02</rscale>
<asrwt>0</asrwt>
<pdfrwt beam="1">  1        2 0.94213935E-02 0.80518705E+02</pdfrwt>
<pdfrwt beam="2">  1       -1 0.40718494E-02 0.80518705E+02</pdfrwt>
<totfact> 0.15367586E+05</totfact>
</mgrwt>
</event>
<event>
 8    1  0.2561077E-020  0.8019415E+02  0.7818608E-02  0.1328501E+00
          2   -1    0    0  501    0  0.00000000000E+00  0.00000000000E+00  0.54279441345E+03  0.54279441346E+03  0.25500000000E-02 0. -1.
         -1   -1    0    0    0  501 -0.00000000000E+00 -0.00000000000E+00 -0.29620314210E+01  0.29620357089E+01  0.50400000000E-02 0.  1.
         24    2    1    2    0    0  0.00000000000E+00 -0.35527136788E-14  0.53983238203E+03  0.54575644917E+03  0.80194146407E+02 0.  0.
         66    2    3    3    0    0  0.33106753516E+02  0.16091639545E+02  0.37785313869E+03  0.37964719467E+03  0.20000031588E+01 0.  0.
        -13    1    3    3    0    0 -0.33106753516E+02 -0.16091639545E+02  0.16197924334E+03  0.16610925450E+03  0.10566000000E+00 0.  1.
         13    1    4    4    0    0  0.19684170368E+02  0.96053773065E+01  0.22129271353E+03  0.22237402290E+03  0.10566000000E+00 0. -1.
        -13    1    4    4    0    0  0.43587097855E+00  0.35206947042E+00  0.45053344860E+01  0.45412706689E+01  0.10566000000E+00 0.  1.
         14    1    4    4    0    0  0.12986712169E+02  0.61341927677E+01  0.15205509067E+03  0.15273190110E+03  0.00000000000E+00 0. -1.
<mgrwt>
<rscale>  0 0.80194146E+02</rscale>
<asrwt>0</asrwt>
<pdfrwt beam="1">  1        2 0.83506773E-01 0.80194146E+02</pdfrwt>
<pdfrwt beam="2">  1       -1 0.45569780E-03 0.80194146E+02</pdfrwt>
<totfact> 0.31041898E+05</totfact>
</mgrwt>
</event>
<event>
 8    1  0.2561077E-020  0.8132627E+02  0.7818608E-02  0.1325329E+00
          2   -1    0    0  501    0  0.00000000000E+00  0.00000000000E+00  0.22678051477E+02  0.22678051621E+02  0.25500000000E-02 0. -1.
         -1   -1    0    0    0  501 -0.00000000000E+00 -0.00000000000E+00 -0.72911491202E+02  0.72911491376E+02  0.50400000000E-02 0.  1.
         24    2    1    2    0    0 -0.17763568394E-14  0.00000000000E+00 -0.50233439724E+02  0.95589542997E+02  0.81326270441E+02 0.  0.
         66    2    3    3    0    0  0.14718378377E+02 -0.37072546107E+02 -0.34272786958E+02  0.52627257936E+02  0.20000037620E+01 0.  0.
        -13    1    3    3    0    0 -0.14718378377E+02  0.37072546107E+02 -0.15960652766E+02  0.42962285061E+02  0.10566000000E+00 0.  1.
         13    1    4    4    0    0  0.16691103338E+01 -0.49853466934E+01 -0.40050914755E+01  0.66099570893E+01  0.10566000000E+00 0. -1.
        -13    1    4    4    0    0  0.90640448389E+01 -0.21095839533E+02 -0.20565841627E+02  0.30824606409E+02  0.10566000000E+00 0.  1.
        -14    1    4    4    0    0  0.39852232042E+01 -0.10991359881E+02 -0.97018538554E+01  0.15192694437E+02  0.00000000000E+00 0.  1.
<mgrwt>
<rscale>  0 0.81326270E+02</rscale>
<asrwt>0</asrwt>
<pdfrwt beam="1">  1        2 0.34889310E-02 0.81326270E+02</pdfrwt>
<pdfrwt beam="2">  1       -1 0.11217152E-01 0.81326270E+02</pdfrwt>
<totfact> 0.12148812E+05</totfact>
</mgrwt>
</event>
<event>
 8    1  0.2561077E-020  0.8688311E+02  0.7818608E-02  0.1310580E+00
         -1   -1    0    0    0  501 -0.00000000000E+00  0.00000000000E+00  0.36393273889E+01  0.36393308788E+01  0.50400000000E-02 0.  1.
          2   -1    0    0  501    0  0.00000000000E+00 -0.00000000000E+00 -0.51854853575E+03  0.51854853576E+03  0.25500000000E-02 0. -1.
         24    2    1    2    0    0  0.17763568394E-14 -0.71054273576E-14 -0.51490920836E+03  0.52218786663E+03  0.86883112316E+02 0.  0.
         66    2    3    3    0    0  0.13849992512E+02 -0.38119996310E+02 -0.35074100792E+03  0.35308385837E+03  0.19999983130E+01 0.  0.
        -13    1    3    3    0    0 -0.13849992512E+02  0.38119996310E+02 -0.16416820044E+03  0.16910400826E+03  0.10566000000E+00 0.  1.
         13    1    4    4    0    0  0.37982020808E+01 -0.10921906135E+02 -0.93500259628E+02  0.94212653540E+02  0.10566000000E+00 0. -1.
        -13    1    4    4    0    0  0.19405468094E+01 -0.47531109940E+01 -0.47895095266E+02  0.48169586884E+02  0.10566000000E+00 0.  1.
         14    1    4    4    0    0  0.81112436221E+01 -0.22444979181E+02 -0.20934565303E+03  0.21070161795E+03  0.00000000000E+00 0. -1.
<mgrwt>
<rscale>  0 0.86883112E+02</rscale>
<asrwt>0</asrwt>
<pdfrwt beam="1">  1        2 0.79776639E-01 0.86883112E+02</pdfrwt>
<pdfrwt beam="2">  1       -1 0.55989720E-03 0.86883112E+02</pdfrwt>
<totfact> 0.24821409E+05</totfact>
</mgrwt>
</event>
<event>
 8    1  0.2561077E-020  0.8290783E+02  0.7818608E-02  0.1320996E+00
         -1   -1    0    0    0  501 -0.00000000000E+00  0.00000000000E+00  0.89408438049E+02  0.89408438191E+02  0.50400000000E-02 0.  1.
          2   -1    0    0  501    0  0.00000000000E+00 -0.00000000000E+00 -0.19219963215E+02  0.19219963384E+02  0.25500000000E-02 0. -1.
         24    2    1    2    0    0  0.00000000000E+00  0.35527136788E-14  0.70188474834E+02  0.10862840157E+03  0.82907826103E+02 0.  0.
         66    2    3    3    0    0  0.12422974589E+02 -0.31543040309E+02  0.39121674622E+01  0.34184773423E+02  0.19999975393E+01 0.  0.
        -13    1    3    3    0    0 -0.12422974589E+02  0.31543040309E+02  0.66276307372E+02  0.74443628152E+02  0.10566000000E+00 0.  1.
         13    1    4    4    0    0  0.80143486891E+01 -0.21042924821E+02  0.29411528991E+01  0.22708941286E+02  0.10566000000E+00 0. -1.
        -13    1    4    4    0    0  0.11625745016E+01 -0.20231474860E+01  0.48509090517E+00  0.23856199286E+01  0.10566000000E+00 0.  1.
        -14    1    4    4    0    0  0.32460513979E+01 -0.84769680018E+01  0.48592365790E+00  0.90902122078E+01  0.00000000000E+00 0.  1.
<mgrwt>
<rscale>  0 0.82907826E+02</rscale>
<asrwt>0</asrwt>
<pdfrwt beam="1">  1        2 0.29569174E-02 0.82907826E+02</pdfrwt>
<pdfrwt beam="2">  1       -1 0.13755144E-01 0.82907826E+02</pdfrwt>
<totfact> 0.11107829E+05</totfact>
</mgrwt>
</event>
<event>
 8    1  0.2561077E-020  0.8074513E+02  0.7818608E-02  0.1326950E+00
          2   -1    0    0  501    0  0.00000000000E+00  0.00000000000E+00  0.22288948566E+03  0.22288948567E+03  0.25500000000E-02 0. -1.
         -1   -1    0    0    0  501 -0.00000000000E+00 -0.00000000000E+00 -0.73127889093E+01  0.73127906461E+01  0.50400000000E-02 0.  1.
         24    2    1    2    0    0  0.35527136788E-14 -0.17763568394E-14  0.21557669675E+03  0.23020227632E+03  0.80745128901E+02 0.  0.
         66    2    3    3    0    0  0.29473879090E+02 -0.10476852727E+02  0.18051023905E+03  0.18321140900E+03  0.19999986941E+01 0.  0.
        -13    1    3    3    0    0 -0.29473879090E+02  0.10476852727E+02  0.35066457701E+02  0.46990867320E+02  0.10566000000E+00 0.  1.
         13    1    4    4    0    0  0.16279520968E+01 -0.49858665225E+00  0.11139798406E+02  0.11269653466E+02  0.10566000000E+00 0. -1.
        -13    1    4    4    0    0  0.51355131699E+01 -0.21507568206E+01  0.28754064817E+02  0.29288336552E+02  0.10566000000E+00 0.  1.
        -14    1    4    4    0    0  0.22710413824E+02 -0.78275092546E+01  0.14061637583E+03  0.14265341898E+03  0.00000000000E+00 0.  1.
<mgrwt>
<rscale>  0 0.80745129E+02</rscale>
<asrwt>0</asrwt>
<pdfrwt beam="1">  1        2 0.34290691E-01 0.80745129E+02</pdfrwt>
<pdfrwt beam="2">  1       -1 0.11250446E-02 0.80745129E+02</pdfrwt>
<totfact> 0.22359612E+05</totfact>
</mgrwt>
</event>
<event>
 8    1  0.2561077E-020  0.8047246E+02  0.7818608E-02  0.1327716E+00
          2   -1    0    0  501    0  0.00000000000E+00  0.00000000000E+00  0.24125529594E+03  0.24125529596E+03  0.25500000000E-02 0. -1.
         -1   -1    0    0    0  501 -0.00000000000E+00 -0.00000000000E+00 -0.67105423545E+01  0.67105442472E+01  0.50400000000E-02 0.  1.
         24    2    1    2    0    0  0.00000000000E+00  0.00000000000E+00  0.23454475359E+03  0.24796584020E+03  0.80472457848E+02 0.  0.
         66    2    3    3    0    0  0.38662943635E+02 -0.43891651746E+01  0.14859607242E+03  0.15361927196E+03  0.19999990508E+01 0.  0.
        -13    1    3    3    0    0 -0.38662943635E+02  0.43891651746E+01  0.85948681166E+02  0.94346568245E+02  0.10566000000E+00 0.  1.
         13    1    4    4    0    0  0.19608019261E+02 -0.22848988664E+01  0.77527418085E+02  0.80001293122E+02  0.10566000000E+00 0. -1.
        -13    1    4    4    0    0  0.39733541758E+01 -0.71921239053E+00  0.16420056855E+02  0.16909590209E+02  0.10566000000E+00 0.  1.
         14    1    4    4    0    0  0.15081570198E+02 -0.13850539176E+01  0.54648597483E+02  0.56708388629E+02  0.00000000000E+00 0. -1.
<mgrwt>
<rscale>  0 0.80472458E+02</rscale>
<asrwt>0</asrwt>
<pdfrwt beam="1">  1        2 0.37116200E-01 0.80472458E+02</pdfrwt>
<pdfrwt beam="2">  1       -1 0.10323913E-02 0.80472458E+02</pdfrwt>
<totfact> 0.23204076E+05</totfact>
</mgrwt>
</event>
<event>
 8    1  0.2561077E-020  0.8974249E+02  0.7818608E-02  0.1303476E+00
         -1   -1    0    0    0  501 -0.00000000000E+00  0.00000000000E+00  0.25780024480E+01  0.25780073746E+01  0.50400000000E-02 0.  1.
          2   -1    0    0  501    0  0.00000000000E+00 -0.00000000000E+00 -0.78100265841E+03  0.78100265842E+03  0.25500000000E-02 0. -1.
         24    2    1    2    0    0 -0.35527136788E-14  0.00000000000E+00 -0.77842465597E+03  0.78358066579E+03  0.89742491543E+02 0.  0.
         66    2    3    3    0    0  0.23102693204E+02  0.31457265109E+02 -0.58231440352E+03  0.58362432996E+03  0.20000030921E+01 0.  0.
        -13    1    3    3    0    0 -0.23102693204E+02 -0.31457265109E+02 -0.19611025244E+03  0.19995633583E+03  0.10566000000E+00 0.  1.
         13    1    4    4    0    0  0.10408538530E+01  0.17909715507E+01 -0.30396094845E+02  0.30466780298E+02  0.10566000000E+00 0.  1.
        -13    1    4    4    0    0  0.12716564655E+02  0.18423602458E+02 -0.33308615285E+03  0.33383759005E+03  0.10566000000E+00 0. -1.
         14    1    4    4    0    0  0.93452746956E+01  0.11242691100E+02 -0.21883215583E+03  0.21931995962E+03  0.00000000000E+00 0. -1.
<mgrwt>
<rscale>  0 0.89742492E+02</rscale>
<asrwt>0</asrwt>
<pdfrwt beam="1">  1        2 0.12015407E+00 0.89742492E+02</pdfrwt>
<pdfrwt beam="2">  1       -1 0.39661676E-03 0.89742492E+02</pdfrwt>
<totfact> 0.25343323E+05</totfact>
</mgrwt>
</event>
<event>
 8    1  0.2561077E-020  0.8259783E+02  0.7818608E-02  0.1321837E+00
          2   -1    0    0  501    0  0.00000000000E+00  0.00000000000E+00  0.48851780462E+02  0.48851780529E+02  0.25500000000E-02 0. -1.
         -1   -1    0    0    0  501 -0.00000000000E+00 -0.00000000000E+00 -0.34913776926E+02  0.34913777290E+02  0.50400000000E-02 0.  1.
         24    2    1    2    0    0  0.00000000000E+00  0.00000000000E+00  0.13938003536E+02  0.83765557819E+02  0.82597825238E+02 0.  0.
         66    2    3    3    0    0  0.33523125488E+02  0.13344533228E+01  0.31354902419E+02  0.45964231931E+02  0.20000007961E+01 0.  0.
        -13    1    3    3    0    0 -0.33523125488E+02 -0.13344533228E+01 -0.17416898883E+02  0.37801325888E+02  0.10566000000E+00 0.  1.
         13    1    4    4    0    0  0.10132234731E+02  0.10955967045E+01  0.10096542646E+02  0.14346213794E+02  0.10566000000E+00 0. -1.
        -13    1    4    4    0    0  0.15812798576E+01  0.17069828544E+00  0.15236457400E+01  0.22050497204E+01  0.10566000000E+00 0. -1.
         14    1    4    4    0    0  0.21809610899E+02  0.68158332888E-01  0.19734714033E+02  0.29412968417E+02  0.00000000000E+00 0. -1.
<mgrwt>
<rscale>  0 0.82597825E+02</rscale>
<asrwt>0</asrwt>
<pdfrwt beam="1">  1        2 0.75156585E-02 0.82597825E+02</pdfrwt>
<pdfrwt beam="2">  1       -1 0.53713504E-02 0.82597825E+02</pdfrwt>
<totfact> 0.13617889E+05</totfact>
</mgrwt>
</event>
<event>
 8    1  0.2561077E-020  0.7721303E+02  0.7818608E-02  0.1337152E+00
          2   -1    0    0  501    0  0.00000000000E+00  0.00000000000E+00  0.86254052375E+02  0.86254052413E+02  0.25500000000E-02 0. -1.
         -1   -1    0    0    0  501 -0.00000000000E+00 -0.00000000000E+00 -0.17279917267E+02  0.17279918002E+02  0.50400000000E-02 0.  1.
         24    2    1    2    0    0 -0.44408920985E-15  0.17763568394E-14  0.68974135108E+02  0.10353397042E+03  0.77213028150E+02 0.  0.
         66    2    3    3    0    0  0.33468915817E+01 -0.10665218481E+02  0.84023383011E+02  0.84787248168E+02  0.19999977004E+01 0.  0.
        -13    1    3    3    0    0 -0.33468915817E+01  0.10665218481E+02 -0.15049247903E+02  0.18746722247E+02  0.10566000000E+00 0.  1.
         13    1    4    4    0    0  0.20266710572E+01 -0.48833570308E+01  0.35009844022E+02  0.35406989620E+02  0.10566000000E+00 0. -1.
        -13    1    4    4    0    0  0.91854827001E+00 -0.40680242920E+01  0.30663767495E+02  0.30946249426E+02  0.10566000000E+00 0.  1.
        -14    1    4    4    0    0  0.40167225453E+00 -0.17138371583E+01  0.18349771495E+02  0.18434009122E+02  0.00000000000E+00 0.  1.
<mgrwt>
<rscale>  0 0.77213028E+02</rscale>
<asrwt>0</asrwt>
<pdfrwt beam="1">  1        2 0.13269854E-01 0.77213028E+02</pdfrwt>
<pdfrwt beam="2">  1       -1 0.26584489E-02 0.77213028E+02</pdfrwt>
<totfact> 0.18726374E+05</totfact>
</mgrwt>
</event>
<event>
 8    1  0.2561077E-020  0.8045757E+02  0.7818608E-02  0.1327758E+00
         -1   -1    0    0    0  501 -0.00000000000E+00  0.00000000000E+00  0.32601746711E+01  0.32601785668E+01  0.50400000000E-02 0.  1.
          2   -1    0    0  501    0  0.00000000000E+00 -0.00000000000E+00 -0.49640110348E+03  0.49640110348E+03  0.25500000000E-02 0. -1.
         24    2    1    2    0    0 -0.35527136788E-14  0.00000000000E+00 -0.49314092881E+03  0.49966128205E+03  0.80457573396E+02 0.  0.
         66    2    3    3    0    0 -0.29031120179E+02 -0.72551776750E+01 -0.41346566978E+03  0.41455193117E+03  0.20000026826E+01 0.  0.
        -13    1    3    3    0    0  0.29031120179E+02  0.72551776750E+01 -0.79675259030E+02  0.85109350882E+02  0.10566000000E+00 0.  1.
         13    1    4    4    0    0 -0.18308478039E+02 -0.46883605292E+01 -0.24818421417E+03  0.24890278507E+03  0.10566000000E+00 0. -1.
        -13    1    4    4    0    0 -0.15749494190E+01 -0.45000739994E+00 -0.24800195913E+02  0.24854453398E+02  0.10566000000E+00 0.  1.
         14    1    4    4    0    0 -0.91476927213E+01 -0.21168097458E+01 -0.14048125970E+03  0.14079469270E+03  0.00000000000E+00 0. -1.
<mgrwt>
<rscale>  0 0.80457573E+02</rscale>
<asrwt>0</asrwt>
<pdfrwt beam="1">  1        2 0.76369341E-01 0.80457573E+02</pdfrwt>
<pdfrwt beam="2">  1       -1 0.50156603E-03 0.80457573E+02</pdfrwt>
<totfact> 0.29932767E+05</totfact>
</mgrwt>
</event>
<event>
 8    1  0.2561077E-020  0.7985242E+02  0.7818608E-02  0.1329471E+00
          2   -1    0    0  501    0  0.00000000000E+00  0.00000000000E+00  0.39640364452E+02  0.39640364534E+02  0.25500000000E-02 0. -1.
         -1   -1    0    0    0  501 -0.00000000000E+00 -0.00000000000E+00 -0.40214115980E+02  0.40214116296E+02  0.50400000000E-02 0.  1.
         24    2    1    2    0    0  0.00000000000E+00  0.71054273576E-14 -0.57375152796E+00  0.79854480829E+02  0.79852419611E+02 0.  0.
         66    2    3    3    0    0  0.11498958274E+01 -0.35335603853E+02 -0.18785373491E+02  0.40085127067E+02  0.19999986784E+01 0.  0.
        -13    1    3    3    0    0 -0.11498958274E+01  0.35335603853E+02  0.18211621963E+02  0.39769353762E+02  0.10566000000E+00 0.  1.
         13    1    4    4    0    0  0.14124681498E+00 -0.15349358421E+02 -0.78834711304E+01  0.17256391155E+02  0.10566000000E+00 0. -1.
        -13    1    4    4    0    0  0.71844622890E+00 -0.19272529163E+02 -0.10520569459E+02  0.21969071239E+02  0.10566000000E+00 0.  1.
        -14    1    4    4    0    0  0.29020278351E+00 -0.71371626915E+00 -0.38133290140E+00  0.85966467305E+00  0.00000000000E+00 0.  1.
<mgrwt>
<rscale>  0 0.79852420E+02</rscale>
<asrwt>0</asrwt>
<pdfrwt beam="1">  1        2 0.60985176E-02 0.79852420E+02</pdfrwt>
<pdfrwt beam="2">  1       -1 0.61867871E-02 0.79852420E+02</pdfrwt>
<totfact> 0.14301669E+05</totfact>
</mgrwt>
</event>
<event>
 8    1  0.2561077E-020  0.7972511E+02  0.7818608E-02  0.1329833E+00
          2   -1    0    0  501    0  0.00000000000E+00  0.00000000000E+00  0.12090397648E+03  0.12090397651E+03  0.25500000000E-02 0. -1.
         -1   -1    0    0    0  501 -0.00000000000E+00 -0.00000000000E+00 -0.13142853701E+02  0.13142854667E+02  0.50400000000E-02 0.  1.
         24    2    1    2    0    0  0.35527136788E-14  0.00000000000E+00  0.10776112278E+03  0.13404683118E+03  0.79725111260E+02 0.  0.
         66    2    3    3    0    0  0.20396826006E+02 -0.21115746602E+02  0.99189983577E+02  0.10346283443E+03  0.20000001633E+01 0.  0.
        -13    1    3    3    0    0 -0.20396826006E+02  0.21115746602E+02  0.85711392044E+01  0.30583996746E+02  0.10566000000E+00 0.  1.
         13    1    4    4    0    0  0.15613851489E+02 -0.16424532393E+02  0.76813196980E+02  0.80086428419E+02  0.10566000000E+00 0. -1.
        -13    1    4    4    0    0  0.19190212370E+01 -0.14722858955E+01  0.91921081538E+01  0.95055922810E+01  0.10566000000E+00 0.  1.
         14    1    4    4    0    0  0.28639532804E+01 -0.32189283131E+01  0.13184678444E+02  0.13870813730E+02  0.00000000000E+00 0. -1.
<mgrwt>
<rscale>  0 0.79725111E+02</rscale>
<asrwt>0</asrwt>
<pdfrwt beam="1">  1        2 0.18600612E-01 0.79725111E+02</pdfrwt>
<pdfrwt beam="2">  1       -1 0.20219776E-02 0.79725111E+02</pdfrwt>
<totfact> 0.18901243E+05</totfact>
</mgrwt>
</event>
<event>
 8    1  0.2561077E-020  0.8006733E+02  0.7818608E-02  0.1328860E+00
          2   -1    0    0  501    0  0.00000000000E+00  0.00000000000E+00  0.16945296552E+03  0.16945296554E+03  0.25500000000E-02 0. -1.
         -1   -1    0    0    0  501 -0.00000000000E+00 -0.00000000000E+00 -0.94580465010E+01  0.94580478438E+01  0.50400000000E-02 0.  1.
         24    2    1    2    0    0  0.88817841970E-15 -0.35527136788E-14  0.15999491902E+03  0.17891101338E+03  0.80067325407E+02 0.  0.
         66    2    3    3    0    0 -0.46937914878E+01  0.26523127917E+02  0.14615169167E+03  0.14862646121E+03  0.19999999956E+01 0.  0.
        -13    1    3    3    0    0  0.46937914878E+01 -0.26523127917E+02  0.13843227349E+02  0.30284552176E+02  0.10566000000E+00 0.  1.
         13    1    4    4    0    0 -0.21637311192E+01  0.10556815202E+02  0.61142838869E+02  0.62085312181E+02  0.10566000000E+00 0. -1.
        -13    1    4    4    0    0 -0.25554660413E+01  0.15847206132E+02  0.83609181477E+02  0.85136189368E+02  0.10566000000E+00 0.  1.
        -14    1    4    4    0    0  0.25405672659E-01  0.11910658269E+00  0.13996713245E+01  0.14049596588E+01  0.00000000000E+00 0.  1.
<mgrwt>
<rscale>  0 0.80067325E+02</rscale>
<asrwt>0</asrwt>
<pdfrwt beam="1">  1        2 0.26069686E-01 0.80067325E+02</pdfrwt>
<pdfrwt beam="2">  1       -1 0.14550843E-02 0.80067325E+02</pdfrwt>
<totfact> 0.20800545E+05</totfact>
</mgrwt>
</event>
<event>
 8    1  0.2561077E-020  0.7638588E+02  0.7818608E-02  0.1339632E+00
          2   -1    0    0  501    0  0.00000000000E+00  0.00000000000E+00  0.97007315641E+03  0.97007315641E+03  0.25500000000E-02 0. -1.
         -1   -1    0    0    0  501 -0.00000000000E+00 -0.00000000000E+00 -0.15036974088E+01  0.15037058552E+01  0.50400000000E-02 0.  1.
         24    2    1    2    0    0  0.88817841970E-15  0.00000000000E+00  0.96856945900E+03  0.97157686226E+03  0.76385878182E+02 0.  0.
         66    2    3    3    0    0 -0.56107016821E+01  0.12960786345E+02  0.93561118911E+03  0.93571991490E+03  0.20000010031E+01 0.  0.
        -13    1    3    3    0    0  0.56107016821E+01 -0.12960786345E+02  0.32958269890E+02  0.35856947364E+02  0.10566000000E+00 0.  1.
         13    1    4    4    0    0 -0.44990867283E+00  0.85541159082E+00  0.51762422732E+02  0.51771553173E+02  0.10566000000E+00 0. -1.
        -13    1    4    4    0    0 -0.31715125312E+01  0.92748417739E+01  0.66532544673E+03  0.66539765735E+03  0.10566000000E+00 0.  1.
        -14    1    4    4    0    0 -0.19892804780E+01  0.28305329802E+01  0.21852331964E+03  0.21855070437E+03  0.00000000000E+00 0.  1.
<mgrwt>
<rscale>  0 0.76385878E+02</rscale>
<asrwt>0</asrwt>
<pdfrwt beam="1">  1        2 0.14924220E+00 0.76385878E+02</pdfrwt>
<pdfrwt beam="2">  1       -1 0.23133844E-03 0.76385878E+02</pdfrwt>
<totfact> 0.39649372E+05</totfact>
</mgrwt>
</event>
<event>
 8    1  0.2561077E-020  0.8074608E+02  0.7818608E-02  0.1326947E+00
         -1   -1    0    0    0  501 -0.00000000000E+00  0.00000000000E+00  0.55233109715E+01  0.55233132710E+01  0.50400000000E-02 0.  1.
          2   -1    0    0  501    0  0.00000000000E+00 -0.00000000000E+00 -0.29510959731E+03  0.29510959732E+03  0.25500000000E-02 0. -1.
         24    2    1    2    0    0  0.00000000000E+00  0.00000000000E+00 -0.28958628634E+03  0.30063291059E+03  0.80746081612E+02 0.  0.
         66    2    3    3    0    0 -0.19071754008E+01 -0.22948964917E+02 -0.26823593124E+03  0.26923002640E+03  0.19999995813E+01 0.  0.
        -13    1    3    3    0    0  0.19071754008E+01  0.22948964917E+02 -0.21350355100E+02  0.31402884194E+02  0.10566000000E+00 0.  1.
         13    1    4    4    0    0 -0.11615059607E+01 -0.11890631980E+02 -0.13231845518E+03  0.13285676863E+03  0.10566000000E+00 0. -1.
        -13    1    4    4    0    0 -0.59689214287E+00 -0.24048219873E+01 -0.28539845489E+02  0.28647397676E+02  0.10566000000E+00 0.  1.
        -14    1    4    4    0    0 -0.14877729721E+00 -0.86535109493E+01 -0.10737763057E+03  0.10772586009E+03  0.00000000000E+00 0.  1.
<mgrwt>
<rscale>  0 0.80746082E+02</rscale>
<asrwt>0</asrwt>
<pdfrwt beam="1">  1        2 0.45401464E-01 0.80746082E+02</pdfrwt>
<pdfrwt beam="2">  1       -1 0.84974056E-03 0.80746082E+02</pdfrwt>
<totfact> 0.24733433E+05</totfact>
</mgrwt>
</event>
<event>
 8    1  0.2561077E-020  0.7554605E+02  0.7818608E-02  0.1342188E+00
         -1   -1    0    0    0  501 -0.00000000000E+00  0.00000000000E+00  0.21110590975E+01  0.21110651138E+01  0.50400000000E-02 0.  1.
          2   -1    0    0  501    0  0.00000000000E+00 -0.00000000000E+00 -0.67586898453E+03  0.67586898453E+03  0.25500000000E-02 0. -1.
         24    2    1    2    0    0  0.00000000000E+00  0.00000000000E+00 -0.67375792543E+03  0.67798004965E+03  0.75546049788E+02 0.  0.
         66    2    3    3    0    0 -0.38447577750E+01 -0.19787938842E+02 -0.62351598628E+03  0.62384495659E+03  0.20000094871E+01 0.  0.
        -13    1    3    3    0    0  0.38447577750E+01  0.19787938842E+02 -0.50241939152E+02  0.54135093052E+02  0.10566000000E+00 0.  1.
         13    1    4    4    0    0 -0.48015349674E+00 -0.39613179723E+01 -0.13152641496E+03  0.13158697346E+03  0.10566000000E+00 0. -1.
        -13    1    4    4    0    0 -0.43394263794E-01 -0.15484658862E+00 -0.11061864661E+02  0.11063538057E+02  0.10566000000E+00 0. -1.
         14    1    4    4    0    0 -0.33212100145E+01 -0.15671774281E+02 -0.48092770666E+03  0.48119444508E+03  0.00000000000E+00 0. -1.
<mgrwt>
<rscale>  0 0.75546050E+02</rscale>
<asrwt>0</asrwt>
<pdfrwt beam="1">  1        2 0.10397967E+00 0.75546050E+02</pdfrwt>
<pdfrwt beam="2">  1       -1 0.32477933E-03 0.75546050E+02</pdfrwt>
<totfact> 0.38488745E+05</totfact>
</mgrwt>
</event>
<event>
 8    1  0.2561077E-020  0.8094776E+02  0.7818608E-02  0.1326383E+00
          2   -1    0    0  501    0  0.00000000000E+00  0.00000000000E+00  0.29155711693E+03  0.29155711694E+03  0.25500000000E-02 0. -1.
         -1   -1    0    0    0  501 -0.00000000000E+00 -0.00000000000E+00 -0.56185722619E+01  0.56185745224E+01  0.50400000000E-02 0.  1.
         24    2    1    2    0    0 -0.35527136788E-14  0.00000000000E+00  0.28593854467E+03  0.29717569146E+03  0.80947762599E+02 0.  0.
         66    2    3    3    0    0  0.21887352441E+02  0.14727714432E+02  0.25562334267E+03  0.25698882289E+03  0.20000011966E+01 0.  0.
        -13    1    3    3    0    0 -0.21887352441E+02 -0.14727714432E+02  0.30315201997E+02  0.40186868570E+02  0.10566000000E+00 0.  1.
         13    1    4    4    0    0  0.11177473557E+02  0.77708637301E+01  0.13487136889E+03  0.13555670233E+03  0.10566000000E+00 0. -1.
        -13    1    4    4    0    0  0.56171234646E+01  0.41681834889E+01  0.70261368331E+02  0.70608759183E+02  0.10566000000E+00 0.  1.
        -14    1    4    4    0    0  0.50927554195E+01  0.27886672125E+01  0.50490605450E+02  0.50823361373E+02  0.00000000000E+00 0.  1.
<mgrwt>
<rscale>  0 0.80947763E+02</rscale>
<asrwt>0</asrwt>
<pdfrwt beam="1">  1        2 0.44854935E-01 0.80947763E+02</pdfrwt>
<pdfrwt beam="2">  1       -1 0.86439603E-03 0.80947763E+02</pdfrwt>
<totfact> 0.24464297E+05</totfact>
</mgrwt>
</event>
<event>
 8    1  0.2561077E-020  0.7346949E+02  0.7818608E-02  0.1348677E+00
          2   -1    0    0  501    0  0.00000000000E+00  0.00000000000E+00  0.32498660999E+03  0.32498661000E+03  0.25500000000E-02 0. -1.
         -1   -1    0    0    0  501 -0.00000000000E+00 -0.00000000000E+00 -0.41522969718E+01  0.41523000305E+01  0.50400000000E-02 0.  1.
         24    2    1    2    0    0  0.00000000000E+00 -0.35527136788E-14  0.32083431302E+03  0.32913891003E+03  0.73469488131E+02 0.  0.
         66    2    3    3    0    0  0.86249860889E+01  0.25860180099E+02  0.27066364516E+03  0.27204034283E+03  0.20000029361E+01 0.  0.
        -13    1    3    3    0    0 -0.86249860889E+01 -0.25860180099E+02  0.50170667855E+02  0.57098567205E+02  0.10566000000E+00 0.  1.
         13    1    4    4    0    0  0.12726151684E+01  0.34243746657E+01  0.35163167487E+02  0.35352586935E+02  0.10566000000E+00 0. -1.
        -13    1    4    4    0    0  0.22792981714E+01  0.53698173085E+01  0.52474910347E+02  0.52798271923E+02  0.10566000000E+00 0.  1.
         14    1    4    4    0    0  0.50730727490E+01  0.17065988125E+02  0.18302556733E+03  0.18388948397E+03  0.00000000000E+00 0. -1.
<mgrwt>
<rscale>  0 0.73469488E+02</rscale>
<asrwt>0</asrwt>
<pdfrwt beam="1">  1        2 0.49997942E-01 0.73469488E+02</pdfrwt>
<pdfrwt beam="2">  1       -1 0.63881513E-03 0.73469488E+02</pdfrwt>
<totfact> 0.32764882E+05</totfact>
</mgrwt>
</event>
<event>
 8    1  0.2561077E-020  0.7942908E+02  0.7818608E-02  0.1330679E+00
         -1   -1    0    0    0  501 -0.00000000000E+00  0.00000000000E+00  0.53482477528E+01  0.53482501276E+01  0.50400000000E-02 0.  1.
          2   -1    0    0  501    0  0.00000000000E+00 -0.00000000000E+00 -0.29490863045E+03  0.29490863046E+03  0.25500000000E-02 0. -1.
         24    2    1    2    0    0 -0.44408920985E-15  0.00000000000E+00 -0.28956038270E+03  0.30025688059E+03  0.79429082287E+02 0.  0.
         66    2    3    3    0    0 -0.28059707580E+01 -0.10450591737E+02 -0.28922104953E+03  0.28943030908E+03  0.19999965823E+01 0.  0.
        -13    1    3    3    0    0  0.28059707580E+01  0.10450591737E+02 -0.33933316980E+00  0.10826571506E+02  0.10566000000E+00 0.  1.
         13    1    4    4    0    0 -0.64278372815E+00 -0.21073264626E+01 -0.49247200211E+02  0.49296570757E+02  0.10566000000E+00 0. -1.
        -13    1    4    4    0    0 -0.14356568735E+01 -0.38441617133E+01 -0.13184088779E+03  0.13190477455E+03  0.10566000000E+00 0.  1.
        -14    1    4    4    0    0 -0.72753015641E+00 -0.44991035608E+01 -0.10813296152E+03  0.10822896378E+03  0.00000000000E+00 0.  1.
<mgrwt>
<rscale>  0 0.79429082E+02</rscale>
<asrwt>0</asrwt>
<pdfrwt beam="1">  1        2 0.45370546E-01 0.79429082E+02</pdfrwt>
<pdfrwt beam="2">  1       -1 0.82280776E-03 0.79429082E+02</pdfrwt>
<totfact> 0.25817141E+05</totfact>
</mgrwt>
</event>
<event>
 8    1  0.2561077E-020  0.8105799E+02  0.7818608E-02  0.1326076E+00
         -1   -1    0    0    0  501 -0.00000000000E+00  0.00000000000E+00  0.17336303096E+01  0.17336376357E+01  0.50400000000E-02 0.  1.
          2   -1    0    0  501    0  0.00000000000E+00 -0.00000000000E+00 -0.94748918863E+03  0.94748918863E+03  0.25500000000E-02 0. -1.
         24    2    1    2    0    0  0.00000000000E+00  0.44408920985E-15 -0.94575555832E+03  0.94922282626E+03  0.81057990455E+02 0.  0.
         66    2    3    3    0    0  0.23766084568E+02  0.36677060528E+01 -0.85484461652E+03  0.85518512454E+03  0.19999995622E+01 0.  0.
        -13    1    3    3    0    0 -0.23766084568E+02 -0.36677060528E+01 -0.90910941797E+02  0.94037701726E+02  0.10566000000E+00 0.  1.
         13    1    4    4    0    0  0.17522063152E+02  0.28502605137E+01 -0.60831502427E+03  0.60857401078E+03  0.10566000000E+00 0. -1.
        -13    1    4    4    0    0  0.24610326191E+01 -0.37578877204E-02 -0.90661243594E+02  0.90694701883E+02  0.10566000000E+00 0.  1.
         14    1    4    4    0    0  0.37829887974E+01  0.82120342685E+00 -0.15586834865E+03  0.15591641187E+03  0.00000000000E+00 0. -1.
<mgrwt>
<rscale>  0 0.81057990E+02</rscale>
<asrwt>0</asrwt>
<pdfrwt beam="1">  1        2 0.14576715E+00 0.81057990E+02</pdfrwt>
<pdfrwt beam="2">  1       -1 0.26671368E-03 0.81057990E+02</pdfrwt>
<totfact> 0.33938167E+05</totfact>
</mgrwt>
</event>
<event>
 8    1  0.2561077E-020  0.7956914E+02  0.7818608E-02  0.1330279E+00
         -1   -1    0    0    0  501 -0.00000000000E+00  0.00000000000E+00  0.13184610448E+03  0.13184610458E+03  0.50400000000E-02 0.  1.
          2   -1    0    0  501    0  0.00000000000E+00 -0.00000000000E+00 -0.12004995461E+02  0.12004995732E+02  0.25500000000E-02 0. -1.
         24    2    1    2    0    0 -0.44408920985E-15 -0.71054273576E-14  0.11984110902E+03  0.14385110031E+03  0.79569137543E+02 0.  0.
         66    2    3    3    0    0 -0.28011886719E+01 -0.38156956171E+02  0.40402556745E+02  0.55679139269E+02  0.19999989963E+01 0.  0.
        -13    1    3    3    0    0  0.28011886719E+01  0.38156956171E+02  0.79438552277E+02  0.88171961043E+02  0.10566000000E+00 0.  1.
         13    1    4    4    0    0 -0.60951258861E+00 -0.14324734448E+02  0.15210655437E+02  0.20903222848E+02  0.10566000000E+00 0. -1.
        -13    1    4    4    0    0 -0.19501814579E+01 -0.19182015361E+02  0.19514457658E+02  0.27433157725E+02  0.10566000000E+00 0.  1.
        -14    1    4    4    0    0 -0.24149462541E+00 -0.46502063630E+01  0.56774436498E+01  0.73427586961E+01  0.00000000000E+00 0.  1.
<mgrwt>
<rscale>  0 0.79569138E+02</rscale>
<asrwt>0</asrwt>
<pdfrwt beam="1">  1        2 0.18469224E-02 0.79569138E+02</pdfrwt>
<pdfrwt beam="2">  1       -1 0.20284016E-01 0.79569138E+02</pdfrwt>
<totfact> 0.11288685E+05</totfact>
</mgrwt>
</event>
<event>
 8    1  0.2561077E-020  0.7988180E+02  0.7818608E-02  0.1329387E+00
         -1   -1    0    0    0  501 -0.00000000000E+00  0.00000000000E+00  0.40173576992E+01  0.40173608607E+01  0.50400000000E-02 0.  1.
          2   -1    0    0  501    0  0.00000000000E+00 -0.00000000000E+00 -0.39709554610E+03  0.39709554611E+03  0.25500000000E-02 0. -1.
         24    2    1    2    0    0  0.88817841970E-15  0.00000000000E+00 -0.39307818840E+03  0.40111290697E+03  0.79881799808E+02 0.  0.
         66    2    3    3    0    0 -0.34678814731E+01  0.16626412582E+02 -0.37804299176E+03  0.37842960696E+03  0.20000013147E+01 0.  0.
        -13    1    3    3    0    0  0.34678814731E+01 -0.16626412582E+02 -0.15035196633E+02  0.22683300005E+02  0.10566000000E+00 0.  1.
         13    1    4    4    0    0 -0.19667959824E+01  0.96214807322E+01 -0.23231632492E+03  0.23252382065E+03  0.10566000000E+00 0. -1.
        -13    1    4    4    0    0 -0.92566255473E+00  0.52755563986E+01 -0.10096028862E+03  0.10110232138E+03  0.10566000000E+00 0.  1.
        -14    1    4    4    0    0 -0.57542293601E+00  0.17293754515E+01 -0.44766378226E+02  0.44803464938E+02  0.00000000000E+00 0.  1.
<mgrwt>
<rscale>  0 0.79881800E+02</rscale>
<asrwt>0</asrwt>
<pdfrwt beam="1">  1        2 0.61091592E-01 0.79881800E+02</pdfrwt>
<pdfrwt beam="2">  1       -1 0.61805559E-03 0.79881800E+02</pdfrwt>
<totfact> 0.28290721E+05</totfact>
</mgrwt>
</event>
<event>
 8    1  0.2561077E-020  0.8040657E+02  0.7818608E-02  0.1327902E+00
          2   -1    0    0  501    0  0.00000000000E+00  0.00000000000E+00  0.23051323868E+03  0.23051323869E+03  0.25500000000E-02 0. -1.
         -1   -1    0    0    0  501 -0.00000000000E+00 -0.00000000000E+00 -0.70117623199E+01  0.70117641313E+01  0.50400000000E-02 0.  1.
         24    2    1    2    0    0  0.00000000000E+00  0.00000000000E+00  0.22350147636E+03  0.23752500282E+03  0.80406573314E+02 0.  0.
         66    2    3    3    0    0 -0.33062712886E+01 -0.27793725798E+02  0.19696996078E+03  0.19895875973E+03  0.19999998453E+01 0.  0.
        -13    1    3    3    0    0  0.33062712886E+01  0.27793725798E+02  0.26531515578E+02  0.38566243095E+02  0.10566000000E+00 0.  1.
         13    1    4    4    0    0 -0.82329424632E+00 -0.61387036006E+01  0.48102828446E+02  0.48500049112E+02  0.10566000000E+00 0. -1.
        -13    1    4    4    0    0 -0.46322727149E+00 -0.16836385240E+01  0.11178704243E+02  0.11314760747E+02  0.10566000000E+00 0. -1.
         14    1    4    4    0    0 -0.20197497708E+01 -0.19971383673E+02  0.13768842809E+03  0.13914394987E+03  0.00000000000E+00 0. -1.
<mgrwt>
<rscale>  0 0.80406573E+02</rscale>
<asrwt>0</asrwt>
<pdfrwt beam="1">  1        2 0.35463578E-01 0.80406573E+02</pdfrwt>
<pdfrwt beam="2">  1       -1 0.10787327E-02 0.80406573E+02</pdfrwt>
<totfact> 0.22879829E+05</totfact>
</mgrwt>
</event>
<event>
 8    1  0.2561077E-020  0.7848595E+02  0.7818608E-02  0.1333404E+00
         -1   -1    0    0    0  501 -0.00000000000E+00  0.00000000000E+00  0.77524243628E+02  0.77524243792E+02  0.50400000000E-02 0.  1.
          2   -1    0    0  501    0  0.00000000000E+00 -0.00000000000E+00 -0.19864896115E+02  0.19864896279E+02  0.25500000000E-02 0. -1.
         24    2    1    2    0    0  0.00000000000E+00  0.00000000000E+00  0.57659347513E+02  0.97389140071E+02  0.78485949367E+02 0.  0.
         66    2    3    3    0    0 -0.37113220837E+02 -0.11509636361E+02  0.35431065897E+02  0.52623410347E+02  0.19999989746E+01 0.  0.
        -13    1    3    3    0    0  0.37113220837E+02  0.11509636361E+02  0.22228281616E+02  0.44765729724E+02  0.10566000000E+00 0.  1.
         13    1    4    4    0    0 -0.23766627401E+02 -0.69705453880E+01  0.22342983375E+02  0.33356575830E+02  0.10566000000E+00 0.  1.
        -13    1    4    4    0    0 -0.10989662658E+02 -0.35989417919E+01  0.11247838342E+02  0.16132268866E+02  0.10566000000E+00 0. -1.
        -14    1    4    4    0    0 -0.23569307781E+01 -0.94014918097E+00  0.18402441808E+01  0.31345656510E+01  0.00000000000E+00 0.  1.
<mgrwt>
<rscale>  0 0.78485949E+02</rscale>
<asrwt>0</asrwt>
<pdfrwt beam="1">  1        2 0.30561378E-02 0.78485949E+02</pdfrwt>
<pdfrwt beam="2">  1       -1 0.11926807E-01 0.78485949E+02</pdfrwt>
<totfact> 0.13097090E+05</totfact>
</mgrwt>
</event>
<event>
 8    1  0.2561077E-020  0.7886684E+02  0.7818608E-02  0.1332298E+00
          2   -1    0    0  501    0  0.00000000000E+00  0.00000000000E+00  0.88311390789E+02  0.88311390826E+02  0.25500000000E-02 0. -1.
         -1   -1    0    0    0  501 -0.00000000000E+00 -0.00000000000E+00 -0.17608085308E+02  0.17608086029E+02  0.50400000000E-02 0.  1.
         24    2    1    2    0    0  0.17763568394E-14 -0.35527136788E-14  0.70703305481E+02  0.10591947685E+03  0.78866838223E+02 0.  0.
         66    2    3    3    0    0  0.12802439914E+02  0.27769632601E+02  0.68759422410E+02  0.75278902318E+02  0.20000003601E+01 0.  0.
        -13    1    3    3    0    0 -0.12802439914E+02 -0.27769632601E+02  0.19438830709E+01  0.30640574537E+02  0.10566000000E+00 0.  1.
         13    1    4    4    0    0  0.56123572747E+01  0.11498895442E+02  0.29730888958E+02  0.32367577494E+02  0.10566000000E+00 0. -1.
        -13    1    4    4    0    0  0.20853953464E+01  0.47940148301E+01  0.10093433635E+02  0.11367498341E+02  0.10566000000E+00 0.  1.
        -14    1    4    4    0    0  0.51046872926E+01  0.11476722329E+02  0.28935099816E+02  0.31543826482E+02  0.00000000000E+00 0.  1.
<mgrwt>
<rscale>  0 0.78866838E+02</rscale>
<asrwt>0</asrwt>
<pdfrwt beam="1">  1        2 0.13586368E-01 0.78866838E+02</pdfrwt>
<pdfrwt beam="2">  1       -1 0.27089363E-02 0.78866838E+02</pdfrwt>
<totfact> 0.17802651E+05</totfact>
</mgrwt>
</event>
<event>
 8    1  0.2561077E-020  0.8011278E+02  0.7818608E-02  0.1328732E+00
          2   -1    0    0  501    0  0.00000000000E+00  0.00000000000E+00  0.19423960291E+04  0.19423960291E+04  0.25500000000E-02 0. -1.
         -1   -1    0    0    0  501 -0.00000000000E+00 -0.00000000000E+00 -0.82604136868E+00  0.82605674404E+00  0.50400000000E-02 0.  1.
         24    2    1    2    0    0 -0.44408920985E-15  0.00000000000E+00  0.19415699877E+04  0.19432220858E+04  0.80112780875E+02 0.  0.
         66    2    3    3    0    0  0.38362447924E+01 -0.16598274387E+02  0.18500780366E+04  0.18501575503E+04  0.20000026113E+01 0.  0.
        -13    1    3    3    0    0 -0.38362447924E+01  0.16598274387E+02  0.91491951136E+02  0.93064535530E+02  0.10566000000E+00 0.  1.
         13    1    4    4    0    0  0.33069352686E+01 -0.11229793433E+02  0.12482598629E+04  0.12483147603E+04  0.10566000000E+00 0. -1.
        -13    1    4    4    0    0  0.38302361051E+00 -0.15824862143E+01  0.15684196669E+03  0.15685045313E+03  0.10566000000E+00 0.  1.
        -14    1    4    4    0    0  0.14628591325E+00 -0.37859947399E+01  0.44497620696E+03  0.44499233692E+03  0.00000000000E+00 0.  1.
<mgrwt>
<rscale>  0 0.80112781E+02</rscale>
<asrwt>0</asrwt>
<pdfrwt beam="1">  1        2 0.29882772E+00 0.80112781E+02</pdfrwt>
<pdfrwt beam="2">  1       -1 0.12708551E-03 0.80112781E+02</pdfrwt>
<totfact> 0.28390237E+05</totfact>
</mgrwt>
</event>
<event>
 8    1  0.2561077E-020  0.7633180E+02  0.7818608E-02  0.1339796E+00
          2   -1    0    0  501    0  0.00000000000E+00  0.00000000000E+00  0.32199580456E+03  0.32199580457E+03  0.25500000000E-02 0. -1.
         -1   -1    0    0    0  501 -0.00000000000E+00 -0.00000000000E+00 -0.45237711655E+01  0.45237739731E+01  0.50400000000E-02 0.  1.
         24    2    1    2    0    0  0.00000000000E+00  0.00000000000E+00  0.31747203340E+03  0.32651957855E+03  0.76331796680E+02 0.  0.
         66    2    3    3    0    0 -0.11564177554E+02  0.41195984448E+01  0.31330994531E+03  0.31355673028E+03  0.19999948424E+01 0.  0.
        -13    1    3    3    0    0  0.11564177554E+02 -0.41195984448E+01  0.41620880840E+01  0.12962848263E+02  0.10566000000E+00 0.  1.
         13    1    4    4    0    0 -0.31854887514E+00  0.29523804140E+00  0.94775247958E+01  0.94880598215E+01  0.10566000000E+00 0. -1.
        -13    1    4    4    0    0 -0.77036731916E+00 -0.12559339401E+00  0.18963650405E+02  0.18980001060E+02  0.10566000000E+00 0.  1.
        -14    1    4    4    0    0 -0.10475261360E+02  0.39499537974E+01  0.28486877011E+03  0.28508866940E+03  0.00000000000E+00 0.  1.
<mgrwt>
<rscale>  0 0.76331797E+02</rscale>
<asrwt>0</asrwt>
<pdfrwt beam="1">  1        2 0.49537797E-01 0.76331797E+02</pdfrwt>
<pdfrwt beam="2">  1       -1 0.69596528E-03 0.76331797E+02</pdfrwt>
<totfact> 0.29567894E+05</totfact>
</mgrwt>
</event>
<event>
 8    1  0.2561077E-020  0.7998430E+02  0.7818608E-02  0.1329096E+00
         -1   -1    0    0    0  501 -0.00000000000E+00  0.00000000000E+00  0.44814138820E+01  0.44814167161E+01  0.50400000000E-02 0.  1.
          2   -1    0    0  501    0  0.00000000000E+00 -0.00000000000E+00 -0.35688994327E+03  0.35688994328E+03  0.25500000000E-02 0. -1.
         24    2    1    2    0    0  0.00000000000E+00 -0.17763568394E-14 -0.35240852939E+03  0.36137136000E+03  0.79984299956E+02 0.  0.
         66    2    3    3    0    0  0.14040534106E+02  0.12352859783E+02 -0.33589953198E+03  0.33642566092E+03  0.20000003630E+01 0.  0.
        -13    1    3    3    0    0 -0.14040534106E+02 -0.12352859783E+02 -0.16508997416E+02  0.24945699079E+02  0.10566000000E+00 0.  1.
         13    1    4    4    0    0  0.20312270989E+00  0.95245217297E-01 -0.56315068651E+01  0.56369640849E+01  0.10566000000E+00 0. -1.
        -13    1    4    4    0    0  0.57017318973E+01  0.49331507209E+01 -0.14852521490E+03  0.14871649655E+03  0.10566000000E+00 0. -1.
         14    1    4    4    0    0  0.81356794990E+01  0.73244638447E+01 -0.18174281021E+03  0.18207220028E+03  0.00000000000E+00 0. -1.
<mgrwt>
<rscale>  0 0.79984300E+02</rscale>
<asrwt>0</asrwt>
<pdfrwt beam="1">  1        2 0.54906123E-01 0.79984300E+02</pdfrwt>
<pdfrwt beam="2">  1       -1 0.68944879E-03 0.79984300E+02</pdfrwt>
<totfact> 0.27151479E+05</totfact>
</mgrwt>
</event>
<event>
 8    1  0.2561077E-020  0.8023588E+02  0.7818608E-02  0.1328383E+00
          2   -1    0    0  501    0  0.00000000000E+00  0.00000000000E+00  0.92157004695E+01  0.92157008222E+01  0.25500000000E-02 0. -1.
         -1   -1    0    0    0  501 -0.00000000000E+00 -0.00000000000E+00 -0.17464208406E+03  0.17464208413E+03  0.50400000000E-02 0.  1.
         24    2    1    2    0    0  0.00000000000E+00  0.00000000000E+00 -0.16542638359E+03  0.18385778496E+03  0.80235881629E+02 0.  0.
         66    2    3    3    0    0  0.25952979256E+02  0.17366385388E+02 -0.25144404440E+02  0.40142116665E+02  0.19999954901E+01 0.  0.
        -13    1    3    3    0    0 -0.25952979256E+02 -0.17366385388E+02 -0.14028197915E+03  0.14371566829E+03  0.10566000000E+00 0.  1.
         13    1    4    4    0    0  0.10618341053E+02  0.64668675712E+01 -0.11017692055E+02  0.16612352187E+02  0.10566000000E+00 0. -1.
        -13    1    4    4    0    0  0.10417550050E+02  0.73213924704E+01 -0.93772387151E+01  0.15813662027E+02  0.10566000000E+00 0.  1.
         14    1    4    4    0    0  0.49170881529E+01  0.35781253461E+01 -0.47494736696E+01  0.77161024510E+01  0.00000000000E+00 0. -1.
<mgrwt>
<rscale>  0 0.80235882E+02</rscale>
<asrwt>0</asrwt>
<pdfrwt beam="1">  1        2 0.14178002E-02 0.80235882E+02</pdfrwt>
<pdfrwt beam="2">  1       -1 0.26868011E-01 0.80235882E+02</pdfrwt>
<totfact> 0.10282696E+05</totfact>
</mgrwt>
</event>
<event>
 8    1  0.2561077E-020  0.7649495E+02  0.7818608E-02  0.1339303E+00
         -1   -1    0    0    0  501 -0.00000000000E+00  0.00000000000E+00  0.14063274896E+02  0.14063275799E+02  0.50400000000E-02 0.  1.
          2   -1    0    0  501    0  0.00000000000E+00 -0.00000000000E+00 -0.10402052703E+03  0.10402052706E+03  0.25500000000E-02 0. -1.
         24    2    1    2    0    0  0.00000000000E+00  0.44408920985E-15 -0.89957252130E+02  0.11808380286E+03  0.76494949416E+02 0.  0.
         66    2    3    3    0    0 -0.13272535452E+02 -0.27783595651E+01 -0.10017261481E+03  0.10110604453E+03  0.20000008479E+01 0.  0.
        -13    1    3    3    0    0  0.13272535452E+02  0.27783595651E+01  0.10215362678E+02  0.16977758329E+02  0.10566000000E+00 0.  1.
         13    1    4    4    0    0 -0.92857862702E+01 -0.18782641875E+01 -0.64642722653E+02  0.65333348751E+02  0.10566000000E+00 0. -1.
        -13    1    4    4    0    0 -0.93596640682E+00 -0.18359188838E+00 -0.11366492919E+02  0.11406930542E+02  0.10566000000E+00 0.  1.
         14    1    4    4    0    0 -0.30507827750E+01 -0.71650348924E+00 -0.24163399236E+02  0.24365765234E+02  0.00000000000E+00 0. -1.
<mgrwt>
<rscale>  0 0.76494949E+02</rscale>
<asrwt>0</asrwt>
<pdfrwt beam="1">  1        2 0.16003158E-01 0.76494949E+02</pdfrwt>
<pdfrwt beam="2">  1       -1 0.21635809E-02 0.76494949E+02</pdfrwt>
<totfact> 0.20200814E+05</totfact>
</mgrwt>
</event>
<event>
 8    1  0.2561077E-020  0.7815000E+02  0.7818608E-02  0.1334385E+00
          2   -1    0    0  501    0  0.00000000000E+00  0.00000000000E+00  0.42376508616E+02  0.42376508692E+02  0.25500000000E-02 0. -1.
         -1   -1    0    0    0  501 -0.00000000000E+00 -0.00000000000E+00 -0.36030704332E+02  0.36030704684E+02  0.50400000000E-02 0.  1.
         24    2    1    2    0    0  0.71054273576E-14  0.88817841970E-15  0.63458042841E+01  0.78407213376E+02  0.78149996017E+02 0.  0.
         66    2    3    3    0    0  0.35499537997E+02  0.72292885772E+01  0.17795883864E+02  0.40412538780E+02  0.19999992014E+01 0.  0.
        -13    1    3    3    0    0 -0.35499537997E+02 -0.72292885772E+01 -0.11450079580E+02  0.37994674597E+02  0.10566000000E+00 0.  1.
         13    1    4    4    0    0  0.10587018671E+02  0.22340773990E+01  0.45179771183E+01  0.11726011574E+02  0.10566000000E+00 0. -1.
        -13    1    4    4    0    0  0.32033391619E+01  0.81145087956E+00  0.20501643131E+01  0.38902663228E+01  0.10566000000E+00 0.  1.
         14    1    4    4    0    0  0.21709180164E+02  0.41837602986E+01  0.11227742432E+02  0.24796260883E+02  0.00000000000E+00 0. -1.
<mgrwt>
<rscale>  0 0.78149996E+02</rscale>
<asrwt>0</asrwt>
<pdfrwt beam="1">  1        2 0.65194628E-02 0.78149996E+02</pdfrwt>
<pdfrwt beam="2">  1       -1 0.55431854E-02 0.78149996E+02</pdfrwt>
<totfact> 0.15386050E+05</totfact>
</mgrwt>
</event>
<event>
 8    1  0.2561077E-020  0.7945366E+02  0.7818608E-02  0.1330609E+00
         -1   -1    0    0    0  501 -0.00000000000E+00  0.00000000000E+00  0.12436000987E+03  0.12436000998E+03  0.50400000000E-02 0.  1.
          2   -1    0    0  501    0  0.00000000000E+00 -0.00000000000E+00 -0.12690742199E+02  0.12690742456E+02  0.25500000000E-02 0. -1.
         24    2    1    2    0    0 -0.17763568394E-14  0.71054273576E-14  0.11166926767E+03  0.13705075243E+03  0.79453655669E+02 0.  0.
         66    2    3    3    0    0 -0.15310612575E+02  0.33723858599E+02  0.31202890083E+02  0.48469927289E+02  0.20000014234E+01 0.  0.
        -13    1    3    3    0    0  0.15310612575E+02 -0.33723858599E+02  0.80466377591E+02  0.88580825142E+02  0.10566000000E+00 0.  1.
         13    1    4    4    0    0 -0.63016888895E+01  0.14843225176E+02  0.14018429161E+02  0.21367267880E+02  0.10566000000E+00 0. -1.
        -13    1    4    4    0    0 -0.43753445474E+01  0.88629333315E+01  0.89153033674E+01  0.13311236806E+02  0.10566000000E+00 0.  1.
        -14    1    4    4    0    0 -0.46335791382E+01  0.10017700091E+02  0.82691575552E+01  0.13791422603E+02  0.00000000000E+00 0.  1.
<mgrwt>
<rscale>  0 0.79453656E+02</rscale>
<asrwt>0</asrwt>
<pdfrwt beam="1">  1        2 0.19524220E-02 0.79453656E+02</pdfrwt>
<pdfrwt beam="2">  1       -1 0.19132308E-01 0.79453656E+02</pdfrwt>
<totfact> 0.11487086E+05</totfact>
</mgrwt>
</event>
<event>
 8    1  0.2561077E-020  0.7763349E+02  0.7818608E-02  0.1335905E+00
         -1   -1    0    0    0  501 -0.00000000000E+00  0.00000000000E+00  0.27942371759E+01  0.27942417213E+01  0.50400000000E-02 0.  1.
          2   -1    0    0  501    0  0.00000000000E+00 -0.00000000000E+00 -0.53923073839E+03  0.53923073840E+03  0.25500000000E-02 0. -1.
         24    2    1    2    0    0  0.00000000000E+00  0.00000000000E+00 -0.53643650121E+03  0.54202498012E+03  0.77633493007E+02 0.  0.
         66    2    3    3    0    0 -0.36833531875E+02  0.80657037315E+01 -0.33199199245E+03  0.33413238050E+03  0.20000004791E+01 0.  0.
        -13    1    3    3    0    0  0.36833531875E+02 -0.80657037315E+01 -0.20444450876E+03  0.20789259962E+03  0.10566000000E+00 0.  1.
         13    1    4    4    0    0 -0.47026099021E+01  0.14916780725E+01 -0.40766496052E+02  0.41064071982E+02  0.10566000000E+00 0. -1.
        -13    1    4    4    0    0 -0.15914317263E+02  0.27271040108E+01 -0.14410968261E+03  0.14501142843E+03  0.10566000000E+00 0.  1.
        -14    1    4    4    0    0 -0.16216604710E+02  0.38469216482E+01 -0.14711581379E+03  0.14805688008E+03  0.00000000000E+00 0.  1.
<mgrwt>
<rscale>  0 0.77633493E+02</rscale>
<asrwt>0</asrwt>
<pdfrwt beam="1">  1        2 0.82958493E-01 0.77633493E+02</pdfrwt>
<pdfrwt beam="2">  1       -1 0.42988342E-03 0.77633493E+02</pdfrwt>
<totfact> 0.33708034E+05</totfact>
</mgrwt>
</event>
<event>
 8    1  0.2561077E-020  0.7925965E+02  0.7818608E-02  0.1331166E+00
         -1   -1    0    0    0  501 -0.00000000000E+00  0.00000000000E+00  0.36873756174E+02  0.36873756518E+02  0.50400000000E-02 0.  1.
          2   -1    0    0  501    0  0.00000000000E+00 -0.00000000000E+00 -0.42591888499E+02  0.42591888575E+02  0.25500000000E-02 0. -1.
         24    2    1    2    0    0 -0.35527136788E-14  0.00000000000E+00 -0.57181323246E+01  0.79465645093E+02  0.79259647443E+02 0.  0.
         66    2    3    3    0    0 -0.24204871169E+02 -0.27066190831E+01 -0.34172105384E+02  0.42011121708E+02  0.19999964020E+01 0.  0.
        -13    1    3    3    0    0  0.24204871169E+02  0.27066190831E+01  0.28453973059E+02  0.37454523386E+02  0.10566000000E+00 0.  1.
         13    1    4    4    0    0 -0.11303875392E+02 -0.20213162394E+01 -0.16093783708E+02  0.19770795540E+02  0.10566000000E+00 0. -1.
        -13    1    4    4    0    0 -0.12175746951E+01 -0.29281663575E+00 -0.15423890711E+01  0.19895622137E+01  0.10566000000E+00 0.  1.
         14    1    4    4    0    0 -0.11683421082E+02 -0.39248620793E+00 -0.16535932604E+02  0.20250763954E+02  0.00000000000E+00 0. -1.
<mgrwt>
<rscale>  0 0.79259647E+02</rscale>
<asrwt>0</asrwt>
<pdfrwt beam="1">  1        2 0.65525982E-02 0.79259647E+02</pdfrwt>
<pdfrwt beam="2">  1       -1 0.56728856E-02 0.79259647E+02</pdfrwt>
<totfact> 0.14816312E+05</totfact>
</mgrwt>
</event>
<event>
 8    1  0.2561077E-020  0.7460404E+02  0.7818608E-02  0.1345102E+00
         -1   -1    0    0    0  501 -0.00000000000E+00  0.00000000000E+00  0.29120159378E+01  0.29120202994E+01  0.50400000000E-02 0.  1.
          2   -1    0    0  501    0  0.00000000000E+00 -0.00000000000E+00 -0.47782696895E+03  0.47782696895E+03  0.25500000000E-02 0. -1.
         24    2    1    2    0    0 -0.71054273576E-14  0.00000000000E+00 -0.47491495301E+03  0.48073898925E+03  0.74604042762E+02 0.  0.
         66    2    3    3    0    0  0.35489618865E+02 -0.44120074632E+01 -0.30535183574E+03  0.30744547882E+03  0.19999996519E+01 0.  0.
        -13    1    3    3    0    0 -0.35489618865E+02  0.44120074632E+01 -0.16956311727E+03  0.17329351044E+03  0.10566000000E+00 0.  1.
         13    1    4    4    0    0  0.78619657179E+01 -0.93187115199E+00 -0.64770802074E+02  0.65252945176E+02  0.10566000000E+00 0. -1.
        -13    1    4    4    0    0  0.74543365660E+01 -0.90060681523E+00 -0.58910281744E+02  0.59386957200E+02  0.10566000000E+00 0. -1.
        -14    1    4    4    0    0  0.20173316581E+02 -0.25795294959E+01 -0.18167075192E+03  0.18280557644E+03  0.00000000000E+00 0.  1.
<mgrwt>
<rscale>  0 0.74604043E+02</rscale>
<asrwt>0</asrwt>
<pdfrwt beam="1">  1        2 0.73511779E-01 0.74604043E+02</pdfrwt>
<pdfrwt beam="2">  1       -1 0.44800317E-03 0.74604043E+02</pdfrwt>
<totfact> 0.35978322E+05</totfact>
</mgrwt>
</event>
<event>
 8    1  0.2561077E-020  0.8011067E+02  0.7818608E-02  0.1328738E+00
         -1   -1    0    0    0  501 -0.00000000000E+00  0.00000000000E+00  0.34158337909E+01  0.34158375091E+01  0.50400000000E-02 0.  1.
          2   -1    0    0  501    0  0.00000000000E+00 -0.00000000000E+00 -0.46970351133E+03  0.46970351133E+03  0.25500000000E-02 0. -1.
         24    2    1    2    0    0  0.35527136788E-14  0.00000000000E+00 -0.46628767753E+03  0.47311934884E+03  0.80110673619E+02 0.  0.
         66    2    3    3    0    0 -0.18200581956E+02 -0.25538154019E+02 -0.38021990860E+03  0.38151623477E+03  0.20000006566E+01 0.  0.
        -13    1    3    3    0    0  0.18200581956E+02  0.25538154019E+02 -0.86067768932E+02  0.91603114070E+02  0.10566000000E+00 0.  1.
         13    1    4    4    0    0 -0.12923935402E+02 -0.17123453099E+02 -0.26100856907E+03  0.26188876464E+03  0.10566000000E+00 0. -1.
        -13    1    4    4    0    0 -0.45035347196E+01 -0.73826286654E+01 -0.10026775961E+03  0.10064005074E+03  0.10566000000E+00 0.  1.
        -14    1    4    4    0    0 -0.77311183432E+00 -0.10320722544E+01 -0.18943579920E+02  0.18987419394E+02  0.00000000000E+00 0.  1.
<mgrwt>
<rscale>  0 0.80110674E+02</rscale>
<asrwt>0</asrwt>
<pdfrwt beam="1">  1        2 0.72262028E-01 0.80110674E+02</pdfrwt>
<pdfrwt beam="2">  1       -1 0.52551355E-03 0.80110674E+02</pdfrwt>
<totfact> 0.29733288E+05</totfact>
</mgrwt>
</event>
<event>
 8    1  0.2561077E-020  0.8098633E+02  0.7818608E-02  0.1326275E+00
         -1   -1    0    0    0  501 -0.00000000000E+00  0.00000000000E+00  0.78005801352E+01  0.78005817634E+01  0.50400000000E-02 0.  1.
          2   -1    0    0  501    0  0.00000000000E+00 -0.00000000000E+00 -0.21020183358E+03  0.21020183360E+03  0.25500000000E-02 0. -1.
         24    2    1    2    0    0 -0.35527136788E-14  0.00000000000E+00 -0.20240125345E+03  0.21800241536E+03  0.80986330367E+02 0.  0.
         66    2    3    3    0    0  0.20395501100E+02  0.34611211893E+02 -0.88135751213E+02  0.96880457737E+02  0.19999989044E+01 0.  0.
        -13    1    3    3    0    0 -0.20395501100E+02 -0.34611211893E+02 -0.11426550223E+03  0.12112195762E+03  0.10566000000E+00 0.  1.
         13    1    4    4    0    0  0.14890506747E+02  0.25581405554E+02 -0.65803413995E+02  0.72154251148E+02  0.10566000000E+00 0. -1.
        -13    1    4    4    0    0  0.14592367361E+01  0.31805743421E+01 -0.72296421432E+01  0.80327028173E+01  0.10566000000E+00 0.  1.
         14    1    4    4    0    0  0.40457576171E+01  0.58492319975E+01 -0.15102695074E+02  0.16693503772E+02  0.00000000000E+00 0. -1.
<mgrwt>
<rscale>  0 0.80986330E+02</rscale>
<asrwt>0</asrwt>
<pdfrwt beam="1">  1        2 0.32338739E-01 0.80986330E+02</pdfrwt>
<pdfrwt beam="2">  1       -1 0.12000895E-02 0.80986330E+02</pdfrwt>
<totfact> 0.21730787E+05</totfact>
</mgrwt>
</event>
<event>
 8    1  0.2561077E-020  0.8123633E+02  0.7818608E-02  0.1325579E+00
         -1   -1    0    0    0  501 -0.00000000000E+00  0.00000000000E+00  0.19644403617E+01  0.19644468271E+01  0.50400000000E-02 0.  1.
          2   -1    0    0  501    0  0.00000000000E+00 -0.00000000000E+00 -0.83984864573E+03  0.83984864574E+03  0.25500000000E-02 0. -1.
         24    2    1    2    0    0  0.00000000000E+00  0.35527136788E-14 -0.83788420537E+03  0.84181309256E+03  0.81236329320E+02 0.  0.
         66    2    3    3    0    0 -0.83707359375E+01 -0.27933656078E+02 -0.71182818589E+03  0.71242804870E+03  0.19999992670E+01 0.  0.
        -13    1    3    3    0    0  0.83707359375E+01  0.27933656078E+02 -0.12605601948E+03  0.12938504386E+03  0.10566000000E+00 0.  1.
         13    1    4    4    0    0 -0.24944850728E+01 -0.10697280529E+02 -0.28138537449E+03  0.28159970598E+03  0.10566000000E+00 0. -1.
        -13    1    4    4    0    0 -0.17730181638E+01 -0.51029507908E+01 -0.12113588209E+03  0.12125632682E+03  0.10566000000E+00 0.  1.
         14    1    4    4    0    0 -0.41032327009E+01 -0.12133424758E+02 -0.30930692930E+03  0.30957201590E+03  0.00000000000E+00 0. -1.
<mgrwt>
<rscale>  0 0.81236329E+02</rscale>
<asrwt>0</asrwt>
<pdfrwt beam="1">  1        2 0.12920720E+00 0.81236329E+02</pdfrwt>
<pdfrwt beam="2">  1       -1 0.30222276E-03 0.81236329E+02</pdfrwt>
<totfact> 0.33281428E+05</totfact>
</mgrwt>
</event>
<event>
 8    1  0.2561077E-020  0.7747344E+02  0.7818608E-02  0.1336378E+00
         -1   -1    0    0    0  501 -0.00000000000E+00  0.00000000000E+00  0.27972116821E+01  0.27972162226E+01  0.50400000000E-02 0.  1.
          2   -1    0    0  501    0  0.00000000000E+00 -0.00000000000E+00 -0.53643853972E+03  0.53643853972E+03  0.25500000000E-02 0. -1.
         24    2    1    2    0    0  0.00000000000E+00  0.88817841970E-15 -0.53364132803E+03  0.53923575595E+03  0.77473437406E+02 0.  0.
         66    2    3    3    0    0  0.35920793598E+02 -0.46815583107E+01 -0.36200193655E+03  0.36381536867E+03  0.20000021676E+01 0.  0.
        -13    1    3    3    0    0 -0.35920793598E+02  0.46815583107E+01 -0.17163939148E+03  0.17542038728E+03  0.10566000000E+00 0.  1.
         13    1    4    4    0    0  0.17767056082E+02 -0.24932049331E+01 -0.17883045520E+03  0.17972820375E+03  0.10566000000E+00 0. -1.
        -13    1    4    4    0    0  0.46815254889E+01 -0.58316924072E-01 -0.50210270650E+02  0.50428191763E+02  0.10566000000E+00 0.  1.
        -14    1    4    4    0    0  0.13472212027E+02 -0.21300364535E+01 -0.13296121070E+03  0.13365897315E+03  0.00000000000E+00 0.  1.
<mgrwt>
<rscale>  0 0.77473437E+02</rscale>
<asrwt>0</asrwt>
<pdfrwt beam="1">  1        2 0.82528925E-01 0.77473437E+02</pdfrwt>
<pdfrwt beam="2">  1       -1 0.43034104E-03 0.77473437E+02</pdfrwt>
<totfact> 0.33835787E+05</totfact>
</mgrwt>
</event>
<event>
 8    1  0.2561077E-020  0.8008717E+02  0.7818608E-02  0.1328804E+00
          2   -1    0    0  501    0  0.00000000000E+00  0.00000000000E+00  0.67283858952E+03  0.67283858952E+03  0.25500000000E-02 0. -1.
         -1   -1    0    0    0  501 -0.00000000000E+00 -0.00000000000E+00 -0.23831669838E+01  0.23831723132E+01  0.50400000000E-02 0.  1.
         24    2    1    2    0    0  0.00000000000E+00 -0.71054273576E-14  0.67045542253E+03  0.67522176184E+03  0.80087165335E+02 0.  0.
         66    2    3    3    0    0  0.29617726338E+00 -0.24228082785E+02  0.60396274251E+03  0.60445188564E+03  0.19999982875E+01 0.  0.
        -13    1    3    3    0    0 -0.29617726338E+00  0.24228082785E+02  0.66492680022E+02  0.70769876197E+02  0.10566000000E+00 0.  1.
         13    1    4    4    0    0  0.34502344485E+00 -0.21958290935E+01  0.63554548466E+02  0.63593494174E+02  0.10566000000E+00 0. -1.
        -13    1    4    4    0    0  0.40261783066E-01 -0.21901597544E+02  0.53568611737E+03  0.53613366720E+03  0.10566000000E+00 0.  1.
         14    1    4    4    0    0 -0.89107964535E-01 -0.13065614784E+00  0.47220766730E+01  0.47247242632E+01  0.00000000000E+00 0. -1.
<mgrwt>
<rscale>  0 0.80087165E+02</rscale>
<asrwt>0</asrwt>
<pdfrwt beam="1">  1        2 0.10351365E+00 0.80087165E+02</pdfrwt>
<pdfrwt beam="2">  1       -1 0.36664141E-03 0.80087165E+02</pdfrwt>
<totfact> 0.33047063E+05</totfact>
</mgrwt>
</event>
<event>
 8    1  0.2561077E-020  0.8411930E+02  0.7818608E-02  0.1317752E+00
          2   -1    0    0  501    0  0.00000000000E+00  0.00000000000E+00  0.60866457080E+02  0.60866457134E+02  0.25500000000E-02 0. -1.
         -1   -1    0    0    0  501 -0.00000000000E+00 -0.00000000000E+00 -0.29063859684E+02  0.29063860121E+02  0.50400000000E-02 0.  1.
         24    2    1    2    0    0  0.00000000000E+00 -0.17763568394E-14  0.31802597396E+02  0.89930317255E+02  0.84119300761E+02 0.  0.
         66    2    3    3    0    0 -0.41145852059E+02  0.83089211488E+01  0.13522151954E+02  0.44145984106E+02  0.20000017474E+01 0.  0.
        -13    1    3    3    0    0  0.41145852059E+02 -0.83089211488E+01  0.18280445442E+02  0.45784333149E+02  0.10566000000E+00 0.  1.
         13    1    4    4    0    0 -0.67341463406E+01  0.10156778523E+01  0.23459405878E+01  0.72038135535E+01  0.10566000000E+00 0. -1.
        -13    1    4    4    0    0 -0.11460679252E+02  0.28334438863E+01  0.31020539533E+01  0.12206943759E+02  0.10566000000E+00 0.  1.
        -14    1    4    4    0    0 -0.22951026466E+02  0.44597994101E+01  0.80741574124E+01  0.24735226794E+02  0.00000000000E+00 0.  1.
<mgrwt>
<rscale>  0 0.84119301E+02</rscale>
<asrwt>0</asrwt>
<pdfrwt beam="1">  1        2 0.93640702E-02 0.84119301E+02</pdfrwt>
<pdfrwt beam="2">  1       -1 0.44713631E-02 0.84119301E+02</pdfrwt>
<totfact> 0.13618170E+05</totfact>
</mgrwt>
</event>
<event>
 8    1  0.2561077E-020  0.7759153E+02  0.7818608E-02  0.1336029E+00
         -1   -1    0    0    0  501 -0.00000000000E+00  0.00000000000E+00  0.21933219701E+02  0.21933220280E+02  0.50400000000E-02 0.  1.
          2   -1    0    0  501    0  0.00000000000E+00 -0.00000000000E+00 -0.68622455856E+02  0.68622455903E+02  0.25500000000E-02 0. -1.
         24    2    1    2    0    0  0.17763568394E-14  0.00000000000E+00 -0.46689236155E+02  0.90555676183E+02  0.77591531215E+02 0.  0.
         66    2    3    3    0    0  0.13712365361E+02  0.33276224797E+02 -0.40182688195E+02  0.53981335028E+02  0.20000000661E+01 0.  0.
        -13    1    3    3    0    0 -0.13712365361E+02 -0.33276224797E+02 -0.65065479599E+01  0.36574341156E+02  0.10566000000E+00 0.  1.
         13    1    4    4    0    0  0.58800092741E+01  0.13641497184E+02 -0.17730996727E+02  0.23131458308E+02  0.10566000000E+00 0. -1.
        -13    1    4    4    0    0  0.49073659080E+01  0.11166978744E+02 -0.13056550507E+02  0.17868081307E+02  0.10566000000E+00 0.  1.
         14    1    4    4    0    0  0.29249901790E+01  0.84677488700E+01 -0.93951409606E+01  0.12981795413E+02  0.00000000000E+00 0. -1.
<mgrwt>
<rscale>  0 0.77591531E+02</rscale>
<asrwt>0</asrwt>
<pdfrwt beam="1">  1        2 0.10557301E-01 0.77591531E+02</pdfrwt>
<pdfrwt beam="2">  1       -1 0.33743416E-02 0.77591531E+02</pdfrwt>
<totfact> 0.17452808E+05</totfact>
</mgrwt>
</event>
<event>
 8    1  0.2561077E-020  0.7842958E+02  0.7818608E-02  0.1333568E+00
         -1   -1    0    0    0  501 -0.00000000000E+00  0.00000000000E+00  0.20037897815E+01  0.20037961198E+01  0.50400000000E-02 0.  1.
          2   -1    0    0  501    0  0.00000000000E+00 -0.00000000000E+00 -0.76744448971E+03  0.76744448972E+03  0.25500000000E-02 0. -1.
         24    2    1    2    0    0  0.00000000000E+00  0.00000000000E+00 -0.76544069993E+03  0.76944828584E+03  0.78429582849E+02 0.  0.
         66    2    3    3    0    0  0.29981078674E+02  0.11019697480E+02 -0.60571571968E+03  0.60656065804E+03  0.19999989659E+01 0.  0.
        -13    1    3    3    0    0 -0.29981078674E+02 -0.11019697480E+02 -0.15972498025E+03  0.16288762780E+03  0.10566000000E+00 0.  1.
         13    1    4    4    0    0  0.45347904692E+01  0.15442914801E+01 -0.80993617785E+02  0.81135235544E+02  0.10566000000E+00 0. -1.
        -13    1    4    4    0    0  0.32256149093E+01  0.10188137137E+01 -0.59451501539E+02  0.59547752033E+02  0.10566000000E+00 0.  1.
         14    1    4    4    0    0  0.22220673295E+02  0.84565922860E+01 -0.46527060036E+03  0.46587767046E+03  0.00000000000E+00 0. -1.
<mgrwt>
<rscale>  0 0.78429583E+02</rscale>
<asrwt>0</asrwt>
<pdfrwt beam="1">  1        2 0.11806815E+00 0.78429583E+02</pdfrwt>
<pdfrwt beam="2">  1       -1 0.30827645E-03 0.78429583E+02</pdfrwt>
<totfact> 0.35907646E+05</totfact>
</mgrwt>
</event>
<event>
 8    1  0.2561077E-020  0.8003659E+02  0.7818608E-02  0.1328948E+00
         -1   -1    0    0    0  501 -0.00000000000E+00  0.00000000000E+00  0.11824712521E+03  0.11824712532E+03  0.50400000000E-02 0.  1.
          2   -1    0    0  501    0  0.00000000000E+00 -0.00000000000E+00 -0.13543364317E+02  0.13543364558E+02  0.25500000000E-02 0. -1.
         24    2    1    2    0    0  0.00000000000E+00  0.00000000000E+00  0.10470376089E+03  0.13179048987E+03  0.80036589609E+02 0.  0.
         66    2    3    3    0    0 -0.20117086864E+02  0.13441306762E+01 -0.44887050175E+01  0.20752164749E+02  0.19999994650E+01 0.  0.
        -13    1    3    3    0    0  0.20117086864E+02 -0.13441306762E+01  0.10919246591E+03  0.11103832512E+03  0.10566000000E+00 0.  1.
         13    1    4    4    0    0 -0.15070024277E+02  0.14631376021E+01 -0.28955441848E+01  0.15415633088E+02  0.10566000000E+00 0. -1.
        -13    1    4    4    0    0 -0.46426698759E+01 -0.18183426746E+00 -0.12778542791E+01  0.48199090107E+01  0.10566000000E+00 0.  1.
         14    1    4    4    0    0 -0.40439271176E+00  0.62827341508E-01 -0.31530655367E+00  0.51662265044E+00  0.00000000000E+00 0. -1.
<mgrwt>
<rscale>  0 0.80036590E+02</rscale>
<asrwt>0</asrwt>
<pdfrwt beam="1">  1        2 0.20835945E-02 0.80036590E+02</pdfrwt>
<pdfrwt beam="2">  1       -1 0.18191866E-01 0.80036590E+02</pdfrwt>
<totfact> 0.11409677E+05</totfact>
</mgrwt>
</event>
<event>
 8    1  0.2561077E-020  0.8197544E+02  0.7818608E-02  0.1323537E+00
         -1   -1    0    0    0  501 -0.00000000000E+00  0.00000000000E+00  0.36657905177E+03  0.36657905181E+03  0.50400000000E-02 0.  1.
          2   -1    0    0  501    0  0.00000000000E+00 -0.00000000000E+00 -0.45828943291E+01  0.45828950385E+01  0.25500000000E-02 0. -1.
         24    2    1    2    0    0  0.71054273576E-14  0.00000000000E+00  0.36199615744E+03  0.37116194684E+03  0.81975440117E+02 0.  0.
         66    2    3    3    0    0 -0.38752915775E+02  0.10896596872E+02  0.14678314821E+03  0.15221634901E+03  0.20000007075E+01 0.  0.
        -13    1    3    3    0    0  0.38752915775E+02 -0.10896596872E+02  0.21521300924E+03  0.21894559784E+03  0.10566000000E+00 0.  1.
         13    1    4    4    0    0 -0.17363420875E+02  0.47334295945E+01  0.65495957591E+02  0.67923673083E+02  0.10566000000E+00 0. -1.
        -13    1    4    4    0    0 -0.86543438562E+01  0.30992791803E+01  0.31946409571E+02  0.33242855587E+02  0.10566000000E+00 0.  1.
        -14    1    4    4    0    0 -0.12735151044E+02  0.30638880973E+01  0.49340781045E+02  0.51049820337E+02  0.00000000000E+00 0.  1.
<mgrwt>
<rscale>  0 0.81975440E+02</rscale>
<asrwt>0</asrwt>
<pdfrwt beam="1">  1        2 0.70506048E-03 0.81975440E+02</pdfrwt>
<pdfrwt beam="2">  1       -1 0.56396797E-01 0.81975440E+02</pdfrwt>
<totfact> 0.74332565E+04</totfact>
</mgrwt>
</event>
<event>
 8    1  0.2561077E-020  0.7917737E+02  0.7818608E-02  0.1331402E+00
         -1   -1    0    0    0  501 -0.00000000000E+00  0.00000000000E+00  0.71771573299E+02  0.71771573476E+02  0.50400000000E-02 0.  1.
          2   -1    0    0  501    0  0.00000000000E+00 -0.00000000000E+00 -0.21836836348E+02  0.21836836497E+02  0.25500000000E-02 0. -1.
         24    2    1    2    0    0  0.00000000000E+00  0.00000000000E+00  0.49934736951E+02  0.93608409973E+02  0.79177373431E+02 0.  0.
         66    2    3    3    0    0  0.15026049188E+02 -0.16085613385E+02 -0.13882973297E+02  0.26101073946E+02  0.20000003467E+01 0.  0.
        -13    1    3    3    0    0 -0.15026049188E+02  0.16085613385E+02  0.63817710248E+02  0.67507336028E+02  0.10566000000E+00 0.  1.
         13    1    4    4    0    0  0.67920281272E+01 -0.70479744410E+01 -0.55857195807E+01  0.11270182655E+02  0.10566000000E+00 0. -1.
        -13    1    4    4    0    0  0.26004388471E+01 -0.28684922691E+01 -0.19343844707E+01  0.43293807192E+01  0.10566000000E+00 0.  1.
         14    1    4    4    0    0  0.56335822135E+01 -0.61691466753E+01 -0.63628692455E+01  0.10501510572E+02  0.00000000000E+00 0. -1.
<mgrwt>
<rscale>  0 0.79177373E+02</rscale>
<asrwt>0</asrwt>
<pdfrwt beam="1">  1        2 0.33595133E-02 0.79177373E+02</pdfrwt>
<pdfrwt beam="2">  1       -1 0.11041781E-01 0.79177373E+02</pdfrwt>
<totfact> 0.13014949E+05</totfact>
</mgrwt>
</event>
<event>
 8    1  0.2561077E-020  0.8081646E+02  0.7818608E-02  0.1326750E+00
         -1   -1    0    0    0  501 -0.00000000000E+00  0.00000000000E+00  0.96195294198E+01  0.96195307402E+01  0.50400000000E-02 0.  1.
          2   -1    0    0  501    0  0.00000000000E+00 -0.00000000000E+00 -0.16974062022E+03  0.16974062024E+03  0.25500000000E-02 0. -1.
         24    2    1    2    0    0  0.00000000000E+00  0.35527136788E-14 -0.16012109080E+03  0.17936015098E+03  0.80816458969E+02 0.  0.
         66    2    3    3    0    0  0.22516879095E+02  0.19758872465E+02 -0.14021238553E+03  0.14339085025E+03  0.19999985939E+01 0.  0.
        -13    1    3    3    0    0 -0.22516879095E+02 -0.19758872465E+02 -0.19908705268E+02  0.35969300727E+02  0.10566000000E+00 0.  1.
         13    1    4    4    0    0  0.26373871467E+01  0.19314918549E+01 -0.13295794360E+02  0.13692179646E+02  0.10566000000E+00 0. -1.
        -13    1    4    4    0    0  0.84549888017E+01  0.73357330181E+01 -0.55284652432E+02  0.56406593348E+02  0.10566000000E+00 0.  1.
         14    1    4    4    0    0  0.11424503147E+02  0.10491647592E+02 -0.71631938741E+02  0.73292077260E+02  0.00000000000E+00 0. -1.
<mgrwt>
<rscale>  0 0.80816459E+02</rscale>
<asrwt>0</asrwt>
<pdfrwt beam="1">  1        2 0.26113939E-01 0.80816459E+02</pdfrwt>
<pdfrwt beam="2">  1       -1 0.14799278E-02 0.80816459E+02</pdfrwt>
<totfact> 0.20305257E+05</totfact>
</mgrwt>
</event>
<event>
 8    1  0.2561077E-020  0.7302132E+02  0.7818608E-02  0.1350110E+00
          2   -1    0    0  501    0  0.00000000000E+00  0.00000000000E+00  0.81011255923E+02  0.81011255963E+02  0.25500000000E-02 0. -1.
         -1   -1    0    0    0  501 -0.00000000000E+00 -0.00000000000E+00 -0.16454854125E+02  0.16454854897E+02  0.50400000000E-02 0.  1.
         24    2    1    2    0    0  0.00000000000E+00  0.00000000000E+00  0.64556401798E+02  0.97466110860E+02  0.73021323961E+02 0.  0.
         66    2    3    3    0    0 -0.31077495337E+02 -0.16544984448E+02  0.45068452559E+02  0.57225104953E+02  0.19999985084E+01 0.  0.
        -13    1    3    3    0    0  0.31077495337E+02  0.16544984448E+02  0.19487949239E+02  0.40241005906E+02  0.10566000000E+00 0.  1.
         13    1    4    4    0    0 -0.19947943242E+02 -0.99323014856E+01  0.28723709992E+02  0.36354280795E+02  0.10566000000E+00 0. -1.
        -13    1    4    4    0    0 -0.31075181744E+01 -0.17590157070E+01  0.38921576601E+01  0.52830730402E+01  0.10566000000E+00 0.  1.
        -14    1    4    4    0    0 -0.80220339208E+01 -0.48536672557E+01  0.12452584907E+02  0.15587751118E+02  0.00000000000E+00 0.  1.
<mgrwt>
<rscale>  0 0.73021324E+02</rscale>
<asrwt>0</asrwt>
<pdfrwt beam="1">  1        2 0.12463270E-01 0.73021324E+02</pdfrwt>
<pdfrwt beam="2">  1       -1 0.25315161E-02 0.73021324E+02</pdfrwt>
<totfact> 0.21386409E+05</totfact>
</mgrwt>
</event>
<event>
 8    1  0.2561077E-020  0.8108899E+02  0.7818608E-02  0.1325989E+00
         -1   -1    0    0    0  501 -0.00000000000E+00  0.00000000000E+00  0.32042514228E+01  0.32042553865E+01  0.50400000000E-02 0.  1.
          2   -1    0    0  501    0  0.00000000000E+00 -0.00000000000E+00 -0.51302306940E+03  0.51302306940E+03  0.25500000000E-02 0. -1.
         24    2    1    2    0    0  0.00000000000E+00 -0.55511151231E-16 -0.50981881797E+03  0.51622732479E+03  0.81088986300E+02 0.  0.
         66    2    3    3    0    0 -0.27893429513E+02 -0.27804221870E+00 -0.44216162735E+03  0.44304517311E+03  0.19999991429E+01 0.  0.
        -13    1    3    3    0    0  0.27893429513E+02  0.27804221870E+00 -0.67657190622E+02  0.73182151680E+02  0.10566000000E+00 0.  1.
         13    1    4    4    0    0 -0.80535435790E+00  0.25206186977E+00 -0.13141579481E+02  0.13169070055E+02  0.10566000000E+00 0. -1.
        -13    1    4    4    0    0 -0.24244977601E+01  0.21701519837E+00 -0.36409293062E+02  0.36490725812E+02  0.10566000000E+00 0.  1.
         14    1    4    4    0    0 -0.24663577395E+02 -0.74711928684E+00 -0.39261075481E+03  0.39338537724E+03  0.00000000000E+00 0. -1.
<mgrwt>
<rscale>  0 0.81088986E+02</rscale>
<asrwt>0</asrwt>
<pdfrwt beam="1">  1        2 0.78926561E-01 0.81088986E+02</pdfrwt>
<pdfrwt beam="2">  1       -1 0.49296247E-03 0.81088986E+02</pdfrwt>
<totfact> 0.29636568E+05</totfact>
</mgrwt>
</event>
<event>
 8    1  0.2561077E-020  0.8058382E+02  0.7818608E-02  0.1327403E+00
         -1   -1    0    0    0  501 -0.00000000000E+00  0.00000000000E+00  0.29852981631E+02  0.29852982056E+02  0.50400000000E-02 0.  1.
          2   -1    0    0  501    0  0.00000000000E+00 -0.00000000000E+00 -0.54381100510E+02  0.54381100570E+02  0.25500000000E-02 0. -1.
         24    2    1    2    0    0 -0.35527136788E-14  0.00000000000E+00 -0.24528118879E+02  0.84234082626E+02  0.80583820089E+02 0.  0.
         66    2    3    3    0    0  0.24144471858E+02  0.19967604401E+02 -0.38711060879E+02  0.49841819621E+02  0.20000004730E+01 0.  0.
        -13    1    3    3    0    0 -0.24144471858E+02 -0.19967604401E+02  0.14182942000E+02  0.34392263006E+02  0.10566000000E+00 0.  1.
         13    1    4    4    0    0  0.30942884584E+01  0.28331579803E+01 -0.54894746578E+01  0.69099132599E+01  0.10566000000E+00 0. -1.
        -13    1    4    4    0    0  0.18726183221E+02  0.15249775868E+02 -0.30335090827E+02  0.38774405238E+02  0.10566000000E+00 0.  1.
        -14    1    4    4    0    0  0.23240001792E+01  0.18846705526E+01 -0.28864953936E+01  0.41575011223E+01  0.00000000000E+00 0.  1.
<mgrwt>
<rscale>  0 0.80583820E+02</rscale>
<asrwt>0</asrwt>
<pdfrwt beam="1">  1        2 0.83663232E-02 0.80583820E+02</pdfrwt>
<pdfrwt beam="2">  1       -1 0.45927665E-02 0.80583820E+02</pdfrwt>
<totfact> 0.14922939E+05</totfact>
</mgrwt>
</event>
<event>
 8    1  0.2561077E-020  0.8209104E+02  0.7818608E-02  0.1323220E+00
          2   -1    0    0  501    0  0.00000000000E+00  0.00000000000E+00  0.22809820791E+02  0.22809820934E+02  0.25500000000E-02 0. -1.
         -1   -1    0    0    0  501 -0.00000000000E+00 -0.00000000000E+00 -0.73860060828E+02  0.73860061000E+02  0.50400000000E-02 0.  1.
         24    2    1    2    0    0  0.00000000000E+00  0.00000000000E+00 -0.51050240036E+02  0.96669881934E+02  0.82091041322E+02 0.  0.
         66    2    3    3    0    0  0.15830513569E+02  0.77649924804E+01  0.18075737234E+02  0.25330466702E+02  0.19999996758E+01 0.  0.
        -13    1    3    3    0    0 -0.15830513569E+02 -0.77649924804E+01 -0.69125977270E+02  0.71339415232E+02  0.10566000000E+00 0.  1.
         13    1    4    4    0    0  0.15269322308E+02  0.75152815864E+01  0.17135990844E+02  0.24151294112E+02  0.10566000000E+00 0. -1.
        -13    1    4    4    0    0  0.39907576588E+00  0.17648045517E+00  0.36837564051E+00  0.58075077795E+00  0.10566000000E+00 0.  1.
         14    1    4    4    0    0  0.16211549490E+00  0.73230438761E-01  0.57137074931E+00  0.59842181111E+00  0.00000000000E+00 0. -1.
<mgrwt>
<rscale>  0 0.82091041E+02</rscale>
<asrwt>0</asrwt>
<pdfrwt beam="1">  1        2 0.35092033E-02 0.82091041E+02</pdfrwt>
<pdfrwt beam="2">  1       -1 0.11363086E-01 0.82091041E+02</pdfrwt>
<totfact> 0.11841835E+05</totfact>
</mgrwt>
</event>
<event>
 8    1  0.2561077E-020  0.8247919E+02  0.7818608E-02  0.1322160E+00
         -1   -1    0    0    0  501 -0.00000000000E+00  0.00000000000E+00  0.40077068827E+01  0.40077100518E+01  0.50400000000E-02 0.  1.
          2   -1    0    0  501    0  0.00000000000E+00 -0.00000000000E+00 -0.42435822889E+03  0.42435822889E+03  0.25500000000E-02 0. -1.
         24    2    1    2    0    0  0.00000000000E+00  0.22204460493E-15 -0.42035052200E+03  0.42836593895E+03  0.82479187073E+02 0.  0.
         66    2    3    3    0    0 -0.24862121083E+02 -0.19815962909E+01 -0.38071328788E+03  0.38153461095E+03  0.19999995456E+01 0.  0.
        -13    1    3    3    0    0  0.24862121083E+02  0.19815962909E+01 -0.39637234127E+02  0.46831327996E+02  0.10566000000E+00 0.  1.
         13    1    4    4    0    0 -0.10682163902E+02 -0.12461819572E+01 -0.17397831213E+03  0.17431042955E+03  0.10566000000E+00 0. -1.
        -13    1    4    4    0    0 -0.65458241015E+01 -0.80655285744E+00 -0.95898452984E+02  0.96125037266E+02  0.10566000000E+00 0.  1.
         14    1    4    4    0    0 -0.76341330794E+01  0.71138523782E-01 -0.11083652276E+03  0.11109914413E+03  0.00000000000E+00 0. -1.
<mgrwt>
<rscale>  0 0.82479187E+02</rscale>
<asrwt>0</asrwt>
<pdfrwt beam="1">  1        2 0.65285846E-01 0.82479187E+02</pdfrwt>
<pdfrwt beam="2">  1       -1 0.61657087E-03 0.82479187E+02</pdfrwt>
<totfact> 0.26626656E+05</totfact>
</mgrwt>
</event>
<event>
 8    1  0.2561077E-020  0.7982863E+02  0.7818608E-02  0.1329538E+00
          2   -1    0    0  501    0  0.00000000000E+00  0.00000000000E+00  0.10766121748E+03  0.10766121751E+03  0.25500000000E-02 0. -1.
         -1   -1    0    0    0  501 -0.00000000000E+00 -0.00000000000E+00 -0.14797831566E+02  0.14797832424E+02  0.50400000000E-02 0.  1.
         24    2    1    2    0    0  0.00000000000E+00  0.00000000000E+00  0.92863385917E+02  0.12245904994E+03  0.79828631879E+02 0.  0.
         66    2    3    3    0    0 -0.18205474190E+02 -0.34203520117E+02  0.60999840340E+02  0.72293157344E+02  0.19999995922E+01 0.  0.
        -13    1    3    3    0    0  0.18205474190E+02  0.34203520117E+02  0.31863545577E+02  0.50165892593E+02  0.10566000000E+00 0.  1.
         13    1    4    4    0    0 -0.48553116436E+00 -0.89373716963E+00  0.16221516909E+01  0.19175627197E+01  0.10566000000E+00 0. -1.
        -13    1    4    4    0    0 -0.11865836679E+02 -0.23282124229E+02  0.39738757058E+02  0.47560859593E+02  0.10566000000E+00 0.  1.
        -14    1    4    4    0    0 -0.58541063462E+01 -0.10027658718E+02  0.19638931592E+02  0.22814735031E+02  0.00000000000E+00 0.  1.
<mgrwt>
<rscale>  0 0.79828632E+02</rscale>
<asrwt>0</asrwt>
<pdfrwt beam="1">  1        2 0.16563264E-01 0.79828632E+02</pdfrwt>
<pdfrwt beam="2">  1       -1 0.22765896E-02 0.79828632E+02</pdfrwt>
<totfact> 0.18205160E+05</totfact>
</mgrwt>
</event>
<event>
 8    1  0.2561077E-020  0.7738489E+02  0.7818608E-02  0.1336641E+00
          2   -1    0    0  501    0  0.00000000000E+00  0.00000000000E+00  0.25383439143E+04  0.25383439143E+04  0.25500000000E-02 0. -1.
         -1   -1    0    0    0  501 -0.00000000000E+00 -0.00000000000E+00 -0.58978537984E+00  0.58980691406E+00  0.50400000000E-02 0.  1.
         24    2    1    2    0    0 -0.17763568394E-14 -0.88817841970E-15  0.25377541289E+04  0.25389337212E+04  0.77384894346E+02 0.  0.
         66    2    3    3    0    0 -0.94516863762E+01 -0.53934777983E+01  0.24870601173E+04  0.24870847294E+04  0.19999932891E+01 0.  0.
        -13    1    3    3    0    0  0.94516863762E+01  0.53934777983E+01  0.50694011567E+02  0.51848991803E+02  0.10566000000E+00 0.  1.
         13    1    4    4    0    0 -0.46723732755E+01 -0.27489705827E+01  0.12113568900E+04  0.12113690247E+04  0.10566000000E+00 0. -1.
        -13    1    4    4    0    0 -0.59788157828E+00 -0.52506659311E-01  0.78322782069E+02  0.78325152885E+02  0.10566000000E+00 0.  1.
        -14    1    4    4    0    0 -0.41814315225E+01 -0.25920005563E+01  0.11973804453E+04  0.11973905518E+04  0.00000000000E+00 0.  1.
<mgrwt>
<rscale>  0 0.77384894E+02</rscale>
<asrwt>0</asrwt>
<pdfrwt beam="1">  1        2 0.39051144E+00 0.77384894E+02</pdfrwt>
<pdfrwt beam="2">  1       -1 0.90738569E-04 0.77384894E+02</pdfrwt>
<totfact> 0.22322361E+05</totfact>
</mgrwt>
</event>
<event>
 8    1  0.2561077E-020  0.8165651E+02  0.7818608E-02  0.1324415E+00
         -1   -1    0    0    0  501 -0.00000000000E+00  0.00000000000E+00  0.22460411919E+02  0.22460412485E+02  0.50400000000E-02 0.  1.
          2   -1    0    0  501    0  0.00000000000E+00 -0.00000000000E+00 -0.74217084741E+02  0.74217084785E+02  0.25500000000E-02 0. -1.
         24    2    1    2    0    0  0.00000000000E+00  0.00000000000E+00 -0.51756672822E+02  0.96677497269E+02  0.81656507987E+02 0.  0.
         66    2    3    3    0    0  0.38602312458E+02 -0.36212032818E+01 -0.40948644703E+02  0.56427326138E+02  0.19999979293E+01 0.  0.
        -13    1    3    3    0    0 -0.38602312458E+02  0.36212032818E+01 -0.10808028118E+02  0.40250171132E+02  0.10566000000E+00 0.  1.
         13    1    4    4    0    0  0.31483802463E+02 -0.30140640320E+01 -0.32342608110E+02  0.45236819770E+02  0.10566000000E+00 0. -1.
        -13    1    4    4    0    0  0.50187769875E+01 -0.27901223638E+00 -0.60377434705E+01  0.78569383687E+01  0.10566000000E+00 0.  1.
         14    1    4    4    0    0  0.20997330074E+01 -0.32812701336E+00 -0.25682931232E+01  0.33335679993E+01  0.00000000000E+00 0. -1.
<mgrwt>
<rscale>  0 0.81656508E+02</rscale>
<asrwt>0</asrwt>
<pdfrwt beam="1">  1        2 0.11418013E-01 0.81656508E+02</pdfrwt>
<pdfrwt beam="2">  1       -1 0.34554481E-02 0.81656508E+02</pdfrwt>
<totfact> 0.15497807E+05</totfact>
</mgrwt>
</event>
<event>
 8    1  0.2561077E-020  0.7892904E+02  0.7818608E-02  0.1332118E+00
         -1   -1    0    0    0  501 -0.00000000000E+00  0.00000000000E+00  0.92164792913E+01  0.92164806694E+01  0.50400000000E-02 0.  1.
          2   -1    0    0  501    0  0.00000000000E+00 -0.00000000000E+00 -0.16898515541E+03  0.16898515543E+03  0.25500000000E-02 0. -1.
         24    2    1    2    0    0  0.00000000000E+00  0.35527136788E-14 -0.15976867612E+03  0.17820163610E+03  0.78929039266E+02 0.  0.
         66    2    3    3    0    0  0.21556953517E+02 -0.24367365944E+02 -0.13026712802E+03  0.13428326554E+03  0.19999985993E+01 0.  0.
        -13    1    3    3    0    0 -0.21556953517E+02  0.24367365944E+02 -0.29501548098E+02  0.43918370555E+02  0.10566000000E+00 0.  1.
         13    1    4    4    0    0  0.14579657689E+02 -0.17031571765E+02 -0.88950056470E+02  0.91732025842E+02  0.10566000000E+00 0. -1.
        -13    1    4    4    0    0  0.12480021351E+01 -0.10217958782E+01 -0.79007504348E+01  0.80644031158E+01  0.10566000000E+00 0.  1.
        -14    1    4    4    0    0  0.57292936927E+01 -0.63139983005E+01 -0.33416321113E+02  0.34486836583E+02  0.00000000000E+00 0.  1.
<mgrwt>
<rscale>  0 0.78929039E+02</rscale>
<asrwt>0</asrwt>
<pdfrwt beam="1">  1        2 0.25997714E-01 0.78929039E+02</pdfrwt>
<pdfrwt beam="2">  1       -1 0.14179201E-02 0.78929039E+02</pdfrwt>
<totfact> 0.21583656E+05</totfact>
</mgrwt>
</event>
<event>
 8    1  0.2561077E-020  0.7971807E+02  0.7818608E-02  0.1329853E+00
          2   -1    0    0  501    0  0.00000000000E+00  0.00000000000E+00  0.81498611008E+02  0.81498611048E+02  0.25500000000E-02 0. -1.
         -1   -1    0    0    0  501 -0.00000000000E+00 -0.00000000000E+00 -0.19494106239E+02  0.19494106891E+02  0.50400000000E-02 0.  1.
         24    2    1    2    0    0  0.88817841970E-15  0.00000000000E+00  0.62004504769E+02  0.10099271794E+03  0.79718068623E+02 0.  0.
         66    2    3    3    0    0  0.31918810993E+01  0.37098538961E+02  0.48949113588E+02  0.61534586952E+02  0.19999930737E+01 0.  0.
        -13    1    3    3    0    0 -0.31918810993E+01 -0.37098538961E+02  0.13055391182E+02  0.39458130987E+02  0.10566000000E+00 0.  1.
         13    1    4    4    0    0 -0.44153889266E-01  0.12500169319E+01  0.12691170513E+01  0.17850249358E+01  0.10566000000E+00 0. -1.
        -13    1    4    4    0    0  0.16724497938E+01  0.16502856026E+02  0.22749752614E+02  0.28154995176E+02  0.10566000000E+00 0.  1.
         14    1    4    4    0    0  0.15635851948E+01  0.19345666004E+02  0.24930243923E+02  0.31594566840E+02  0.00000000000E+00 0. -1.
<mgrwt>
<rscale>  0 0.79718069E+02</rscale>
<asrwt>0</asrwt>
<pdfrwt beam="1">  1        2 0.12538248E-01 0.79718069E+02</pdfrwt>
<pdfrwt beam="2">  1       -1 0.29990934E-02 0.79718069E+02</pdfrwt>
<totfact> 0.16936023E+05</totfact>
</mgrwt>
</event>
<event>
 8    1  0.2561077E-020  0.7963291E+02  0.7818608E-02  0.1330096E+00
          2   -1    0    0  501    0  0.00000000000E+00  0.00000000000E+00  0.24825546865E+03  0.24825546866E+03  0.25500000000E-02 0. -1.
         -1   -1    0    0    0  501 -0.00000000000E+00 -0.00000000000E+00 -0.63859607030E+01  0.63859626918E+01  0.50400000000E-02 0.  1.
         24    2    1    2    0    0  0.71054273576E-14  0.00000000000E+00  0.24186950795E+03  0.25464143136E+03  0.79632905811E+02 0.  0.
         66    2    3    3    0    0 -0.36125206395E+02  0.12141949011E+02  0.15759435263E+03  0.16214942937E+03  0.20000005733E+01 0.  0.
        -13    1    3    3    0    0  0.36125206395E+02 -0.12141949011E+02  0.84275155322E+02  0.92492001986E+02  0.10566000000E+00 0.  1.
         13    1    4    4    0    0 -0.22779293725E+02  0.68445910325E+01  0.97220611228E+02  0.10008797660E+03  0.10566000000E+00 0.  1.
        -13    1    4    4    0    0 -0.34907373777E+01  0.16940901914E+01  0.16364846158E+02  0.16818874601E+02  0.10566000000E+00 0. -1.
        -14    1    4    4    0    0 -0.98551752928E+01  0.36032677873E+01  0.44008895241E+02  0.45242578166E+02  0.00000000000E+00 0.  1.
<mgrwt>
<rscale>  0 0.79632906E+02</rscale>
<asrwt>0</asrwt>
<pdfrwt beam="1">  1        2 0.38193143E-01 0.79632906E+02</pdfrwt>
<pdfrwt beam="2">  1       -1 0.98245580E-03 0.79632906E+02</pdfrwt>
<totfact> 0.24098181E+05</totfact>
</mgrwt>
</event>
<event>
 8    1  0.2561077E-020  0.7878751E+02  0.7818608E-02  0.1332528E+00
         -1   -1    0    0    0  501 -0.00000000000E+00  0.00000000000E+00  0.17017218816E+02  0.17017219562E+02  0.50400000000E-02 0.  1.
          2   -1    0    0  501    0  0.00000000000E+00 -0.00000000000E+00 -0.91193986086E+02  0.91193986122E+02  0.25500000000E-02 0. -1.
         24    2    1    2    0    0  0.00000000000E+00  0.00000000000E+00 -0.74176767271E+02  0.10821120568E+03  0.78787513178E+02 0.  0.
         66    2    3    3    0    0  0.15342529441E+02 -0.32032831347E+02 -0.60435414534E+02  0.70127988477E+02  0.19999860274E+01 0.  0.
        -13    1    3    3    0    0 -0.15342529441E+02  0.32032831347E+02 -0.13741352737E+02  0.38083217207E+02  0.10566000000E+00 0.  1.
         13    1    4    4    0    0  0.18500091761E+01 -0.49953111755E+01 -0.85706078369E+01  0.10091687194E+02  0.10566000000E+00 0. -1.
        -13    1    4    4    0    0  0.24705696885E+01 -0.48223391798E+01 -0.84757204154E+01  0.10060202301E+02  0.10566000000E+00 0.  1.
         14    1    4    4    0    0  0.11021950577E+02 -0.22215180992E+02 -0.43389086282E+02  0.49976098981E+02  0.00000000000E+00 0. -1.
<mgrwt>
<rscale>  0 0.78787513E+02</rscale>
<asrwt>0</asrwt>
<pdfrwt beam="1">  1        2 0.14029844E-01 0.78787513E+02</pdfrwt>
<pdfrwt beam="2">  1       -1 0.26180338E-02 0.78787513E+02</pdfrwt>
<totfact> 0.18004837E+05</totfact>
</mgrwt>
</event>
<event>
 8    1  0.2561077E-020  0.7982667E+02  0.7818608E-02  0.1329544E+00
         -1   -1    0    0    0  501 -0.00000000000E+00  0.00000000000E+00  0.70251232978E+01  0.70251251057E+01  0.50400000000E-02 0.  1.
          2   -1    0    0  501    0  0.00000000000E+00 -0.00000000000E+00 -0.22676815674E+03  0.22676815676E+03  0.25500000000E-02 0. -1.
         24    2    1    2    0    0  0.17763568394E-14 -0.17763568394E-14 -0.21974303344E+03  0.23379328186E+03  0.79826674092E+02 0.  0.
         66    2    3    3    0    0 -0.15827313851E+02  0.96590134943E+01 -0.21337447236E+03  0.21418792189E+03  0.20000052973E+01 0.  0.
        -13    1    3    3    0    0  0.15827313851E+02 -0.96590134943E+01 -0.63685610807E+01  0.19605359973E+02  0.10566000000E+00 0.  1.
         13    1    4    4    0    0 -0.16222658805E+01  0.49625843187E+00 -0.16737012129E+02  0.16823101915E+02  0.10566000000E+00 0. -1.
        -13    1    4    4    0    0 -0.12916835889E+01  0.70265495468E+00 -0.14829409945E+02  0.14902507636E+02  0.10566000000E+00 0.  1.
         14    1    4    4    0    0 -0.12913364381E+02  0.84601001077E+01 -0.18180805029E+03  0.18246231234E+03  0.00000000000E+00 0. -1.
<mgrwt>
<rscale>  0 0.79826674E+02</rscale>
<asrwt>0</asrwt>
<pdfrwt beam="1">  1        2 0.34887403E-01 0.79826674E+02</pdfrwt>
<pdfrwt beam="2">  1       -1 0.10807885E-02 0.79826674E+02</pdfrwt>
<totfact> 0.23184937E+05</totfact>
</mgrwt>
</event>
<event>
 8    1  0.2561077E-020  0.8198589E+02  0.7818608E-02  0.1323508E+00
         -1   -1    0    0    0  501 -0.00000000000E+00  0.00000000000E+00  0.28199372908E+02  0.28199373358E+02  0.50400000000E-02 0.  1.
          2   -1    0    0  501    0  0.00000000000E+00 -0.00000000000E+00 -0.59590735196E+02  0.59590735250E+02  0.25500000000E-02 0. -1.
         24    2    1    2    0    0  0.00000000000E+00  0.35527136788E-14 -0.31391362288E+02  0.87790108609E+02  0.81985886244E+02 0.  0.
         66    2    3    3    0    0 -0.23809575519E+02  0.13645097052E+02 -0.48277806507E+02  0.55568256981E+02  0.20000057088E+01 0.  0.
        -13    1    3    3    0    0  0.23809575519E+02 -0.13645097052E+02  0.16886444219E+02  0.32221851628E+02  0.10566000000E+00 0.  1.
         13    1    4    4    0    0 -0.76528580848E+01  0.43749258892E+01 -0.16789598586E+02  0.18963332991E+02  0.10566000000E+00 0. -1.
        -13    1    4    4    0    0 -0.96578941907E+00  0.35301043339E+00 -0.14089684776E+01  0.17474901357E+01  0.10566000000E+00 0.  1.
        -14    1    4    4    0    0 -0.15190928015E+02  0.89171607299E+01 -0.30079239443E+02  0.34857433854E+02  0.00000000000E+00 0.  1.
<mgrwt>
<rscale>  0 0.81985886E+02</rscale>
<asrwt>0</asrwt>
<pdfrwt beam="1">  1        2 0.91678054E-02 0.81985886E+02</pdfrwt>
<pdfrwt beam="2">  1       -1 0.43383651E-02 0.81985886E+02</pdfrwt>
<totfact> 0.14536709E+05</totfact>
</mgrwt>
</event>
<event>
 8    1  0.2561077E-020  0.8013259E+02  0.7818608E-02  0.1328676E+00
         -1   -1    0    0    0  501 -0.00000000000E+00  0.00000000000E+00  0.17494715952E+03  0.17494715959E+03  0.50400000000E-02 0.  1.
          2   -1    0    0  501    0  0.00000000000E+00 -0.00000000000E+00 -0.91759586109E+01  0.91759589653E+01  0.25500000000E-02 0. -1.
         24    2    1    2    0    0  0.00000000000E+00 -0.71054273576E-14  0.16577120091E+03  0.18412311856E+03  0.80132588481E+02 0.  0.
         66    2    3    3    0    0 -0.12218246246E+02 -0.35131918282E+02  0.11699979507E+03  0.12278635621E+03  0.20000005265E+01 0.  0.
        -13    1    3    3    0    0  0.12218246246E+02  0.35131918282E+02  0.48771405844E+02  0.61336762350E+02  0.10566000000E+00 0.  1.
         13    1    4    4    0    0 -0.98022722762E+01 -0.28368907151E+02  0.92552886536E+02  0.97298136698E+02  0.10566000000E+00 0. -1.
        -13    1    4    4    0    0 -0.19525049602E+01 -0.60381417675E+01  0.21785034215E+02  0.22690753875E+02  0.10566000000E+00 0.  1.
        -14    1    4    4    0    0 -0.46346900956E+00 -0.72486936363E+00  0.26618743164E+01  0.27974656376E+01  0.00000000000E+00 0.  1.
<mgrwt>
<rscale>  0 0.80132588E+02</rscale>
<asrwt>0</asrwt>
<pdfrwt beam="1">  1        2 0.14116858E-02 0.80132588E+02</pdfrwt>
<pdfrwt beam="2">  1       -1 0.26914950E-01 0.80132588E+02</pdfrwt>
<totfact> 0.10311367E+05</totfact>
</mgrwt>
</event>
<event>
 8    1  0.2561077E-020  0.7994852E+02  0.7818608E-02  0.1329198E+00
          2   -1    0    0  501    0  0.00000000000E+00  0.00000000000E+00  0.16061424557E+02  0.16061424760E+02  0.25500000000E-02 0. -1.
         -1   -1    0    0    0  501 -0.00000000000E+00 -0.00000000000E+00 -0.99489387392E+02  0.99489387520E+02  0.50400000000E-02 0.  1.
         24    2    1    2    0    0  0.00000000000E+00 -0.35527136788E-14 -0.83427962835E+02  0.11555081228E+03  0.79948516157E+02 0.  0.
         66    2    3    3    0    0 -0.19249524899E+02  0.27739501392E+02 -0.10879495950E+02  0.35530093977E+02  0.19999998959E+01 0.  0.
        -13    1    3    3    0    0  0.19249524899E+02 -0.27739501392E+02 -0.72548466885E+02  0.80020718303E+02  0.10566000000E+00 0.  1.
         13    1    4    4    0    0 -0.14594420450E+02  0.21827296513E+02 -0.89693192326E+01  0.27746852666E+02  0.10566000000E+00 0. -1.
        -13    1    4    4    0    0 -0.16780073202E+01  0.23464680599E+01 -0.50763127560E+00  0.29309511204E+01  0.10566000000E+00 0.  1.
         14    1    4    4    0    0 -0.29770971294E+01  0.35657368184E+01 -0.14025454415E+01  0.48522901903E+01  0.00000000000E+00 0. -1.
<mgrwt>
<rscale>  0 0.79948516E+02</rscale>
<asrwt>0</asrwt>
<pdfrwt beam="1">  1        2 0.24709885E-02 0.79948516E+02</pdfrwt>
<pdfrwt beam="2">  1       -1 0.15306059E-01 0.79948516E+02</pdfrwt>
<totfact> 0.11885050E+05</totfact>
</mgrwt>
</event>
<event>
 8    1  0.2561077E-020  0.8099343E+02  0.7818608E-02  0.1326256E+00
         -1   -1    0    0    0  501 -0.00000000000E+00  0.00000000000E+00  0.40463351919E+01  0.40463383308E+01  0.50400000000E-02 0.  1.
          2   -1    0    0  501    0  0.00000000000E+00 -0.00000000000E+00 -0.40530089729E+03  0.40530089730E+03  0.25500000000E-02 0. -1.
         24    2    1    2    0    0  0.00000000000E+00  0.35527136788E-14 -0.40125456210E+03  0.40934723563E+03  0.80993430058E+02 0.  0.
         66    2    3    3    0    0  0.14333563265E+02  0.19811466073E+02 -0.36374108435E+03  0.36456758176E+03  0.20000006044E+01 0.  0.
        -13    1    3    3    0    0 -0.14333563265E+02 -0.19811466073E+02 -0.37513477749E+02  0.44779653870E+02  0.10566000000E+00 0.  1.
         13    1    4    4    0    0  0.47055251721E+01  0.72551910200E+01 -0.13828822348E+03  0.13855837644E+03  0.10566000000E+00 0. -1.
        -13    1    4    4    0    0  0.26618834566E+01  0.36196425054E+01 -0.58672910348E+02  0.58844787434E+02  0.10566000000E+00 0.  1.
         14    1    4    4    0    0  0.69661546365E+01  0.89366325474E+01 -0.16677995053E+03  0.16716441789E+03  0.00000000000E+00 0. -1.
<mgrwt>
<rscale>  0 0.80993430E+02</rscale>
<asrwt>0</asrwt>
<pdfrwt beam="1">  1        2 0.62353952E-01 0.80993430E+02</pdfrwt>
<pdfrwt beam="2">  1       -1 0.62251367E-03 0.80993430E+02</pdfrwt>
<totfact> 0.27482828E+05</totfact>
</mgrwt>
</event>
<event>
 8    1  0.2561077E-020  0.7172065E+02  0.7818608E-02  0.1354338E+00
          2   -1    0    0  501    0  0.00000000000E+00  0.00000000000E+00  0.15280532079E+03  0.15280532081E+03  0.25500000000E-02 0. -1.
         -1   -1    0    0    0  501 -0.00000000000E+00 -0.00000000000E+00 -0.84156928648E+01  0.84156943740E+01  0.50400000000E-02 0.  1.
         24    2    1    2    0    0  0.00000000000E+00  0.00000000000E+00  0.14438962793E+03  0.16122101519E+03  0.71720646156E+02 0.  0.
         66    2    3    3    0    0  0.12269330732E+02 -0.96297402250E+01  0.14476750303E+03  0.14561901765E+03  0.19999992779E+01 0.  0.
        -13    1    3    3    0    0 -0.12269330732E+02  0.96297402250E+01 -0.37787509701E+00  0.15601997534E+02  0.10566000000E+00 0.  1.
         13    1    4    4    0    0  0.49489901556E+01 -0.36817624107E+01  0.53384245891E+02  0.53739526900E+02  0.10566000000E+00 0.  1.
        -13    1    4    4    0    0  0.14395939850E+01 -0.14362666944E+01  0.25313704335E+02  0.25395473692E+02  0.10566000000E+00 0. -1.
         14    1    4    4    0    0  0.58807465916E+01 -0.45117111199E+01  0.66069552800E+02  0.66484017063E+02  0.00000000000E+00 0. -1.
<mgrwt>
<rscale>  0 0.71720646E+02</rscale>
<asrwt>0</asrwt>
<pdfrwt beam="1">  1        2 0.23508509E-01 0.71720646E+02</pdfrwt>
<pdfrwt beam="2">  1       -1 0.12947222E-02 0.71720646E+02</pdfrwt>
<totfact> 0.26870843E+05</totfact>
</mgrwt>
</event>
<event>
 8    1  0.2561077E-020  0.7488540E+02  0.7818608E-02  0.1344226E+00
          2   -1    0    0  501    0  0.00000000000E+00  0.00000000000E+00  0.37419439500E+02  0.37419439587E+02  0.25500000000E-02 0. -1.
         -1   -1    0    0    0  501 -0.00000000000E+00 -0.00000000000E+00 -0.37465972312E+02  0.37465972651E+02  0.50400000000E-02 0.  1.
         24    2    1    2    0    0  0.35527136788E-14  0.17763568394E-14 -0.46532811204E-01  0.74885412238E+02  0.74885397780E+02 0.  0.
         66    2    3    3    0    0  0.23107780311E+02  0.13804977726E+02  0.25965256136E+02  0.37453190167E+02  0.20000016391E+01 0.  0.
        -13    1    3    3    0    0 -0.23107780311E+02 -0.13804977726E+02 -0.26011788947E+02  0.37432222071E+02  0.10566000000E+00 0.  1.
         13    1    4    4    0    0  0.10397766620E+01  0.60137680394E+00  0.10593844510E+01  0.16050697859E+01  0.10566000000E+00 0. -1.
        -13    1    4    4    0    0  0.62411783827E+01  0.29764828406E+01  0.60062552760E+01  0.91595864634E+01  0.10566000000E+00 0. -1.
         14    1    4    4    0    0  0.15826825267E+02  0.10227118081E+02  0.18899616409E+02  0.26688533917E+02  0.00000000000E+00 0. -1.
<mgrwt>
<rscale>  0 0.74885398E+02</rscale>
<asrwt>0</asrwt>
<pdfrwt beam="1">  1        2 0.57568368E-02 0.74885398E+02</pdfrwt>
<pdfrwt beam="2">  1       -1 0.57639958E-02 0.74885398E+02</pdfrwt>
<totfact> 0.16872902E+05</totfact>
</mgrwt>
</event>
<event>
 8    1  0.2561077E-020  0.7912444E+02  0.7818608E-02  0.1331555E+00
         -1   -1    0    0    0  501 -0.00000000000E+00  0.00000000000E+00  0.51014396454E+02  0.51014396703E+02  0.50400000000E-02 0.  1.
          2   -1    0    0  501    0  0.00000000000E+00 -0.00000000000E+00 -0.30680933107E+02  0.30680933213E+02  0.25500000000E-02 0. -1.
         24    2    1    2    0    0  0.00000000000E+00 -0.35527136788E-14  0.20333463347E+02  0.81695329916E+02  0.79124441220E+02 0.  0.
         66    2    3    3    0    0 -0.96373373280E+01 -0.21499143925E+02 -0.22608571686E+02  0.32714507168E+02  0.20000013237E+01 0.  0.
        -13    1    3    3    0    0  0.96373373280E+01  0.21499143925E+02  0.42942035033E+02  0.48980822748E+02  0.10566000000E+00 0.  1.
         13    1    4    4    0    0 -0.29151523149E+01 -0.73255963741E+01 -0.66727248235E+01  0.10329515761E+02  0.10566000000E+00 0. -1.
        -13    1    4    4    0    0 -0.10481424221E+01 -0.27070856007E+01 -0.34252782579E+01  0.44911702446E+01  0.10566000000E+00 0.  1.
         14    1    4    4    0    0 -0.56740425911E+01 -0.11466461950E+02 -0.12510568604E+02  0.17893821162E+02  0.00000000000E+00 0. -1.
<mgrwt>
<rscale>  0 0.79124441E+02</rscale>
<asrwt>0</asrwt>
<pdfrwt beam="1">  1        2 0.47201436E-02 0.79124441E+02</pdfrwt>
<pdfrwt beam="2">  1       -1 0.78483687E-02 0.79124441E+02</pdfrwt>
<totfact> 0.13937479E+05</totfact>
</mgrwt>
</event>
<event>
 8    1  0.2561077E-020  0.7765087E+02  0.7818608E-02  0.1335853E+00
         -1   -1    0    0    0  501 -0.00000000000E+00  0.00000000000E+00  0.38462521351E+01  0.38462554373E+01  0.50400000000E-02 0.  1.
          2   -1    0    0  501    0  0.00000000000E+00 -0.00000000000E+00 -0.39191757119E+03  0.39191757120E+03  0.25500000000E-02 0. -1.
         24    2    1    2    0    0  0.00000000000E+00  0.00000000000E+00 -0.38807131905E+03  0.39576382663E+03  0.77650871213E+02 0.  0.
         66    2    3    3    0    0 -0.58904566578E+01  0.38349059522E+02 -0.19289819546E+03  0.19677159768E+03  0.19999992484E+01 0.  0.
        -13    1    3    3    0    0  0.58904566578E+01 -0.38349059522E+02 -0.19517312359E+03  0.19899222895E+03  0.10566000000E+00 0.  1.
         13    1    4    4    0    0 -0.40045547448E+01  0.22860407387E+02 -0.11444697663E+03  0.11677652293E+03  0.10566000000E+00 0. -1.
        -13    1    4    4    0    0 -0.15034049952E+01  0.12554810289E+02 -0.61312817521E+02  0.62603164811E+02  0.10566000000E+00 0.  1.
        -14    1    4    4    0    0 -0.38249691784E+00  0.29338418452E+01 -0.17138401310E+02  0.17391909939E+02  0.00000000000E+00 0.  1.
<mgrwt>
<rscale>  0 0.77650871E+02</rscale>
<asrwt>0</asrwt>
<pdfrwt beam="1">  1        2 0.60294979E-01 0.77650871E+02</pdfrwt>
<pdfrwt beam="2">  1       -1 0.59173166E-03 0.77650871E+02</pdfrwt>
<totfact> 0.30320505E+05</totfact>
</mgrwt>
</event>
<event>
 8    1  0.2561077E-020  0.7950804E+02  0.7818608E-02  0.1330453E+00
         -1   -1    0    0    0  501 -0.00000000000E+00  0.00000000000E+00  0.12653390690E+01  0.12653491064E+01  0.50400000000E-02 0.  1.
          2   -1    0    0  501    0  0.00000000000E+00 -0.00000000000E+00 -0.12489743311E+04  0.12489743311E+04  0.25500000000E-02 0. -1.
         24    2    1    2    0    0  0.00000000000E+00 -0.22204460493E-15 -0.12477089921E+04  0.12502396802E+04  0.79508044714E+02 0.  0.
         66    2    3    3    0    0 -0.22620673891E+02 -0.12976162045E+01 -0.11374127947E+04  0.11376402086E+04  0.20000000292E+01 0.  0.
        -13    1    3    3    0    0  0.22620673891E+02  0.12976162045E+01 -0.11029619735E+03  0.11259947161E+03  0.10566000000E+00 0.  1.
         13    1    4    4    0    0 -0.90581602939E+00 -0.62990527837E-01 -0.67509664211E+02  0.67515852926E+02  0.10566000000E+00 0. -1.
        -13    1    4    4    0    0 -0.74326178683E+01 -0.64407673652E+00 -0.37502742174E+03  0.37510163538E+03  0.10566000000E+00 0.  1.
         14    1    4    4    0    0 -0.14282239993E+02 -0.59054894012E+00 -0.69487570876E+03  0.69502272032E+03  0.00000000000E+00 0. -1.
<mgrwt>
<rscale>  0 0.79508045E+02</rscale>
<asrwt>0</asrwt>
<pdfrwt beam="1">  1        2 0.19214891E+00 0.79508045E+02</pdfrwt>
<pdfrwt beam="2">  1       -1 0.19466932E-03 0.79508045E+02</pdfrwt>
<totfact> 0.35418670E+05</totfact>
</mgrwt>
</event>
<event>
 8    1  0.2561077E-020  0.7988915E+02  0.7818608E-02  0.1329366E+00
          2   -1    0    0  501    0  0.00000000000E+00  0.00000000000E+00  0.67316609480E+02  0.67316609528E+02  0.25500000000E-02 0. -1.
         -1   -1    0    0    0  501 -0.00000000000E+00 -0.00000000000E+00 -0.23702457849E+02  0.23702458385E+02  0.50400000000E-02 0.  1.
         24    2    1    2    0    0  0.00000000000E+00  0.00000000000E+00  0.43614151630E+02  0.91019067913E+02  0.79889151337E+02 0.  0.
         66    2    3    3    0    0 -0.12652041221E+02  0.18384289041E+02  0.59530340929E+02  0.63607528803E+02  0.19999996701E+01 0.  0.
        -13    1    3    3    0    0  0.12652041221E+02 -0.18384289041E+02 -0.15916189299E+02  0.27411539111E+02  0.10566000000E+00 0.  1.
         13    1    4    4    0    0 -0.17694815755E+01  0.26798837319E+01  0.93630703033E+01  0.98990449742E+01  0.10566000000E+00 0. -1.
        -13    1    4    4    0    0 -0.15679089017E+01  0.28587430222E+01  0.71839743742E+01  0.78899557562E+01  0.10566000000E+00 0.  1.
         14    1    4    4    0    0 -0.93146507441E+01  0.12845662287E+02  0.42983296251E+02  0.45818528072E+02  0.00000000000E+00 0. -1.
<mgrwt>
<rscale>  0 0.79889151E+02</rscale>
<asrwt>0</asrwt>
<pdfrwt beam="1">  1        2 0.10356401E-01 0.79889151E+02</pdfrwt>
<pdfrwt beam="2">  1       -1 0.36465321E-02 0.79889151E+02</pdfrwt>
<totfact> 0.16054424E+05</totfact>
</mgrwt>
</event>
<event>
 8    1  0.2561077E-020  0.7465526E+02  0.7818608E-02  0.1344942E+00
          2   -1    0    0  501    0  0.00000000000E+00  0.00000000000E+00  0.14258129226E+02  0.14258129454E+02  0.25500000000E-02 0. -1.
         -1   -1    0    0    0  501 -0.00000000000E+00 -0.00000000000E+00 -0.97723329975E+02  0.97723330105E+02  0.50400000000E-02 0.  1.
         24    2    1    2    0    0  0.35527136788E-14 -0.35527136788E-14 -0.83465200749E+02  0.11198145956E+03  0.74655258012E+02 0.  0.
         66    2    3    3    0    0  0.30871025028E+02 -0.18764665507E+02 -0.27834908569E+02  0.45649917817E+02  0.20000009414E+01 0.  0.
        -13    1    3    3    0    0 -0.30871025028E+02  0.18764665507E+02 -0.55630292180E+02  0.66331541742E+02  0.10566000000E+00 0.  1.
         13    1    4    4    0    0  0.14331875703E+01 -0.13016756980E+01 -0.17129609552E+01  0.25872351080E+01  0.10566000000E+00 0. -1.
        -13    1    4    4    0    0  0.71982273057E+01 -0.44542091062E+01 -0.61567596905E+01  0.10467631491E+02  0.10566000000E+00 0.  1.
         14    1    4    4    0    0  0.22239610151E+02 -0.13008780703E+02 -0.19965187924E+02  0.32595051218E+02  0.00000000000E+00 0. -1.
<mgrwt>
<rscale>  0 0.74655258E+02</rscale>
<asrwt>0</asrwt>
<pdfrwt beam="1">  1        2 0.21935584E-02 0.74655258E+02</pdfrwt>
<pdfrwt beam="2">  1       -1 0.15034358E-01 0.74655258E+02</pdfrwt>
<totfact> 0.14148971E+05</totfact>
</mgrwt>
</event>
<event>
 8    1  0.2561077E-020  0.8203533E+02  0.7818608E-02  0.1323373E+00
          2   -1    0    0  501    0  0.00000000000E+00  0.00000000000E+00  0.20456175707E+03  0.20456175709E+03  0.25500000000E-02 0. -1.
         -1   -1    0    0    0  501 -0.00000000000E+00 -0.00000000000E+00 -0.82246493387E+01  0.82246508829E+01  0.50400000000E-02 0.  1.
         24    2    1    2    0    0  0.00000000000E+00  0.00000000000E+00  0.19633710773E+03  0.21278640797E+03  0.82035331071E+02 0.  0.
         66    2    3    3    0    0 -0.18133406489E+01 -0.16026703685E+02  0.19598040751E+03  0.19665315553E+03  0.20000042037E+01 0.  0.
        -13    1    3    3    0    0  0.18133406489E+01  0.16026703685E+02  0.35670022645E+00  0.16133252444E+02  0.10566000000E+00 0.  1.
         13    1    4    4    0    0  0.55962580782E-01 -0.42590421710E+01  0.48852494442E+02  0.49037943975E+02  0.10566000000E+00 0. -1.
        -13    1    4    4    0    0 -0.12494498739E+01 -0.88570598166E+01  0.10344729035E+03  0.10383333606E+03  0.10566000000E+00 0.  1.
        -14    1    4    4    0    0 -0.61985335576E+00 -0.29106016979E+01  0.43680622717E+02  0.43781875489E+02  0.00000000000E+00 0.  1.
<mgrwt>
<rscale>  0 0.82035331E+02</rscale>
<asrwt>0</asrwt>
<pdfrwt beam="1">  1        2 0.31471038E-01 0.82035331E+02</pdfrwt>
<pdfrwt beam="2">  1       -1 0.12653309E-02 0.82035331E+02</pdfrwt>
<totfact> 0.20805069E+05</totfact>
</mgrwt>
</event>
<event>
 8    1  0.2561077E-020  0.8360505E+02  0.7818608E-02  0.1319121E+00
          2   -1    0    0  501    0  0.00000000000E+00  0.00000000000E+00  0.16105406814E+04  0.16105406814E+04  0.25500000000E-02 0. -1.
         -1   -1    0    0    0  501 -0.00000000000E+00 -0.00000000000E+00 -0.10850030603E+01  0.10850147660E+01  0.50400000000E-02 0.  1.
         24    2    1    2    0    0  0.35527136788E-14  0.00000000000E+00  0.16094556783E+04  0.16116256962E+04  0.83605047748E+02 0.  0.
         66    2    3    3    0    0 -0.16853520350E+02 -0.98718790618E+01  0.15171068234E+04  0.15172338675E+04  0.19999933189E+01 0.  0.
        -13    1    3    3    0    0  0.16853520350E+02  0.98718790618E+01  0.92348854949E+02  0.94391828665E+02  0.10566000000E+00 0.  1.
         13    1    4    4    0    0 -0.10590518358E+02 -0.64516332685E+01  0.94887679705E+03  0.94895783352E+03  0.10566000000E+00 0. -1.
        -13    1    4    4    0    0 -0.41094880770E+01 -0.21398573768E+01  0.40970387646E+03  0.40973008729E+03  0.10566000000E+00 0.  1.
        -14    1    4    4    0    0 -0.21535139152E+01 -0.12803884166E+01  0.15852614987E+03  0.15854594668E+03  0.00000000000E+00 0.  1.
<mgrwt>
<rscale>  0 0.83605048E+02</rscale>
<asrwt>0</asrwt>
<pdfrwt beam="1">  1        2 0.24777613E+00 0.83605048E+02</pdfrwt>
<pdfrwt beam="2">  1       -1 0.16692402E-03 0.83605048E+02</pdfrwt>
<totfact> 0.28748989E+05</totfact>
</mgrwt>
</event>
<event>
 8    1  0.2561077E-020  0.8056445E+02  0.7818608E-02  0.1327457E+00
          2   -1    0    0  501    0  0.00000000000E+00  0.00000000000E+00  0.25918929568E+03  0.25918929570E+03  0.25500000000E-02 0. -1.
         -1   -1    0    0    0  501 -0.00000000000E+00 -0.00000000000E+00 -0.62605110322E+01  0.62605130609E+01  0.50400000000E-02 0.  1.
         24    2    1    2    0    0  0.00000000000E+00  0.17763568394E-14  0.25292878465E+03  0.26544980876E+03  0.80564451614E+02 0.  0.
         66    2    3    3    0    0 -0.37239230468E+02 -0.12648229309E+02  0.98214854882E+02  0.10581538509E+03  0.20000029717E+01 0.  0.
        -13    1    3    3    0    0  0.37239230468E+02  0.12648229309E+02  0.15471392977E+03  0.15963442367E+03  0.10566000000E+00 0.  1.
         13    1    4    4    0    0 -0.15500262495E+02 -0.55602664163E+01  0.42007424303E+02  0.45119946372E+02  0.10566000000E+00 0. -1.
        -13    1    4    4    0    0 -0.20095859491E+02 -0.67793743918E+01  0.51311384267E+02  0.55521822784E+02  0.10566000000E+00 0.  1.
        -14    1    4    4    0    0 -0.16431084825E+01 -0.30858850070E+00  0.48960463127E+01  0.51736159351E+01  0.00000000000E+00 0.  1.
<mgrwt>
<rscale>  0 0.80564452E+02</rscale>
<asrwt>0</asrwt>
<pdfrwt beam="1">  1        2 0.39875278E-01 0.80564452E+02</pdfrwt>
<pdfrwt beam="2">  1       -1 0.96315565E-03 0.80564452E+02</pdfrwt>
<totfact> 0.23737231E+05</totfact>
</mgrwt>
</event>
<event>
 8    1  0.2561077E-020  0.8809031E+02  0.7818608E-02  0.1307543E+00
          2   -1    0    0  501    0  0.00000000000E+00  0.00000000000E+00  0.12141389253E+04  0.12141389253E+04  0.25500000000E-02 0. -1.
         -1   -1    0    0    0  501 -0.00000000000E+00 -0.00000000000E+00 -0.15978161357E+01  0.15978240845E+01  0.50400000000E-02 0.  1.
         24    2    1    2    0    0  0.00000000000E+00  0.00000000000E+00  0.12125411092E+04  0.12157367494E+04  0.88090308192E+02 0.  0.
         66    2    3    3    0    0 -0.33520567686E+01 -0.13661130845E+02  0.11822865137E+04  0.11823718803E+04  0.19999994390E+01 0.  0.
        -13    1    3    3    0    0  0.33520567686E+01  0.13661130845E+02  0.30254595485E+02  0.33364869137E+02  0.10566000000E+00 0.  1.
         13    1    4    4    0    0 -0.15002500719E+01 -0.62469501254E+01  0.47834181717E+03  0.47838497086E+03  0.10566000000E+00 0. -1.
        -13    1    4    4    0    0 -0.24418282773E+00 -0.95023490988E+00  0.64918642283E+02  0.64926141511E+02  0.10566000000E+00 0.  1.
         14    1    4    4    0    0 -0.16076238690E+01 -0.64639458096E+01  0.63902605426E+03  0.63906076790E+03  0.00000000000E+00 0. -1.
<mgrwt>
<rscale>  0 0.88090308E+02</rscale>
<asrwt>0</asrwt>
<pdfrwt beam="1">  1        2 0.18679099E+00 0.88090308E+02</pdfrwt>
<pdfrwt beam="2">  1       -1 0.24581797E-03 0.88090308E+02</pdfrwt>
<totfact> 0.27213048E+05</totfact>
</mgrwt>
</event>
<event>
 8    1  0.2561077E-020  0.8076032E+02  0.7818608E-02  0.1326907E+00
         -1   -1    0    0    0  501 -0.00000000000E+00  0.00000000000E+00  0.25938533620E+02  0.25938534109E+02  0.50400000000E-02 0.  1.
          2   -1    0    0  501    0  0.00000000000E+00 -0.00000000000E+00 -0.62862361435E+02  0.62862361486E+02  0.25500000000E-02 0. -1.
         24    2    1    2    0    0  0.00000000000E+00  0.00000000000E+00 -0.36923827815E+02  0.88800895596E+02  0.80760324406E+02 0.  0.
         66    2    3    3    0    0  0.39140971932E+02 -0.75318023939E+01 -0.11535612114E+02  0.41542918581E+02  0.20000015796E+01 0.  0.
        -13    1    3    3    0    0 -0.39140971932E+02  0.75318023939E+01 -0.25388215701E+02  0.47257977015E+02  0.10566000000E+00 0.  1.
         13    1    4    4    0    0  0.25706887729E+02 -0.58467902254E+01 -0.76038191120E+01  0.27438262733E+02  0.10566000000E+00 0. -1.
        -13    1    4    4    0    0  0.11787647181E+02 -0.16010296748E+01 -0.34979187378E+01  0.12399940388E+02  0.10566000000E+00 0.  1.
        -14    1    4    4    0    0  0.16464370211E+01 -0.83982493762E-01 -0.43387426459E+00  0.17047154605E+01  0.00000000000E+00 0.  1.
<mgrwt>
<rscale>  0 0.80760324E+02</rscale>
<asrwt>0</asrwt>
<pdfrwt beam="1">  1        2 0.96711325E-02 0.80760324E+02</pdfrwt>
<pdfrwt beam="2">  1       -1 0.39905437E-02 0.80760324E+02</pdfrwt>
<totfact> 0.15336603E+05</totfact>
</mgrwt>
</event>
<event>
 8    1  0.2561077E-020  0.8213766E+02  0.7818608E-02  0.1323092E+00
         -1   -1    0    0    0  501 -0.00000000000E+00  0.00000000000E+00  0.48908500929E+01  0.48908526897E+01  0.50400000000E-02 0.  1.
          2   -1    0    0  501    0  0.00000000000E+00 -0.00000000000E+00 -0.34485793393E+03  0.34485793394E+03  0.25500000000E-02 0. -1.
         24    2    1    2    0    0  0.00000000000E+00  0.00000000000E+00 -0.33996708384E+03  0.34974878663E+03  0.82137662834E+02 0.  0.
         66    2    3    3    0    0 -0.27267173956E+02 -0.20117969815E+02 -0.26870365558E+03  0.27083922538E+03  0.19999998099E+01 0.  0.
        -13    1    3    3    0    0  0.27267173956E+02  0.20117969815E+02 -0.71263428259E+02  0.78909561247E+02  0.10566000000E+00 0.  1.
         13    1    4    4    0    0 -0.43019464337E+01 -0.23931257949E+01 -0.38328144541E+02  0.38643131631E+02  0.10566000000E+00 0. -1.
        -13    1    4    4    0    0 -0.10699197326E+02 -0.84913816151E+01 -0.10588916307E+03  0.10676657906E+03  0.10566000000E+00 0.  1.
         14    1    4    4    0    0 -0.12266030196E+02 -0.92334624045E+01 -0.12448634797E+03  0.12542951469E+03  0.00000000000E+00 0. -1.
<mgrwt>
<rscale>  0 0.82137663E+02</rscale>
<asrwt>0</asrwt>
<pdfrwt beam="1">  1        2 0.53055048E-01 0.82137663E+02</pdfrwt>
<pdfrwt beam="2">  1       -1 0.75243895E-03 0.82137663E+02</pdfrwt>
<totfact> 0.25017557E+05</totfact>
</mgrwt>
</event>
<event>
 8    1  0.2561077E-020  0.7935980E+02  0.7818608E-02  0.1330878E+00
         -1   -1    0    0    0  501 -0.00000000000E+00  0.00000000000E+00  0.43437438692E+02  0.43437438984E+02  0.50400000000E-02 0.  1.
          2   -1    0    0  501    0  0.00000000000E+00 -0.00000000000E+00 -0.36247405219E+02  0.36247405309E+02  0.25500000000E-02 0. -1.
         24    2    1    2    0    0  0.00000000000E+00  0.55511151231E-16  0.71900334727E+01  0.79684844293E+02  0.79359799828E+02 0.  0.
         66    2    3    3    0    0  0.18705828578E+02  0.45582865990E+00 -0.31508368103E+02  0.36700041733E+02  0.20000000384E+01 0.  0.
        -13    1    3    3    0    0 -0.18705828578E+02 -0.45582865990E+00  0.38698401576E+02  0.42984802560E+02  0.10566000000E+00 0.  1.
         13    1    4    4    0    0  0.10319976344E+02  0.42900552715E+00 -0.18154585119E+02  0.20887462325E+02  0.10566000000E+00 0. -1.
        -13    1    4    4    0    0  0.43591868927E+01 -0.84223443631E-01 -0.58608576995E+01  0.73055062085E+01  0.10566000000E+00 0.  1.
        -14    1    4    4    0    0  0.40266653410E+01  0.11104657638E+00 -0.74929252845E+01  0.85070732000E+01  0.00000000000E+00 0.  1.
<mgrwt>
<rscale>  0 0.79359800E+02</rscale>
<asrwt>0</asrwt>
<pdfrwt beam="1">  1        2 0.55765239E-02 0.79359800E+02</pdfrwt>
<pdfrwt beam="2">  1       -1 0.66826829E-02 0.79359800E+02</pdfrwt>
<totfact> 0.14287178E+05</totfact>
</mgrwt>
</event>
<event>
 8    1  0.2561077E-020  0.7796056E+02  0.7818608E-02  0.1334941E+00
         -1   -1    0    0    0  501 -0.00000000000E+00  0.00000000000E+00  0.40586649934E+02  0.40586650247E+02  0.50400000000E-02 0.  1.
          2   -1    0    0  501    0  0.00000000000E+00 -0.00000000000E+00 -0.37437488116E+02  0.37437488203E+02  0.25500000000E-02 0. -1.
         24    2    1    2    0    0 -0.35527136788E-14 -0.17763568394E-14  0.31491618176E+01  0.78024138449E+02  0.77960560289E+02 0.  0.
         66    2    3    3    0    0  0.17679574583E+02  0.14895343875E+02 -0.29803083718E+02  0.37771184813E+02  0.19999941205E+01 0.  0.
        -13    1    3    3    0    0 -0.17679574583E+02 -0.14895343875E+02  0.32952245536E+02  0.40252953637E+02  0.10566000000E+00 0.  1.
         13    1    4    4    0    0  0.27293291710E+01  0.16436888479E+01 -0.43828349125E+01  0.54195347271E+01  0.10566000000E+00 0. -1.
        -13    1    4    4    0    0  0.14613725656E+02  0.13147346745E+02 -0.24928996183E+02  0.31747121424E+02  0.10566000000E+00 0.  1.
        -14    1    4    4    0    0  0.33651975574E+00  0.10430828193E+00 -0.49125262269E+00  0.60452866184E+00  0.00000000000E+00 0.  1.
<mgrwt>
<rscale>  0 0.77960560E+02</rscale>
<asrwt>0</asrwt>
<pdfrwt beam="1">  1        2 0.57596136E-02 0.77960560E+02</pdfrwt>
<pdfrwt beam="2">  1       -1 0.62441000E-02 0.77960560E+02</pdfrwt>
<totfact> 0.15105555E+05</totfact>
</mgrwt>
</event>
<event>
 8    1  0.2561077E-020  0.8068713E+02  0.7818608E-02  0.1327113E+00
          2   -1    0    0  501    0  0.00000000000E+00  0.00000000000E+00  0.16775609635E+03  0.16775609637E+03  0.25500000000E-02 0. -1.
         -1   -1    0    0    0  501 -0.00000000000E+00 -0.00000000000E+00 -0.97021993054E+01  0.97022006144E+01  0.50400000000E-02 0.  1.
         24    2    1    2    0    0  0.17763568394E-14 -0.35527136788E-14  0.15805389705E+03  0.17745829699E+03  0.80687129070E+02 0.  0.
         66    2    3    3    0    0 -0.11513937372E+02  0.28704735210E+02  0.13596411979E+03  0.13945169229E+03  0.20000088238E+01 0.  0.
        -13    1    3    3    0    0  0.11513937372E+02 -0.28704735210E+02  0.22089777260E+02  0.38006604699E+02  0.10566000000E+00 0.  1.
         13    1    4    4    0    0 -0.71681364996E+01  0.15881865012E+02  0.75046778370E+02  0.77043143270E+02  0.10566000000E+00 0. -1.
        -13    1    4    4    0    0 -0.86417100406E+00  0.17820660306E+01  0.86412707802E+01  0.88659616283E+01  0.10566000000E+00 0.  1.
         14    1    4    4    0    0 -0.34816298682E+01  0.11040804167E+02  0.52276070639E+02  0.53542587392E+02  0.00000000000E+00 0. -1.
<mgrwt>
<rscale>  0 0.80687129E+02</rscale>
<asrwt>0</asrwt>
<pdfrwt beam="1">  1        2 0.25808629E-01 0.80687129E+02</pdfrwt>
<pdfrwt beam="2">  1       -1 0.14926462E-02 0.80687129E+02</pdfrwt>
<totfact> 0.20311823E+05</totfact>
</mgrwt>
</event>
<event>
 8    1  0.2561077E-020  0.8441400E+02  0.7818608E-02  0.1316972E+00
          2   -1    0    0  501    0  0.00000000000E+00  0.00000000000E+00  0.16896104232E+03  0.16896104234E+03  0.25500000000E-02 0. -1.
         -1   -1    0    0    0  501 -0.00000000000E+00 -0.00000000000E+00 -0.10543440631E+02  0.10543441835E+02  0.50400000000E-02 0.  1.
         24    2    1    2    0    0 -0.88817841970E-15  0.14210854715E-13  0.15841760169E+03  0.17950448417E+03  0.84413999513E+02 0.  0.
         66    2    3    3    0    0  0.60197832801E+01 -0.38381897210E+02  0.11419589745E+03  0.12064041947E+03  0.19999975075E+01 0.  0.
        -13    1    3    3    0    0 -0.60197832801E+01  0.38381897210E+02  0.44221704236E+02  0.58864064706E+02  0.10566000000E+00 0.  1.
         13    1    4    4    0    0  0.49598748650E+01 -0.31066793827E+02  0.92668406557E+02  0.97863122652E+02  0.10566000000E+00 0. -1.
        -13    1    4    4    0    0  0.22129716382E+00 -0.11493742596E+01  0.44093643542E+01  0.45632983320E+01  0.10566000000E+00 0.  1.
        -14    1    4    4    0    0  0.83861125134E+00 -0.61657291236E+01  0.17118126543E+02  0.18213998485E+02  0.00000000000E+00 0.  1.
<mgrwt>
<rscale>  0 0.84414000E+02</rscale>
<asrwt>0</asrwt>
<pdfrwt beam="1">  1        2 0.25994004E-01 0.84414000E+02</pdfrwt>
<pdfrwt beam="2">  1       -1 0.16220681E-02 0.84414000E+02</pdfrwt>
<totfact> 0.18059271E+05</totfact>
</mgrwt>
</event>
<event>
 8    1  0.2561077E-020  0.7750633E+02  0.7818608E-02  0.1336281E+00
          2   -1    0    0  501    0  0.00000000000E+00  0.00000000000E+00  0.17676466396E+03  0.17676466398E+03  0.25500000000E-02 0. -1.
         -1   -1    0    0    0  501 -0.00000000000E+00 -0.00000000000E+00 -0.84960854600E+01  0.84960869549E+01  0.50400000000E-02 0.  1.
         24    2    1    2    0    0  0.00000000000E+00  0.00000000000E+00  0.16826857850E+03  0.18526075093E+03  0.77506330876E+02 0.  0.
         66    2    3    3    0    0 -0.13074962450E+02  0.10430239551E+02  0.16768055587E+03  0.16852451854E+03  0.19999976405E+01 0.  0.
        -13    1    3    3    0    0  0.13074962450E+02 -0.10430239551E+02  0.58802262788E+00  0.16736232396E+02  0.10566000000E+00 0.  1.
         13    1    4    4    0    0 -0.99733579681E+01  0.83855333289E+01  0.12792699088E+03  0.12858892331E+03  0.10566000000E+00 0. -1.
        -13    1    4    4    0    0 -0.31367885847E+01  0.20334438999E+01  0.38433988505E+02  0.38615501721E+02  0.10566000000E+00 0.  1.
        -14    1    4    4    0    0  0.35184102681E-01  0.11262321820E-01  0.13195764819E+01  0.13200935015E+01  0.00000000000E+00 0.  1.
<mgrwt>
<rscale>  0 0.77506331E+02</rscale>
<asrwt>0</asrwt>
<pdfrwt beam="1">  1        2 0.27194563E-01 0.77506331E+02</pdfrwt>
<pdfrwt beam="2">  1       -1 0.13070902E-02 0.77506331E+02</pdfrwt>
<totfact> 0.22987895E+05</totfact>
</mgrwt>
</event>
<event>
 8    1  0.2561077E-020  0.7138662E+02  0.7818608E-02  0.1355440E+00
         -1   -1    0    0    0  501 -0.00000000000E+00  0.00000000000E+00  0.42001830433E+01  0.42001860672E+01  0.50400000000E-02 0.  1.
          2   -1    0    0  501    0  0.00000000000E+00 -0.00000000000E+00 -0.30332291870E+03  0.30332291871E+03  0.25500000000E-02 0. -1.
         24    2    1    2    0    0  0.00000000000E+00  0.00000000000E+00 -0.29912273565E+03  0.30752310478E+03  0.71386616291E+02 0.  0.
         66    2    3    3    0    0  0.66181622960E+01  0.86593208518E+01 -0.29596946568E+03  0.29617681969E+03  0.19999983021E+01 0.  0.
        -13    1    3    3    0    0 -0.66181622960E+01 -0.86593208518E+01 -0.31532699725E+01  0.11346285090E+02  0.10566000000E+00 0.  1.
         13    1    4    4    0    0  0.19740168408E+01  0.22489975773E+01 -0.94753835964E+02  0.94801135681E+02  0.10566000000E+00 0. -1.
        -13    1    4    4    0    0  0.48785279324E+00  0.15124678121E+01 -0.44318211158E+02  0.44346821346E+02  0.10566000000E+00 0.  1.
         14    1    4    4    0    0  0.41562926620E+01  0.48978554623E+01 -0.15689741856E+03  0.15702886266E+03  0.00000000000E+00 0. -1.
<mgrwt>
<rscale>  0 0.71386616E+02</rscale>
<asrwt>0</asrwt>
<pdfrwt beam="1">  1        2 0.46665047E-01 0.71386616E+02</pdfrwt>
<pdfrwt beam="2">  1       -1 0.64618248E-03 0.71386616E+02</pdfrwt>
<totfact> 0.34438864E+05</totfact>
</mgrwt>
</event>
<event>
 8    1  0.2561077E-020  0.8353675E+02  0.7818608E-02  0.1319304E+00
         -1   -1    0    0    0  501 -0.00000000000E+00  0.00000000000E+00  0.16567382758E+03  0.16567382766E+03  0.50400000000E-02 0.  1.
          2   -1    0    0  501    0  0.00000000000E+00 -0.00000000000E+00 -0.10530312138E+02  0.10530312447E+02  0.25500000000E-02 0. -1.
         24    2    1    2    0    0  0.00000000000E+00  0.35527136788E-14  0.15514351545E+03  0.17620414011E+03  0.83536750032E+02 0.  0.
         66    2    3    3    0    0  0.27902097935E+02 -0.22444981361E+02  0.32362479849E+02  0.48307704958E+02  0.19999997334E+01 0.  0.
        -13    1    3    3    0    0 -0.27902097935E+02  0.22444981361E+02  0.12278103560E+03  0.12789643515E+03  0.10566000000E+00 0.  1.
         13    1    4    4    0    0  0.10773591940E+02 -0.94766238113E+01  0.12478710502E+02  0.19015942311E+02  0.10566000000E+00 0. -1.
        -13    1    4    4    0    0  0.24988761383E+01 -0.23024930714E+01  0.29229889536E+01  0.44834010256E+01  0.10566000000E+00 0.  1.
         14    1    4    4    0    0  0.14629629856E+02 -0.10665864478E+02  0.16960780393E+02  0.24808361621E+02  0.00000000000E+00 0. -1.
<mgrwt>
<rscale>  0 0.83536750E+02</rscale>
<asrwt>0</asrwt>
<pdfrwt beam="1">  1        2 0.16200481E-02 0.83536750E+02</pdfrwt>
<pdfrwt beam="2">  1       -1 0.25488281E-01 0.83536750E+02</pdfrwt>
<totfact> 0.94182234E+04</totfact>
</mgrwt>
</event>
<event>
 8    1  0.2561077E-020  0.8021218E+02  0.7818608E-02  0.1328450E+00
         -1   -1    0    0    0  501 -0.00000000000E+00  0.00000000000E+00  0.16780497773E+01  0.16780573461E+01  0.50400000000E-02 0.  1.
          2   -1    0    0  501    0  0.00000000000E+00 -0.00000000000E+00 -0.95855008961E+03  0.95855008961E+03  0.25500000000E-02 0. -1.
         24    2    1    2    0    0  0.00000000000E+00 -0.17763568394E-14 -0.95687203983E+03  0.96022814696E+03  0.80212178625E+02 0.  0.
         66    2    3    3    0    0  0.26927811590E+02 -0.15816383983E+02 -0.77949769505E+03  0.78012558065E+03  0.19999901000E+01 0.  0.
        -13    1    3    3    0    0 -0.26927811590E+02  0.15816383983E+02 -0.17737434478E+03  0.18010256631E+03  0.10566000000E+00 0.  1.
         13    1    4    4    0    0  0.68233883881E+01 -0.34085947459E+01 -0.19257578074E+03  0.19272680052E+03  0.10566000000E+00 0. -1.
        -13    1    4    4    0    0  0.28727665669E+01 -0.21794357550E+01 -0.98095895823E+02  0.98162205911E+02  0.10566000000E+00 0.  1.
        -14    1    4    4    0    0  0.17231656635E+02 -0.10228353482E+02 -0.48882601848E+03  0.48923657422E+03  0.00000000000E+00 0.  1.
<mgrwt>
<rscale>  0 0.80212179E+02</rscale>
<asrwt>0</asrwt>
<pdfrwt beam="1">  1        2 0.14746881E+00 0.80212179E+02</pdfrwt>
<pdfrwt beam="2">  1       -1 0.25816285E-03 0.80212179E+02</pdfrwt>
<totfact> 0.34906117E+05</totfact>
</mgrwt>
</event>
<event>
 8    1  0.2561077E-020  0.8246525E+02  0.7818608E-02  0.1322197E+00
         -1   -1    0    0    0  501 -0.00000000000E+00  0.00000000000E+00  0.19524963034E+02  0.19524963685E+02  0.50400000000E-02 0.  1.
          2   -1    0    0  501    0  0.00000000000E+00 -0.00000000000E+00 -0.87074652537E+02  0.87074652574E+02  0.25500000000E-02 0. -1.
         24    2    1    2    0    0 -0.44408920985E-15  0.35527136788E-14 -0.67549689503E+02  0.10659961626E+03  0.82465251074E+02 0.  0.
         66    2    3    3    0    0 -0.18263468982E+01  0.30742781335E+02 -0.69187852763E+02  0.75758914418E+02  0.19999991429E+01 0.  0.
        -13    1    3    3    0    0  0.18263468982E+01 -0.30742781335E+02  0.16381632601E+01  0.30840701842E+02  0.10566000000E+00 0.  1.
         13    1    4    4    0    0 -0.18450675527E+01  0.20633530731E+02 -0.45130762038E+02  0.49658269310E+02  0.10566000000E+00 0. -1.
        -13    1    4    4    0    0  0.16122021436E+00  0.77265809723E+01 -0.17920883268E+02  0.19516538285E+02  0.10566000000E+00 0.  1.
         14    1    4    4    0    0 -0.14249955980E+00  0.23826696311E+01 -0.61362074572E+01  0.65841068227E+01  0.00000000000E+00 0. -1.
<mgrwt>
<rscale>  0 0.82465251E+02</rscale>
<asrwt>0</asrwt>
<pdfrwt beam="1">  1        2 0.13396100E-01 0.82465251E+02</pdfrwt>
<pdfrwt beam="2">  1       -1 0.30038406E-02 0.82465251E+02</pdfrwt>
<totfact> 0.15729136E+05</totfact>
</mgrwt>
</event>
<event>
 8    1  0.2561077E-020  0.8820790E+02  0.7818608E-02  0.1307250E+00
         -1   -1    0    0    0  501 -0.00000000000E+00  0.00000000000E+00  0.46000389317E+01  0.46000416927E+01  0.50400000000E-02 0.  1.
          2   -1    0    0  501    0  0.00000000000E+00 -0.00000000000E+00 -0.42285677274E+03  0.42285677275E+03  0.25500000000E-02 0. -1.
         24    2    1    2    0    0  0.00000000000E+00  0.00000000000E+00 -0.41825673381E+03  0.42745681444E+03  0.88207895540E+02 0.  0.
         66    2    3    3    0    0 -0.43769137669E+02 -0.49042148898E+01 -0.20034686621E+03  0.20514057505E+03  0.19999989210E+01 0.  0.
        -13    1    3    3    0    0  0.43769137669E+02  0.49042148898E+01 -0.21790986760E+03  0.22231623939E+03  0.10566000000E+00 0.  1.
         13    1    4    4    0    0 -0.19467252318E+02 -0.20342567967E+01 -0.90395752555E+02  0.92490623079E+02  0.10566000000E+00 0. -1.
        -13    1    4    4    0    0 -0.19971707497E+02 -0.27769232724E+01 -0.91979882665E+02  0.94164167189E+02  0.10566000000E+00 0.  1.
        -14    1    4    4    0    0 -0.43301778535E+01 -0.93034820728E-01 -0.17971230989E+02  0.18485784781E+02  0.00000000000E+00 0.  1.
<mgrwt>
<rscale>  0 0.88207896E+02</rscale>
<asrwt>0</asrwt>
<pdfrwt beam="1">  1        2 0.65054857E-01 0.88207896E+02</pdfrwt>
<pdfrwt beam="2">  1       -1 0.70769885E-03 0.88207896E+02</pdfrwt>
<totfact> 0.22293309E+05</totfact>
</mgrwt>
</event>
<event>
 8    1  0.2561077E-020  0.8313390E+02  0.7818608E-02  0.1320386E+00
         -1   -1    0    0    0  501 -0.00000000000E+00  0.00000000000E+00  0.18334780833E+01  0.18334850105E+01  0.50400000000E-02 0.  1.
          2   -1    0    0  501    0  0.00000000000E+00 -0.00000000000E+00 -0.94236639911E+03  0.94236639911E+03  0.25500000000E-02 0. -1.
         24    2    1    2    0    0 -0.35527136788E-14  0.44408920985E-15 -0.94053292103E+03  0.94419988412E+03  0.83133901897E+02 0.  0.
         66    2    3    3    0    0 -0.25271823609E+02 -0.34933221636E+01 -0.84291028376E+03  0.84329865103E+03  0.19999994843E+01 0.  0.
        -13    1    3    3    0    0  0.25271823609E+02  0.34933221636E+01 -0.97622637266E+02  0.10090123309E+03  0.10566000000E+00 0.  1.
         13    1    4    4    0    0 -0.53555897763E+01 -0.11022183986E+01 -0.16332175125E+03  0.16341328839E+03  0.10566000000E+00 0. -1.
        -13    1    4    4    0    0 -0.35802542740E+01 -0.78391037877E+00 -0.11745036062E+03  0.11750757895E+03  0.10566000000E+00 0.  1.
        -14    1    4    4    0    0 -0.16335979559E+02 -0.16071933862E+01 -0.56213817189E+03  0.56237778369E+03  0.00000000000E+00 0.  1.
<mgrwt>
<rscale>  0 0.83133902E+02</rscale>
<asrwt>0</asrwt>
<pdfrwt beam="1">  1        2 0.14497906E+00 0.83133902E+02</pdfrwt>
<pdfrwt beam="2">  1       -1 0.28207484E-03 0.83133902E+02</pdfrwt>
<totfact> 0.31762221E+05</totfact>
</mgrwt>
</event>
<event>
 8    1  0.2561077E-020  0.8841093E+02  0.7818608E-02  0.1306746E+00
         -1   -1    0    0    0  501 -0.00000000000E+00  0.00000000000E+00  0.81831004713E+02  0.81831004868E+02  0.50400000000E-02 0.  1.
          2   -1    0    0  501    0  0.00000000000E+00 -0.00000000000E+00 -0.23879982625E+02  0.23879982761E+02  0.25500000000E-02 0. -1.
         24    2    1    2    0    0  0.35527136788E-14  0.00000000000E+00  0.57951022088E+02  0.10571098763E+03  0.88410926612E+02 0.  0.
         66    2    3    3    0    0 -0.29564293394E+02 -0.14509123063E+02 -0.62275574354E+01  0.33575952247E+02  0.20000004231E+01 0.  0.
        -13    1    3    3    0    0  0.29564293394E+02  0.14509123063E+02  0.64178579523E+02  0.72135035382E+02  0.10566000000E+00 0.  1.
         13    1    4    4    0    0 -0.92739080622E+01 -0.40771922731E+01 -0.19955627370E+01  0.10325807583E+02  0.10566000000E+00 0. -1.
        -13    1    4    4    0    0 -0.68303312346E+01 -0.31220120650E+01 -0.79830023228E+00  0.75530676817E+01  0.10566000000E+00 0.  1.
        -14    1    4    4    0    0 -0.13460054097E+02 -0.73099187253E+01 -0.34336944661E+01  0.15697076981E+02  0.00000000000E+00 0.  1.
<mgrwt>
<rscale>  0 0.88410927E+02</rscale>
<asrwt>0</asrwt>
<pdfrwt beam="1">  1        2 0.36738435E-02 0.88410927E+02</pdfrwt>
<pdfrwt beam="2">  1       -1 0.12589385E-01 0.88410927E+02</pdfrwt>
<totfact> 0.96578350E+04</totfact>
</mgrwt>
</event>
<event>
 8    1  0.2561077E-020  0.7617380E+02  0.7818608E-02  0.1340274E+00
         -1   -1    0    0    0  501 -0.00000000000E+00  0.00000000000E+00  0.19780944711E+01  0.19781008919E+01  0.50400000000E-02 0.  1.
          2   -1    0    0  501    0  0.00000000000E+00 -0.00000000000E+00 -0.73333686273E+03  0.73333686274E+03  0.25500000000E-02 0. -1.
         24    2    1    2    0    0  0.00000000000E+00  0.35527136788E-14 -0.73135876826E+03  0.73531496363E+03  0.76173800113E+02 0.  0.
         66    2    3    3    0    0 -0.19698965776E+02  0.25392962122E+02 -0.56275867141E+03  0.56367914103E+03  0.20000008992E+01 0.  0.
        -13    1    3    3    0    0  0.19698965776E+02 -0.25392962122E+02 -0.16860009685E+03  0.17163582260E+03  0.10566000000E+00 0.  1.
         13    1    4    4    0    0 -0.76929371574E+01  0.10340887932E+02 -0.23991072810E+03  0.24025670410E+03  0.10566000000E+00 0. -1.
        -13    1    4    4    0    0 -0.48453647187E+01  0.57677134218E+01 -0.12123862806E+03  0.12147246673E+03  0.10566000000E+00 0.  1.
        -14    1    4    4    0    0 -0.71606638995E+01  0.92843607675E+01 -0.20160931525E+03  0.20194997019E+03  0.00000000000E+00 0.  1.
<mgrwt>
<rscale>  0 0.76173800E+02</rscale>
<asrwt>0</asrwt>
<pdfrwt beam="1">  1        2 0.11282084E+00 0.76173800E+02</pdfrwt>
<pdfrwt beam="2">  1       -1 0.30432331E-03 0.76173800E+02</pdfrwt>
<totfact> 0.38374240E+05</totfact>
</mgrwt>
</event>
<event>
 8    1  0.2561077E-020  0.7966363E+02  0.7818608E-02  0.1330009E+00
          2   -1    0    0  501    0  0.00000000000E+00  0.00000000000E+00  0.90762752130E+02  0.90762752165E+02  0.25500000000E-02 0. -1.
         -1   -1    0    0    0  501 -0.00000000000E+00 -0.00000000000E+00 -0.17480447298E+02  0.17480448025E+02  0.50400000000E-02 0.  1.
         24    2    1    2    0    0  0.00000000000E+00  0.00000000000E+00  0.73282304832E+02  0.10824320019E+03  0.79663631514E+02 0.  0.
         66    2    3    3    0    0  0.34256397145E+02 -0.92109246445E+00  0.64184195727E+02  0.72787087741E+02  0.20000010094E+01 0.  0.
        -13    1    3    3    0    0 -0.34256397145E+02  0.92109246445E+00  0.90981091049E+01  0.35456112449E+02  0.10566000000E+00 0.  1.
         13    1    4    4    0    0  0.17944316177E+02 -0.67408076527E+00  0.34547634003E+02  0.38935883799E+02  0.10566000000E+00 0. -1.
        -13    1    4    4    0    0  0.10940895536E+02  0.36608637105E+00  0.19474929125E+02  0.22341021526E+02  0.10566000000E+00 0.  1.
        -14    1    4    4    0    0  0.53711854318E+01 -0.61309807022E+00  0.10161632598E+02  0.11510182416E+02  0.00000000000E+00 0.  1.
<mgrwt>
<rscale>  0 0.79663632E+02</rscale>
<asrwt>0</asrwt>
<pdfrwt beam="1">  1        2 0.13963500E-01 0.79663632E+02</pdfrwt>
<pdfrwt beam="2">  1       -1 0.26892997E-02 0.79663632E+02</pdfrwt>
<totfact> 0.17456284E+05</totfact>
</mgrwt>
</event>
<event>
 8    1  0.2561077E-020  0.7972150E+02  0.7818608E-02  0.1329844E+00
         -1   -1    0    0    0  501 -0.00000000000E+00  0.00000000000E+00  0.12028921775E+01  0.12029027360E+01  0.50400000000E-02 0.  1.
          2   -1    0    0  501    0  0.00000000000E+00 -0.00000000000E+00 -0.13208767648E+04  0.13208767648E+04  0.25500000000E-02 0. -1.
         24    2    1    2    0    0  0.00000000000E+00  0.00000000000E+00 -0.13196738726E+04  0.13220796675E+04  0.79721497954E+02 0.  0.
         66    2    3    3    0    0  0.17040725572E+02 -0.12597047703E+00 -0.12573740248E+04  0.12574910896E+04  0.19999998257E+01 0.  0.
        -13    1    3    3    0    0 -0.17040725572E+02  0.12597047703E+00 -0.62299847810E+02  0.64588577921E+02  0.10566000000E+00 0.  1.
         13    1    4    4    0    0  0.12577518083E+02 -0.13364996027E+00 -0.86985966585E+03  0.86995060851E+03  0.10566000000E+00 0. -1.
        -13    1    4    4    0    0  0.17006266478E+01 -0.43290706264E-01 -0.17093891473E+03  0.17094741220E+03  0.10566000000E+00 0.  1.
        -14    1    4    4    0    0  0.27625808410E+01  0.50970189509E-01 -0.21657544420E+03  0.21659306887E+03  0.00000000000E+00 0.  1.
<mgrwt>
<rscale>  0 0.79721498E+02</rscale>
<asrwt>0</asrwt>
<pdfrwt beam="1">  1        2 0.20321065E+00 0.79721498E+02</pdfrwt>
<pdfrwt beam="2">  1       -1 0.18506220E-03 0.79721498E+02</pdfrwt>
<totfact> 0.34819222E+05</totfact>
</mgrwt>
</event>
<event>
 8    1  0.2561077E-020  0.7868515E+02  0.7818608E-02  0.1332825E+00
          2   -1    0    0  501    0  0.00000000000E+00  0.00000000000E+00  0.11700557802E+02  0.11700558080E+02  0.25500000000E-02 0. -1.
         -1   -1    0    0    0  501 -0.00000000000E+00 -0.00000000000E+00 -0.13228754241E+03  0.13228754251E+03  0.50400000000E-02 0.  1.
         24    2    1    2    0    0  0.35527136788E-14  0.00000000000E+00 -0.12058698461E+03  0.14398810059E+03  0.78685146332E+02 0.  0.
         66    2    3    3    0    0  0.18091745278E+02  0.19854812764E+02 -0.77937145081E+01  0.28040449549E+02  0.19999969900E+01 0.  0.
        -13    1    3    3    0    0 -0.18091745278E+02 -0.19854812764E+02 -0.11279327010E+03  0.11594765104E+03  0.10566000000E+00 0.  1.
         13    1    4    4    0    0  0.66030823813E+01  0.79979783528E+01 -0.21848036331E+01  0.10599664411E+02  0.10566000000E+00 0. -1.
        -13    1    4    4    0    0  0.45996990829E+01  0.46115769638E+01 -0.23605140484E+01  0.69287130374E+01  0.10566000000E+00 0.  1.
         14    1    4    4    0    0  0.68889638136E+01  0.72452574472E+01 -0.32483968267E+01  0.10512072100E+02  0.00000000000E+00 0. -1.
<mgrwt>
<rscale>  0 0.78685146E+02</rscale>
<asrwt>0</asrwt>
<pdfrwt beam="1">  1        2 0.18000859E-02 0.78685146E+02</pdfrwt>
<pdfrwt beam="2">  1       -1 0.20351929E-01 0.78685146E+02</pdfrwt>
<totfact> 0.11601410E+05</totfact>
</mgrwt>
</event>
<event>
 8    1  0.2561077E-020  0.8063650E+02  0.7818608E-02  0.1327255E+00
         -1   -1    0    0    0  501 -0.00000000000E+00  0.00000000000E+00  0.13225162129E+03  0.13225162139E+03  0.50400000000E-02 0.  1.
          2   -1    0    0  501    0  0.00000000000E+00 -0.00000000000E+00 -0.12291429259E+02  0.12291429523E+02  0.25500000000E-02 0. -1.
         24    2    1    2    0    0  0.00000000000E+00  0.00000000000E+00  0.11996019203E+03  0.14454305091E+03  0.80636504724E+02 0.  0.
         66    2    3    3    0    0 -0.32943934806E+02  0.13641027710E+02  0.26377710185E+02  0.44397793658E+02  0.20000023955E+01 0.  0.
        -13    1    3    3    0    0  0.32943934806E+02 -0.13641027710E+02  0.93582481850E+02  0.10014525725E+03  0.10566000000E+00 0.  1.
         13    1    4    4    0    0 -0.59003809774E+01  0.19499325407E+01  0.47678719453E+01  0.78332942951E+01  0.10566000000E+00 0.  1.
        -13    1    4    4    0    0 -0.15131069178E+02  0.64239610341E+01  0.11211033736E+02  0.19897612201E+02  0.10566000000E+00 0. -1.
        -14    1    4    4    0    0 -0.11912484650E+02  0.52671341349E+01  0.10398804504E+02  0.16666887161E+02  0.00000000000E+00 0.  1.
<mgrwt>
<rscale>  0 0.80636505E+02</rscale>
<asrwt>0</asrwt>
<pdfrwt beam="1">  1        2 0.18909891E-02 0.80636505E+02</pdfrwt>
<pdfrwt beam="2">  1       -1 0.20346403E-01 0.80636505E+02</pdfrwt>
<totfact> 0.10908216E+05</totfact>
</mgrwt>
</event>
<event>
 8    1  0.2561077E-020  0.8460767E+02  0.7818608E-02  0.1316462E+00
          2   -1    0    0  501    0  0.00000000000E+00  0.00000000000E+00  0.15514789798E+02  0.15514790007E+02  0.25500000000E-02 0. -1.
         -1   -1    0    0    0  501 -0.00000000000E+00 -0.00000000000E+00 -0.11534892963E+03  0.11534892974E+03  0.50400000000E-02 0.  1.
         24    2    1    2    0    0 -0.35527136788E-14  0.00000000000E+00 -0.99834139828E+02  0.13086371974E+03  0.84607669096E+02 0.  0.
         66    2    3    3    0    0  0.31875527373E+02 -0.72755760782E+01 -0.84818555208E+01  0.33836742748E+02  0.20000085329E+01 0.  0.
        -13    1    3    3    0    0 -0.31875527373E+02  0.72755760782E+01 -0.91352284307E+02  0.97026976995E+02  0.10566000000E+00 0.  1.
         13    1    4    4    0    0  0.24666326714E+02 -0.49757703604E+01 -0.64045908998E+01  0.25965667965E+02  0.10566000000E+00 0. -1.
        -13    1    4    4    0    0  0.65392252819E+01 -0.21454851340E+01 -0.17127470328E+01  0.70929006888E+01  0.10566000000E+00 0.  1.
         14    1    4    4    0    0  0.66997537736E+00 -0.15432058385E+00 -0.36451758810E+00  0.77817409421E+00  0.00000000000E+00 0. -1.
<mgrwt>
<rscale>  0 0.84607669E+02</rscale>
<asrwt>0</asrwt>
<pdfrwt beam="1">  1        2 0.23868908E-02 0.84607669E+02</pdfrwt>
<pdfrwt beam="2">  1       -1 0.17745989E-01 0.84607669E+02</pdfrwt>
<totfact> 0.99828065E+04</totfact>
</mgrwt>
</event>
<event>
 8    1  0.2561077E-020  0.8222102E+02  0.7818608E-02  0.1322864E+00
         -1   -1    0    0    0  501 -0.00000000000E+00  0.00000000000E+00  0.98207547383E+01  0.98207560316E+01  0.50400000000E-02 0.  1.
          2   -1    0    0  501    0  0.00000000000E+00 -0.00000000000E+00 -0.17209206112E+03  0.17209206114E+03  0.25500000000E-02 0. -1.
         24    2    1    2    0    0 -0.27755575616E-16  0.00000000000E+00 -0.16227130638E+03  0.18191281717E+03  0.82221020282E+02 0.  0.
         66    2    3    3    0    0 -0.63349137297E-01  0.34388048205E+02 -0.13092890089E+03  0.13538433752E+03  0.19999713048E+01 0.  0.
        -13    1    3    3    0    0  0.63349137297E-01 -0.34388048205E+02 -0.31342405492E+02  0.46528479650E+02  0.10566000000E+00 0.  1.
         13    1    4    4    0    0 -0.16836525529E+00  0.18302479814E+02 -0.69649211373E+02  0.72014116138E+02  0.10566000000E+00 0. -1.
        -13    1    4    4    0    0  0.72492076855E+00  0.91833585302E+01 -0.35087859217E+02  0.36277108657E+02  0.10566000000E+00 0.  1.
        -14    1    4    4    0    0 -0.61990465057E+00  0.69022098613E+01 -0.26191830302E+02  0.27093112729E+02  0.00000000000E+00 0.  1.
<mgrwt>
<rscale>  0 0.82221020E+02</rscale>
<asrwt>0</asrwt>
<pdfrwt beam="1">  1        2 0.26475700E-01 0.82221020E+02</pdfrwt>
<pdfrwt beam="2">  1       -1 0.15108856E-02 0.82221020E+02</pdfrwt>
<totfact> 0.19487933E+05</totfact>
</mgrwt>
</event>
<event>
 8    1  0.2561077E-020  0.6960484E+02  0.7818608E-02  0.1361442E+00
          2   -1    0    0  501    0  0.00000000000E+00  0.00000000000E+00  0.25642529626E+02  0.25642529753E+02  0.25500000000E-02 0. -1.
         -1   -1    0    0    0  501 -0.00000000000E+00 -0.00000000000E+00 -0.47234362072E+02  0.47234362341E+02  0.50400000000E-02 0.  1.
         24    2    1    2    0    0  0.00000000000E+00  0.00000000000E+00 -0.21591832446E+02  0.72876892094E+02  0.69604843028E+02 0.  0.
         66    2    3    3    0    0  0.50365299846E+01  0.10657322361E+02  0.23447890712E+02  0.26320120509E+02  0.20000026374E+01 0.  0.
        -13    1    3    3    0    0 -0.50365299846E+01 -0.10657322361E+02 -0.45039723158E+02  0.46556771585E+02  0.10566000000E+00 0.  1.
         13    1    4    4    0    0  0.13090541903E+01  0.36584983891E+01  0.86705626639E+01  0.95020026458E+01  0.10566000000E+00 0. -1.
        -13    1    4    4    0    0  0.30062909758E+00  0.12189353680E+01  0.17055103960E+01  0.21204035069E+01  0.10566000000E+00 0.  1.
         14    1    4    4    0    0  0.34268466967E+01  0.57798886042E+01  0.13071817653E+02  0.14697714356E+02  0.00000000000E+00 0. -1.
<mgrwt>
<rscale>  0 0.69604843E+02</rscale>
<asrwt>0</asrwt>
<pdfrwt beam="1">  1        2 0.39450046E-02 0.69604843E+02</pdfrwt>
<pdfrwt beam="2">  1       -1 0.72668250E-02 0.69604843E+02</pdfrwt>
<totfact> 0.19233797E+05</totfact>
</mgrwt>
</event>
<event>
 8    1  0.2561077E-020  0.8004900E+02  0.7818608E-02  0.1328912E+00
          2   -1    0    0  501    0  0.00000000000E+00  0.00000000000E+00  0.29857785815E+03  0.29857785816E+03  0.25500000000E-02 0. -1.
         -1   -1    0    0    0  501 -0.00000000000E+00 -0.00000000000E+00 -0.53653021339E+01  0.53653045011E+01  0.50400000000E-02 0.  1.
         24    2    1    2    0    0 -0.35527136788E-14  0.71054273576E-14  0.29321255602E+03  0.30394316266E+03  0.80049004513E+02 0.  0.
         66    2    3    3    0    0  0.19266832613E+02  0.35043504914E+02  0.14352595762E+03  0.14900657247E+03  0.20000135727E+01 0.  0.
        -13    1    3    3    0    0 -0.19266832613E+02 -0.35043504914E+02  0.14968659840E+03  0.15493659019E+03  0.10566000000E+00 0.  1.
         13    1    4    4    0    0  0.65138450990E+00  0.87051188197E+00  0.45091149096E+01  0.46395445919E+01  0.10566000000E+00 0. -1.
        -13    1    4    4    0    0  0.44341122607E+01  0.90573273220E+01  0.37467962952E+02  0.38801494063E+02  0.10566000000E+00 0.  1.
         14    1    4    4    0    0  0.14181335842E+02  0.25115665710E+02  0.10154887976E+03  0.10556553382E+03  0.00000000000E+00 0. -1.
<mgrwt>
<rscale>  0 0.80049005E+02</rscale>
<asrwt>0</asrwt>
<pdfrwt beam="1">  1        2 0.45935064E-01 0.80049005E+02</pdfrwt>
<pdfrwt beam="2">  1       -1 0.82543112E-03 0.80049005E+02</pdfrwt>
<totfact> 0.25409833E+05</totfact>
</mgrwt>
</event>
<event>
 8    1  0.2561077E-020  0.7831312E+02  0.7818608E-02  0.1333908E+00
         -1   -1    0    0    0  501 -0.00000000000E+00  0.00000000000E+00  0.50161469336E+01  0.50161494656E+01  0.50400000000E-02 0.  1.
          2   -1    0    0  501    0  0.00000000000E+00 -0.00000000000E+00 -0.30566010011E+03  0.30566010012E+03  0.25500000000E-02 0. -1.
         24    2    1    2    0    0  0.00000000000E+00  0.00000000000E+00 -0.30064395318E+03  0.31067624959E+03  0.78313124542E+02 0.  0.
         66    2    3    3    0    0  0.14200946172E+02  0.16842955465E+02 -0.27871609775E+03  0.27959258782E+03  0.20000000955E+01 0.  0.
        -13    1    3    3    0    0 -0.14200946172E+02 -0.16842955465E+02 -0.21927855430E+02  0.31083661766E+02  0.10566000000E+00 0.  1.
         13    1    4    4    0    0  0.11249894677E+02  0.12855507688E+02 -0.21191783894E+03  0.21260528177E+03  0.10566000000E+00 0. -1.
        -13    1    4    4    0    0  0.48229568074E+00  0.65478737023E+00 -0.76541438650E+01  0.76979502444E+01  0.10566000000E+00 0.  1.
        -14    1    4    4    0    0  0.24687558143E+01  0.33326604063E+01 -0.59144114939E+02  0.59289355812E+02  0.00000000000E+00 0.  1.
<mgrwt>
<rscale>  0 0.78313125E+02</rscale>
<asrwt>0</asrwt>
<pdfrwt beam="1">  1        2 0.47024616E-01 0.78313125E+02</pdfrwt>
<pdfrwt beam="2">  1       -1 0.77171535E-03 0.78313125E+02</pdfrwt>
<totfact> 0.27140515E+05</totfact>
</mgrwt>
</event>
<event>
 8    1  0.2561077E-020  0.8020377E+02  0.7818608E-02  0.1328474E+00
          2   -1    0    0  501    0  0.00000000000E+00  0.00000000000E+00  0.50301153061E+03  0.50301153062E+03  0.25500000000E-02 0. -1.
         -1   -1    0    0    0  501 -0.00000000000E+00 -0.00000000000E+00 -0.31970641020E+01  0.31970680747E+01  0.50400000000E-02 0.  1.
         24    2    1    2    0    0  0.00000000000E+00  0.00000000000E+00  0.49981446651E+03  0.50620859869E+03  0.80203768354E+02 0.  0.
         66    2    3    3    0    0 -0.25779983924E+02  0.28618763965E+02  0.31992230702E+03  0.32223892339E+03  0.19999987400E+01 0.  0.
        -13    1    3    3    0    0  0.25779983924E+02 -0.28618763965E+02  0.17989215949E+03  0.18396967530E+03  0.10566000000E+00 0.  1.
         13    1    4    4    0    0 -0.42411132052E+01  0.47778892022E+01  0.51325323456E+02  0.51721516397E+02  0.10566000000E+00 0. -1.
        -13    1    4    4    0    0 -0.13783239577E+02  0.14169453157E+02  0.16148866004E+03  0.16269403672E+03  0.10566000000E+00 0.  1.
        -14    1    4    4    0    0 -0.77556311418E+01  0.96714216061E+01  0.10710832352E+03  0.10782337028E+03  0.00000000000E+00 0.  1.
<mgrwt>
<rscale>  0 0.80203768E+02</rscale>
<asrwt>0</asrwt>
<pdfrwt beam="1">  1        2 0.77386361E-01 0.80203768E+02</pdfrwt>
<pdfrwt beam="2">  1       -1 0.49185650E-03 0.80203768E+02</pdfrwt>
<totfact> 0.30307940E+05</totfact>
</mgrwt>
</event>
<event>
 8    1  0.2561077E-020  0.7627553E+02  0.7818608E-02  0.1339966E+00
         -1   -1    0    0    0  501 -0.00000000000E+00  0.00000000000E+00  0.91036785920E+01  0.91036799871E+01  0.50400000000E-02 0.  1.
          2   -1    0    0  501    0  0.00000000000E+00 -0.00000000000E+00 -0.15976937325E+03  0.15976937327E+03  0.25500000000E-02 0. -1.
         24    2    1    2    0    0  0.00000000000E+00  0.00000000000E+00 -0.15066569465E+03  0.16887305325E+03  0.76275530608E+02 0.  0.
         66    2    3    3    0    0 -0.27508261539E+02 -0.67643092357E+01 -0.13183135536E+03  0.13485535443E+03  0.20000076324E+01 0.  0.
        -13    1    3    3    0    0  0.27508261539E+02  0.67643092357E+01 -0.18834339291E+02  0.34017698819E+02  0.10566000000E+00 0.  1.
         13    1    4    4    0    0 -0.18708612951E+02 -0.44590698856E+01 -0.89699382966E+02  0.91738138042E+02  0.10566000000E+00 0. -1.
        -13    1    4    4    0    0 -0.78812168606E+01 -0.22992786502E+01 -0.36609222892E+02  0.37518617062E+02  0.10566000000E+00 0.  1.
         14    1    4    4    0    0 -0.91843172768E+00 -0.59606999259E-02 -0.55227495053E+01  0.55985993308E+01  0.00000000000E+00 0. -1.
<mgrwt>
<rscale>  0 0.76275531E+02</rscale>
<asrwt>0</asrwt>
<pdfrwt beam="1">  1        2 0.24579902E-01 0.76275531E+02</pdfrwt>
<pdfrwt beam="2">  1       -1 0.14005662E-02 0.76275531E+02</pdfrwt>
<totfact> 0.23191047E+05</totfact>
</mgrwt>
</event>
<event>
 8    1  0.2561077E-020  0.7908676E+02  0.7818608E-02  0.1331663E+00
         -1   -1    0    0    0  501 -0.00000000000E+00  0.00000000000E+00  0.22739165941E+02  0.22739166500E+02  0.50400000000E-02 0.  1.
          2   -1    0    0  501    0  0.00000000000E+00 -0.00000000000E+00 -0.68765884913E+02  0.68765884960E+02  0.25500000000E-02 0. -1.
         24    2    1    2    0    0 -0.17763568394E-14  0.17763568394E-14 -0.46026718971E+02  0.91505051459E+02  0.79086759848E+02 0.  0.
         66    2    3    3    0    0  0.11724357050E+02 -0.13748881776E+02 -0.63691718030E+02  0.66235392695E+02  0.20000003816E+01 0.  0.
        -13    1    3    3    0    0 -0.11724357050E+02  0.13748881776E+02  0.17664999058E+02  0.25269658765E+02  0.10566000000E+00 0.  1.
         13    1    4    4    0    0  0.50981239651E+01 -0.61890930862E+01 -0.27676853973E+02  0.28815189589E+02  0.10566000000E+00 0. -1.
        -13    1    4    4    0    0  0.40983119620E+01 -0.46430289481E+01 -0.24714372807E+02  0.25478721829E+02  0.10566000000E+00 0.  1.
        -14    1    4    4    0    0  0.25279211226E+01 -0.29167597418E+01 -0.11300491250E+02  0.11941481277E+02  0.00000000000E+00 0.  1.
<mgrwt>
<rscale>  0 0.79086760E+02</rscale>
<asrwt>0</asrwt>
<pdfrwt beam="1">  1        2 0.10579367E-01 0.79086760E+02</pdfrwt>
<pdfrwt beam="2">  1       -1 0.34983333E-02 0.79086760E+02</pdfrwt>
<totfact> 0.16584135E+05</totfact>
</mgrwt>
</event>
<event>
 8    1  0.2561077E-020  0.7796158E+02  0.7818608E-02  0.1334938E+00
          2   -1    0    0  501    0  0.00000000000E+00  0.00000000000E+00  0.60451368793E+03  0.60451368793E+03  0.25500000000E-02 0. -1.
         -1   -1    0    0    0  501 -0.00000000000E+00 -0.00000000000E+00 -0.25135915936E+01  0.25135966465E+01  0.50400000000E-02 0.  1.
         24    2    1    2    0    0 -0.17763568394E-14 -0.17763568394E-14  0.60200009633E+03  0.60702728458E+03  0.77961581807E+02 0.  0.
         66    2    3    3    0    0  0.14076210589E+02 -0.11055538863E+02  0.57059826082E+03  0.57088242213E+03  0.19999992544E+01 0.  0.
        -13    1    3    3    0    0 -0.14076210589E+02  0.11055538863E+02  0.31401835511E+02  0.36144862451E+02  0.10566000000E+00 0.  1.
         13    1    4    4    0    0  0.11854556205E+01 -0.75092540124E+00  0.50169141512E+02  0.50188874445E+02  0.10566000000E+00 0. -1.
        -13    1    4    4    0    0  0.51550482119E+01 -0.38948281814E+01  0.17871278467E+03  0.17882956908E+03  0.10566000000E+00 0.  1.
         14    1    4    4    0    0  0.77357067565E+01 -0.64097852809E+01  0.34171633464E+03  0.34186397860E+03  0.00000000000E+00 0. -1.
<mgrwt>
<rscale>  0 0.77961582E+02</rscale>
<asrwt>0</asrwt>
<pdfrwt beam="1">  1        2 0.93002161E-01 0.77961582E+02</pdfrwt>
<pdfrwt beam="2">  1       -1 0.38670656E-03 0.77961582E+02</pdfrwt>
<totfact> 0.34466381E+05</totfact>
</mgrwt>
</event>
<event>
 8    1  0.2561077E-020  0.8235206E+02  0.7818608E-02  0.1322506E+00
         -1   -1    0    0    0  501 -0.00000000000E+00  0.00000000000E+00  0.38643526844E+03  0.38643526847E+03  0.50400000000E-02 0.  1.
          2   -1    0    0  501    0  0.00000000000E+00 -0.00000000000E+00 -0.43874499627E+01  0.43874507038E+01  0.25500000000E-02 0. -1.
         24    2    1    2    0    0  0.00000000000E+00  0.00000000000E+00  0.38204781847E+03  0.39082271917E+03  0.82352062641E+02 0.  0.
         66    2    3    3    0    0  0.34462258214E+02  0.22209012297E+02  0.17430850049E+03  0.17907635470E+03  0.20000000417E+01 0.  0.
        -13    1    3    3    0    0 -0.34462258214E+02 -0.22209012297E+02  0.20773931798E+03  0.21174636447E+03  0.10566000000E+00 0.  1.
         13    1    4    4    0    0  0.29794136056E+01  0.24355141482E+01  0.16810171649E+02  0.17245337616E+02  0.10566000000E+00 0. -1.
        -13    1    4    4    0    0  0.10294141172E+02  0.64059106765E+01  0.53760434976E+02  0.55110802633E+02  0.10566000000E+00 0.  1.
        -14    1    4    4    0    0  0.21188703435E+02  0.13367587473E+02  0.10373789387E+03  0.10672021445E+03  0.00000000000E+00 0.  1.
<mgrwt>
<rscale>  0 0.82352063E+02</rscale>
<asrwt>0</asrwt>
<pdfrwt beam="1">  1        2 0.67499224E-03 0.82352063E+02</pdfrwt>
<pdfrwt beam="2">  1       -1 0.59451590E-01 0.82352063E+02</pdfrwt>
<totfact> 0.71590227E+04</totfact>
</mgrwt>
</event>
<event>
 8    1  0.2561077E-020  0.8005768E+02  0.7818608E-02  0.1328888E+00
          2   -1    0    0  501    0  0.00000000000E+00  0.00000000000E+00  0.91302279026E+02  0.91302279062E+02  0.25500000000E-02 0. -1.
         -1   -1    0    0    0  501 -0.00000000000E+00 -0.00000000000E+00 -0.17549484400E+02  0.17549485124E+02  0.50400000000E-02 0.  1.
         24    2    1    2    0    0  0.35527136788E-14 -0.35527136788E-14  0.73752794626E+02  0.10885176419E+03  0.80057678277E+02 0.  0.
         66    2    3    3    0    0  0.31237058793E+02 -0.16096535830E+02  0.62891777147E+02  0.72070992409E+02  0.20000015894E+01 0.  0.
        -13    1    3    3    0    0 -0.31237058793E+02  0.16096535830E+02  0.10861017479E+02  0.36780771777E+02  0.10566000000E+00 0.  1.
         13    1    4    4    0    0  0.20863771498E+02 -0.11034561065E+02  0.42916772375E+02  0.48978760848E+02  0.10566000000E+00 0. -1.
        -13    1    4    4    0    0  0.30042579772E+01 -0.12140692206E+01  0.48637888833E+01  0.58452661533E+01  0.10566000000E+00 0.  1.
        -14    1    4    4    0    0  0.73690293175E+01 -0.38479055451E+01  0.15111215888E+02  0.17246965408E+02  0.00000000000E+00 0.  1.
<mgrwt>
<rscale>  0 0.80057678E+02</rscale>
<asrwt>0</asrwt>
<pdfrwt beam="1">  1        2 0.14046504E-01 0.80057678E+02</pdfrwt>
<pdfrwt beam="2">  1       -1 0.26999207E-02 0.80057678E+02</pdfrwt>
<totfact> 0.17254132E+05</totfact>
</mgrwt>
</event>
<event>
 8    1  0.2561077E-020  0.7604355E+02  0.7818608E-02  0.1340670E+00
          2   -1    0    0  501    0  0.00000000000E+00  0.00000000000E+00  0.94481675113E+01  0.94481678554E+01  0.25500000000E-02 0. -1.
         -1   -1    0    0    0  501 -0.00000000000E+00 -0.00000000000E+00 -0.15300907128E+03  0.15300907136E+03  0.50400000000E-02 0.  1.
         24    2    1    2    0    0  0.00000000000E+00 -0.35527136788E-14 -0.14356090376E+03  0.16245723921E+03  0.76043549913E+02 0.  0.
         66    2    3    3    0    0 -0.17305188374E+02  0.17075784260E+02 -0.94494491566E+01  0.26159970812E+02  0.20000076945E+01 0.  0.
        -13    1    3    3    0    0  0.17305188374E+02 -0.17075784260E+02 -0.13411145461E+03  0.13629726840E+03  0.10566000000E+00 0.  1.
         13    1    4    4    0    0 -0.89008326262E+01  0.93943731885E+01 -0.44371347951E+01  0.13681315663E+02  0.10566000000E+00 0. -1.
        -13    1    4    4    0    0 -0.59476851984E+01  0.59653005093E+01 -0.35089393706E+01  0.91259842717E+01  0.10566000000E+00 0.  1.
        -14    1    4    4    0    0 -0.24566705492E+01  0.17161105625E+01 -0.15033749909E+01  0.33526708775E+01  0.00000000000E+00 0.  1.
<mgrwt>
<rscale>  0 0.76043550E+02</rscale>
<asrwt>0</asrwt>
<pdfrwt beam="1">  1        2 0.14535644E-02 0.76043550E+02</pdfrwt>
<pdfrwt beam="2">  1       -1 0.23539855E-01 0.76043550E+02</pdfrwt>
<totfact> 0.12200297E+05</totfact>
</mgrwt>
</event>
<event>
 8    1  0.2561077E-020  0.7999339E+02  0.7818608E-02  0.1329070E+00
         -1   -1    0    0    0  501 -0.00000000000E+00  0.00000000000E+00  0.17834013273E+01  0.17834084490E+01  0.50400000000E-02 0.  1.
          2   -1    0    0  501    0  0.00000000000E+00 -0.00000000000E+00 -0.89701200567E+03  0.89701200567E+03  0.25500000000E-02 0. -1.
         24    2    1    2    0    0  0.00000000000E+00  0.88817841970E-15 -0.89522860434E+03  0.89879541412E+03  0.79993389818E+02 0.  0.
         66    2    3    3    0    0 -0.29606048834E+02 -0.45772850657E+01 -0.74522194318E+03  0.74582653094E+03  0.19999962636E+01 0.  0.
        -13    1    3    3    0    0  0.29606048834E+02  0.45772850657E+01 -0.15000666116E+03  0.15296888318E+03  0.10566000000E+00 0.  1.
         13    1    4    4    0    0 -0.54112670682E+01 -0.90525401603E+00 -0.13950097822E+03  0.13960886571E+03  0.10566000000E+00 0. -1.
        -13    1    4    4    0    0 -0.23144637366E+02 -0.35400425154E+01 -0.58703166955E+03  0.58749842413E+03  0.10566000000E+00 0.  1.
        -14    1    4    4    0    0 -0.10501443991E+01 -0.13198853435E+00 -0.18689295417E+02  0.18719241102E+02  0.00000000000E+00 0.  1.
<mgrwt>
<rscale>  0 0.79993390E+02</rscale>
<asrwt>0</asrwt>
<pdfrwt beam="1">  1        2 0.13800149E+00 0.79993390E+02</pdfrwt>
<pdfrwt beam="2">  1       -1 0.27437070E-03 0.79993390E+02</pdfrwt>
<totfact> 0.34941157E+05</totfact>
</mgrwt>
</event>
<event>
 8    1  0.2561077E-020  0.7639229E+02  0.7818608E-02  0.1339613E+00
         -1   -1    0    0    0  501 -0.00000000000E+00  0.00000000000E+00  0.28566880696E+01  0.28566925156E+01  0.50400000000E-02 0.  1.
          2   -1    0    0  501    0  0.00000000000E+00 -0.00000000000E+00 -0.51071182083E+03  0.51071182084E+03  0.25500000000E-02 0. -1.
         24    2    1    2    0    0  0.17763568394E-14  0.35527136788E-14 -0.50785513277E+03  0.51356851336E+03  0.76392290419E+02 0.  0.
         66    2    3    3    0    0  0.10780690521E+02  0.26697364929E+02 -0.42256920886E+03  0.42355366701E+03  0.19999949063E+01 0.  0.
        -13    1    3    3    0    0 -0.10780690521E+02 -0.26697364929E+02 -0.85285923910E+02  0.90014846350E+02  0.10566000000E+00 0.  1.
         13    1    4    4    0    0  0.34219501278E+01  0.69964437258E+01 -0.11891930756E+03  0.11917412824E+03  0.10566000000E+00 0. -1.
        -13    1    4    4    0    0  0.11427592760E+01  0.43931646706E+01 -0.66345160694E+02  0.66500355684E+02  0.10566000000E+00 0.  1.
         14    1    4    4    0    0  0.62159811170E+01  0.15307756533E+02 -0.23730474060E+03  0.23787918308E+03  0.00000000000E+00 0. -1.
<mgrwt>
<rscale>  0 0.76392290E+02</rscale>
<asrwt>0</asrwt>
<pdfrwt beam="1">  1        2 0.78570977E-01 0.76392290E+02</pdfrwt>
<pdfrwt beam="2">  1       -1 0.43949122E-03 0.76392290E+02</pdfrwt>
<totfact> 0.34563793E+05</totfact>
</mgrwt>
</event>
<event>
 8    1  0.2561077E-020  0.7983833E+02  0.7818608E-02  0.1329511E+00
         -1   -1    0    0    0  501 -0.00000000000E+00  0.00000000000E+00  0.12853672390E+01  0.12853771201E+01  0.50400000000E-02 0.  1.
          2   -1    0    0  501    0  0.00000000000E+00 -0.00000000000E+00 -0.12397498085E+04  0.12397498085E+04  0.25500000000E-02 0. -1.
         24    2    1    2    0    0 -0.27755575616E-16  0.00000000000E+00 -0.12384644413E+04  0.12410351856E+04  0.79838334689E+02 0.  0.
         66    2    3    3    0    0 -0.92386575622E-01  0.10728628458E+02 -0.12168997908E+04  0.12169487305E+04  0.19999941590E+01 0.  0.
        -13    1    3    3    0    0  0.92386575622E-01 -0.10728628458E+02 -0.21564650517E+02  0.24086455111E+02  0.10566000000E+00 0.  1.
         13    1    4    4    0    0 -0.22111766746E+00  0.11060289967E+01 -0.13935013809E+03  0.13935474281E+03  0.10566000000E+00 0. -1.
        -13    1    4    4    0    0 -0.38615636909E+00  0.47877696263E+01 -0.61558812704E+03  0.61560687551E+03  0.10566000000E+00 0.  1.
        -14    1    4    4    0    0  0.51488746093E+00  0.48348298353E+01 -0.46196152564E+03  0.46198711222E+03  0.00000000000E+00 0.  1.
<mgrwt>
<rscale>  0 0.79838335E+02</rscale>
<asrwt>0</asrwt>
<pdfrwt beam="1">  1        2 0.19072978E+00 0.79838335E+02</pdfrwt>
<pdfrwt beam="2">  1       -1 0.19775056E-03 0.79838335E+02</pdfrwt>
<totfact> 0.35077748E+05</totfact>
</mgrwt>
</event>
<event>
 8    1  0.2561077E-020  0.7980640E+02  0.7818608E-02  0.1329602E+00
          2   -1    0    0  501    0  0.00000000000E+00  0.00000000000E+00  0.13522007033E+03  0.13522007036E+03  0.25500000000E-02 0. -1.
         -1   -1    0    0    0  501 -0.00000000000E+00 -0.00000000000E+00 -0.11775363204E+02  0.11775364283E+02  0.50400000000E-02 0.  1.
         24    2    1    2    0    0  0.00000000000E+00  0.00000000000E+00  0.12344470713E+03  0.14699543464E+03  0.79806403795E+02 0.  0.
         66    2    3    3    0    0  0.78298288884E+01 -0.32395345068E+02  0.10209382870E+03  0.10741468457E+03  0.19999999714E+01 0.  0.
        -13    1    3    3    0    0 -0.78298288884E+01  0.32395345068E+02  0.21350878431E+02  0.39580750073E+02  0.10566000000E+00 0.  1.
         13    1    4    4    0    0  0.31617578645E+01 -0.12557080760E+02  0.38693182875E+02  0.40802580249E+02  0.10566000000E+00 0. -1.
        -13    1    4    4    0    0  0.35401938408E+00 -0.37323982593E+01  0.12438983070E+02  0.12992135712E+02  0.10566000000E+00 0.  1.
        -14    1    4    4    0    0  0.43140516398E+01 -0.16105866049E+02  0.50961662753E+02  0.53619968606E+02  0.00000000000E+00 0.  1.
<mgrwt>
<rscale>  0 0.79806404E+02</rscale>
<asrwt>0</asrwt>
<pdfrwt beam="1">  1        2 0.20803087E-01 0.79806404E+02</pdfrwt>
<pdfrwt beam="2">  1       -1 0.18115945E-02 0.79806404E+02</pdfrwt>
<totfact> 0.19506962E+05</totfact>
</mgrwt>
</event>
<event>
 8    1  0.2561077E-020  0.8226549E+02  0.7818608E-02  0.1322743E+00
         -1   -1    0    0    0  501 -0.00000000000E+00  0.00000000000E+00  0.29577510368E+01  0.29577553309E+01  0.50400000000E-02 0.  1.
          2   -1    0    0  501    0  0.00000000000E+00 -0.00000000000E+00 -0.57202297779E+03  0.57202297779E+03  0.25500000000E-02 0. -1.
         24    2    1    2    0    0  0.00000000000E+00  0.00000000000E+00 -0.56906522675E+03  0.57498073312E+03  0.82265491958E+02 0.  0.
         66    2    3    3    0    0 -0.11330863614E+02  0.25797167734E+02 -0.49391557110E+03  0.49472262300E+03  0.19999982331E+01 0.  0.
        -13    1    3    3    0    0  0.11330863614E+02 -0.25797167734E+02 -0.75149655648E+02  0.80258110128E+02  0.10566000000E+00 0.  1.
         13    1    4    4    0    0 -0.53915822101E+01  0.12624614697E+02 -0.24609694161E+03  0.24647954456E+03  0.10566000000E+00 0. -1.
        -13    1    4    4    0    0 -0.26120698857E+01  0.73800982799E+01 -0.13228712699E+03  0.13251861715E+03  0.10566000000E+00 0.  1.
         14    1    4    4    0    0 -0.33272115180E+01  0.57924547571E+01 -0.11553150250E+03  0.11572446128E+03  0.00000000000E+00 0. -1.
<mgrwt>
<rscale>  0 0.82265492E+02</rscale>
<asrwt>0</asrwt>
<pdfrwt beam="1">  1        2 0.88003447E-01 0.82265492E+02</pdfrwt>
<pdfrwt beam="2">  1       -1 0.45503941E-03 0.82265492E+02</pdfrwt>
<totfact> 0.29501658E+05</totfact>
</mgrwt>
</event>
<event>
 8    1  0.2561077E-020  0.8075263E+02  0.7818608E-02  0.1326929E+00
         -1   -1    0    0    0  501 -0.00000000000E+00  0.00000000000E+00  0.95411247431E+01  0.95411260743E+01  0.50400000000E-02 0.  1.
          2   -1    0    0  501    0  0.00000000000E+00 -0.00000000000E+00 -0.17086523630E+03  0.17086523632E+03  0.25500000000E-02 0. -1.
         24    2    1    2    0    0  0.00000000000E+00  0.00000000000E+00 -0.16132411156E+03  0.18040636239E+03  0.80752626102E+02 0.  0.
         66    2    3    3    0    0 -0.11701687858E+02  0.26972249612E+02 -0.14245441310E+03  0.14547058658E+03  0.19999999047E+01 0.  0.
        -13    1    3    3    0    0  0.11701687858E+02 -0.26972249612E+02 -0.18869698453E+02  0.34935775813E+02  0.10566000000E+00 0.  1.
         13    1    4    4    0    0 -0.57064483287E+01  0.10915884396E+02 -0.58416094531E+02  0.59700681311E+02  0.10566000000E+00 0.  1.
        -13    1    4    4    0    0 -0.36171652882E+01  0.10399704114E+02 -0.53919715939E+02  0.55032578183E+02  0.10566000000E+00 0. -1.
         14    1    4    4    0    0 -0.23780742411E+01  0.56566611020E+01 -0.30118602632E+02  0.30737327087E+02  0.00000000000E+00 0. -1.
<mgrwt>
<rscale>  0 0.80752626E+02</rscale>
<asrwt>0</asrwt>
<pdfrwt beam="1">  1        2 0.26286957E-01 0.80752626E+02</pdfrwt>
<pdfrwt beam="2">  1       -1 0.14678656E-02 0.80752626E+02</pdfrwt>
<totfact> 0.20392765E+05</totfact>
</mgrwt>
</event>
<event>
 8    1  0.2561077E-020  0.7951113E+02  0.7818608E-02  0.1330445E+00
          2   -1    0    0  501    0  0.00000000000E+00  0.00000000000E+00  0.11563039173E+03  0.11563039176E+03  0.25500000000E-02 0. -1.
         -1   -1    0    0    0  501 -0.00000000000E+00 -0.00000000000E+00 -0.13668593842E+02  0.13668594772E+02  0.50400000000E-02 0.  1.
         24    2    1    2    0    0  0.71054273576E-14  0.35527136788E-14  0.10196179789E+03  0.12929898653E+03  0.79511129342E+02 0.  0.
         66    2    3    3    0    0 -0.19012404323E+02 -0.17513886973E+02  0.10007646183E+03  0.10338039453E+03  0.20000018167E+01 0.  0.
        -13    1    3    3    0    0  0.19012404323E+02  0.17513886973E+02  0.18853360634E+01  0.25918591998E+02  0.10566000000E+00 0.  1.
         13    1    4    4    0    0 -0.14230710486E+02 -0.13862040309E+02  0.76979589093E+02  0.79501808681E+02  0.10566000000E+00 0. -1.
        -13    1    4    4    0    0 -0.15075770607E+00 -0.13988260613E+00  0.59796269812E+00  0.64110720896E+00  0.10566000000E+00 0. -1.
        -14    1    4    4    0    0 -0.46309361304E+01 -0.35119640583E+01  0.22498910035E+02  0.23237478645E+02  0.00000000000E+00 0.  1.
<mgrwt>
<rscale>  0 0.79511129E+02</rscale>
<asrwt>0</asrwt>
<pdfrwt beam="1">  1        2 0.17789291E-01 0.79511129E+02</pdfrwt>
<pdfrwt beam="2">  1       -1 0.21028607E-02 0.79511129E+02</pdfrwt>
<totfact> 0.18786487E+05</totfact>
</mgrwt>
</event>
<event>
 8    1  0.2561077E-020  0.7909337E+02  0.7818608E-02  0.1331644E+00
          2   -1    0    0  501    0  0.00000000000E+00  0.00000000000E+00  0.27712374655E+03  0.27712374656E+03  0.25500000000E-02 0. -1.
         -1   -1    0    0    0  501 -0.00000000000E+00 -0.00000000000E+00 -0.56434711170E+01  0.56434733676E+01  0.50400000000E-02 0.  1.
         24    2    1    2    0    0 -0.35527136788E-14  0.00000000000E+00  0.27148027543E+03  0.28276721993E+03  0.79093367089E+02 0.  0.
         66    2    3    3    0    0 -0.22693904817E+02 -0.29366415034E+02  0.87261053932E+02  0.94846671872E+02  0.19999959996E+01 0.  0.
        -13    1    3    3    0    0  0.22693904817E+02  0.29366415034E+02  0.18421922150E+03  0.18792054806E+03  0.10566000000E+00 0.  1.
         13    1    4    4    0    0 -0.11299160059E+02 -0.14313644042E+02  0.42297253630E+02  0.46061049190E+02  0.10566000000E+00 0. -1.
        -13    1    4    4    0    0 -0.44317239779E+01 -0.48974700343E+01  0.14962405672E+02  0.16355737149E+02  0.10566000000E+00 0.  1.
         14    1    4    4    0    0 -0.69630207801E+01 -0.10155300958E+02  0.30001394630E+02  0.32429885533E+02  0.00000000000E+00 0. -1.
<mgrwt>
<rscale>  0 0.79093367E+02</rscale>
<asrwt>0</asrwt>
<pdfrwt beam="1">  1        2 0.42634420E-01 0.79093367E+02</pdfrwt>
<pdfrwt beam="2">  1       -1 0.86822655E-03 0.79093367E+02</pdfrwt>
<totfact> 0.25524189E+05</totfact>
</mgrwt>
</event>
<event>
 8    1  0.2561077E-020  0.7936626E+02  0.7818608E-02  0.1330860E+00
         -1   -1    0    0    0  501 -0.00000000000E+00  0.00000000000E+00  0.32154016892E+02  0.32154017287E+02  0.50400000000E-02 0.  1.
          2   -1    0    0  501    0  0.00000000000E+00 -0.00000000000E+00 -0.48975241929E+02  0.48975241996E+02  0.25500000000E-02 0. -1.
         24    2    1    2    0    0  0.88817841970E-15 -0.71054273576E-14 -0.16821225038E+02  0.81129259282E+02  0.79366259203E+02 0.  0.
         66    2    3    3    0    0 -0.63912806039E+01  0.36750021787E+02  0.53491917808E+01  0.37736274653E+02  0.20000007199E+01 0.  0.
        -13    1    3    3    0    0  0.63912806039E+01 -0.36750021787E+02 -0.22170416819E+02  0.43392984629E+02  0.10566000000E+00 0.  1.
         13    1    4    4    0    0 -0.23807151472E+01  0.17299395874E+02  0.30049701964E+01  0.17719421891E+02  0.10566000000E+00 0. -1.
        -13    1    4    4    0    0 -0.21522595466E+01  0.12498933415E+02  0.14950043730E+01  0.12771129933E+02  0.10566000000E+00 0.  1.
        -14    1    4    4    0    0 -0.18583059101E+01  0.69516924980E+01  0.84921721136E+00  0.72457228290E+01  0.00000000000E+00 0.  1.
<mgrwt>
<rscale>  0 0.79366259E+02</rscale>
<asrwt>0</asrwt>
<pdfrwt beam="1">  1        2 0.75346526E-02 0.79366259E+02</pdfrwt>
<pdfrwt beam="2">  1       -1 0.49467719E-02 0.79366259E+02</pdfrwt>
<totfact> 0.15203721E+05</totfact>
</mgrwt>
</event>
<event>
 8    1  0.2561077E-020  0.7982964E+02  0.7818608E-02  0.1329536E+00
          2   -1    0    0  501    0  0.00000000000E+00  0.00000000000E+00  0.34768708815E+02  0.34768708908E+02  0.25500000000E-02 0. -1.
         -1   -1    0    0    0  501 -0.00000000000E+00 -0.00000000000E+00 -0.45822605385E+02  0.45822605663E+02  0.50400000000E-02 0.  1.
         24    2    1    2    0    0  0.00000000000E+00  0.00000000000E+00 -0.11053896571E+02  0.80591314571E+02  0.79829639576E+02 0.  0.
         66    2    3    3    0    0  0.23254475230E+02 -0.41965727021E+01  0.26913522324E+02  0.35870872912E+02  0.19999997276E+01 0.  0.
        -13    1    3    3    0    0 -0.23254475230E+02  0.41965727021E+01 -0.37967418895E+02  0.44720441659E+02  0.10566000000E+00 0.  1.
         13    1    4    4    0    0  0.22237899034E+02 -0.39197219626E+01  0.25982351468E+02  0.34423569332E+02  0.10566000000E+00 0. -1.
        -13    1    4    4    0    0  0.53869306795E+00 -0.17652377319E+00  0.30218094363E+00  0.65102090770E+00  0.10566000000E+00 0.  1.
         14    1    4    4    0    0  0.47788312810E+00 -0.10032696635E+00  0.62898991253E+00  0.79628267240E+00  0.00000000000E+00 0. -1.
<mgrwt>
<rscale>  0 0.79829640E+02</rscale>
<asrwt>0</asrwt>
<pdfrwt beam="1">  1        2 0.53490321E-02 0.79829640E+02</pdfrwt>
<pdfrwt beam="2">  1       -1 0.70496317E-02 0.79829640E+02</pdfrwt>
<totfact> 0.13937978E+05</totfact>
</mgrwt>
</event>
<event>
 8    1  0.2561077E-020  0.7941817E+02  0.7818608E-02  0.1330711E+00
          2   -1    0    0  501    0  0.00000000000E+00  0.00000000000E+00  0.11620931836E+03  0.11620931839E+03  0.25500000000E-02 0. -1.
         -1   -1    0    0    0  501 -0.00000000000E+00 -0.00000000000E+00 -0.13568717925E+02  0.13568718861E+02  0.50400000000E-02 0.  1.
         24    2    1    2    0    0  0.00000000000E+00  0.44408920985E-15  0.10264060044E+03  0.12977803725E+03  0.79418172322E+02 0.  0.
         66    2    3    3    0    0 -0.10766523713E+02 -0.30026686129E+01  0.11357507952E+03  0.11414128413E+03  0.20000008133E+01 0.  0.
        -13    1    3    3    0    0  0.10766523713E+02  0.30026686129E+01 -0.10934479077E+02  0.15636753128E+02  0.10566000000E+00 0.  1.
         13    1    4    4    0    0 -0.68449592598E+01 -0.10852249401E+01  0.66181646359E+02  0.66543614715E+02  0.10566000000E+00 0. -1.
        -13    1    4    4    0    0 -0.33535013793E+00 -0.12102727510E+00  0.55465300704E+01  0.55589807675E+01  0.10566000000E+00 0.  1.
         14    1    4    4    0    0 -0.35862143151E+01 -0.17964163977E+01  0.41846903086E+02  0.42038688643E+02  0.00000000000E+00 0. -1.
<mgrwt>
<rscale>  0 0.79418172E+02</rscale>
<asrwt>0</asrwt>
<pdfrwt beam="1">  1        2 0.17878357E-01 0.79418172E+02</pdfrwt>
<pdfrwt beam="2">  1       -1 0.20874951E-02 0.79418172E+02</pdfrwt>
<totfact> 0.18872977E+05</totfact>
</mgrwt>
</event>
<event>
 8    1  0.2561077E-020  0.7812555E+02  0.7818608E-02  0.1334457E+00
         -1   -1    0    0    0  501 -0.00000000000E+00  0.00000000000E+00  0.68135193882E+02  0.68135194068E+02  0.50400000000E-02 0.  1.
          2   -1    0    0  501    0  0.00000000000E+00 -0.00000000000E+00 -0.22395187206E+02  0.22395187351E+02  0.25500000000E-02 0. -1.
         24    2    1    2    0    0 -0.35527136788E-14  0.00000000000E+00  0.45740006676E+02  0.90530381420E+02  0.78125551193E+02 0.  0.
         66    2    3    3    0    0  0.20847905443E+02  0.28120981134E+02  0.28654992551E+01  0.35180049064E+02  0.20000062090E+01 0.  0.
        -13    1    3    3    0    0 -0.20847905443E+02 -0.28120981134E+02  0.42874507421E+02  0.55350332356E+02  0.10566000000E+00 0.  1.
         13    1    4    4    0    0  0.10896315469E+02  0.15803311654E+02  0.19330992329E+01  0.19293065768E+02  0.10566000000E+00 0. -1.
        -13    1    4    4    0    0  0.25683260374E+01  0.32920068316E+01 -0.12279698329E+00  0.41784986237E+01  0.10566000000E+00 0. -1.
         14    1    4    4    0    0  0.73832639365E+01  0.90256626486E+01  0.10551970055E+01  0.11708484672E+02  0.00000000000E+00 0. -1.
<mgrwt>
<rscale>  0 0.78125551E+02</rscale>
<asrwt>0</asrwt>
<pdfrwt beam="1">  1        2 0.34454134E-02 0.78125551E+02</pdfrwt>
<pdfrwt beam="2">  1       -1 0.10482338E-01 0.78125551E+02</pdfrwt>
<totfact> 0.13586599E+05</totfact>
</mgrwt>
</event>
<event>
 8    1  0.2561077E-020  0.7890254E+02  0.7818608E-02  0.1332195E+00
         -1   -1    0    0    0  501 -0.00000000000E+00  0.00000000000E+00  0.32625661747E+01  0.32625700675E+01  0.50400000000E-02 0.  1.
          2   -1    0    0  501    0  0.00000000000E+00 -0.00000000000E+00 -0.47704839018E+03  0.47704839019E+03  0.25500000000E-02 0. -1.
         24    2    1    2    0    0 -0.35527136788E-14  0.00000000000E+00 -0.47378582401E+03  0.48031096026E+03  0.78902544396E+02 0.  0.
         66    2    3    3    0    0  0.25010435140E+02  0.14272786624E+02 -0.40097131713E+03  0.40200899425E+03  0.19999993094E+01 0.  0.
        -13    1    3    3    0    0 -0.25010435140E+02 -0.14272786624E+02 -0.72814506883E+02  0.78301966007E+02  0.10566000000E+00 0.  1.
         13    1    4    4    0    0  0.99401803408E+01  0.54662025381E+01 -0.15045950581E+03  0.15088658193E+03  0.10566000000E+00 0. -1.
        -13    1    4    4    0    0  0.12925373741E+02  0.72468665273E+01 -0.20683812733E+03  0.20736828215E+03  0.10566000000E+00 0.  1.
        -14    1    4    4    0    0  0.21448810573E+01  0.15597175586E+01 -0.43673683986E+02  0.43754130165E+02  0.00000000000E+00 0.  1.
<mgrwt>
<rscale>  0 0.78902544E+02</rscale>
<asrwt>0</asrwt>
<pdfrwt beam="1">  1        2 0.73392005E-01 0.78902544E+02</pdfrwt>
<pdfrwt beam="2">  1       -1 0.50193394E-03 0.78902544E+02</pdfrwt>
<totfact> 0.31092108E+05</totfact>
</mgrwt>
</event>
<event>
 8    1  0.2561077E-020  0.8041077E+02  0.7818608E-02  0.1327890E+00
          2   -1    0    0  501    0  0.00000000000E+00  0.00000000000E+00  0.76160629890E+03  0.76160629891E+03  0.25500000000E-02 0. -1.
         -1   -1    0    0    0  501 -0.00000000000E+00 -0.00000000000E+00 -0.21224493858E+01  0.21224553698E+01  0.50400000000E-02 0.  1.
         24    2    1    2    0    0  0.00000000000E+00  0.35527136788E-14  0.75948384952E+03  0.76372875428E+03  0.80410773110E+02 0.  0.
         66    2    3    3    0    0  0.27503690103E+02  0.16621877083E+02  0.60905505684E+03  0.60990556813E+03  0.20000006486E+01 0.  0.
        -13    1    3    3    0    0 -0.27503690103E+02 -0.16621877083E+02  0.15042879267E+03  0.15382318615E+03  0.10566000000E+00 0.  1.
         13    1    4    4    0    0  0.57477553066E+01  0.33006234312E+01  0.12571554549E+03  0.12589019163E+03  0.10566000000E+00 0. -1.
        -13    1    4    4    0    0  0.13307667285E+02  0.80595624112E+01  0.27858114060E+03  0.27901525697E+03  0.10566000000E+00 0.  1.
        -14    1    4    4    0    0  0.84482675113E+01  0.52616912401E+01  0.20475837075E+03  0.20500011953E+03  0.00000000000E+00 0.  1.
<mgrwt>
<rscale>  0 0.80410773E+02</rscale>
<asrwt>0</asrwt>
<pdfrwt beam="1">  1        2 0.11717013E+00 0.80410773E+02</pdfrwt>
<pdfrwt beam="2">  1       -1 0.32653132E-03 0.80410773E+02</pdfrwt>
<totfact> 0.33605989E+05</totfact>
</mgrwt>
</event>
<event>
 8    1  0.2561077E-020  0.7974934E+02  0.7818608E-02  0.1329764E+00
         -1   -1    0    0    0  501 -0.00000000000E+00  0.00000000000E+00  0.78774452464E+01  0.78774468587E+01  0.50400000000E-02 0.  1.
          2   -1    0    0  501    0  0.00000000000E+00 -0.00000000000E+00 -0.20184070875E+03  0.20184070877E+03  0.25500000000E-02 0. -1.
         24    2    1    2    0    0  0.00000000000E+00  0.00000000000E+00 -0.19396326350E+03  0.20971815563E+03  0.79749339870E+02 0.  0.
         66    2    3    3    0    0 -0.28688446497E+02 -0.42660722064E+01 -0.16890438692E+03  0.17138820919E+03  0.19999979936E+01 0.  0.
        -13    1    3    3    0    0  0.28688446497E+02  0.42660722064E+01 -0.25058876583E+02  0.38329946441E+02  0.10566000000E+00 0.  1.
         13    1    4    4    0    0 -0.12785090575E+02 -0.17412696488E+01 -0.70728292958E+02  0.71895710232E+02  0.10566000000E+00 0. -1.
        -13    1    4    4    0    0 -0.20270619856E+01 -0.59663341259E+00 -0.12006999373E+02  0.12191970706E+02  0.10566000000E+00 0.  1.
         14    1    4    4    0    0 -0.13876293936E+02 -0.19281691450E+01 -0.86169094590E+02  0.87300528247E+02  0.00000000000E+00 0. -1.
<mgrwt>
<rscale>  0 0.79749340E+02</rscale>
<asrwt>0</asrwt>
<pdfrwt beam="1">  1        2 0.31052413E-01 0.79749340E+02</pdfrwt>
<pdfrwt beam="2">  1       -1 0.12119149E-02 0.79749340E+02</pdfrwt>
<totfact> 0.22312852E+05</totfact>
</mgrwt>
</event>
<event>
 8    1  0.2561077E-020  0.8475243E+02  0.7818608E-02  0.1316081E+00
         -1   -1    0    0    0  501 -0.00000000000E+00  0.00000000000E+00  0.47453323624E+02  0.47453323892E+02  0.50400000000E-02 0.  1.
          2   -1    0    0  501    0  0.00000000000E+00 -0.00000000000E+00 -0.37842312885E+02  0.37842312971E+02  0.25500000000E-02 0. -1.
         24    2    1    2    0    0  0.00000000000E+00  0.00000000000E+00  0.96110107397E+01  0.85295636863E+02  0.84752428522E+02 0.  0.
         66    2    3    3    0    0  0.28995830276E+02 -0.28620249334E+01 -0.26126255594E+02  0.39185846913E+02  0.20000017076E+01 0.  0.
        -13    1    3    3    0    0 -0.28995830276E+02  0.28620249334E+01  0.35737266334E+02  0.46109789949E+02  0.10566000000E+00 0.  1.
         13    1    4    4    0    0  0.75432650541E+01 -0.69292834455E+00 -0.57247705513E+01  0.94955336484E+01  0.10566000000E+00 0. -1.
        -13    1    4    4    0    0  0.80847006490E+01 -0.10073544870E+01 -0.74141084594E+01  0.11016229660E+02  0.10566000000E+00 0.  1.
         14    1    4    4    0    0  0.13367864573E+02 -0.11617421019E+01 -0.12987376583E+02  0.18674083605E+02  0.00000000000E+00 0. -1.
<mgrwt>
<rscale>  0 0.84752429E+02</rscale>
<asrwt>0</asrwt>
<pdfrwt beam="1">  1        2 0.58218943E-02 0.84752429E+02</pdfrwt>
<pdfrwt beam="2">  1       -1 0.73005114E-02 0.84752429E+02</pdfrwt>
<totfact> 0.12002528E+05</totfact>
</mgrwt>
</event>
<event>
 8    1  0.2561077E-020  0.7926726E+02  0.7818608E-02  0.1331144E+00
          2   -1    0    0  501    0  0.00000000000E+00  0.00000000000E+00  0.22798631031E+03  0.22798631032E+03  0.25500000000E-02 0. -1.
         -1   -1    0    0    0  501 -0.00000000000E+00 -0.00000000000E+00 -0.68899939293E+01  0.68899957726E+01  0.50400000000E-02 0.  1.
         24    2    1    2    0    0  0.00000000000E+00 -0.17763568394E-14  0.22109631638E+03  0.23487630609E+03  0.79267257102E+02 0.  0.
         66    2    3    3    0    0  0.34469946379E+02  0.12324505613E+02  0.15543349246E+03  0.15969859496E+03  0.20000032136E+01 0.  0.
        -13    1    3    3    0    0 -0.34469946379E+02 -0.12324505613E+02  0.65662823919E+02  0.75177711132E+02  0.10566000000E+00 0.  1.
         13    1    4    4    0    0  0.78201215389E+01  0.24292926265E+01  0.35423672816E+02  0.36357991190E+02  0.10566000000E+00 0. -1.
        -13    1    4    4    0    0  0.18682036364E+02  0.73667644702E+01  0.87200684612E+02  0.89483284821E+02  0.10566000000E+00 0.  1.
        -14    1    4    4    0    0  0.79677884758E+01  0.25284485168E+01  0.32809135030E+02  0.33857318951E+02  0.00000000000E+00 0.  1.
<mgrwt>
<rscale>  0 0.79267257E+02</rscale>
<asrwt>0</asrwt>
<pdfrwt beam="1">  1        2 0.35074814E-01 0.79267257E+02</pdfrwt>
<pdfrwt beam="2">  1       -1 0.10599993E-02 0.79267257E+02</pdfrwt>
<totfact> 0.23662853E+05</totfact>
</mgrwt>
</event>
<event>
 8    1  0.2561077E-020  0.7794536E+02  0.7818608E-02  0.1334985E+00
          2   -1    0    0  501    0  0.00000000000E+00  0.00000000000E+00  0.27441670096E+03  0.27441670098E+03  0.25500000000E-02 0. -1.
         -1   -1    0    0    0  501 -0.00000000000E+00 -0.00000000000E+00 -0.55349024057E+01  0.55349047004E+01  0.50400000000E-02 0.  1.
         24    2    1    2    0    0  0.00000000000E+00 -0.44408920985E-15  0.26888179856E+03  0.27995160568E+03  0.77945364999E+02 0.  0.
         66    2    3    3    0    0  0.37673600789E+02  0.24666512217E+01  0.16888155244E+03  0.17306173266E+03  0.19999984630E+01 0.  0.
        -13    1    3    3    0    0 -0.37673600789E+02 -0.24666512217E+01  0.10000024612E+03  0.10688987301E+03  0.10566000000E+00 0.  1.
         13    1    4    4    0    0  0.18923999666E+02  0.11837353870E+01  0.82524683823E+02  0.84674988025E+02  0.10566000000E+00 0. -1.
        -13    1    4    4    0    0  0.14204539386E+00  0.30571648575E-01  0.10301496991E+01  0.10456978329E+01  0.10566000000E+00 0.  1.
         14    1    4    4    0    0  0.18607555728E+02  0.12523441861E+01  0.85326718915E+02  0.87341046805E+02  0.00000000000E+00 0. -1.
<mgrwt>
<rscale>  0 0.77945365E+02</rscale>
<asrwt>0</asrwt>
<pdfrwt beam="1">  1        2 0.42217960E-01 0.77945365E+02</pdfrwt>
<pdfrwt beam="2">  1       -1 0.85152351E-03 0.77945365E+02</pdfrwt>
<totfact> 0.26426968E+05</totfact>
</mgrwt>
</event>
<event>
 8    1  0.2561077E-020  0.8044168E+02  0.7818608E-02  0.1327803E+00
          2   -1    0    0  501    0  0.00000000000E+00  0.00000000000E+00  0.19841065974E+03  0.19841065976E+03  0.25500000000E-02 0. -1.
         -1   -1    0    0    0  501 -0.00000000000E+00 -0.00000000000E+00 -0.81533723418E+01  0.81533738995E+01  0.50400000000E-02 0.  1.
         24    2    1    2    0    0  0.17763568394E-14  0.00000000000E+00  0.19025728740E+03  0.20656403366E+03  0.80441684419E+02 0.  0.
         66    2    3    3    0    0  0.15292049532E+02  0.27354992079E+01  0.19038514510E+03  0.19102835709E+03  0.20000006766E+01 0.  0.
        -13    1    3    3    0    0 -0.15292049532E+02 -0.27354992079E+01 -0.12785769986E+00  0.15535676568E+02  0.10566000000E+00 0.  1.
         13    1    4    4    0    0  0.78621835767E+01  0.72220996057E+00  0.94200552215E+02  0.94530898227E+02  0.10566000000E+00 0.  1.
        -13    1    4    4    0    0  0.34838795323E+01  0.81021817328E+00  0.38733050152E+02  0.38897997483E+02  0.10566000000E+00 0. -1.
        -14    1    4    4    0    0  0.39459864231E+01  0.12030710741E+01  0.57451542734E+02  0.57599461381E+02  0.00000000000E+00 0.  1.
<mgrwt>
<rscale>  0 0.80441684E+02</rscale>
<asrwt>0</asrwt>
<pdfrwt beam="1">  1        2 0.30524712E-01 0.80441684E+02</pdfrwt>
<pdfrwt beam="2">  1       -1 0.12543653E-02 0.80441684E+02</pdfrwt>
<totfact> 0.21680164E+05</totfact>
</mgrwt>
</event>
<event>
 8    1  0.2561077E-020  0.7967651E+02  0.7818608E-02  0.1329972E+00
         -1   -1    0    0    0  501 -0.00000000000E+00  0.00000000000E+00  0.12420075335E+02  0.12420076358E+02  0.50400000000E-02 0.  1.
          2   -1    0    0  501    0  0.00000000000E+00 -0.00000000000E+00 -0.12778395437E+03  0.12778395440E+03  0.25500000000E-02 0. -1.
         24    2    1    2    0    0  0.00000000000E+00  0.00000000000E+00 -0.11536387904E+03  0.14020403076E+03  0.79676506285E+02 0.  0.
         66    2    3    3    0    0  0.22450553939E+02  0.32686919769E+02 -0.63969174223E+02  0.75289556691E+02  0.19999999737E+01 0.  0.
        -13    1    3    3    0    0 -0.22450553939E+02 -0.32686919769E+02 -0.51394704815E+02  0.64914474065E+02  0.10566000000E+00 0.  1.
         13    1    4    4    0    0  0.83536580512E+01  0.11491925283E+02 -0.22566224914E+02  0.26666338714E+02  0.10566000000E+00 0. -1.
        -13    1    4    4    0    0  0.12319485188E+02  0.18552018052E+02 -0.37078320718E+02  0.43252284569E+02  0.10566000000E+00 0.  1.
         14    1    4    4    0    0  0.17774106995E+01  0.26429764332E+01 -0.43246285909E+01  0.53709334077E+01  0.00000000000E+00 0. -1.
<mgrwt>
<rscale>  0 0.79676506E+02</rscale>
<asrwt>0</asrwt>
<pdfrwt beam="1">  1        2 0.19659069E-01 0.79676506E+02</pdfrwt>
<pdfrwt beam="2">  1       -1 0.19107810E-02 0.79676506E+02</pdfrwt>
<totfact> 0.19252223E+05</totfact>
</mgrwt>
</event>
<event>
 8    1  0.2561077E-020  0.7678958E+02  0.7818608E-02  0.1338417E+00
          2   -1    0    0  501    0  0.00000000000E+00  0.00000000000E+00  0.48576287854E+01  0.48576294548E+01  0.25500000000E-02 0. -1.
         -1   -1    0    0    0  501 -0.00000000000E+00 -0.00000000000E+00 -0.30347312104E+03  0.30347312108E+03  0.50400000000E-02 0.  1.
         24    2    1    2    0    0  0.00000000000E+00 -0.88817841970E-15 -0.29861549226E+03  0.30833075054E+03  0.76789579450E+02 0.  0.
         66    2    3    3    0    0  0.37323222109E+02 -0.72558895645E+01 -0.12874507902E+03  0.13425708998E+03  0.19999992315E+01 0.  0.
        -13    1    3    3    0    0 -0.37323222109E+02  0.72558895645E+01 -0.16987041324E+03  0.17407366056E+03  0.10566000000E+00 0.  1.
         13    1    4    4    0    0  0.14446011003E+02 -0.21786583648E+01 -0.51037779872E+02  0.53087662639E+02  0.10566000000E+00 0. -1.
        -13    1    4    4    0    0  0.58848764407E+01 -0.14588635273E+01 -0.21441246051E+02  0.22282240681E+02  0.10566000000E+00 0.  1.
        -14    1    4    4    0    0  0.16992334666E+02 -0.36183676724E+01 -0.56266053094E+02  0.58887186660E+02  0.00000000000E+00 0.  1.
<mgrwt>
<rscale>  0 0.76789579E+02</rscale>
<asrwt>0</asrwt>
<pdfrwt beam="1">  1        2 0.74732780E-03 0.76789579E+02</pdfrwt>
<pdfrwt beam="2">  1       -1 0.46688158E-01 0.76789579E+02</pdfrwt>
<totfact> 0.95543761E+04</totfact>
</mgrwt>
</event>
<event>
 8    1  0.2561077E-020  0.7801540E+02  0.7818608E-02  0.1334780E+00
          2   -1    0    0  501    0  0.00000000000E+00  0.00000000000E+00  0.70668223526E+03  0.70668223526E+03  0.25500000000E-02 0. -1.
         -1   -1    0    0    0  501 -0.00000000000E+00 -0.00000000000E+00 -0.21531581312E+01  0.21531640298E+01  0.50400000000E-02 0.  1.
         24    2    1    2    0    0  0.00000000000E+00  0.00000000000E+00  0.70452907713E+03  0.70883539929E+03  0.78015400870E+02 0.  0.
         66    2    3    3    0    0 -0.35260991083E+02  0.65458878815E+01  0.49130657814E+03  0.49261784363E+03  0.19999985887E+01 0.  0.
        -13    1    3    3    0    0  0.35260991083E+02 -0.65458878815E+01  0.21322249899E+03  0.21621755567E+03  0.10566000000E+00 0.  1.
         13    1    4    4    0    0 -0.53963300072E+01  0.10006393522E+01  0.77346158445E+02  0.77540705742E+02  0.10566000000E+00 0. -1.
        -13    1    4    4    0    0 -0.10130104598E+02  0.15371778008E+01  0.15021195397E+03  0.15056103153E+03  0.10566000000E+00 0.  1.
         14    1    4    4    0    0 -0.19734556478E+02  0.40080707286E+01  0.26374846572E+03  0.26451610636E+03  0.00000000000E+00 0. -1.
<mgrwt>
<rscale>  0 0.78015401E+02</rscale>
<asrwt>0</asrwt>
<pdfrwt beam="1">  1        2 0.10872043E+00 0.78015401E+02</pdfrwt>
<pdfrwt beam="2">  1       -1 0.33125529E-03 0.78015401E+02</pdfrwt>
<totfact> 0.35783078E+05</totfact>
</mgrwt>
</event>
<event>
 8    1  0.2561077E-020  0.7977220E+02  0.7818608E-02  0.1329699E+00
          2   -1    0    0  501    0  0.00000000000E+00  0.00000000000E+00  0.16674598891E+03  0.16674598893E+03  0.25500000000E-02 0. -1.
         -1   -1    0    0    0  501 -0.00000000000E+00 -0.00000000000E+00 -0.95408650860E+01  0.95408664172E+01  0.50400000000E-02 0.  1.
         24    2    1    2    0    0  0.00000000000E+00  0.35527136788E-14  0.15720512383E+03  0.17628685535E+03  0.79772203251E+02 0.  0.
         66    2    3    3    0    0  0.18150853083E+02  0.25847512899E+02  0.13239090663E+03  0.13612090049E+03  0.20000001280E+01 0.  0.
        -13    1    3    3    0    0 -0.18150853083E+02 -0.25847512899E+02  0.24814217191E+02  0.40165954857E+02  0.10566000000E+00 0.  1.
         13    1    4    4    0    0  0.18936321487E+00  0.21975859212E+00  0.17124265985E+01  0.17400348148E+01  0.10566000000E+00 0.  1.
        -13    1    4    4    0    0  0.52616029261E+01  0.70540488784E+01  0.34363567768E+02  0.35472665881E+02  0.10566000000E+00 0.  1.
         14    1    4    4    0    0  0.12699886942E+02  0.18573705428E+02  0.96314912267E+02  0.98908199795E+02  0.00000000000E+00 0. -1.
<mgrwt>
<rscale>  0 0.79772203E+02</rscale>
<asrwt>0</asrwt>
<pdfrwt beam="1">  1        2 0.25653228E-01 0.79772203E+02</pdfrwt>
<pdfrwt beam="2">  1       -1 0.14678256E-02 0.79772203E+02</pdfrwt>
<totfact> 0.20892700E+05</totfact>
</mgrwt>
</event>
<event>
 8    1  0.2561077E-020  0.7998704E+02  0.7818608E-02  0.1329088E+00
         -1   -1    0    0    0  501 -0.00000000000E+00  0.00000000000E+00  0.11751384086E+03  0.11751384096E+03  0.50400000000E-02 0.  1.
          2   -1    0    0  501    0  0.00000000000E+00 -0.00000000000E+00 -0.13611007261E+02  0.13611007500E+02  0.25500000000E-02 0. -1.
         24    2    1    2    0    0  0.00000000000E+00  0.00000000000E+00  0.10390283360E+03  0.13112484846E+03  0.79987043047E+02 0.  0.
         66    2    3    3    0    0  0.30721571633E+02  0.14856402887E+02  0.17873643283E+02  0.38574535552E+02  0.19999996191E+01 0.  0.
        -13    1    3    3    0    0 -0.30721571633E+02 -0.14856402887E+02  0.86029190312E+02  0.92550312912E+02  0.10566000000E+00 0.  1.
         13    1    4    4    0    0  0.26105261772E+01  0.15954910299E+01  0.13253715801E+01  0.33358975418E+01  0.10566000000E+00 0. -1.
        -13    1    4    4    0    0  0.13845113101E+01  0.87125636954E+00  0.64658697521E+00  0.17621571955E+01  0.10566000000E+00 0.  1.
        -14    1    4    4    0    0  0.26726534145E+02  0.12389655488E+02  0.15901684728E+02  0.33476480814E+02  0.00000000000E+00 0.  1.
<mgrwt>
<rscale>  0 0.79987043E+02</rscale>
<asrwt>0</asrwt>
<pdfrwt beam="1">  1        2 0.20940011E-02 0.79987043E+02</pdfrwt>
<pdfrwt beam="2">  1       -1 0.18079053E-01 0.79987043E+02</pdfrwt>
<totfact> 0.11443586E+05</totfact>
</mgrwt>
</event>
<event>
 8    1  0.2561077E-020  0.7851957E+02  0.7818608E-02  0.1333306E+00
          2   -1    0    0  501    0  0.00000000000E+00  0.00000000000E+00  0.18827718870E+02  0.18827719043E+02  0.25500000000E-02 0. -1.
         -1   -1    0    0    0  501 -0.00000000000E+00 -0.00000000000E+00 -0.81864977346E+02  0.81864977501E+02  0.50400000000E-02 0.  1.
         24    2    1    2    0    0  0.35527136788E-14  0.00000000000E+00 -0.63037258476E+02  0.10069269654E+03  0.78519571962E+02 0.  0.
         66    2    3    3    0    0  0.25863096302E+02 -0.97675150459E+01  0.41617006208E+01  0.28028982296E+02  0.19999989992E+01 0.  0.
        -13    1    3    3    0    0 -0.25863096302E+02  0.97675150459E+01 -0.67198959097E+02  0.72663714247E+02  0.10566000000E+00 0.  1.
         13    1    4    4    0    0  0.18028064471E+02 -0.58453073603E+01  0.29647474143E+01  0.19182794843E+02  0.10566000000E+00 0. -1.
        -13    1    4    4    0    0  0.18340124952E+01 -0.89683387845E+00  0.29256901426E+00  0.20651085933E+01  0.10566000000E+00 0. -1.
         14    1    4    4    0    0  0.60010193358E+01 -0.30253738071E+01  0.90438419222E+00  0.67810788602E+01  0.00000000000E+00 0. -1.
<mgrwt>
<rscale>  0 0.78519572E+02</rscale>
<asrwt>0</asrwt>
<pdfrwt beam="1">  1        2 0.28965722E-02 0.78519572E+02</pdfrwt>
<pdfrwt beam="2">  1       -1 0.12594612E-01 0.78519572E+02</pdfrwt>
<totfact> 0.12941549E+05</totfact>
</mgrwt>
</event>
<event>
 8    1  0.2561077E-020  0.8298358E+02  0.7818608E-02  0.1320792E+00
         -1   -1    0    0    0  501 -0.00000000000E+00  0.00000000000E+00  0.21752892273E+03  0.21752892279E+03  0.50400000000E-02 0.  1.
          2   -1    0    0  501    0  0.00000000000E+00 -0.00000000000E+00 -0.79142046496E+01  0.79142050604E+01  0.25500000000E-02 0. -1.
         24    2    1    2    0    0 -0.88817841970E-15  0.35527136788E-14  0.20961471808E+03  0.22544312785E+03  0.82983575835E+02 0.  0.
         66    2    3    3    0    0 -0.73974138147E+01  0.30016213403E+02  0.29782892275E+02  0.42973427529E+02  0.20000007869E+01 0.  0.
        -13    1    3    3    0    0  0.73974138147E+01 -0.30016213403E+02  0.17983182581E+03  0.18246970032E+03  0.10566000000E+00 0.  1.
         13    1    4    4    0    0 -0.89678675490E+00  0.22991638392E+01  0.25308188264E+01  0.35364655818E+01  0.10566000000E+00 0. -1.
        -13    1    4    4    0    0 -0.37993662602E+01  0.19083469864E+02  0.18792401015E+02  0.27051423363E+02  0.10566000000E+00 0.  1.
         14    1    4    4    0    0 -0.27012607996E+01  0.86335797000E+01  0.84596724330E+01  0.12385538584E+02  0.00000000000E+00 0. -1.
<mgrwt>
<rscale>  0 0.82983576E+02</rscale>
<asrwt>0</asrwt>
<pdfrwt beam="1">  1        2 0.12175702E-02 0.82983576E+02</pdfrwt>
<pdfrwt beam="2">  1       -1 0.33465983E-01 0.82983576E+02</pdfrwt>
<totfact> 0.88379179E+04</totfact>
</mgrwt>
</event>
<event>
 8    1  0.2561077E-020  0.8044107E+02  0.7818608E-02  0.1327804E+00
          2   -1    0    0  501    0  0.00000000000E+00  0.00000000000E+00  0.24505896569E+03  0.24505896571E+03  0.25500000000E-02 0. -1.
         -1   -1    0    0    0  501 -0.00000000000E+00 -0.00000000000E+00 -0.66012326131E+01  0.66012345371E+01  0.50400000000E-02 0.  1.
         24    2    1    2    0    0  0.71054273576E-14 -0.88817841970E-15  0.23845773308E+03  0.25166020024E+03  0.80441071108E+02 0.  0.
         66    2    3    3    0    0 -0.40095235380E+02  0.27080161132E+01  0.12196667091E+03  0.12843220025E+03  0.19999995569E+01 0.  0.
        -13    1    3    3    0    0  0.40095235380E+02 -0.27080161132E+01  0.11649106217E+03  0.12322799999E+03  0.10566000000E+00 0.  1.
         13    1    4    4    0    0 -0.29013917730E+02  0.18306987112E+01  0.89556572634E+02  0.94157048307E+02  0.10566000000E+00 0. -1.
        -13    1    4    4    0    0 -0.40886189150E+01  0.55725234734E-01  0.10911250328E+02  0.11652744642E+02  0.10566000000E+00 0.  1.
        -14    1    4    4    0    0 -0.69926987348E+01  0.82159216722E+00  0.21498847944E+02  0.22622407303E+02  0.00000000000E+00 0.  1.
<mgrwt>
<rscale>  0 0.80441071E+02</rscale>
<asrwt>0</asrwt>
<pdfrwt beam="1">  1        2 0.37701383E-01 0.80441071E+02</pdfrwt>
<pdfrwt beam="2">  1       -1 0.10155743E-02 0.80441071E+02</pdfrwt>
<totfact> 0.23358173E+05</totfact>
</mgrwt>
</event>
<event>
 8    1  0.2561077E-020  0.8256951E+02  0.7818608E-02  0.1321914E+00
          2   -1    0    0  501    0  0.00000000000E+00  0.00000000000E+00  0.53890642520E+01  0.53890648553E+01  0.25500000000E-02 0. -1.
         -1   -1    0    0    0  501 -0.00000000000E+00 -0.00000000000E+00 -0.31627582845E+03  0.31627582849E+03  0.50400000000E-02 0.  1.
         24    2    1    2    0    0 -0.71054273576E-14 -0.44408920985E-15 -0.31088676419E+03  0.32166489334E+03  0.82569506825E+02 0.  0.
         66    2    3    3    0    0  0.38722433317E+02  0.27143507877E+01 -0.10104603765E+03  0.10826401184E+03  0.19999985387E+01 0.  0.
        -13    1    3    3    0    0 -0.38722433317E+02 -0.27143507877E+01 -0.20984072655E+03  0.21340088150E+03  0.10566000000E+00 0.  1.
         13    1    4    4    0    0  0.16868417665E+02  0.71502317485E+00 -0.42293938885E+02  0.45539468630E+02  0.10566000000E+00 0. -1.
        -13    1    4    4    0    0  0.13309171708E+02  0.16930906186E+01 -0.35815989268E+02  0.38246527407E+02  0.10566000000E+00 0.  1.
         14    1    4    4    0    0  0.85448439440E+01  0.30623699427E+00 -0.22936109495E+02  0.24478015808E+02  0.00000000000E+00 0. -1.
<mgrwt>
<rscale>  0 0.82569507E+02</rscale>
<asrwt>0</asrwt>
<pdfrwt beam="1">  1        2 0.82908710E-03 0.82569507E+02</pdfrwt>
<pdfrwt beam="2">  1       -1 0.48657806E-01 0.82569507E+02</pdfrwt>
<totfact> 0.77969223E+04</totfact>
</mgrwt>
</event>
<event>
 8    1  0.2561077E-020  0.7910859E+02  0.7818608E-02  0.1331600E+00
          2   -1    0    0  501    0  0.00000000000E+00  0.00000000000E+00  0.22269379447E+03  0.22269379448E+03  0.25500000000E-02 0. -1.
         -1   -1    0    0    0  501 -0.00000000000E+00 -0.00000000000E+00 -0.70255299115E+01  0.70255317193E+01  0.50400000000E-02 0.  1.
         24    2    1    2    0    0  0.00000000000E+00  0.00000000000E+00  0.21566826456E+03  0.22971932620E+03  0.79108586727E+02 0.  0.
         66    2    3    3    0    0  0.26321384762E+02 -0.13311080864E+02  0.18432081685E+03  0.18667662867E+03  0.19999989273E+01 0.  0.
        -13    1    3    3    0    0 -0.26321384762E+02  0.13311080864E+02  0.31347447706E+02  0.43042697537E+02  0.10566000000E+00 0.  1.
         13    1    4    4    0    0  0.27096724823E+01 -0.99057359478E+00  0.18703185531E+02  0.18924689537E+02  0.10566000000E+00 0. -1.
        -13    1    4    4    0    0  0.18731824182E+02 -0.97410018760E+01  0.13491654821E+03  0.13655861196E+03  0.10566000000E+00 0.  1.
        -14    1    4    4    0    0  0.48798880977E+01 -0.25795053931E+01  0.30701083109E+02  0.31193327171E+02  0.00000000000E+00 0.  1.
<mgrwt>
<rscale>  0 0.79108587E+02</rscale>
<asrwt>0</asrwt>
<pdfrwt beam="1">  1        2 0.34260576E-01 0.79108587E+02</pdfrwt>
<pdfrwt beam="2">  1       -1 0.10808512E-02 0.79108587E+02</pdfrwt>
<totfact> 0.23591146E+05</totfact>
</mgrwt>
</event>
<event>
 8    1  0.2561077E-020  0.8015554E+02  0.7818608E-02  0.1328611E+00
         -1   -1    0    0    0  501 -0.00000000000E+00  0.00000000000E+00  0.18430271916E+02  0.18430272605E+02  0.50400000000E-02 0.  1.
          2   -1    0    0  501    0  0.00000000000E+00 -0.00000000000E+00 -0.87151599147E+02  0.87151599184E+02  0.25500000000E-02 0. -1.
         24    2    1    2    0    0  0.17763568394E-14  0.00000000000E+00 -0.68721327231E+02  0.10558187179E+03  0.80155541506E+02 0.  0.
         66    2    3    3    0    0 -0.12511664819E+02 -0.36877779214E+02 -0.46718194017E+02  0.60853118268E+02  0.19999986109E+01 0.  0.
        -13    1    3    3    0    0  0.12511664819E+02  0.36877779214E+02 -0.22003133214E+02  0.44728753521E+02  0.10566000000E+00 0.  1.
         13    1    4    4    0    0 -0.73526707024E+01 -0.19490581464E+02 -0.25421229440E+02  0.32866314100E+02  0.10566000000E+00 0. -1.
        -13    1    4    4    0    0 -0.46365051136E+01 -0.15255535183E+02 -0.18297365268E+02  0.24270007688E+02  0.10566000000E+00 0.  1.
         14    1    4    4    0    0 -0.52248900284E+00 -0.21316625670E+01 -0.29995993097E+01  0.37167964804E+01  0.00000000000E+00 0. -1.
<mgrwt>
<rscale>  0 0.80155542E+02</rscale>
<asrwt>0</asrwt>
<pdfrwt beam="1">  1        2 0.13407938E-01 0.80155542E+02</pdfrwt>
<pdfrwt beam="2">  1       -1 0.28354266E-02 0.80155542E+02</pdfrwt>
<totfact> 0.16984363E+05</totfact>
</mgrwt>
</event>
<event>
 8    1  0.2561077E-020  0.8081499E+02  0.7818608E-02  0.1326754E+00
          2   -1    0    0  501    0  0.00000000000E+00  0.00000000000E+00  0.48621140447E+02  0.48621140514E+02  0.25500000000E-02 0. -1.
         -1   -1    0    0    0  501 -0.00000000000E+00 -0.00000000000E+00 -0.33581394271E+02  0.33581394649E+02  0.50400000000E-02 0.  1.
         24    2    1    2    0    0  0.00000000000E+00  0.00000000000E+00  0.15039746177E+02  0.82202535163E+02  0.80814991321E+02 0.  0.
         66    2    3    3    0    0  0.19206443632E+02 -0.17845433928E+02  0.38766865349E+02  0.46842468176E+02  0.19999966917E+01 0.  0.
        -13    1    3    3    0    0 -0.19206443632E+02  0.17845433928E+02 -0.23727119173E+02  0.35360066987E+02  0.10566000000E+00 0.  1.
         13    1    4    4    0    0  0.64274392425E+01 -0.61657228942E+01  0.14577098022E+02  0.17083063683E+02  0.10566000000E+00 0. -1.
        -13    1    4    4    0    0  0.75613868261E+01 -0.69572239126E+01  0.13628559458E+02  0.17068284396E+02  0.10566000000E+00 0.  1.
        -14    1    4    4    0    0  0.52176175632E+01 -0.47224871211E+01  0.10561207869E+02  0.12691120097E+02  0.00000000000E+00 0.  1.
<mgrwt>
<rscale>  0 0.80814991E+02</rscale>
<asrwt>0</asrwt>
<pdfrwt beam="1">  1        2 0.74801755E-02 0.80814991E+02</pdfrwt>
<pdfrwt beam="2">  1       -1 0.51663684E-02 0.80814991E+02</pdfrwt>
<totfact> 0.14445253E+05</totfact>
</mgrwt>
</event>
<event>
 8    1  0.2561077E-020  0.7918594E+02  0.7818608E-02  0.1331378E+00
         -1   -1    0    0    0  501 -0.00000000000E+00  0.00000000000E+00  0.47667693867E+02  0.47667694134E+02  0.50400000000E-02 0.  1.
          2   -1    0    0  501    0  0.00000000000E+00 -0.00000000000E+00 -0.32886068864E+02  0.32886068963E+02  0.25500000000E-02 0. -1.
         24    2    1    2    0    0  0.00000000000E+00  0.00000000000E+00  0.14781625003E+02  0.80553763097E+02  0.79185935060E+02 0.  0.
         66    2    3    3    0    0 -0.67184722461E+01  0.82866876049E+01 -0.31365028430E+02  0.33189938843E+02  0.19999927949E+01 0.  0.
        -13    1    3    3    0    0  0.67184722461E+01 -0.82866876049E+01  0.46146653434E+02  0.47363824254E+02  0.10566000000E+00 0.  1.
         13    1    4    4    0    0 -0.26723137600E+01  0.42543971987E+01 -0.13461933540E+02  0.14369271903E+02  0.10566000000E+00 0. -1.
        -13    1    4    4    0    0 -0.18904700340E+01  0.25522960968E+01 -0.10422866181E+02  0.10896577250E+02  0.10566000000E+00 0.  1.
        -14    1    4    4    0    0 -0.21556884521E+01  0.14799943094E+01 -0.74802287099E+01  0.79240896898E+01  0.00000000000E+00 0.  1.
<mgrwt>
<rscale>  0 0.79185935E+02</rscale>
<asrwt>0</asrwt>
<pdfrwt beam="1">  1        2 0.50593953E-02 0.79185935E+02</pdfrwt>
<pdfrwt beam="2">  1       -1 0.73334914E-02 0.79185935E+02</pdfrwt>
<totfact> 0.14098630E+05</totfact>
</mgrwt>
</event>
<event>
 8    1  0.2561077E-020  0.7992784E+02  0.7818608E-02  0.1329256E+00
          2   -1    0    0  501    0  0.00000000000E+00  0.00000000000E+00  0.39367769540E+02  0.39367769622E+02  0.25500000000E-02 0. -1.
         -1   -1    0    0    0  501 -0.00000000000E+00 -0.00000000000E+00 -0.40569093945E+02  0.40569094258E+02  0.50400000000E-02 0.  1.
         24    2    1    2    0    0  0.00000000000E+00  0.00000000000E+00 -0.12013244047E+01  0.79936863880E+02  0.79927836369E+02 0.  0.
         66    2    3    3    0    0  0.10468824933E+02  0.35966984977E+02  0.13252945676E+02  0.39785184072E+02  0.19999996744E+01 0.  0.
        -13    1    3    3    0    0 -0.10468824933E+02 -0.35966984977E+02 -0.14454270080E+02  0.40151679808E+02  0.10566000000E+00 0.  1.
         13    1    4    4    0    0  0.14351621725E+01  0.68800466909E+01  0.28068731355E+01  0.75686480804E+01  0.10566000000E+00 0. -1.
        -13    1    4    4    0    0  0.44882318879E+01  0.12695630850E+02  0.45878195090E+01  0.14226121047E+02  0.10566000000E+00 0. -1.
        -14    1    4    4    0    0  0.45454308723E+01  0.16391307437E+02  0.58582530312E+01  0.17990414944E+02  0.00000000000E+00 0.  1.
<mgrwt>
<rscale>  0 0.79927836E+02</rscale>
<asrwt>0</asrwt>
<pdfrwt beam="1">  1        2 0.60565799E-02 0.79927836E+02</pdfrwt>
<pdfrwt beam="2">  1       -1 0.62413991E-02 0.79927836E+02</pdfrwt>
<totfact> 0.14244224E+05</totfact>
</mgrwt>
</event>
<event>
 8    1  0.2561077E-020  0.7916460E+02  0.7818608E-02  0.1331439E+00
          2   -1    0    0  501    0  0.00000000000E+00  0.00000000000E+00  0.28756115469E+03  0.28756115471E+03  0.25500000000E-02 0. -1.
         -1   -1    0    0    0  501 -0.00000000000E+00 -0.00000000000E+00 -0.54484346866E+01  0.54484370176E+01  0.50400000000E-02 0.  1.
         24    2    1    2    0    0  0.44408920985E-15  0.00000000000E+00  0.28211272001E+03  0.29300959172E+03  0.79164601001E+02 0.  0.
         66    2    3    3    0    0  0.25167398064E+01 -0.30432600441E+02  0.23421497965E+03  0.23620570239E+03  0.19999990820E+01 0.  0.
        -13    1    3    3    0    0 -0.25167398064E+01  0.30432600441E+02  0.47897740353E+02  0.56803889337E+02  0.10566000000E+00 0.  1.
         13    1    4    4    0    0  0.20083015025E+01 -0.20392102430E+02  0.15240221365E+03  0.15377359008E+03  0.10566000000E+00 0. -1.
        -13    1    4    4    0    0  0.10536642987E+00 -0.35129520405E+00  0.37186862297E+01  0.37382217317E+01  0.10566000000E+00 0.  1.
         14    1    4    4    0    0  0.40307187400E+00 -0.96892028070E+01  0.78094079775E+02  0.78693890576E+02  0.00000000000E+00 0. -1.
<mgrwt>
<rscale>  0 0.79164601E+02</rscale>
<asrwt>0</asrwt>
<pdfrwt beam="1">  1        2 0.44240173E-01 0.79164601E+02</pdfrwt>
<pdfrwt beam="2">  1       -1 0.83822098E-03 0.79164601E+02</pdfrwt>
<totfact> 0.25807024E+05</totfact>
</mgrwt>
</event>
<event>
 8    1  0.2561077E-020  0.7950872E+02  0.7818608E-02  0.1330451E+00
          2   -1    0    0  501    0  0.00000000000E+00  0.00000000000E+00  0.11657058073E+03  0.11657058076E+03  0.25500000000E-02 0. -1.
         -1   -1    0    0    0  501 -0.00000000000E+00 -0.00000000000E+00 -0.13557528118E+02  0.13557529055E+02  0.50400000000E-02 0.  1.
         24    2    1    2    0    0  0.00000000000E+00  0.00000000000E+00  0.10301305262E+03  0.13012810982E+03  0.79508716223E+02 0.  0.
         66    2    3    3    0    0 -0.37861858334E+02 -0.11402080369E+02  0.57851557333E+02  0.70102285596E+02  0.20000016770E+01 0.  0.
        -13    1    3    3    0    0  0.37861858334E+02  0.11402080369E+02  0.45161495283E+02  0.60025824221E+02  0.10566000000E+00 0.  1.
         13    1    4    4    0    0 -0.31877101222E+01 -0.52423288973E+00  0.42400129215E+01  0.53315278819E+01  0.10566000000E+00 0.  1.
        -13    1    4    4    0    0 -0.18198090339E+02 -0.54810824097E+01  0.28452030633E+02  0.34216106844E+02  0.10566000000E+00 0. -1.
        -14    1    4    4    0    0 -0.16476057873E+02 -0.53967650693E+01  0.25159513778E+02  0.30554650870E+02  0.00000000000E+00 0.  1.
<mgrwt>
<rscale>  0 0.79508716E+02</rscale>
<asrwt>0</asrwt>
<pdfrwt beam="1">  1        2 0.17933936E-01 0.79508716E+02</pdfrwt>
<pdfrwt beam="2">  1       -1 0.20857736E-02 0.79508716E+02</pdfrwt>
<totfact> 0.18832979E+05</totfact>
</mgrwt>
</event>
<event>
 8    1  0.2561077E-020  0.8116977E+02  0.7818608E-02  0.1325764E+00
          2   -1    0    0  501    0  0.00000000000E+00  0.00000000000E+00  0.20412392484E+03  0.20412392486E+03  0.25500000000E-02 0. -1.
         -1   -1    0    0    0  501 -0.00000000000E+00 -0.00000000000E+00 -0.80692790074E+01  0.80692805813E+01  0.50400000000E-02 0.  1.
         24    2    1    2    0    0  0.00000000000E+00  0.35527136788E-14  0.19605464583E+03  0.21219320544E+03  0.81169774432E+02 0.  0.
         66    2    3    3    0    0 -0.30784804349E+02  0.19790840527E+02  0.14379737520E+03  0.14839496843E+03  0.19999981093E+01 0.  0.
        -13    1    3    3    0    0  0.30784804349E+02 -0.19790840527E+02  0.52257270631E+02  0.63798237008E+02  0.10566000000E+00 0.  1.
         13    1    4    4    0    0 -0.15124421005E+02  0.10300317598E+02  0.73193631041E+02  0.75446427631E+02  0.10566000000E+00 0. -1.
        -13    1    4    4    0    0 -0.10308214751E+01  0.77713350563E+00  0.60201610819E+01  0.61579243976E+01  0.10566000000E+00 0. -1.
         14    1    4    4    0    0 -0.14629561868E+02  0.87133894242E+01  0.64583583082E+02  0.66790616403E+02  0.00000000000E+00 0. -1.
<mgrwt>
<rscale>  0 0.81169774E+02</rscale>
<asrwt>0</asrwt>
<pdfrwt beam="1">  1        2 0.31403678E-01 0.81169774E+02</pdfrwt>
<pdfrwt beam="2">  1       -1 0.12414278E-02 0.81169774E+02</pdfrwt>
<totfact> 0.21380582E+05</totfact>
</mgrwt>
</event>
<event>
 8    1  0.2561077E-020  0.7970681E+02  0.7818608E-02  0.1329886E+00
         -1   -1    0    0    0  501 -0.00000000000E+00  0.00000000000E+00  0.18164021898E+01  0.18164091820E+01  0.50400000000E-02 0.  1.
          2   -1    0    0  501    0  0.00000000000E+00 -0.00000000000E+00 -0.87441571872E+03  0.87441571872E+03  0.25500000000E-02 0. -1.
         24    2    1    2    0    0  0.00000000000E+00  0.88817841970E-15 -0.87259931653E+03  0.87623212790E+03  0.79706805012E+02 0.  0.
         66    2    3    3    0    0 -0.21885217702E+02  0.54484985116E+01 -0.79745174227E+03  0.79777310694E+03  0.20000037283E+01 0.  0.
        -13    1    3    3    0    0  0.21885217702E+02 -0.54484985116E+01 -0.75147574258E+02  0.78459020965E+02  0.10566000000E+00 0.  1.
         13    1    4    4    0    0 -0.11398830022E+02  0.29824698800E+01 -0.43066076886E+03  0.43082193241E+03  0.10566000000E+00 0. -1.
        -13    1    4    4    0    0 -0.94730156507E+01  0.18398127661E+01 -0.32622116301E+03  0.32636387866E+03  0.10566000000E+00 0.  1.
        -14    1    4    4    0    0 -0.10133720295E+01  0.62621586550E+00 -0.40569810405E+02  0.40587295864E+02  0.00000000000E+00 0.  1.
<mgrwt>
<rscale>  0 0.79706805E+02</rscale>
<asrwt>0</asrwt>
<pdfrwt beam="1">  1        2 0.13452516E+00 0.79706805E+02</pdfrwt>
<pdfrwt beam="2">  1       -1 0.27944773E-03 0.79706805E+02</pdfrwt>
<totfact> 0.35161092E+05</totfact>
</mgrwt>
</event>
<event>
 8    1  0.2561077E-020  0.7787578E+02  0.7818608E-02  0.1335190E+00
          2   -1    0    0  501    0  0.00000000000E+00  0.00000000000E+00  0.42106660655E+03  0.42106660656E+03  0.25500000000E-02 0. -1.
         -1   -1    0    0    0  501 -0.00000000000E+00 -0.00000000000E+00 -0.36007566948E+01  0.36007602221E+01  0.50400000000E-02 0.  1.
         24    2    1    2    0    0 -0.35527136788E-14  0.00000000000E+00  0.41746584985E+03  0.42466736678E+03  0.77875776801E+02 0.  0.
         66    2    3    3    0    0 -0.24875173041E+02 -0.22786478734E+02  0.31463247208E+03  0.31644208047E+03  0.19999904382E+01 0.  0.
        -13    1    3    3    0    0  0.24875173041E+02  0.22786478734E+02  0.10283337777E+03  0.10822528630E+03  0.10566000000E+00 0.  1.
         13    1    4    4    0    0 -0.46755123019E+01 -0.50595879806E+01  0.65344717685E+02  0.65706948942E+02  0.10566000000E+00 0.  1.
        -13    1    4    4    0    0 -0.50219886889E+01 -0.50999760451E+01  0.66941328121E+02  0.67322973053E+02  0.10566000000E+00 0. -1.
        -14    1    4    4    0    0 -0.15177672050E+02 -0.12626914708E+02  0.18234642627E+03  0.18341215848E+03  0.00000000000E+00 0.  1.
<mgrwt>
<rscale>  0 0.77875777E+02</rscale>
<asrwt>0</asrwt>
<pdfrwt beam="1">  1        2 0.64779448E-01 0.77875777E+02</pdfrwt>
<pdfrwt beam="2">  1       -1 0.55396310E-03 0.77875777E+02</pdfrwt>
<totfact> 0.30851734E+05</totfact>
</mgrwt>
</event>
<event>
 8    1  0.2561077E-020  0.8011505E+02  0.7818608E-02  0.1328725E+00
          2   -1    0    0  501    0  0.00000000000E+00  0.00000000000E+00  0.45407540016E+03  0.45407540017E+03  0.25500000000E-02 0. -1.
         -1   -1    0    0    0  501 -0.00000000000E+00 -0.00000000000E+00 -0.35337841455E+01  0.35337877396E+01  0.50400000000E-02 0.  1.
         24    2    1    2    0    0  0.00000000000E+00  0.00000000000E+00  0.45054161602E+03  0.45760918791E+03  0.80115049122E+02 0.  0.
         66    2    3    3    0    0  0.20862931437E+02 -0.20996526291E+02  0.37936578762E+03  0.38052400298E+03  0.19999995558E+01 0.  0.
        -13    1    3    3    0    0 -0.20862931437E+02  0.20996526291E+02  0.71175828392E+02  0.77085184931E+02  0.10566000000E+00 0.  1.
         13    1    4    4    0    0  0.15500079573E+02 -0.15365449615E+02  0.28727279166E+03  0.28810070722E+03  0.10566000000E+00 0. -1.
        -13    1    4    4    0    0  0.46016880706E+01 -0.44731801167E+01  0.74794587198E+02  0.75069476565E+02  0.10566000000E+00 0.  1.
        -14    1    4    4    0    0  0.76116379346E+00 -0.11578965590E+01  0.17298408761E+02  0.17353819189E+02  0.00000000000E+00 0.  1.
<mgrwt>
<rscale>  0 0.80115049E+02</rscale>
<asrwt>0</asrwt>
<pdfrwt beam="1">  1        2 0.69857751E-01 0.80115049E+02</pdfrwt>
<pdfrwt beam="2">  1       -1 0.54365940E-03 0.80115049E+02</pdfrwt>
<totfact> 0.29397062E+05</totfact>
</mgrwt>
</event>
<event>
 8    1  0.2561077E-020  0.7826851E+02  0.7818608E-02  0.1334038E+00
         -1   -1    0    0    0  501 -0.00000000000E+00  0.00000000000E+00  0.22847304389E+02  0.22847304945E+02  0.50400000000E-02 0.  1.
          2   -1    0    0  501    0  0.00000000000E+00 -0.00000000000E+00 -0.67031530941E+02  0.67031530989E+02  0.25500000000E-02 0. -1.
         24    2    1    2    0    0  0.00000000000E+00  0.00000000000E+00 -0.44184226552E+02  0.89878835934E+02  0.78268507542E+02 0.  0.
         66    2    3    3    0    0 -0.41704951385E+01  0.35047923840E+02 -0.41449628617E+02  0.54477717518E+02  0.19999995812E+01 0.  0.
        -13    1    3    3    0    0  0.41704951385E+01 -0.35047923840E+02 -0.27345979349E+01  0.35401118416E+02  0.10566000000E+00 0.  1.
         13    1    4    4    0    0 -0.30650816959E+01  0.17982019439E+02 -0.21431220918E+02  0.28143492018E+02  0.10566000000E+00 0. -1.
        -13    1    4    4    0    0 -0.36871422778E+00  0.96295678189E+01 -0.11327471476E+02  0.14872367015E+02  0.10566000000E+00 0.  1.
         14    1    4    4    0    0 -0.73669921487E+00  0.74363365817E+01 -0.86909362225E+01  0.11461858484E+02  0.00000000000E+00 0. -1.
<mgrwt>
<rscale>  0 0.78268508E+02</rscale>
<asrwt>0</asrwt>
<pdfrwt beam="1">  1        2 0.10312543E-01 0.78268508E+02</pdfrwt>
<pdfrwt beam="2">  1       -1 0.35149700E-02 0.78268508E+02</pdfrwt>
<totfact> 0.16952807E+05</totfact>
</mgrwt>
</event>
<event>
 8    1  0.2561077E-020  0.8113412E+02  0.7818608E-02  0.1325863E+00
         -1   -1    0    0    0  501 -0.00000000000E+00  0.00000000000E+00  0.49632696429E+02  0.49632696685E+02  0.50400000000E-02 0.  1.
          2   -1    0    0  501    0  0.00000000000E+00 -0.00000000000E+00 -0.33157301996E+02  0.33157302094E+02  0.25500000000E-02 0. -1.
         24    2    1    2    0    0 -0.35527136788E-14  0.35527136788E-14  0.16475394432E+02  0.82789998779E+02  0.81134119063E+02 0.  0.
         66    2    3    3    0    0  0.26539387670E+02 -0.30533915146E+02  0.55386489894E+01  0.40881972853E+02  0.19999999219E+01 0.  0.
        -13    1    3    3    0    0 -0.26539387670E+02  0.30533915146E+02  0.10936745443E+02  0.41908025926E+02  0.10566000000E+00 0.  1.
         13    1    4    4    0    0  0.23366121224E+02 -0.26627441876E+02  0.51218809197E+01  0.35794428478E+02  0.10566000000E+00 0. -1.
        -13    1    4    4    0    0  0.18795214120E+01 -0.24284783747E+01  0.53866387002E+00  0.31195241232E+01  0.10566000000E+00 0.  1.
         14    1    4    4    0    0  0.12937450338E+01 -0.14779948958E+01 -0.12189580030E+00  0.19680202516E+01  0.00000000000E+00 0. -1.
<mgrwt>
<rscale>  0 0.81134119E+02</rscale>
<asrwt>0</asrwt>
<pdfrwt beam="1">  1        2 0.51011234E-02 0.81134119E+02</pdfrwt>
<pdfrwt beam="2">  1       -1 0.76357994E-02 0.81134119E+02</pdfrwt>
<totfact> 0.13195823E+05</totfact>
</mgrwt>
</event>
<event>
 8    1  0.2561077E-020  0.7935277E+02  0.7818608E-02  0.1330898E+00
         -1   -1    0    0    0  501 -0.00000000000E+00  0.00000000000E+00  0.14659810126E+01  0.14659896763E+01  0.50400000000E-02 0.  1.
          2   -1    0    0  501    0  0.00000000000E+00 -0.00000000000E+00 -0.10738275108E+04  0.10738275108E+04  0.25500000000E-02 0. -1.
         24    2    1    2    0    0  0.00000000000E+00  0.00000000000E+00 -0.10723615298E+04  0.10752935005E+04  0.79352766842E+02 0.  0.
         66    2    3    3    0    0 -0.87681294962E+01 -0.12470923013E+02 -0.10325253267E+04  0.10326397989E+04  0.20000100925E+01 0.  0.
        -13    1    3    3    0    0  0.87681294962E+01  0.12470923013E+02 -0.39836203124E+02  0.42653701586E+02  0.10566000000E+00 0.  1.
         13    1    4    4    0    0 -0.41107633472E+01 -0.49019382889E+01 -0.46836283511E+03  0.46840653695E+03  0.10566000000E+00 0. -1.
        -13    1    4    4    0    0 -0.10138908708E+00 -0.47432850965E+00 -0.26242403845E+02  0.26247098714E+02  0.10566000000E+00 0.  1.
         14    1    4    4    0    0 -0.45559770619E+01 -0.70946562145E+01 -0.53792008774E+03  0.53798616327E+03  0.00000000000E+00 0. -1.
<mgrwt>
<rscale>  0 0.79352767E+02</rscale>
<asrwt>0</asrwt>
<pdfrwt beam="1">  1        2 0.16520360E+00 0.79352767E+02</pdfrwt>
<pdfrwt beam="2">  1       -1 0.22553707E-03 0.79352767E+02</pdfrwt>
<totfact> 0.36021706E+05</totfact>
</mgrwt>
</event>
<event>
 8    1  0.2561077E-020  0.8347609E+02  0.7818608E-02  0.1319467E+00
         -1   -1    0    0    0  501 -0.00000000000E+00  0.00000000000E+00  0.67916955925E+01  0.67916974626E+01  0.50400000000E-02 0.  1.
          2   -1    0    0  501    0  0.00000000000E+00 -0.00000000000E+00 -0.25649914495E+03  0.25649914496E+03  0.25500000000E-02 0. -1.
         24    2    1    2    0    0  0.17763568394E-14  0.35527136788E-14 -0.24970744936E+03  0.26329084243E+03  0.83476089034E+02 0.  0.
         66    2    3    3    0    0 -0.99881005757E+01 -0.21978156094E+02 -0.23222247847E+03  0.23348250686E+03  0.20000006538E+01 0.  0.
        -13    1    3    3    0    0  0.99881005757E+01  0.21978156094E+02 -0.17484970886E+02  0.29808335568E+02  0.10566000000E+00 0.  1.
         13    1    4    4    0    0 -0.25411032338E+01 -0.69268665902E+01 -0.76582925466E+02  0.76937600193E+02  0.10566000000E+00 0. -1.
        -13    1    4    4    0    0 -0.42837756205E+01 -0.78905760559E+01 -0.84955144863E+02  0.85428330938E+02  0.10566000000E+00 0.  1.
         14    1    4    4    0    0 -0.31632217214E+01 -0.71607134479E+01 -0.70684408144E+02  0.71116575729E+02  0.00000000000E+00 0. -1.
<mgrwt>
<rscale>  0 0.83476089E+02</rscale>
<asrwt>0</asrwt>
<pdfrwt beam="1">  1        2 0.39461400E-01 0.83476089E+02</pdfrwt>
<pdfrwt beam="2">  1       -1 0.10448766E-02 0.83476089E+02</pdfrwt>
<totfact> 0.21536341E+05</totfact>
</mgrwt>
</event>
<event>
 8    1  0.2561077E-020  0.8177708E+02  0.7818608E-02  0.1324083E+00
         -1   -1    0    0    0  501 -0.00000000000E+00  0.00000000000E+00  0.25433421846E+01  0.25433471784E+01  0.50400000000E-02 0.  1.
          2   -1    0    0  501    0  0.00000000000E+00 -0.00000000000E+00 -0.65735207289E+03  0.65735207290E+03  0.25500000000E-02 0. -1.
         24    2    1    2    0    0  0.35527136788E-14 -0.88817841970E-15 -0.65480873071E+03  0.65989542008E+03  0.81777084967E+02 0.  0.
         66    2    3    3    0    0 -0.31571446106E+02  0.66483985053E+01 -0.52996582037E+03  0.53095077754E+03  0.20000006664E+01 0.  0.
        -13    1    3    3    0    0  0.31571446106E+02 -0.66483985053E+01 -0.12484291034E+03  0.12894464253E+03  0.10566000000E+00 0.  1.
         13    1    4    4    0    0 -0.10171638454E+01  0.29788525029E+00 -0.16447455588E+02  0.16481908787E+02  0.10566000000E+00 0. -1.
        -13    1    4    4    0    0 -0.55746292473E+01  0.13934886422E+01 -0.84329871243E+02  0.84525479293E+02  0.10566000000E+00 0.  1.
        -14    1    4    4    0    0 -0.24979653013E+02  0.49570246128E+01 -0.42918849354E+03  0.42994338946E+03  0.00000000000E+00 0.  1.
<mgrwt>
<rscale>  0 0.81777085E+02</rscale>
<asrwt>0</asrwt>
<pdfrwt beam="1">  1        2 0.10113095E+00 0.81777085E+02</pdfrwt>
<pdfrwt beam="2">  1       -1 0.39128432E-03 0.81777085E+02</pdfrwt>
<totfact> 0.31119008E+05</totfact>
</mgrwt>
</event>
<event>
 8    1  0.2561077E-020  0.8208687E+02  0.7818608E-02  0.1323231E+00
          2   -1    0    0  501    0  0.00000000000E+00  0.00000000000E+00  0.51986533529E+02  0.51986533592E+02  0.25500000000E-02 0. -1.
         -1   -1    0    0    0  501 -0.00000000000E+00 -0.00000000000E+00 -0.32403840969E+02  0.32403841361E+02  0.50400000000E-02 0.  1.
         24    2    1    2    0    0  0.00000000000E+00  0.71054273576E-14  0.19582692560E+02  0.84390374953E+02  0.82086865799E+02 0.  0.
         66    2    3    3    0    0 -0.10296746686E+02  0.34679230507E+02  0.29675892120E+02  0.46833007337E+02  0.19999955571E+01 0.  0.
        -13    1    3    3    0    0  0.10296746686E+02 -0.34679230507E+02 -0.10093199560E+02  0.37557367616E+02  0.10566000000E+00 0.  1.
         13    1    4    4    0    0 -0.22276362412E+01  0.91921449892E+01  0.74834894279E+01  0.12061163741E+02  0.10566000000E+00 0.  1.
        -13    1    4    4    0    0 -0.16654560462E+01  0.72001631835E+01  0.59275863397E+01  0.94743621189E+01  0.10566000000E+00 0. -1.
         14    1    4    4    0    0 -0.64036543987E+01  0.18286922334E+02  0.16264816352E+02  0.25297481477E+02  0.00000000000E+00 0. -1.
<mgrwt>
<rscale>  0 0.82086866E+02</rscale>
<asrwt>0</asrwt>
<pdfrwt beam="1">  1        2 0.79979282E-02 0.82086866E+02</pdfrwt>
<pdfrwt beam="2">  1       -1 0.49852064E-02 0.82086866E+02</pdfrwt>
<totfact> 0.14044197E+05</totfact>
</mgrwt>
</event>
<event>
 8    1  0.2561077E-020  0.8039891E+02  0.7818608E-02  0.1327923E+00
          2   -1    0    0  501    0  0.00000000000E+00  0.00000000000E+00  0.18244731161E+02  0.18244731339E+02  0.25500000000E-02 0. -1.
         -1   -1    0    0    0  501 -0.00000000000E+00 -0.00000000000E+00 -0.88573308858E+02  0.88573309001E+02  0.50400000000E-02 0.  1.
         24    2    1    2    0    0  0.22204460493E-15  0.00000000000E+00 -0.70328577697E+02  0.10681804034E+03  0.80398911070E+02 0.  0.
         66    2    3    3    0    0  0.12066656677E+01 -0.39996173263E+02 -0.30424972748E+02  0.50307344276E+02  0.20000009094E+01 0.  0.
        -13    1    3    3    0    0 -0.12066656677E+01  0.39996173263E+02 -0.39903604949E+02  0.56510696064E+02  0.10566000000E+00 0.  1.
         13    1    4    4    0    0  0.11813627335E+01 -0.25210638802E+02 -0.19106801433E+02  0.31655219977E+02  0.10566000000E+00 0. -1.
        -13    1    4    4    0    0 -0.23744959528E+00 -0.11697612442E+02 -0.93870554024E+01  0.15000616398E+02  0.10566000000E+00 0.  1.
        -14    1    4    4    0    0  0.26275252945E+00 -0.30879220182E+01 -0.19311159130E+01  0.36515079011E+01  0.00000000000E+00 0.  1.
<mgrwt>
<rscale>  0 0.80398911E+02</rscale>
<asrwt>0</asrwt>
<pdfrwt beam="1">  1        2 0.28068818E-02 0.80398911E+02</pdfrwt>
<pdfrwt beam="2">  1       -1 0.13626663E-01 0.80398911E+02</pdfrwt>
<totfact> 0.12010717E+05</totfact>
</mgrwt>
</event>
<event>
 8    1  0.2561077E-020  0.8015760E+02  0.7818608E-02  0.1328605E+00
         -1   -1    0    0    0  501 -0.00000000000E+00  0.00000000000E+00  0.49745100822E+01  0.49745126354E+01  0.50400000000E-02 0.  1.
          2   -1    0    0  501    0  0.00000000000E+00 -0.00000000000E+00 -0.32290817099E+03  0.32290817100E+03  0.25500000000E-02 0. -1.
         24    2    1    2    0    0  0.35527136788E-14  0.71054273576E-14 -0.31793366091E+03  0.32788268363E+03  0.80157604066E+02 0.  0.
         66    2    3    3    0    0 -0.17057567921E+02 -0.36235714587E+02 -0.15675965536E+03  0.16180722229E+03  0.19999998678E+01 0.  0.
        -13    1    3    3    0    0  0.17057567921E+02  0.36235714587E+02 -0.16117400554E+03  0.16607546135E+03  0.10566000000E+00 0.  1.
         13    1    4    4    0    0 -0.34617542427E+01 -0.73141189640E+01 -0.32868040001E+02  0.33849657254E+02  0.10566000000E+00 0. -1.
        -13    1    4    4    0    0 -0.11530851113E+02 -0.24393712733E+02 -0.10211977307E+03  0.10562420634E+03  0.10566000000E+00 0.  1.
        -14    1    4    4    0    0 -0.20649625645E+01 -0.45278828898E+01 -0.21771842289E+02  0.22333358694E+02  0.00000000000E+00 0.  1.
<mgrwt>
<rscale>  0 0.80157604E+02</rscale>
<asrwt>0</asrwt>
<pdfrwt beam="1">  1        2 0.49678164E-01 0.80157604E+02</pdfrwt>
<pdfrwt beam="2">  1       -1 0.76530970E-03 0.80157604E+02</pdfrwt>
<totfact> 0.26046880E+05</totfact>
</mgrwt>
</event>
<event>
 8    1  0.2561077E-020  0.7932287E+02  0.7818608E-02  0.1330984E+00
          2   -1    0    0  501    0  0.00000000000E+00  0.00000000000E+00  0.62994631920E+02  0.62994631971E+02  0.25500000000E-02 0. -1.
         -1   -1    0    0    0  501 -0.00000000000E+00 -0.00000000000E+00 -0.24970846726E+02  0.24970847234E+02  0.50400000000E-02 0.  1.
         24    2    1    2    0    0  0.35527136788E-14  0.00000000000E+00  0.38023785194E+02  0.87965479205E+02  0.79322867392E+02 0.  0.
         66    2    3    3    0    0  0.22414838511E+02  0.11500018176E+01  0.55252617437E+02  0.59670756833E+02  0.19999994392E+01 0.  0.
        -13    1    3    3    0    0 -0.22414838511E+02 -0.11500018176E+01 -0.17228832243E+02  0.28294722372E+02  0.10566000000E+00 0.  1.
         13    1    4    4    0    0  0.54858850024E+01  0.51220247122E+00  0.12508134538E+02  0.13668280041E+02  0.10566000000E+00 0.  1.
        -13    1    4    4    0    0  0.49870084509E+01  0.66585506610E+00  0.11461576520E+02  0.12517688150E+02  0.10566000000E+00 0. -1.
         14    1    4    4    0    0  0.11941945057E+02 -0.28055719703E-01  0.31282906379E+02  0.33484788642E+02  0.00000000000E+00 0. -1.
<mgrwt>
<rscale>  0 0.79322867E+02</rscale>
<asrwt>0</asrwt>
<pdfrwt beam="1">  1        2 0.96914818E-02 0.79322867E+02</pdfrwt>
<pdfrwt beam="2">  1       -1 0.38416688E-02 0.79322867E+02</pdfrwt>
<totfact> 0.16111313E+05</totfact>
</mgrwt>
</event>
<event>
 8    1  0.2561077E-020  0.7858375E+02  0.7818608E-02  0.1333119E+00
          2   -1    0    0  501    0  0.00000000000E+00  0.00000000000E+00  0.53049398859E+03  0.53049398860E+03  0.25500000000E-02 0. -1.
         -1   -1    0    0    0  501 -0.00000000000E+00 -0.00000000000E+00 -0.29102125153E+01  0.29102168795E+01  0.50400000000E-02 0.  1.
         24    2    1    2    0    0  0.00000000000E+00  0.00000000000E+00  0.52758377608E+03  0.53340420548E+03  0.78583749223E+02 0.  0.
         66    2    3    3    0    0 -0.38314901665E+02 -0.57475893306E+01  0.30730810412E+03  0.30974721522E+03  0.20000009285E+01 0.  0.
        -13    1    3    3    0    0  0.38314901665E+02  0.57475893306E+01  0.22027567195E+03  0.22365699026E+03  0.10566000000E+00 0.  1.
         13    1    4    4    0    0 -0.21600441695E+02 -0.32277749737E+01  0.17123486966E+03  0.17262209987E+03  0.10566000000E+00 0. -1.
        -13    1    4    4    0    0 -0.46040301349E+01 -0.11402329757E+01  0.35276592957E+02  0.35594190529E+02  0.10566000000E+00 0.  1.
         14    1    4    4    0    0 -0.12110429835E+02 -0.13795813811E+01  0.10079664151E+03  0.10153092482E+03  0.00000000000E+00 0. -1.
<mgrwt>
<rscale>  0 0.78583749E+02</rscale>
<asrwt>0</asrwt>
<pdfrwt beam="1">  1        2 0.81614354E-01 0.78583749E+02</pdfrwt>
<pdfrwt beam="2">  1       -1 0.44772592E-03 0.78583749E+02</pdfrwt>
<totfact> 0.32496907E+05</totfact>
</mgrwt>
</event>
<event>
 8    1  0.2561077E-020  0.7755283E+02  0.7818608E-02  0.1336143E+00
          2   -1    0    0  501    0  0.00000000000E+00  0.00000000000E+00  0.17521330936E+02  0.17521331122E+02  0.25500000000E-02 0. -1.
         -1   -1    0    0    0  501 -0.00000000000E+00 -0.00000000000E+00 -0.85815994215E+02  0.85815994363E+02  0.50400000000E-02 0.  1.
         24    2    1    2    0    0  0.35527136788E-14  0.00000000000E+00 -0.68294663279E+02  0.10333732548E+03  0.77552832353E+02 0.  0.
         66    2    3    3    0    0  0.29615954114E+02  0.18254067274E+02 -0.11428316254E+02  0.36673179963E+02  0.20000015210E+01 0.  0.
        -13    1    3    3    0    0 -0.29615954114E+02 -0.18254067274E+02 -0.56866347025E+02  0.66664145522E+02  0.10566000000E+00 0.  1.
         13    1    4    4    0    0  0.20450967576E+02  0.11839844897E+02 -0.81529280886E+01  0.24998107977E+02  0.10566000000E+00 0.  1.
        -13    1    4    4    0    0  0.61772062046E+01  0.43041851435E+01 -0.18849425674E+01  0.77619623010E+01  0.10566000000E+00 0. -1.
        -14    1    4    4    0    0  0.29877803336E+01  0.21100372329E+01 -0.13904455976E+01  0.39131096849E+01  0.00000000000E+00 0.  1.
<mgrwt>
<rscale>  0 0.77552832E+02</rscale>
<asrwt>0</asrwt>
<pdfrwt beam="1">  1        2 0.26955894E-02 0.77552832E+02</pdfrwt>
<pdfrwt beam="2">  1       -1 0.13202460E-01 0.77552832E+02</pdfrwt>
<totfact> 0.13218133E+05</totfact>
</mgrwt>
</event>
<event>
 8    1  0.2561077E-020  0.7994617E+02  0.7818608E-02  0.1329204E+00
         -1   -1    0    0    0  501 -0.00000000000E+00  0.00000000000E+00  0.59512314179E+01  0.59512335520E+01  0.50400000000E-02 0.  1.
          2   -1    0    0  501    0  0.00000000000E+00 -0.00000000000E+00 -0.26849018056E+03  0.26849018057E+03  0.25500000000E-02 0. -1.
         24    2    1    2    0    0  0.00000000000E+00  0.00000000000E+00 -0.26253894914E+03  0.27444141412E+03  0.79946169200E+02 0.  0.
         66    2    3    3    0    0 -0.39791468328E+02 -0.35058561905E+01 -0.13284994363E+03  0.13873989868E+03  0.19999959025E+01 0.  0.
        -13    1    3    3    0    0  0.39791468328E+02  0.35058561905E+01 -0.12968900551E+03  0.13570151544E+03  0.10566000000E+00 0.  1.
         13    1    4    4    0    0 -0.33290067636E+02 -0.29499342822E+01 -0.11070111534E+03  0.11563597544E+03  0.10566000000E+00 0. -1.
        -13    1    4    4    0    0 -0.13963523579E+01 -0.37826197939E+00 -0.42674349471E+01  0.45072216604E+01  0.10566000000E+00 0.  1.
         14    1    4    4    0    0 -0.51050483339E+01 -0.17765992892E+00 -0.17881393345E+02  0.18596701576E+02  0.00000000000E+00 0. -1.
<mgrwt>
<rscale>  0 0.79946169E+02</rscale>
<asrwt>0</asrwt>
<pdfrwt beam="1">  1        2 0.41306172E-01 0.79946169E+02</pdfrwt>
<pdfrwt beam="2">  1       -1 0.91557444E-03 0.79946169E+02</pdfrwt>
<totfact> 0.24533434E+05</totfact>
</mgrwt>
</event>
<event>
 8    1  0.2561077E-020  0.8025802E+02  0.7818608E-02  0.1328321E+00
         -1   -1    0    0    0  501 -0.00000000000E+00  0.00000000000E+00  0.14924007289E+02  0.14924008140E+02  0.50400000000E-02 0.  1.
          2   -1    0    0  501    0  0.00000000000E+00 -0.00000000000E+00 -0.10790247732E+03  0.10790247735E+03  0.25500000000E-02 0. -1.
         24    2    1    2    0    0 -0.35527136788E-14  0.00000000000E+00 -0.92978470036E+02  0.12282648549E+03  0.80258019218E+02 0.  0.
         66    2    3    3    0    0  0.17479847750E+02  0.35921190472E+02 -0.51919132894E+02  0.65539861115E+02  0.20000080534E+01 0.  0.
        -13    1    3    3    0    0 -0.17479847750E+02 -0.35921190472E+02 -0.41059337142E+02  0.57286624380E+02  0.10566000000E+00 0.  1.
         13    1    4    4    0    0  0.87259487786E+01  0.19733629591E+02 -0.28043196577E+02  0.35383475765E+02  0.10566000000E+00 0. -1.
        -13    1    4    4    0    0  0.68699195290E+00  0.10010487452E+01 -0.17884929131E+01  0.21642383116E+01  0.10566000000E+00 0.  1.
         14    1    4    4    0    0  0.80669070180E+01  0.15186512136E+02 -0.22087443404E+02  0.27992147038E+02  0.00000000000E+00 0. -1.
<mgrwt>
<rscale>  0 0.80258019E+02</rscale>
<asrwt>0</asrwt>
<pdfrwt beam="1">  1        2 0.16600381E-01 0.80258019E+02</pdfrwt>
<pdfrwt beam="2">  1       -1 0.22960013E-02 0.80258019E+02</pdfrwt>
<totfact> 0.17957449E+05</totfact>
</mgrwt>
</event>
<event>
 8    1  0.2561077E-020  0.7936652E+02  0.7818608E-02  0.1330859E+00
          2   -1    0    0  501    0  0.00000000000E+00  0.00000000000E+00  0.37012932957E+02  0.37012933045E+02  0.25500000000E-02 0. -1.
         -1   -1    0    0    0  501 -0.00000000000E+00 -0.00000000000E+00 -0.42546236823E+02  0.42546237121E+02  0.50400000000E-02 0.  1.
         24    2    1    2    0    0 -0.71054273576E-14  0.88817841970E-15 -0.55333038658E+01  0.79559170166E+02  0.79366517536E+02 0.  0.
         66    2    3    3    0    0  0.37711837645E+02 -0.46695528512E+01 -0.14143576608E+02  0.40595913332E+02  0.19999993912E+01 0.  0.
        -13    1    3    3    0    0 -0.37711837645E+02  0.46695528512E+01  0.86102727426E+01  0.38963256834E+02  0.10566000000E+00 0.  1.
         13    1    4    4    0    0  0.21742006291E+02 -0.23299521086E+01 -0.88229420189E+01  0.23579630707E+02  0.10566000000E+00 0. -1.
        -13    1    4    4    0    0  0.23509288690E+01 -0.15808898317E+00 -0.10109216978E+01  0.25661226370E+01  0.10566000000E+00 0.  1.
         14    1    4    4    0    0  0.13618902485E+02 -0.21815117595E+01 -0.43097128918E+01  0.14450159988E+02  0.00000000000E+00 0. -1.
<mgrwt>
<rscale>  0 0.79366518E+02</rscale>
<asrwt>0</asrwt>
<pdfrwt beam="1">  1        2 0.56942974E-02 0.79366518E+02</pdfrwt>
<pdfrwt beam="2">  1       -1 0.65455749E-02 0.79366518E+02</pdfrwt>
<totfact> 0.14344004E+05</totfact>
</mgrwt>
</event>
<event>
 8    1  0.2561077E-020  0.7687531E+02  0.7818608E-02  0.1338160E+00
          2   -1    0    0  501    0  0.00000000000E+00  0.00000000000E+00  0.27970795123E+02  0.27970795239E+02  0.25500000000E-02 0. -1.
         -1   -1    0    0    0  501 -0.00000000000E+00 -0.00000000000E+00 -0.52821286622E+02  0.52821286863E+02  0.50400000000E-02 0.  1.
         24    2    1    2    0    0  0.00000000000E+00  0.00000000000E+00 -0.24850491500E+02  0.80792082102E+02  0.76875312049E+02 0.  0.
         66    2    3    3    0    0  0.22014053394E+02 -0.20941846980E+02  0.12264109004E+02  0.32826633742E+02  0.20000028391E+01 0.  0.
        -13    1    3    3    0    0 -0.22014053394E+02  0.20941846980E+02 -0.37114600504E+02  0.47965448360E+02  0.10566000000E+00 0.  1.
         13    1    4    4    0    0  0.12758401371E+02 -0.12045528031E+02  0.60525887679E+01  0.18561156912E+02  0.10566000000E+00 0. -1.
        -13    1    4    4    0    0  0.62644224263E+01 -0.58265766750E+01  0.41712356310E+01  0.95185269244E+01  0.10566000000E+00 0.  1.
         14    1    4    4    0    0  0.29912295974E+01 -0.30697422739E+01  0.20402846052E+01  0.47469499052E+01  0.00000000000E+00 0. -1.
<mgrwt>
<rscale>  0 0.76875312E+02</rscale>
<asrwt>0</asrwt>
<pdfrwt beam="1">  1        2 0.43031993E-02 0.76875312E+02</pdfrwt>
<pdfrwt beam="2">  1       -1 0.81263518E-02 0.76875312E+02</pdfrwt>
<totfact> 0.14839128E+05</totfact>
</mgrwt>
</event>
<event>
 8    1  0.2561077E-020  0.7395780E+02  0.7818608E-02  0.1347129E+00
          2   -1    0    0  501    0  0.00000000000E+00  0.00000000000E+00  0.15195280151E+03  0.15195280153E+03  0.25500000000E-02 0. -1.
         -1   -1    0    0    0  501 -0.00000000000E+00 -0.00000000000E+00 -0.89991019932E+01  0.89991034045E+01  0.50400000000E-02 0.  1.
         24    2    1    2    0    0  0.22204460493E-15  0.00000000000E+00  0.14295369951E+03  0.16095190493E+03  0.73957795376E+02 0.  0.
         66    2    3    3    0    0  0.16542386472E+01 -0.16086814288E+02  0.14383581341E+03  0.14475587491E+03  0.20000007966E+01 0.  0.
        -13    1    3    3    0    0 -0.16542386472E+01  0.16086814288E+02 -0.88211389653E+00  0.16196030019E+02  0.10566000000E+00 0.  1.
         13    1    4    4    0    0  0.50386452806E+00 -0.50590625489E+01  0.46872340184E+02  0.47147379903E+02  0.10566000000E+00 0. -1.
        -13    1    4    4    0    0  0.45320369548E+00 -0.12426289959E+01  0.85318686438E+01  0.86344349556E+01  0.10566000000E+00 0.  1.
        -14    1    4    4    0    0  0.69717042367E+00 -0.97851227427E+01  0.88431604582E+02  0.88974060055E+02  0.00000000000E+00 0.  1.
<mgrwt>
<rscale>  0 0.73957795E+02</rscale>
<asrwt>0</asrwt>
<pdfrwt beam="1">  1        2 0.23377352E-01 0.73957795E+02</pdfrwt>
<pdfrwt beam="2">  1       -1 0.13844775E-02 0.73957795E+02</pdfrwt>
<totfact> 0.24748318E+05</totfact>
</mgrwt>
</event>
<event>
 8    1  0.2561077E-020  0.7969675E+02  0.7818608E-02  0.1329914E+00
          2   -1    0    0  501    0  0.00000000000E+00  0.00000000000E+00  0.11035370513E+02  0.11035370808E+02  0.25500000000E-02 0. -1.
         -1   -1    0    0    0  501 -0.00000000000E+00 -0.00000000000E+00 -0.14389120733E+03  0.14389120742E+03  0.50400000000E-02 0.  1.
         24    2    1    2    0    0  0.00000000000E+00  0.00000000000E+00 -0.13285583682E+03  0.15492657823E+03  0.79696745634E+02 0.  0.
         66    2    3    3    0    0  0.36888812410E+02 -0.54915194824E+01 -0.39327553134E+02  0.54236497882E+02  0.19999999246E+01 0.  0.
        -13    1    3    3    0    0 -0.36888812410E+02  0.54915194824E+01 -0.93528283681E+02  0.10069008034E+03  0.10566000000E+00 0.  1.
         13    1    4    4    0    0  0.11620025763E+02 -0.17376296033E+01 -0.12016892711E+02  0.16806582932E+02  0.10566000000E+00 0. -1.
        -13    1    4    4    0    0  0.13670128072E+02 -0.13226754684E+01 -0.14129471060E+02  0.19704694577E+02  0.10566000000E+00 0.  1.
         14    1    4    4    0    0  0.11598658575E+02 -0.24312144106E+01 -0.13181189363E+02  0.17725220373E+02  0.00000000000E+00 0. -1.
<mgrwt>
<rscale>  0 0.79696746E+02</rscale>
<asrwt>0</asrwt>
<pdfrwt beam="1">  1        2 0.16977494E-02 0.79696746E+02</pdfrwt>
<pdfrwt beam="2">  1       -1 0.22137107E-01 0.79696746E+02</pdfrwt>
<totfact> 0.11005979E+05</totfact>
</mgrwt>
</event>
<event>
 8    1  0.2561077E-020  0.7875638E+02  0.7818608E-02  0.1332618E+00
         -1   -1    0    0    0  501 -0.00000000000E+00  0.00000000000E+00  0.71115554778E+02  0.71115554956E+02  0.50400000000E-02 0.  1.
          2   -1    0    0  501    0  0.00000000000E+00 -0.00000000000E+00 -0.21804540571E+02  0.21804540720E+02  0.25500000000E-02 0. -1.
         24    2    1    2    0    0  0.00000000000E+00  0.35527136788E-14  0.49311014207E+02  0.92920095676E+02  0.78756384238E+02 0.  0.
         66    2    3    3    0    0  0.16929780405E+02  0.24253791456E+02 -0.59539650578E+01  0.30237618366E+02  0.19999999917E+01 0.  0.
        -13    1    3    3    0    0 -0.16929780405E+02 -0.24253791456E+02  0.55264979265E+02  0.62682477310E+02  0.10566000000E+00 0.  1.
         13    1    4    4    0    0  0.12118357587E+02  0.18018213061E+02 -0.41938604668E+01  0.22115836457E+02  0.10566000000E+00 0. -1.
        -13    1    4    4    0    0  0.31681263242E+01  0.38209984999E+01 -0.69595384054E+00  0.50132394443E+01  0.10566000000E+00 0.  1.
         14    1    4    4    0    0  0.16432964933E+01  0.24145798952E+01 -0.10641507505E+01  0.31085424648E+01  0.00000000000E+00 0. -1.
<mgrwt>
<rscale>  0 0.78756384E+02</rscale>
<asrwt>0</asrwt>
<pdfrwt beam="1">  1        2 0.33545447E-02 0.78756384E+02</pdfrwt>
<pdfrwt beam="2">  1       -1 0.10940855E-01 0.78756384E+02</pdfrwt>
<totfact> 0.13210234E+05</totfact>
</mgrwt>
</event>
<event>
 8    1  0.2561077E-020  0.8360623E+02  0.7818608E-02  0.1319118E+00
          2   -1    0    0  501    0  0.00000000000E+00  0.00000000000E+00  0.13993882198E+04  0.13993882198E+04  0.25500000000E-02 0. -1.
         -1   -1    0    0    0  501 -0.00000000000E+00 -0.00000000000E+00 -0.12487551338E+01  0.12487653046E+01  0.50400000000E-02 0.  1.
         24    2    1    2    0    0  0.00000000000E+00  0.00000000000E+00  0.13981394646E+04  0.14006369851E+04  0.83606228190E+02 0.  0.
         66    2    3    3    0    0  0.88749353532E+01 -0.14535505703E+02  0.13385933440E+04  0.13387031732E+04  0.19999998630E+01 0.  0.
        -13    1    3    3    0    0 -0.88749353532E+01  0.14535505703E+02  0.59546120632E+02  0.61933811847E+02  0.10566000000E+00 0.  1.
         13    1    4    4    0    0  0.27103030689E+01 -0.38484175224E+01  0.38344134138E+03  0.38347024592E+03  0.10566000000E+00 0. -1.
        -13    1    4    4    0    0  0.20369279949E+01 -0.26032020682E+01  0.21899562310E+03  0.21902059227E+03  0.10566000000E+00 0.  1.
         14    1    4    4    0    0  0.41277042895E+01 -0.80838861125E+01  0.73615637952E+03  0.73621233504E+03  0.00000000000E+00 0. -1.
<mgrwt>
<rscale>  0 0.83606228E+02</rscale>
<asrwt>0</asrwt>
<pdfrwt beam="1">  1        2 0.21529013E+00 0.83606228E+02</pdfrwt>
<pdfrwt beam="2">  1       -1 0.19211728E-03 0.83606228E+02</pdfrwt>
<totfact> 0.30328135E+05</totfact>
</mgrwt>
</event>
<event>
 8    1  0.2561077E-020  0.8010238E+02  0.7818608E-02  0.1328761E+00
          2   -1    0    0  501    0  0.00000000000E+00  0.00000000000E+00  0.48161910861E+03  0.48161910862E+03  0.25500000000E-02 0. -1.
         -1   -1    0    0    0  501 -0.00000000000E+00 -0.00000000000E+00 -0.33306334608E+01  0.33306372741E+01  0.50400000000E-02 0.  1.
         24    2    1    2    0    0  0.17763568394E-14  0.35527136788E-14  0.47828847515E+03  0.48494974590E+03  0.80102375615E+02 0.  0.
         66    2    3    3    0    0  0.15370732819E+02  0.22575579116E+02  0.41643957251E+03  0.41733899141E+03  0.19999997719E+01 0.  0.
        -13    1    3    3    0    0 -0.15370732819E+02 -0.22575579116E+02  0.61848902643E+02  0.67610754485E+02  0.10566000000E+00 0.  1.
         13    1    4    4    0    0  0.20862472702E+00  0.32105188052E+00  0.69143490683E+01  0.69257480218E+01  0.10566000000E+00 0.  1.
        -13    1    4    4    0    0  0.24309947255E+01  0.31336050603E+01  0.52401280575E+02  0.52551256750E+02  0.10566000000E+00 0.  1.
         14    1    4    4    0    0  0.12731113366E+02  0.19120922175E+02  0.35712394287E+03  0.35786198664E+03  0.00000000000E+00 0. -1.
<mgrwt>
<rscale>  0 0.80102376E+02</rscale>
<asrwt>0</asrwt>
<pdfrwt beam="1">  1        2 0.74095274E-01 0.80102376E+02</pdfrwt>
<pdfrwt beam="2">  1       -1 0.51240526E-03 0.80102376E+02</pdfrwt>
<totfact> 0.29986181E+05</totfact>
</mgrwt>
</event>
<event>
 8    1  0.2561077E-020  0.7785266E+02  0.7818608E-02  0.1335258E+00
         -1   -1    0    0    0  501 -0.00000000000E+00  0.00000000000E+00  0.30826291215E+02  0.30826291627E+02  0.50400000000E-02 0.  1.
          2   -1    0    0  501    0  0.00000000000E+00 -0.00000000000E+00 -0.49154769573E+02  0.49154769639E+02  0.25500000000E-02 0. -1.
         24    2    1    2    0    0  0.35527136788E-14  0.17763568394E-14 -0.18328478358E+02  0.79981061266E+02  0.77852662398E+02 0.  0.
         66    2    3    3    0    0  0.26406096137E+02  0.90214574913E+01 -0.37014482006E+02  0.46397635223E+02  0.20000169018E+01 0.  0.
        -13    1    3    3    0    0 -0.26406096137E+02 -0.90214574913E+01  0.18686003648E+02  0.33583426044E+02  0.10566000000E+00 0.  1.
         13    1    4    4    0    0  0.23775032935E+00 -0.52570649290E-01 -0.33700143858E+00  0.42897890097E+00  0.10566000000E+00 0. -1.
        -13    1    4    4    0    0  0.87808963279E+01  0.32920342372E+01 -0.11875141627E+02  0.15131813587E+02  0.10566000000E+00 0.  1.
         14    1    4    4    0    0  0.17387449480E+02  0.57819939034E+01 -0.24802338941E+02  0.30836842735E+02  0.00000000000E+00 0. -1.
<mgrwt>
<rscale>  0 0.77852662E+02</rscale>
<asrwt>0</asrwt>
<pdfrwt beam="1">  1        2 0.75622722E-02 0.77852662E+02</pdfrwt>
<pdfrwt beam="2">  1       -1 0.47425064E-02 0.77852662E+02</pdfrwt>
<totfact> 0.16038247E+05</totfact>
</mgrwt>
</event>
<event>
 8    1  0.2561077E-020  0.8122688E+02  0.7818608E-02  0.1325605E+00
         -1   -1    0    0    0  501 -0.00000000000E+00  0.00000000000E+00  0.77505495122E+01  0.77505511508E+01  0.50400000000E-02 0.  1.
          2   -1    0    0  501    0  0.00000000000E+00 -0.00000000000E+00 -0.21281736227E+03  0.21281736228E+03  0.25500000000E-02 0. -1.
         24    2    1    2    0    0  0.00000000000E+00  0.00000000000E+00 -0.20506681276E+03  0.22056791343E+03  0.81226884360E+02 0.  0.
         66    2    3    3    0    0 -0.21514633731E+02  0.51876612017E+01 -0.19498693219E+03  0.19624906376E+03  0.20000017250E+01 0.  0.
        -13    1    3    3    0    0  0.21514633731E+02 -0.51876612017E+01 -0.10079880563E+02  0.24318849675E+02  0.10566000000E+00 0.  1.
         13    1    4    4    0    0 -0.29702354908E+01  0.58314062049E+00 -0.28699385815E+02  0.28858764043E+02  0.10566000000E+00 0. -1.
        -13    1    4    4    0    0 -0.12323818502E+02  0.33309050706E+01 -0.10430809397E+03  0.10508644567E+03  0.10566000000E+00 0.  1.
        -14    1    4    4    0    0 -0.62205797377E+01  0.12736155106E+01 -0.61979452407E+02  0.62303854049E+02  0.00000000000E+00 0.  1.
<mgrwt>
<rscale>  0 0.81226884E+02</rscale>
<asrwt>0</asrwt>
<pdfrwt beam="1">  1        2 0.32741128E-01 0.81226884E+02</pdfrwt>
<pdfrwt beam="2">  1       -1 0.11923925E-02 0.81226884E+02</pdfrwt>
<totfact> 0.21655191E+05</totfact>
</mgrwt>
</event>
<event>
 8    1  0.2561077E-020  0.7792342E+02  0.7818608E-02  0.1335050E+00
         -1   -1    0    0    0  501 -0.00000000000E+00  0.00000000000E+00  0.11099958017E+02  0.11099959162E+02  0.50400000000E-02 0.  1.
          2   -1    0    0  501    0  0.00000000000E+00 -0.00000000000E+00 -0.13675862099E+03  0.13675862101E+03  0.25500000000E-02 0. -1.
         24    2    1    2    0    0  0.00000000000E+00  0.17763568394E-14 -0.12565866297E+03  0.14785858017E+03  0.77923424920E+02 0.  0.
         66    2    3    3    0    0  0.35652777130E+02 -0.90828988402E+01 -0.38690461548E+02  0.53428188926E+02  0.19999971755E+01 0.  0.
        -13    1    3    3    0    0 -0.35652777130E+02  0.90828988402E+01 -0.86968201423E+02  0.94430391247E+02  0.10566000000E+00 0.  1.
         13    1    4    4    0    0  0.20767327433E+02 -0.56390201433E+01 -0.22015914997E+02  0.30786232541E+02  0.10566000000E+00 0. -1.
        -13    1    4    4    0    0  0.98523987254E+01 -0.17550614951E+01 -0.10967573538E+02  0.14847519485E+02  0.10566000000E+00 0.  1.
        -14    1    4    4    0    0  0.50330509712E+01 -0.16888172018E+01 -0.57069730120E+01  0.77944368995E+01  0.00000000000E+00 0.  1.
<mgrwt>
<rscale>  0 0.77923425E+02</rscale>
<asrwt>0</asrwt>
<pdfrwt beam="1">  1        2 0.21039787E-01 0.77923425E+02</pdfrwt>
<pdfrwt beam="2">  1       -1 0.17076860E-02 0.77923425E+02</pdfrwt>
<totfact> 0.20856958E+05</totfact>
</mgrwt>
</event>
<event>
 8    1  0.2561077E-020  0.7990948E+02  0.7818608E-02  0.1329309E+00
          2   -1    0    0  501    0  0.00000000000E+00  0.00000000000E+00  0.17006654122E+02  0.17006654313E+02  0.25500000000E-02 0. -1.
         -1   -1    0    0    0  501 -0.00000000000E+00 -0.00000000000E+00 -0.93868040050E+02  0.93868040186E+02  0.50400000000E-02 0.  1.
         24    2    1    2    0    0 -0.88817841970E-15  0.00000000000E+00 -0.76861385928E+02  0.11087469450E+03  0.79909481499E+02 0.  0.
         66    2    3    3    0    0  0.65892131937E+01  0.17623205863E+02  0.10411854889E+02  0.21596338543E+02  0.20000002176E+01 0.  0.
        -13    1    3    3    0    0 -0.65892131937E+01 -0.17623205863E+02 -0.87273240817E+02  0.89278355956E+02  0.10566000000E+00 0.  1.
         13    1    4    4    0    0  0.28457950169E+01  0.65474907748E+01  0.38720142999E+01  0.81223053069E+01  0.10566000000E+00 0. -1.
        -13    1    4    4    0    0  0.11869625348E+01  0.44203294040E+01  0.32965176750E+01  0.56414878282E+01  0.10566000000E+00 0.  1.
        -14    1    4    4    0    0  0.25564556420E+01  0.66553856837E+01  0.32433229140E+01  0.78325454083E+01  0.00000000000E+00 0.  1.
<mgrwt>
<rscale>  0 0.79909481E+02</rscale>
<asrwt>0</asrwt>
<pdfrwt beam="1">  1        2 0.26164084E-02 0.79909481E+02</pdfrwt>
<pdfrwt beam="2">  1       -1 0.14441237E-01 0.79909481E+02</pdfrwt>
<totfact> 0.12047139E+05</totfact>
</mgrwt>
</event>
<event>
 8    1  0.2561077E-020  0.7981420E+02  0.7818608E-02  0.1329580E+00
         -1   -1    0    0    0  501 -0.00000000000E+00  0.00000000000E+00  0.58556783111E+02  0.58556783328E+02  0.50400000000E-02 0.  1.
          2   -1    0    0  501    0  0.00000000000E+00 -0.00000000000E+00 -0.27197130718E+02  0.27197130838E+02  0.25500000000E-02 0. -1.
         24    2    1    2    0    0  0.00000000000E+00  0.17763568394E-14  0.31359652393E+02  0.85753914165E+02  0.79814196710E+02 0.  0.
         66    2    3    3    0    0 -0.85749583907E+01 -0.94914530694E+01 -0.24896592408E+02  0.28061680408E+02  0.20000002529E+01 0.  0.
        -13    1    3    3    0    0  0.85749583907E+01  0.94914530694E+01  0.56256244801E+02  0.57692233757E+02  0.10566000000E+00 0.  1.
         13    1    4    4    0    0 -0.16621152010E+01 -0.19082916429E+01 -0.57744383320E+01  0.63055139380E+01  0.10566000000E+00 0. -1.
        -13    1    4    4    0    0 -0.50423501141E+01 -0.47761186608E+01 -0.13907540422E+02  0.15545656910E+02  0.10566000000E+00 0.  1.
        -14    1    4    4    0    0 -0.18704930757E+01 -0.28070427657E+01 -0.52146136537E+01  0.62105095598E+01  0.00000000000E+00 0.  1.
<mgrwt>
<rscale>  0 0.79814197E+02</rscale>
<asrwt>0</asrwt>
<pdfrwt beam="1">  1        2 0.41841740E-02 0.79814197E+02</pdfrwt>
<pdfrwt beam="2">  1       -1 0.90087359E-02 0.79814197E+02</pdfrwt>
<totfact> 0.13284463E+05</totfact>
</mgrwt>
</event>
<event>
 8    1  0.2561077E-020  0.8003208E+02  0.7818608E-02  0.1328960E+00
          2   -1    0    0  501    0  0.00000000000E+00  0.00000000000E+00  0.12754520138E+02  0.12754520393E+02  0.25500000000E-02 0. -1.
         -1   -1    0    0    0  501 -0.00000000000E+00 -0.00000000000E+00 -0.12554635046E+03  0.12554635056E+03  0.50400000000E-02 0.  1.
         24    2    1    2    0    0  0.88817841970E-15  0.00000000000E+00 -0.11279183032E+03  0.13830087095E+03  0.80032080562E+02 0.  0.
         66    2    3    3    0    0 -0.66912495295E+01 -0.38978051065E+02 -0.66686101279E+02  0.77557058925E+02  0.20000000423E+01 0.  0.
        -13    1    3    3    0    0  0.66912495295E+01  0.38978051065E+02 -0.46105729041E+02  0.60743812027E+02  0.10566000000E+00 0.  1.
         13    1    4    4    0    0 -0.18170227535E+01 -0.12554814675E+02 -0.20841088038E+02  0.24398505238E+02  0.10566000000E+00 0. -1.
        -13    1    4    4    0    0 -0.35660019833E+01 -0.19869196175E+02 -0.33184615316E+02  0.38842389016E+02  0.10566000000E+00 0.  1.
         14    1    4    4    0    0 -0.13082247927E+01 -0.65540402147E+01 -0.12660397926E+02  0.14316164671E+02  0.00000000000E+00 0. -1.
<mgrwt>
<rscale>  0 0.80032081E+02</rscale>
<asrwt>0</asrwt>
<pdfrwt beam="1">  1        2 0.19622340E-02 0.80032081E+02</pdfrwt>
<pdfrwt beam="2">  1       -1 0.19314822E-01 0.80032081E+02</pdfrwt>
<totfact> 0.11254640E+05</totfact>
</mgrwt>
</event>
<event>
 8    1  0.2561077E-020  0.7929511E+02  0.7818608E-02  0.1331064E+00
          2   -1    0    0  501    0  0.00000000000E+00  0.00000000000E+00  0.44572463048E+03  0.44572463049E+03  0.25500000000E-02 0. -1.
         -1   -1    0    0    0  501 -0.00000000000E+00 -0.00000000000E+00 -0.35266796851E+01  0.35266832865E+01  0.50400000000E-02 0.  1.
         24    2    1    2    0    0  0.44408920985E-15  0.00000000000E+00  0.44219795080E+03  0.44925131378E+03  0.79295114858E+02 0.  0.
         66    2    3    3    0    0  0.38034755319E+01 -0.21249875163E+02  0.40947747017E+03  0.41005099953E+03  0.20000043564E+01 0.  0.
        -13    1    3    3    0    0 -0.38034755319E+01  0.21249875163E+02  0.32720480628E+02  0.39200314248E+02  0.10566000000E+00 0.  1.
         13    1    4    4    0    0  0.33370059893E+00 -0.97636039954E+00  0.20232325341E+02  0.20258894059E+02  0.10566000000E+00 0. -1.
        -13    1    4    4    0    0  0.25107386391E+01 -0.10534345308E+02  0.21422586926E+03  0.21449944164E+03  0.10566000000E+00 0.  1.
        -14    1    4    4    0    0  0.95903629386E+00 -0.97391694559E+01  0.17501927557E+03  0.17529266383E+03  0.00000000000E+00 0.  1.
<mgrwt>
<rscale>  0 0.79295115E+02</rscale>
<asrwt>0</asrwt>
<pdfrwt beam="1">  1        2 0.68573009E-01 0.79295115E+02</pdfrwt>
<pdfrwt beam="2">  1       -1 0.54256647E-03 0.79295115E+02</pdfrwt>
<totfact> 0.30008916E+05</totfact>
</mgrwt>
</event>
<event>
 8    1  0.2561077E-020  0.7921229E+02  0.7818608E-02  0.1331302E+00
          2   -1    0    0  501    0  0.00000000000E+00  0.00000000000E+00  0.58022694253E+03  0.58022694254E+03  0.25500000000E-02 0. -1.
         -1   -1    0    0    0  501 -0.00000000000E+00 -0.00000000000E+00 -0.27035030393E+01  0.27035077372E+01  0.50400000000E-02 0.  1.
         24    2    1    2    0    0  0.00000000000E+00  0.00000000000E+00  0.57752343949E+03  0.58293045027E+03  0.79212288782E+02 0.  0.
         66    2    3    3    0    0 -0.10319809082E+02 -0.16458242974E+02  0.54272933784E+03  0.54308057079E+03  0.19999981527E+01 0.  0.
        -13    1    3    3    0    0  0.10319809082E+02  0.16458242974E+02  0.34794101648E+02  0.39849879483E+02  0.10566000000E+00 0.  1.
         13    1    4    4    0    0 -0.30873249590E+01 -0.52921516405E+01  0.14812976888E+03  0.14825646036E+03  0.10566000000E+00 0. -1.
        -13    1    4    4    0    0 -0.29142388146E+01 -0.40646749588E+01  0.14804447853E+03  0.14812897474E+03  0.10566000000E+00 0.  1.
        -14    1    4    4    0    0 -0.43182453088E+01 -0.71014163750E+01  0.24655509043E+03  0.24669513569E+03  0.00000000000E+00 0.  1.
<mgrwt>
<rscale>  0 0.79212289E+02</rscale>
<asrwt>0</asrwt>
<pdfrwt beam="1">  1        2 0.89265785E-01 0.79212289E+02</pdfrwt>
<pdfrwt beam="2">  1       -1 0.41592344E-03 0.79212289E+02</pdfrwt>
<totfact> 0.32690955E+05</totfact>
</mgrwt>
</event>
<event>
 8    1  0.2561077E-020  0.8103743E+02  0.7818608E-02  0.1326133E+00
         -1   -1    0    0    0  501 -0.00000000000E+00  0.00000000000E+00  0.30879319102E+02  0.30879319513E+02  0.50400000000E-02 0.  1.
          2   -1    0    0  501    0  0.00000000000E+00 -0.00000000000E+00 -0.53167172742E+02  0.53167172803E+02  0.25500000000E-02 0. -1.
         24    2    1    2    0    0  0.00000000000E+00 -0.17763568394E-14 -0.22287853640E+02  0.84046492317E+02  0.81037426235E+02 0.  0.
         66    2    3    3    0    0 -0.24507541179E+02 -0.12356391804E+02 -0.42029736717E+02  0.50237423940E+02  0.20000006594E+01 0.  0.
        -13    1    3    3    0    0  0.24507541179E+02  0.12356391804E+02  0.19741883077E+02  0.33809068377E+02  0.10566000000E+00 0.  1.
         13    1    4    4    0    0 -0.88852150689E+01 -0.35743761209E+01 -0.14001902974E+02  0.16964305538E+02  0.10566000000E+00 0. -1.
        -13    1    4    4    0    0 -0.45969794778E+01 -0.28377947049E+01 -0.87050859834E+01  0.10245730092E+02  0.10566000000E+00 0.  1.
         14    1    4    4    0    0 -0.11025346632E+02 -0.59442209785E+01 -0.19322747760E+02  0.23027388310E+02  0.00000000000E+00 0. -1.
<mgrwt>
<rscale>  0 0.81037426E+02</rscale>
<asrwt>0</asrwt>
<pdfrwt beam="1">  1        2 0.81795651E-02 0.81037426E+02</pdfrwt>
<pdfrwt beam="2">  1       -1 0.47506645E-02 0.81037426E+02</pdfrwt>
<totfact> 0.14621514E+05</totfact>
</mgrwt>
</event>
<event>
 8    1  0.2561077E-020  0.8024964E+02  0.7818608E-02  0.1328344E+00
          2   -1    0    0  501    0  0.00000000000E+00  0.00000000000E+00  0.54076916901E+03  0.54076916901E+03  0.25500000000E-02 0. -1.
         -1   -1    0    0    0  501 -0.00000000000E+00 -0.00000000000E+00 -0.29772410541E+01  0.29772453201E+01  0.50400000000E-02 0.  1.
         24    2    1    2    0    0  0.00000000000E+00  0.00000000000E+00  0.53779192795E+03  0.54374641433E+03  0.80249643793E+02 0.  0.
         66    2    3    3    0    0  0.30563657545E+02  0.15221260073E+02  0.41154094828E+03  0.41295977529E+03  0.19999931553E+01 0.  0.
        -13    1    3    3    0    0 -0.30563657545E+02 -0.15221260073E+02  0.12625097967E+03  0.13078663904E+03  0.10566000000E+00 0.  1.
         13    1    4    4    0    0  0.11175659509E+01  0.68003342424E+00  0.13798176868E+02  0.13860456271E+02  0.10566000000E+00 0. -1.
        -13    1    4    4    0    0  0.15391309492E+02  0.68306831228E+01  0.19944667823E+03  0.20015628709E+03  0.10566000000E+00 0.  1.
         14    1    4    4    0    0  0.14054782102E+02  0.77105435259E+01  0.19829609319E+03  0.19894303193E+03  0.00000000000E+00 0. -1.
<mgrwt>
<rscale>  0 0.80249644E+02</rscale>
<asrwt>0</asrwt>
<pdfrwt beam="1">  1        2 0.83195251E-01 0.80249644E+02</pdfrwt>
<pdfrwt beam="2">  1       -1 0.45803745E-03 0.80249644E+02</pdfrwt>
<totfact> 0.30950843E+05</totfact>
</mgrwt>
</event>
<event>
 8    1  0.2561077E-020  0.8126772E+02  0.7818608E-02  0.1325492E+00
          2   -1    0    0  501    0  0.00000000000E+00  0.00000000000E+00  0.19444299006E+02  0.19444299174E+02  0.25500000000E-02 0. -1.
         -1   -1    0    0    0  501 -0.00000000000E+00 -0.00000000000E+00 -0.84914892591E+02  0.84914892740E+02  0.50400000000E-02 0.  1.
         24    2    1    2    0    0  0.35527136788E-14 -0.88817841970E-15 -0.65470593584E+02  0.10435919191E+03  0.81267719991E+02 0.  0.
         66    2    3    3    0    0  0.23533291620E+02 -0.67124552499E+01  0.88604600368E+01  0.26103268391E+02  0.19999996714E+01 0.  0.
        -13    1    3    3    0    0 -0.23533291620E+02  0.67124552499E+01 -0.74331053621E+02  0.78255923523E+02  0.10566000000E+00 0.  1.
         13    1    4    4    0    0  0.81588177016E+01 -0.29474600270E+01  0.30512247545E+01  0.91964647249E+01  0.10566000000E+00 0. -1.
        -13    1    4    4    0    0  0.85606463145E+01 -0.24218456870E+01  0.27024550298E+01  0.92986251175E+01  0.10566000000E+00 0.  1.
         14    1    4    4    0    0  0.68138276037E+01 -0.13431495358E+01  0.31067802525E+01  0.76081785485E+01  0.00000000000E+00 0. -1.
<mgrwt>
<rscale>  0 0.81267720E+02</rscale>
<asrwt>0</asrwt>
<pdfrwt beam="1">  1        2 0.29914307E-02 0.81267720E+02</pdfrwt>
<pdfrwt beam="2">  1       -1 0.13063829E-01 0.81267720E+02</pdfrwt>
<totfact> 0.11797936E+05</totfact>
</mgrwt>
</event>
<event>
 8    1  0.2561077E-020  0.7442297E+02  0.7818608E-02  0.1345667E+00
          2   -1    0    0  501    0  0.00000000000E+00  0.00000000000E+00  0.27449588780E+03  0.27449588781E+03  0.25500000000E-02 0. -1.
         -1   -1    0    0    0  501 -0.00000000000E+00 -0.00000000000E+00 -0.50444996488E+01  0.50445021666E+01  0.50400000000E-02 0.  1.
         24    2    1    2    0    0 -0.71054273576E-14  0.00000000000E+00  0.26945138815E+03  0.27954038998E+03  0.74422973958E+02 0.  0.
         66    2    3    3    0    0  0.34215648847E+02  0.69984044139E+01  0.18277767396E+03  0.18609504667E+03  0.20000016003E+01 0.  0.
        -13    1    3    3    0    0 -0.34215648847E+02 -0.69984044139E+01  0.86673714190E+02  0.93445343308E+02  0.10566000000E+00 0.  1.
         13    1    4    4    0    0  0.32663268341E+01  0.38900793504E+00  0.15894715560E+02  0.16231862645E+02  0.10566000000E+00 0.  1.
        -13    1    4    4    0    0  0.22941460797E+02  0.48989771728E+01  0.12696073935E+03  0.12910984122E+03  0.10566000000E+00 0. -1.
         14    1    4    4    0    0  0.80078612156E+01  0.17104193061E+01  0.39922219052E+02  0.40753342802E+02  0.00000000000E+00 0. -1.
<mgrwt>
<rscale>  0 0.74422974E+02</rscale>
<asrwt>0</asrwt>
<pdfrwt beam="1">  1        2 0.42230166E-01 0.74422974E+02</pdfrwt>
<pdfrwt beam="2">  1       -1 0.77607653E-03 0.74422974E+02</pdfrwt>
<totfact> 0.29821670E+05</totfact>
</mgrwt>
</event>
<event>
 8    1  0.2561077E-020  0.8054825E+02  0.7818608E-02  0.1327503E+00
          2   -1    0    0  501    0  0.00000000000E+00  0.00000000000E+00  0.62872939770E+03  0.62872939771E+03  0.25500000000E-02 0. -1.
         -1   -1    0    0    0  501 -0.00000000000E+00 -0.00000000000E+00 -0.25798119856E+01  0.25798169087E+01  0.50400000000E-02 0.  1.
         24    2    1    2    0    0  0.00000000000E+00  0.35527136788E-14  0.62614958572E+03  0.63130921462E+03  0.80548251167E+02 0.  0.
         66    2    3    3    0    0 -0.51727849523E+01  0.14234243631E+02  0.60554224260E+03  0.60573490817E+03  0.20000010624E+01 0.  0.
        -13    1    3    3    0    0  0.51727849523E+01 -0.14234243631E+02  0.20607343112E+02  0.25574306444E+02  0.10566000000E+00 0.  1.
         13    1    4    4    0    0 -0.10085388341E+01  0.17139568723E+01  0.96885034529E+02  0.96905499733E+02  0.10566000000E+00 0. -1.
        -13    1    4    4    0    0 -0.17559494111E+00  0.14140266944E+01  0.49948136898E+02  0.49968568608E+02  0.10566000000E+00 0.  1.
         14    1    4    4    0    0 -0.39886511771E+01  0.11106260064E+02  0.45870907118E+03  0.45886083983E+03  0.00000000000E+00 0. -1.
<mgrwt>
<rscale>  0 0.80548251E+02</rscale>
<asrwt>0</asrwt>
<pdfrwt beam="1">  1        2 0.96727655E-01 0.80548251E+02</pdfrwt>
<pdfrwt beam="2">  1       -1 0.39689431E-03 0.80548251E+02</pdfrwt>
<totfact> 0.32000949E+05</totfact>
</mgrwt>
</event>
<event>
 8    1  0.2561077E-020  0.8059120E+02  0.7818608E-02  0.1327382E+00
          2   -1    0    0  501    0  0.00000000000E+00  0.00000000000E+00  0.73161095272E+01  0.73161099716E+01  0.25500000000E-02 0. -1.
         -1   -1    0    0    0  501 -0.00000000000E+00 -0.00000000000E+00 -0.22193973677E+03  0.22193973683E+03  0.50400000000E-02 0.  1.
         24    2    1    2    0    0  0.35527136788E-14 -0.44408920985E-15 -0.21462362724E+03  0.22925584680E+03  0.80591202501E+02 0.  0.
         66    2    3    3    0    0  0.30037982158E+02 -0.37192624792E+01 -0.31813296373E+02  0.43956787108E+02  0.20000052981E+01 0.  0.
        -13    1    3    3    0    0 -0.30037982158E+02  0.37192624792E+01 -0.18281033087E+03  0.18529905969E+03  0.10566000000E+00 0.  1.
         13    1    4    4    0    0  0.24833960473E+02 -0.26734038006E+01 -0.25660586044E+02  0.35809908137E+02  0.10566000000E+00 0. -1.
        -13    1    4    4    0    0  0.22515991133E+01 -0.42851793816E+00 -0.30849893354E+01  0.38446910702E+01  0.10566000000E+00 0.  1.
        -14    1    4    4    0    0  0.29524225726E+01 -0.61734074040E+00 -0.30677209932E+01  0.43021879002E+01  0.00000000000E+00 0.  1.
<mgrwt>
<rscale>  0 0.80591203E+02</rscale>
<asrwt>0</asrwt>
<pdfrwt beam="1">  1        2 0.11255555E-02 0.80591203E+02</pdfrwt>
<pdfrwt beam="2">  1       -1 0.34144570E-01 0.80591203E+02</pdfrwt>
<totfact> 0.94615448E+04</totfact>
</mgrwt>
</event>
<event>
 8    1  0.2561077E-020  0.7716167E+02  0.7818608E-02  0.1337305E+00
         -1   -1    0    0    0  501 -0.00000000000E+00  0.00000000000E+00  0.19894281031E+01  0.19894344873E+01  0.50400000000E-02 0.  1.
          2   -1    0    0  501    0  0.00000000000E+00 -0.00000000000E+00 -0.74819407622E+03  0.74819407623E+03  0.25500000000E-02 0. -1.
         24    2    1    2    0    0  0.00000000000E+00  0.00000000000E+00 -0.74620464812E+03  0.75018351071E+03  0.77161667118E+02 0.  0.
         66    2    3    3    0    0 -0.14598883930E+02 -0.16224761933E+02 -0.68234573754E+03  0.68269764600E+03  0.20000008187E+01 0.  0.
        -13    1    3    3    0    0  0.14598883930E+02  0.16224761933E+02 -0.63858910580E+02  0.67485864715E+02  0.10566000000E+00 0.  1.
         13    1    4    4    0    0 -0.24234373265E+01 -0.19172296558E+01 -0.10180131054E+03  0.10184825383E+03  0.10566000000E+00 0.  1.
        -13    1    4    4    0    0 -0.69173783123E+01 -0.75150530052E+01 -0.32701705390E+03  0.32717654386E+03  0.10566000000E+00 0. -1.
         14    1    4    4    0    0 -0.52580682918E+01 -0.67924792715E+01 -0.25352737310E+03  0.25367284831E+03  0.00000000000E+00 0. -1.
<mgrwt>
<rscale>  0 0.77161667E+02</rscale>
<asrwt>0</asrwt>
<pdfrwt beam="1">  1        2 0.11510656E+00 0.77161667E+02</pdfrwt>
<pdfrwt beam="2">  1       -1 0.30606695E-03 0.77161667E+02</pdfrwt>
<totfact> 0.37269704E+05</totfact>
</mgrwt>
</event>
<event>
 8    1  0.2561077E-020  0.7927211E+02  0.7818608E-02  0.1331130E+00
          2   -1    0    0  501    0  0.00000000000E+00  0.00000000000E+00  0.64954663910E+01  0.64954668915E+01  0.25500000000E-02 0. -1.
         -1   -1    0    0    0  501 -0.00000000000E+00 -0.00000000000E+00 -0.24186358081E+03  0.24186358086E+03  0.50400000000E-02 0.  1.
         24    2    1    2    0    0  0.00000000000E+00  0.00000000000E+00 -0.23536811441E+03  0.24835904775E+03  0.79272109320E+02 0.  0.
         66    2    3    3    0    0 -0.52676737755E+01 -0.36172024115E+02 -0.16556625174E+03  0.16956517164E+03  0.20000005464E+01 0.  0.
        -13    1    3    3    0    0  0.52676737755E+01  0.36172024115E+02 -0.69801862673E+02  0.78793876109E+02  0.10566000000E+00 0.  1.
         13    1    4    4    0    0 -0.13279272149E+01 -0.13096574196E+02 -0.58942796389E+02  0.60394934031E+02  0.10566000000E+00 0. -1.
        -13    1    4    4    0    0 -0.20774288307E+01 -0.13196317775E+02 -0.58054436808E+02  0.59571698905E+02  0.10566000000E+00 0.  1.
        -14    1    4    4    0    0 -0.18623177298E+01 -0.98791321442E+01 -0.48569018545E+02  0.49598538705E+02  0.00000000000E+00 0.  1.
<mgrwt>
<rscale>  0 0.79272109E+02</rscale>
<asrwt>0</asrwt>
<pdfrwt beam="1">  1        2 0.99930275E-03 0.79272109E+02</pdfrwt>
<pdfrwt beam="2">  1       -1 0.37209775E-01 0.79272109E+02</pdfrwt>
<totfact> 0.95893856E+04</totfact>
</mgrwt>
</event>
<event>
 8    1  0.2561077E-020  0.7950959E+02  0.7818608E-02  0.1330449E+00
          2   -1    0    0  501    0  0.00000000000E+00  0.00000000000E+00  0.15866818273E+03  0.15866818275E+03  0.25500000000E-02 0. -1.
         -1   -1    0    0    0  501 -0.00000000000E+00 -0.00000000000E+00 -0.99606836584E+01  0.99606849335E+01  0.50400000000E-02 0.  1.
         24    2    1    2    0    0  0.00000000000E+00  0.00000000000E+00  0.14870749907E+03  0.16862886768E+03  0.79509588958E+02 0.  0.
         66    2    3    3    0    0  0.74325218510E+01 -0.16920745092E+02  0.14899005006E+03  0.15014522641E+03  0.20000005618E+01 0.  0.
        -13    1    3    3    0    0 -0.74325218510E+01  0.16920745092E+02 -0.28255098878E+00  0.18483641270E+02  0.10566000000E+00 0.  1.
         13    1    4    4    0    0  0.37152695123E+01 -0.92200634125E+01  0.80192855613E+02  0.80806670840E+02  0.10566000000E+00 0. -1.
        -13    1    4    4    0    0  0.92831659217E+00 -0.24202145931E+01  0.25464664595E+02  0.25596474706E+02  0.10566000000E+00 0.  1.
         14    1    4    4    0    0  0.27889357465E+01 -0.52804670859E+01  0.43332529851E+02  0.43742080866E+02  0.00000000000E+00 0. -1.
<mgrwt>
<rscale>  0 0.79509589E+02</rscale>
<asrwt>0</asrwt>
<pdfrwt beam="1">  1        2 0.24410488E-01 0.79509589E+02</pdfrwt>
<pdfrwt beam="2">  1       -1 0.15324131E-02 0.79509589E+02</pdfrwt>
<totfact> 0.20733966E+05</totfact>
</mgrwt>
</event>
<event>
 8    1  0.2561077E-020  0.8088910E+02  0.7818608E-02  0.1326547E+00
         -1   -1    0    0    0  501 -0.00000000000E+00  0.00000000000E+00  0.63472301913E+01  0.63472321923E+01  0.50400000000E-02 0.  1.
          2   -1    0    0  501    0  0.00000000000E+00 -0.00000000000E+00 -0.25771263059E+03  0.25771263060E+03  0.25500000000E-02 0. -1.
         24    2    1    2    0    0  0.88817841970E-15  0.35527136788E-14 -0.25136540040E+03  0.26405986279E+03  0.80889100759E+02 0.  0.
         66    2    3    3    0    0  0.53001063294E+01  0.29415470276E+02 -0.21458618186E+03  0.21666700364E+03  0.20000003114E+01 0.  0.
        -13    1    3    3    0    0 -0.53001063294E+01 -0.29415470276E+02 -0.36779218533E+02  0.47392859151E+02  0.10566000000E+00 0.  1.
         13    1    4    4    0    0  0.12033878554E+01  0.79689521018E+01 -0.60352628660E+02  0.60888449563E+02  0.10566000000E+00 0. -1.
        -13    1    4    4    0    0  0.51664850551E+00  0.39433465276E+01 -0.24576496513E+02  0.24896430515E+02  0.10566000000E+00 0.  1.
        -14    1    4    4    0    0  0.35800699686E+01  0.17503171646E+02 -0.12965705669E+03  0.13088212356E+03  0.00000000000E+00 0.  1.
<mgrwt>
<rscale>  0 0.80889101E+02</rscale>
<asrwt>0</asrwt>
<pdfrwt beam="1">  1        2 0.39648089E-01 0.80889101E+02</pdfrwt>
<pdfrwt beam="2">  1       -1 0.97649731E-03 0.80889101E+02</pdfrwt>
<totfact> 0.23439022E+05</totfact>
</mgrwt>
</event>
<event>
 8    1  0.2561077E-020  0.7975002E+02  0.7818608E-02  0.1329762E+00
         -1   -1    0    0    0  501 -0.00000000000E+00  0.00000000000E+00  0.10667665757E+02  0.10667666948E+02  0.50400000000E-02 0.  1.
          2   -1    0    0  501    0  0.00000000000E+00 -0.00000000000E+00 -0.14905006776E+03  0.14905006779E+03  0.25500000000E-02 0. -1.
         24    2    1    2    0    0 -0.35527136788E-14  0.00000000000E+00 -0.13838240201E+03  0.15971773473E+03  0.79750019457E+02 0.  0.
         66    2    3    3    0    0  0.22159769859E+02 -0.20761113130E+02 -0.12091636365E+03  0.12468699283E+03  0.19999907151E+01 0.  0.
        -13    1    3    3    0    0 -0.22159769859E+02  0.20761113130E+02 -0.17466038351E+02  0.35030741903E+02  0.10566000000E+00 0.  1.
         13    1    4    4    0    0  0.12964285092E+02 -0.12678497998E+02 -0.72930892244E+02  0.75151468429E+02  0.10566000000E+00 0. -1.
        -13    1    4    4    0    0  0.38355044171E+01 -0.32449844383E+01 -0.21909076655E+02  0.22477985276E+02  0.10566000000E+00 0.  1.
        -14    1    4    4    0    0  0.53599803499E+01 -0.48376306934E+01 -0.26076394755E+02  0.27057539125E+02  0.00000000000E+00 0.  1.
<mgrwt>
<rscale>  0 0.79750019E+02</rscale>
<asrwt>0</asrwt>
<pdfrwt beam="1">  1        2 0.22930778E-01 0.79750019E+02</pdfrwt>
<pdfrwt beam="2">  1       -1 0.16411796E-02 0.79750019E+02</pdfrwt>
<totfact> 0.20155773E+05</totfact>
</mgrwt>
</event>
<event>
 8    1  0.2561077E-020  0.7955727E+02  0.7818608E-02  0.1330313E+00
          2   -1    0    0  501    0  0.00000000000E+00  0.00000000000E+00  0.38429990481E+03  0.38429990482E+03  0.25500000000E-02 0. -1.
         -1   -1    0    0    0  501 -0.00000000000E+00 -0.00000000000E+00 -0.41174594537E+01  0.41174625383E+01  0.50400000000E-02 0.  1.
         24    2    1    2    0    0  0.00000000000E+00  0.00000000000E+00  0.38018244536E+03  0.38841736736E+03  0.79557271870E+02 0.  0.
         66    2    3    3    0    0 -0.22999529987E+02 -0.79549298563E+01  0.34367761382E+03  0.34454399071E+03  0.20000017401E+01 0.  0.
        -13    1    3    3    0    0  0.22999529987E+02  0.79549298563E+01  0.36504831542E+02  0.43873376649E+02  0.10566000000E+00 0.  1.
         13    1    4    4    0    0 -0.10481253123E+02 -0.36877383058E+01  0.15289039060E+03  0.15329363582E+03  0.10566000000E+00 0. -1.
        -13    1    4    4    0    0 -0.20902760941E+01 -0.45943720486E+00  0.24862848206E+02  0.24955013958E+02  0.10566000000E+00 0.  1.
         14    1    4    4    0    0 -0.10428000770E+02 -0.38077543456E+01  0.16592437501E+03  0.16629534094E+03  0.00000000000E+00 0. -1.
<mgrwt>
<rscale>  0 0.79557272E+02</rscale>
<asrwt>0</asrwt>
<pdfrwt beam="1">  1        2 0.59123060E-01 0.79557272E+02</pdfrwt>
<pdfrwt beam="2">  1       -1 0.63345557E-03 0.79557272E+02</pdfrwt>
<totfact> 0.28265780E+05</totfact>
</mgrwt>
</event>
<event>
 8    1  0.2561077E-020  0.8044170E+02  0.7818608E-02  0.1327803E+00
          2   -1    0    0  501    0  0.00000000000E+00  0.00000000000E+00  0.61160481645E+03  0.61160481645E+03  0.25500000000E-02 0. -1.
         -1   -1    0    0    0  501 -0.00000000000E+00 -0.00000000000E+00 -0.26450335445E+01  0.26450383463E+01  0.50400000000E-02 0.  1.
         24    2    1    2    0    0 -0.17763568394E-14  0.00000000000E+00  0.60895978290E+03  0.61424985480E+03  0.80441698934E+02 0.  0.
         66    2    3    3    0    0  0.14835195067E+02 -0.35653146441E+02  0.38986313639E+03  0.39177607760E+03  0.20000000682E+01 0.  0.
        -13    1    3    3    0    0 -0.14835195067E+02  0.35653146441E+02  0.21909664651E+03  0.22247377720E+03  0.10566000000E+00 0.  1.
         13    1    4    4    0    0  0.89385249481E+01 -0.20965368350E+02  0.23893222073E+03  0.24001679351E+03  0.10566000000E+00 0. -1.
        -13    1    4    4    0    0  0.41529651484E+01 -0.10775121047E+02  0.11137027242E+03  0.11196740194E+03  0.10566000000E+00 0.  1.
         14    1    4    4    0    0  0.17437049703E+01 -0.39126570439E+01  0.39560643237E+02  0.39791882156E+02  0.00000000000E+00 0. -1.
<mgrwt>
<rscale>  0 0.80441699E+02</rscale>
<asrwt>0</asrwt>
<pdfrwt beam="1">  1        2 0.94092982E-01 0.80441699E+02</pdfrwt>
<pdfrwt beam="2">  1       -1 0.40692890E-03 0.80441699E+02</pdfrwt>
<totfact> 0.31873767E+05</totfact>
</mgrwt>
</event>
<event>
 8    1  0.2561077E-020  0.8164459E+02  0.7818608E-02  0.1324448E+00
          2   -1    0    0  501    0  0.00000000000E+00  0.00000000000E+00  0.51900880690E+02  0.51900880753E+02  0.25500000000E-02 0. -1.
         -1   -1    0    0    0  501 -0.00000000000E+00 -0.00000000000E+00 -0.32108507221E+02  0.32108507617E+02  0.50400000000E-02 0.  1.
         24    2    1    2    0    0  0.71054273576E-14  0.00000000000E+00  0.19792373469E+02  0.84009388370E+02  0.81644591289E+02 0.  0.
         66    2    3    3    0    0 -0.38142857497E+02  0.14462537294E+02  0.92414260677E+01  0.41874174853E+02  0.20000002020E+01 0.  0.
        -13    1    3    3    0    0  0.38142857497E+02 -0.14462537294E+02  0.10550947401E+02  0.42135213517E+02  0.10566000000E+00 0.  1.
         13    1    4    4    0    0 -0.13729691606E+02  0.52027601895E+01  0.26773461207E+01  0.14924895023E+02  0.10566000000E+00 0. -1.
        -13    1    4    4    0    0 -0.34011389657E+01  0.90529584583E+00  0.10559926181E+01  0.36760836875E+01  0.10566000000E+00 0.  1.
        -14    1    4    4    0    0 -0.21012026926E+02  0.83544812591E+01  0.55080873288E+01  0.23273196142E+02  0.00000000000E+00 0.  1.
<mgrwt>
<rscale>  0 0.81644591E+02</rscale>
<asrwt>0</asrwt>
<pdfrwt beam="1">  1        2 0.79847509E-02 0.81644591E+02</pdfrwt>
<pdfrwt beam="2">  1       -1 0.49397704E-02 0.81644591E+02</pdfrwt>
<totfact> 0.14248734E+05</totfact>
</mgrwt>
</event>
<event>
 8    1  0.2561077E-020  0.7926707E+02  0.7818608E-02  0.1331144E+00
          2   -1    0    0  501    0  0.00000000000E+00  0.00000000000E+00  0.23417183205E+02  0.23417183344E+02  0.25500000000E-02 0. -1.
         -1   -1    0    0    0  501 -0.00000000000E+00 -0.00000000000E+00 -0.67079677372E+02  0.67079677561E+02  0.50400000000E-02 0.  1.
         24    2    1    2    0    0  0.00000000000E+00  0.00000000000E+00 -0.43662494166E+02  0.90496860905E+02  0.79267070319E+02 0.  0.
         66    2    3    3    0    0 -0.33550147751E+02  0.47050605554E+01  0.15817389809E+01  0.33974283062E+02  0.20000006022E+01 0.  0.
        -13    1    3    3    0    0  0.33550147751E+02 -0.47050605554E+01 -0.45244233147E+02  0.56522577844E+02  0.10566000000E+00 0.  1.
         13    1    4    4    0    0 -0.70413795908E+00 -0.69071095149E-01  0.17782683013E+00  0.73713465440E+00  0.10566000000E+00 0. -1.
        -13    1    4    4    0    0 -0.96232862971E+01  0.16516721825E+01  0.80672513903E+00  0.97978380085E+01  0.10566000000E+00 0.  1.
         14    1    4    4    0    0 -0.23222723495E+02  0.31224594680E+01  0.59718701179E+00  0.23439310399E+02  0.00000000000E+00 0. -1.
<mgrwt>
<rscale>  0 0.79267070E+02</rscale>
<asrwt>0</asrwt>
<pdfrwt beam="1">  1        2 0.36026436E-02 0.79267070E+02</pdfrwt>
<pdfrwt beam="2">  1       -1 0.10319950E-01 0.79267070E+02</pdfrwt>
<totfact> 0.13153003E+05</totfact>
</mgrwt>
</event>
<event>
 8    1  0.2561077E-020  0.7986236E+02  0.7818608E-02  0.1329442E+00
         -1   -1    0    0    0  501 -0.00000000000E+00  0.00000000000E+00  0.12657036334E+02  0.12657037337E+02  0.50400000000E-02 0.  1.
          2   -1    0    0  501    0  0.00000000000E+00 -0.00000000000E+00 -0.12597728355E+03  0.12597728358E+03  0.25500000000E-02 0. -1.
         24    2    1    2    0    0  0.00000000000E+00  0.00000000000E+00 -0.11332024722E+03  0.13863432092E+03  0.79862359758E+02 0.  0.
         66    2    3    3    0    0 -0.19455638378E+02 -0.34301707645E+02 -0.46084419824E+02  0.60686924157E+02  0.20000002623E+01 0.  0.
        -13    1    3    3    0    0  0.19455638378E+02  0.34301707645E+02 -0.67235827394E+02  0.77947396759E+02  0.10566000000E+00 0.  1.
         13    1    4    4    0    0 -0.13045059458E+02 -0.21534735202E+02 -0.29931771253E+02  0.39113175413E+02  0.10566000000E+00 0. -1.
        -13    1    4    4    0    0 -0.48962411080E+01 -0.92522449818E+01 -0.11561226055E+02  0.15596484416E+02  0.10566000000E+00 0.  1.
        -14    1    4    4    0    0 -0.15143378113E+01 -0.35147274609E+01 -0.45914225157E+01  0.59772643282E+01  0.00000000000E+00 0.  1.
<mgrwt>
<rscale>  0 0.79862360E+02</rscale>
<asrwt>0</asrwt>
<pdfrwt beam="1">  1        2 0.19381120E-01 0.79862360E+02</pdfrwt>
<pdfrwt beam="2">  1       -1 0.19472365E-02 0.79862360E+02</pdfrwt>
<totfact> 0.19050158E+05</totfact>
</mgrwt>
</event>
<event>
 8    1  0.2561077E-020  0.7556059E+02  0.7818608E-02  0.1342144E+00
          2   -1    0    0  501    0  0.00000000000E+00  0.00000000000E+00  0.60585724125E+01  0.60585729492E+01  0.25500000000E-02 0. -1.
         -1   -1    0    0    0  501 -0.00000000000E+00 -0.00000000000E+00 -0.23559188136E+03  0.23559188141E+03  0.50400000000E-02 0.  1.
         24    2    1    2    0    0  0.00000000000E+00  0.00000000000E+00 -0.22953330894E+03  0.24165045436E+03  0.75560586137E+02 0.  0.
         66    2    3    3    0    0 -0.10231694872E+02 -0.33828579538E+02 -0.72384846955E+02  0.80576835654E+02  0.20000004313E+01 0.  0.
        -13    1    3    3    0    0  0.10231694872E+02  0.33828579538E+02 -0.15714846199E+03  0.16107361871E+03  0.10566000000E+00 0.  1.
         13    1    4    4    0    0 -0.12230663456E+01 -0.34378317220E+01 -0.67192207167E+01  0.76468077856E+01  0.10566000000E+00 0. -1.
        -13    1    4    4    0    0 -0.57618086445E+00 -0.21866672715E+01 -0.39369970357E+01  0.45414323555E+01  0.10566000000E+00 0.  1.
        -14    1    4    4    0    0 -0.84324476615E+01 -0.28204080545E+02 -0.61728629203E+02  0.68388595513E+02  0.00000000000E+00 0.  1.
<mgrwt>
<rscale>  0 0.75560586E+02</rscale>
<asrwt>0</asrwt>
<pdfrwt beam="1">  1        2 0.93208829E-03 0.75560586E+02</pdfrwt>
<pdfrwt beam="2">  1       -1 0.36244898E-01 0.75560586E+02</pdfrwt>
<totfact> 0.10933954E+05</totfact>
</mgrwt>
</event>
<event>
 8    1  0.2561077E-020  0.7741537E+02  0.7818608E-02  0.1336550E+00
          2   -1    0    0  501    0  0.00000000000E+00  0.00000000000E+00  0.48106552144E+03  0.48106552145E+03  0.25500000000E-02 0. -1.
         -1   -1    0    0    0  501 -0.00000000000E+00 -0.00000000000E+00 -0.31145110442E+01  0.31145151221E+01  0.50400000000E-02 0.  1.
         24    2    1    2    0    0 -0.44408920985E-15  0.35527136788E-14  0.47795101040E+03  0.48418003657E+03  0.77415369749E+02 0.  0.
         66    2    3    3    0    0 -0.33042364904E+01 -0.27473432005E+02  0.40818306994E+03  0.40912482940E+03  0.19999986005E+01 0.  0.
        -13    1    3    3    0    0  0.33042364904E+01  0.27473432005E+02  0.69767940456E+02  0.75055207177E+02  0.10566000000E+00 0.  1.
         13    1    4    4    0    0 -0.34148463374E+01 -0.24302771345E+02  0.35766742818E+03  0.35850841861E+03  0.10566000000E+00 0. -1.
        -13    1    4    4    0    0  0.12644158814E+00 -0.13943161348E+01  0.24490413241E+02  0.24530625955E+02  0.10566000000E+00 0.  1.
         14    1    4    4    0    0 -0.15831741151E-01 -0.17763445251E+01  0.26025228521E+02  0.26085784828E+02  0.00000000000E+00 0. -1.
<mgrwt>
<rscale>  0 0.77415370E+02</rscale>
<asrwt>0</asrwt>
<pdfrwt beam="1">  1        2 0.74010066E-01 0.77415370E+02</pdfrwt>
<pdfrwt beam="2">  1       -1 0.47915595E-03 0.77415370E+02</pdfrwt>
<totfact> 0.32759110E+05</totfact>
</mgrwt>
</event>
<event>
 8    1  0.2561077E-020  0.8074382E+02  0.7818608E-02  0.1326954E+00
         -1   -1    0    0    0  501 -0.00000000000E+00  0.00000000000E+00  0.21819835173E+01  0.21819893381E+01  0.50400000000E-02 0.  1.
          2   -1    0    0  501    0  0.00000000000E+00 -0.00000000000E+00 -0.74697580415E+03  0.74697580415E+03  0.25500000000E-02 0. -1.
         24    2    1    2    0    0 -0.17763568394E-14  0.00000000000E+00 -0.74479382063E+03  0.74915779349E+03  0.80743818945E+02 0.  0.
         66    2    3    3    0    0  0.15605438365E+02  0.32926074815E+02 -0.53338958718E+03  0.53463642581E+03  0.19999936507E+01 0.  0.
        -13    1    3    3    0    0 -0.15605438365E+02 -0.32926074815E+02 -0.21140423345E+03  0.21452136768E+03  0.10566000000E+00 0.  1.
         13    1    4    4    0    0  0.29993086831E+01  0.56291589819E+01 -0.10384666355E+03  0.10404241433E+03  0.10566000000E+00 0. -1.
        -13    1    4    4    0    0  0.77297231305E+01  0.16658217299E+02 -0.26335074275E+03  0.26399028334E+03  0.10566000000E+00 0.  1.
         14    1    4    4    0    0  0.48764065517E+01  0.10638698534E+02 -0.16619218088E+03  0.16660372815E+03  0.00000000000E+00 0. -1.
<mgrwt>
<rscale>  0 0.80743819E+02</rscale>
<asrwt>0</asrwt>
<pdfrwt beam="1">  1        2 0.11491915E+00 0.80743819E+02</pdfrwt>
<pdfrwt beam="2">  1       -1 0.33569082E-03 0.80743819E+02</pdfrwt>
<totfact> 0.33118483E+05</totfact>
</mgrwt>
</event>
<event>
 8    1  0.2561077E-020  0.8108338E+02  0.7818608E-02  0.1326005E+00
         -1   -1    0    0    0  501 -0.00000000000E+00  0.00000000000E+00  0.10642481706E+02  0.10642482899E+02  0.50400000000E-02 0.  1.
          2   -1    0    0  501    0  0.00000000000E+00 -0.00000000000E+00 -0.15444035668E+03  0.15444035670E+03  0.25500000000E-02 0. -1.
         24    2    1    2    0    0  0.00000000000E+00  0.00000000000E+00 -0.14379787497E+03  0.16508283960E+03  0.81083383522E+02 0.  0.
         66    2    3    3    0    0 -0.21419485695E+02  0.34216126873E+02 -0.64864520648E+02  0.76426067186E+02  0.20000002546E+01 0.  0.
        -13    1    3    3    0    0  0.21419485695E+02 -0.34216126873E+02 -0.78933354327E+02  0.88656772415E+02  0.10566000000E+00 0.  1.
         13    1    4    4    0    0 -0.48234636634E+01  0.84607694468E+01 -0.16852282285E+02  0.19464352124E+02  0.10566000000E+00 0. -1.
        -13    1    4    4    0    0 -0.25376651771E+01  0.44602986723E+01 -0.78786828792E+01  0.94031280298E+01  0.10566000000E+00 0.  1.
         14    1    4    4    0    0 -0.14058356854E+02  0.21295058754E+02 -0.40133555483E+02  0.47558587032E+02  0.00000000000E+00 0. -1.
<mgrwt>
<rscale>  0 0.81083384E+02</rscale>
<asrwt>0</asrwt>
<pdfrwt beam="1">  1        2 0.23760053E-01 0.81083384E+02</pdfrwt>
<pdfrwt beam="2">  1       -1 0.16373051E-02 0.81083384E+02</pdfrwt>
<totfact> 0.19510911E+05</totfact>
</mgrwt>
</event>
<event>
 8    1  0.2561077E-020  0.7877239E+02  0.7818608E-02  0.1332572E+00
          2   -1    0    0  501    0  0.00000000000E+00  0.00000000000E+00  0.26350487290E+02  0.26350487413E+02  0.25500000000E-02 0. -1.
         -1   -1    0    0    0  501 -0.00000000000E+00 -0.00000000000E+00 -0.58870728815E+02  0.58870729031E+02  0.50400000000E-02 0.  1.
         24    2    1    2    0    0  0.00000000000E+00  0.00000000000E+00 -0.32520241526E+02  0.85221216444E+02  0.78772391250E+02 0.  0.
         66    2    3    3    0    0  0.12052778885E+02  0.16523312784E+02  0.20112619227E+02  0.28754247876E+02  0.19999936260E+01 0.  0.
        -13    1    3    3    0    0 -0.12052778885E+02 -0.16523312784E+02 -0.52632860753E+02  0.56466968568E+02  0.10566000000E+00 0.  1.
         13    1    4    4    0    0  0.72655297504E+01  0.96576930594E+01  0.12263564533E+02  0.17218162994E+02  0.10566000000E+00 0. -1.
        -13    1    4    4    0    0  0.46885684866E+01  0.67113625813E+01  0.73432823569E+01  0.10998182666E+02  0.10566000000E+00 0.  1.
         14    1    4    4    0    0  0.98680648219E-01  0.15425714317E+00  0.50577233731E+00  0.53790221578E+00  0.00000000000E+00 0. -1.
<mgrwt>
<rscale>  0 0.78772391E+02</rscale>
<asrwt>0</asrwt>
<pdfrwt beam="1">  1        2 0.40539212E-02 0.78772391E+02</pdfrwt>
<pdfrwt beam="2">  1       -1 0.90570352E-02 0.78772391E+02</pdfrwt>
<totfact> 0.13700171E+05</totfact>
</mgrwt>
</event>
<event>
 8    1  0.2561077E-020  0.7710299E+02  0.7818608E-02  0.1337480E+00
          2   -1    0    0  501    0  0.00000000000E+00  0.00000000000E+00  0.19916936394E+02  0.19916936557E+02  0.25500000000E-02 0. -1.
         -1   -1    0    0    0  501 -0.00000000000E+00 -0.00000000000E+00 -0.74620800071E+02  0.74620800241E+02  0.50400000000E-02 0.  1.
         24    2    1    2    0    0  0.00000000000E+00  0.35527136788E-14 -0.54703863677E+02  0.94537736798E+02  0.77102989422E+02 0.  0.
         66    2    3    3    0    0  0.98373467515E+01 -0.31463141528E+02 -0.29242673790E+01  0.33154999626E+02  0.19999986579E+01 0.  0.
        -13    1    3    3    0    0 -0.98373467515E+01  0.31463141528E+02 -0.51779596298E+02  0.61382737172E+02  0.10566000000E+00 0.  1.
         13    1    4    4    0    0  0.66562816783E+01 -0.20852155097E+02 -0.15068664534E+01  0.21940835638E+02  0.10566000000E+00 0. -1.
        -13    1    4    4    0    0  0.16551785064E+01 -0.39329548699E+01 -0.71925659768E+00  0.43285383198E+01  0.10566000000E+00 0.  1.
        -14    1    4    4    0    0  0.15258865668E+01 -0.66780315606E+01 -0.69814432797E+00  0.68856256682E+01  0.00000000000E+00 0.  1.
<mgrwt>
<rscale>  0 0.77102989E+02</rscale>
<asrwt>0</asrwt>
<pdfrwt beam="1">  1        2 0.30641441E-02 0.77102989E+02</pdfrwt>
<pdfrwt beam="2">  1       -1 0.11480123E-01 0.77102989E+02</pdfrwt>
<totfact> 0.13786607E+05</totfact>
</mgrwt>
</event>
<event>
 8    1  0.2561077E-020  0.7930293E+02  0.7818608E-02  0.1331041E+00
         -1   -1    0    0    0  501 -0.00000000000E+00  0.00000000000E+00  0.40591294972E+02  0.40591295284E+02  0.50400000000E-02 0.  1.
          2   -1    0    0  501    0  0.00000000000E+00 -0.00000000000E+00 -0.38733392738E+02  0.38733392822E+02  0.25500000000E-02 0. -1.
         24    2    1    2    0    0 -0.35527136788E-14 -0.35527136788E-14  0.18579022331E+01  0.79324688107E+02  0.79302927705E+02 0.  0.
         66    2    3    3    0    0 -0.21811102159E+02 -0.28577020750E+02 -0.15744266946E+02  0.39296975005E+02  0.20000026316E+01 0.  0.
        -13    1    3    3    0    0  0.21811102159E+02  0.28577020750E+02  0.17602169179E+02  0.40027713102E+02  0.10566000000E+00 0.  1.
         13    1    4    4    0    0 -0.72671914881E+01 -0.91241359408E+01 -0.48205431326E+01  0.12621835402E+02  0.10566000000E+00 0. -1.
        -13    1    4    4    0    0 -0.29231255378E+01 -0.49289380793E+01 -0.23785262454E+01  0.62054528146E+01  0.10566000000E+00 0.  1.
        -14    1    4    4    0    0 -0.11620785133E+02 -0.14523946730E+02 -0.85451975677E+01  0.20469686788E+02  0.00000000000E+00 0.  1.
<mgrwt>
<rscale>  0 0.79302928E+02</rscale>
<asrwt>0</asrwt>
<pdfrwt beam="1">  1        2 0.59589835E-02 0.79302928E+02</pdfrwt>
<pdfrwt beam="2">  1       -1 0.62448146E-02 0.79302928E+02</pdfrwt>
<totfact> 0.14508639E+05</totfact>
</mgrwt>
</event>
<event>
 8    1  0.2561077E-020  0.7906965E+02  0.7818608E-02  0.1331713E+00
          2   -1    0    0  501    0  0.00000000000E+00  0.00000000000E+00  0.30971219291E+03  0.30971219292E+03  0.25500000000E-02 0. -1.
         -1   -1    0    0    0  501 -0.00000000000E+00 -0.00000000000E+00 -0.50466272967E+01  0.50466298134E+01  0.50400000000E-02 0.  1.
         24    2    1    2    0    0  0.00000000000E+00  0.44408920985E-15  0.30466556561E+03  0.31475882273E+03  0.79069650425E+02 0.  0.
         66    2    3    3    0    0  0.35143952511E+02 -0.25935265003E+01  0.22354831562E+03  0.22631763783E+03  0.19999988710E+01 0.  0.
        -13    1    3    3    0    0 -0.35143952511E+02  0.25935265003E+01  0.81117249986E+02  0.88441184903E+02  0.10566000000E+00 0.  1.
         13    1    4    4    0    0  0.38604754771E+01 -0.31799121081E+00  0.27242572452E+02  0.27516782282E+02  0.10566000000E+00 0. -1.
        -13    1    4    4    0    0  0.11976516984E+02 -0.27938920155E+00  0.72767048139E+02  0.73746657391E+02  0.10566000000E+00 0.  1.
        -14    1    4    4    0    0  0.19306960050E+02 -0.19961460879E+01  0.12353869503E+03  0.12505419815E+03  0.00000000000E+00 0.  1.
<mgrwt>
<rscale>  0 0.79069650E+02</rscale>
<asrwt>0</asrwt>
<pdfrwt beam="1">  1        2 0.47648025E-01 0.79069650E+02</pdfrwt>
<pdfrwt beam="2">  1       -1 0.77640447E-03 0.79069650E+02</pdfrwt>
<totfact> 0.26592448E+05</totfact>
</mgrwt>
</event>
<event>
 8    1  0.2561077E-020  0.7917427E+02  0.7818608E-02  0.1331411E+00
         -1   -1    0    0    0  501 -0.00000000000E+00  0.00000000000E+00  0.66578968898E+00  0.66580876500E+00  0.50400000000E-02 0.  1.
          2   -1    0    0  501    0  0.00000000000E+00 -0.00000000000E+00 -0.23537744161E+04  0.23537744161E+04  0.25500000000E-02 0. -1.
         24    2    1    2    0    0  0.00000000000E+00  0.00000000000E+00 -0.23531086265E+04  0.23544402249E+04  0.79174268415E+02 0.  0.
         66    2    3    3    0    0 -0.29606534322E+01 -0.10689826097E+02 -0.23065814747E+04  0.23066090127E+04  0.20000014426E+01 0.  0.
        -13    1    3    3    0    0  0.29606534322E+01  0.10689826097E+02 -0.46527151716E+02  0.47831212211E+02  0.10566000000E+00 0.  1.
         13    1    4    4    0    0 -0.11402897026E+01 -0.56611137429E+01 -0.11650027583E+04  0.11650170756E+04  0.10566000000E+00 0. -1.
        -13    1    4    4    0    0 -0.13228334246E+01 -0.29084148485E+01 -0.55808462284E+03  0.55809377902E+03  0.10566000000E+00 0.  1.
         14    1    4    4    0    0 -0.49753030500E+00 -0.21202975061E+01 -0.58349409358E+03  0.58349815805E+03  0.00000000000E+00 0. -1.
<mgrwt>
<rscale>  0 0.79174268E+02</rscale>
<asrwt>0</asrwt>
<pdfrwt beam="1">  1        2 0.36211248E+00 0.79174268E+02</pdfrwt>
<pdfrwt beam="2">  1       -1 0.10243254E-03 0.79174268E+02</pdfrwt>
<totfact> 0.23633804E+05</totfact>
</mgrwt>
</event>
<event>
 8    1  0.2561077E-020  0.7905280E+02  0.7818608E-02  0.1331761E+00
          2   -1    0    0  501    0  0.00000000000E+00  0.00000000000E+00  0.15421489173E+03  0.15421489175E+03  0.25500000000E-02 0. -1.
         -1   -1    0    0    0  501 -0.00000000000E+00 -0.00000000000E+00 -0.10130904661E+02  0.10130905915E+02  0.50400000000E-02 0.  1.
         24    2    1    2    0    0  0.00000000000E+00 -0.35527136788E-14  0.14408398707E+03  0.16434579766E+03  0.79052804384E+02 0.  0.
         66    2    3    3    0    0 -0.25949891831E+02  0.19629404200E+02  0.11864972002E+03  0.12304660276E+03  0.19999987979E+01 0.  0.
        -13    1    3    3    0    0  0.25949891831E+02 -0.19629404200E+02  0.25434267045E+02  0.41299194900E+02  0.10566000000E+00 0.  1.
         13    1    4    4    0    0 -0.14236334621E+02  0.10593708116E+02  0.67681620052E+02  0.69969369956E+02  0.10566000000E+00 0. -1.
        -13    1    4    4    0    0 -0.79782362205E+01  0.65239922599E+01  0.36152751537E+02  0.37593182040E+02  0.10566000000E+00 0.  1.
         14    1    4    4    0    0 -0.37353209888E+01  0.25117038241E+01  0.14815348434E+02  0.15484050769E+02  0.00000000000E+00 0. -1.
<mgrwt>
<rscale>  0 0.79052804E+02</rscale>
<asrwt>0</asrwt>
<pdfrwt beam="1">  1        2 0.23725366E-01 0.79052804E+02</pdfrwt>
<pdfrwt beam="2">  1       -1 0.15586010E-02 0.79052804E+02</pdfrwt>
<totfact> 0.20858533E+05</totfact>
</mgrwt>
</event>
<event>
 8    1  0.2561077E-020  0.7798527E+02  0.7818608E-02  0.1334868E+00
         -1   -1    0    0    0  501 -0.00000000000E+00  0.00000000000E+00  0.16090595371E+02  0.16090596160E+02  0.50400000000E-02 0.  1.
          2   -1    0    0  501    0  0.00000000000E+00 -0.00000000000E+00 -0.94491570503E+02  0.94491570537E+02  0.25500000000E-02 0. -1.
         24    2    1    2    0    0  0.00000000000E+00 -0.88817841970E-15 -0.78400975132E+02  0.11058216670E+03  0.77985272262E+02 0.  0.
         66    2    3    3    0    0  0.20030569681E+02  0.45920042430E+01 -0.86172315024E+02  0.88611388094E+02  0.19999996642E+01 0.  0.
        -13    1    3    3    0    0 -0.20030569681E+02 -0.45920042430E+01  0.77713398916E+01  0.21970778604E+02  0.10566000000E+00 0.  1.
         13    1    4    4    0    0  0.43831323131E+01  0.11611996648E+01 -0.18683326688E+02  0.19225974454E+02  0.10566000000E+00 0. -1.
        -13    1    4    4    0    0  0.41056419901E+01  0.16318504360E+01 -0.17412842731E+02  0.17964895992E+02  0.10566000000E+00 0.  1.
        -14    1    4    4    0    0  0.11541795377E+02  0.17989541422E+01 -0.50076145604E+02  0.51420517648E+02  0.00000000000E+00 0.  1.
<mgrwt>
<rscale>  0 0.77985272E+02</rscale>
<asrwt>0</asrwt>
<pdfrwt beam="1">  1        2 0.14537164E-01 0.77985272E+02</pdfrwt>
<pdfrwt beam="2">  1       -1 0.24754763E-02 0.77985272E+02</pdfrwt>
<totfact> 0.18683846E+05</totfact>
</mgrwt>
</event>
<event>
 8    1  0.2561077E-020  0.7940545E+02  0.7818608E-02  0.1330747E+00
          2   -1    0    0  501    0  0.00000000000E+00  0.00000000000E+00  0.77232152713E+03  0.77232152713E+03  0.25500000000E-02 0. -1.
         -1   -1    0    0    0  501 -0.00000000000E+00 -0.00000000000E+00 -0.20409943091E+01  0.20410005320E+01  0.50400000000E-02 0.  1.
         24    2    1    2    0    0  0.00000000000E+00  0.00000000000E+00  0.77028053282E+03  0.77436252766E+03  0.79405446984E+02 0.  0.
         66    2    3    3    0    0  0.28684260458E+02 -0.14205592001E+01  0.65236398560E+03  0.65299890849E+03  0.19999994866E+01 0.  0.
        -13    1    3    3    0    0 -0.28684260458E+02  0.14205592001E+01  0.11791654722E+03  0.12136361918E+03  0.10566000000E+00 0.  1.
         13    1    4    4    0    0  0.18824881891E+01  0.97550334007E-01  0.37188478066E+02  0.37236371235E+02  0.10566000000E+00 0. -1.
        -13    1    4    4    0    0  0.43259358618E+01 -0.62825946790E+00  0.92728307442E+02  0.92831344901E+02  0.10566000000E+00 0.  1.
         14    1    4    4    0    0  0.22475836407E+02 -0.88985006621E+00  0.52244720009E+03  0.52293119235E+03  0.00000000000E+00 0. -1.
<mgrwt>
<rscale>  0 0.79405447E+02</rscale>
<asrwt>0</asrwt>
<pdfrwt beam="1">  1        2 0.11881875E+00 0.79405447E+02</pdfrwt>
<pdfrwt beam="2">  1       -1 0.31399947E-03 0.79405447E+02</pdfrwt>
<totfact> 0.34815774E+05</totfact>
</mgrwt>
</event>
<event>
 8    1  0.2561077E-020  0.7979316E+02  0.7818608E-02  0.1329639E+00
         -1   -1    0    0    0  501 -0.00000000000E+00  0.00000000000E+00  0.32648742290E+02  0.32648742679E+02  0.50400000000E-02 0.  1.
          2   -1    0    0  501    0  0.00000000000E+00 -0.00000000000E+00 -0.48753398611E+02  0.48753398677E+02  0.25500000000E-02 0. -1.
         24    2    1    2    0    0  0.00000000000E+00  0.00000000000E+00 -0.16104656320E+02  0.81402141357E+02  0.79793161751E+02 0.  0.
         66    2    3    3    0    0  0.19861737297E+02 -0.19827472474E+02 -0.36950094731E+02  0.46442725748E+02  0.20000002747E+01 0.  0.
        -13    1    3    3    0    0 -0.19861737297E+02  0.19827472474E+02  0.20845438410E+02  0.34959415609E+02  0.10566000000E+00 0.  1.
         13    1    4    4    0    0  0.18790786076E+02 -0.18396457323E+02 -0.33977605267E+02  0.42965243013E+02  0.10566000000E+00 0. -1.
        -13    1    4    4    0    0  0.48134096386E+00 -0.56978839742E+00 -0.14066408945E+01  0.15956661879E+01  0.10566000000E+00 0. -1.
         14    1    4    4    0    0  0.58961025657E+00 -0.86122675450E+00 -0.15658485687E+01  0.18818165472E+01  0.00000000000E+00 0. -1.
<mgrwt>
<rscale>  0 0.79793162E+02</rscale>
<asrwt>0</asrwt>
<pdfrwt beam="1">  1        2 0.75005229E-02 0.79793162E+02</pdfrwt>
<pdfrwt beam="2">  1       -1 0.50228835E-02 0.79793162E+02</pdfrwt>
<totfact> 0.14967252E+05</totfact>
</mgrwt>
</event>
<event>
 8    1  0.2561077E-020  0.7982771E+02  0.7818608E-02  0.1329541E+00
          2   -1    0    0  501    0  0.00000000000E+00  0.00000000000E+00  0.17610557879E+03  0.17610557881E+03  0.25500000000E-02 0. -1.
         -1   -1    0    0    0  501 -0.00000000000E+00 -0.00000000000E+00 -0.90463667516E+01  0.90463681556E+01  0.50400000000E-02 0.  1.
         24    2    1    2    0    0  0.35527136788E-14  0.00000000000E+00  0.16705921204E+03  0.18515194697E+03  0.79827709085E+02 0.  0.
         66    2    3    3    0    0 -0.29516552789E+02 -0.23422199942E+02  0.53226654068E+02  0.65244946515E+02  0.20000009449E+01 0.  0.
        -13    1    3    3    0    0  0.29516552789E+02  0.23422199942E+02  0.11383255797E+03  0.11990700045E+03  0.10566000000E+00 0.  1.
         13    1    4    4    0    0 -0.14667260082E+02 -0.12110712781E+02  0.28138573123E+02  0.33964515952E+02  0.10566000000E+00 0. -1.
        -13    1    4    4    0    0 -0.79032119759E+00 -0.69498425797E+00  0.12176211599E+01  0.16128781847E+01  0.10566000000E+00 0. -1.
         14    1    4    4    0    0 -0.14058971509E+02 -0.10616502904E+02  0.23870459785E+02  0.29667552379E+02  0.00000000000E+00 0. -1.
<mgrwt>
<rscale>  0 0.79827709E+02</rscale>
<asrwt>0</asrwt>
<pdfrwt beam="1">  1        2 0.27093164E-01 0.79827709E+02</pdfrwt>
<pdfrwt beam="2">  1       -1 0.13917490E-02 0.79827709E+02</pdfrwt>
<totfact> 0.21238259E+05</totfact>
</mgrwt>
</event>
<event>
 8    1  0.2561077E-020  0.7209138E+02  0.7818608E-02  0.1353122E+00
         -1   -1    0    0    0  501 -0.00000000000E+00  0.00000000000E+00  0.74238219046E+01  0.74238236154E+01  0.50400000000E-02 0.  1.
          2   -1    0    0  501    0  0.00000000000E+00 -0.00000000000E+00 -0.17501653898E+03  0.17501653899E+03  0.25500000000E-02 0. -1.
         24    2    1    2    0    0  0.35527136788E-14  0.00000000000E+00 -0.16759271707E+03  0.18244036261E+03  0.72091380163E+02 0.  0.
         66    2    3    3    0    0 -0.24308704860E+02 -0.18470442562E+02 -0.13222362735E+03  0.13571719863E+03  0.19999985596E+01 0.  0.
        -13    1    3    3    0    0  0.24308704860E+02  0.18470442562E+02 -0.35369089722E+02  0.46723163979E+02  0.10566000000E+00 0.  1.
         13    1    4    4    0    0 -0.17069275983E+02 -0.13386934733E+02 -0.93657543572E+02  0.96136969144E+02  0.10566000000E+00 0. -1.
        -13    1    4    4    0    0 -0.17920333207E+01 -0.17750387940E+01 -0.11512247184E+02  0.11785802705E+02  0.10566000000E+00 0. -1.
         14    1    4    4    0    0 -0.54473955569E+01 -0.33084690354E+01 -0.27053836594E+02  0.27794426782E+02  0.00000000000E+00 0. -1.
<mgrwt>
<rscale>  0 0.72091380E+02</rscale>
<asrwt>0</asrwt>
<pdfrwt beam="1">  1        2 0.26925618E-01 0.72091380E+02</pdfrwt>
<pdfrwt beam="2">  1       -1 0.11421267E-02 0.72091380E+02</pdfrwt>
<totfact> 0.27705692E+05</totfact>
</mgrwt>
</event>
<event>
 8    1  0.2561077E-020  0.8125983E+02  0.7818608E-02  0.1325514E+00
         -1   -1    0    0    0  501 -0.00000000000E+00  0.00000000000E+00  0.23265225785E+01  0.23265280376E+01  0.50400000000E-02 0.  1.
          2   -1    0    0  501    0  0.00000000000E+00 -0.00000000000E+00 -0.70955169149E+03  0.70955169150E+03  0.25500000000E-02 0. -1.
         24    2    1    2    0    0  0.00000000000E+00  0.00000000000E+00 -0.70722516891E+03  0.71187821953E+03  0.81259829574E+02 0.  0.
         66    2    3    3    0    0 -0.30497736469E+02  0.13668336819E+02 -0.55586008744E+03  0.55686746373E+03  0.19999980878E+01 0.  0.
        -13    1    3    3    0    0  0.30497736469E+02 -0.13668336819E+02 -0.15136508147E+03  0.15501075580E+03  0.10566000000E+00 0.  1.
         13    1    4    4    0    0 -0.14388488540E+02  0.60857987719E+01 -0.27333655926E+03  0.27378267173E+03  0.10566000000E+00 0. -1.
        -13    1    4    4    0    0 -0.43439716238E+01  0.19313233792E+01 -0.71315769405E+02  0.71474122795E+02  0.10566000000E+00 0.  1.
         14    1    4    4    0    0 -0.11765276305E+02  0.56512146683E+01 -0.21120775878E+03  0.21161066920E+03  0.00000000000E+00 0. -1.
<mgrwt>
<rscale>  0 0.81259830E+02</rscale>
<asrwt>0</asrwt>
<pdfrwt beam="1">  1        2 0.10916163E+00 0.81259830E+02</pdfrwt>
<pdfrwt beam="2">  1       -1 0.35792754E-03 0.81259830E+02</pdfrwt>
<totfact> 0.32217932E+05</totfact>
</mgrwt>
</event>
<event>
 8    1  0.2561077E-020  0.8143669E+02  0.7818608E-02  0.1325023E+00
         -1   -1    0    0    0  501 -0.00000000000E+00  0.00000000000E+00  0.36003160754E+01  0.36003196031E+01  0.50400000000E-02 0.  1.
          2   -1    0    0  501    0  0.00000000000E+00 -0.00000000000E+00 -0.46051040151E+03  0.46051040152E+03  0.25500000000E-02 0. -1.
         24    2    1    2    0    0  0.00000000000E+00 -0.35527136788E-14 -0.45691008544E+03  0.46411072112E+03  0.81436694965E+02 0.  0.
         66    2    3    3    0    0 -0.21740524007E+02  0.24983958421E+02 -0.36335150673E+03  0.36486321548E+03  0.20000012786E+01 0.  0.
        -13    1    3    3    0    0  0.21740524007E+02 -0.24983958421E+02 -0.93558578705E+02  0.99247505640E+02  0.10566000000E+00 0.  1.
         13    1    4    4    0    0 -0.11522668501E+02  0.13869387231E+02 -0.19950692218E+03  0.20032013118E+03  0.10566000000E+00 0. -1.
        -13    1    4    4    0    0 -0.29058259422E+00  0.54646739688E+00 -0.85816910496E+01  0.86046295776E+01  0.10566000000E+00 0.  1.
        -14    1    4    4    0    0 -0.99272729127E+01  0.10568103792E+02 -0.15526289350E+03  0.15593845473E+03  0.00000000000E+00 0.  1.
<mgrwt>
<rscale>  0 0.81436695E+02</rscale>
<asrwt>0</asrwt>
<pdfrwt beam="1">  1        2 0.70847708E-01 0.81436695E+02</pdfrwt>
<pdfrwt beam="2">  1       -1 0.55389542E-03 0.81436695E+02</pdfrwt>
<totfact> 0.28300169E+05</totfact>
</mgrwt>
</event>
<event>
 8    1  0.2561077E-020  0.7939727E+02  0.7818608E-02  0.1330771E+00
         -1   -1    0    0    0  501 -0.00000000000E+00  0.00000000000E+00  0.33353266724E+01  0.33353304804E+01  0.50400000000E-02 0.  1.
          2   -1    0    0  501    0  0.00000000000E+00 -0.00000000000E+00 -0.47251170244E+03  0.47251170245E+03  0.25500000000E-02 0. -1.
         24    2    1    2    0    0  0.00000000000E+00  0.17763568394E-14 -0.46917637577E+03  0.47584703293E+03  0.79397274306E+02 0.  0.
         66    2    3    3    0    0 -0.37266718139E+02  0.10469702766E+02 -0.28683092039E+03  0.28943807601E+03  0.19999993997E+01 0.  0.
        -13    1    3    3    0    0  0.37266718139E+02 -0.10469702766E+02 -0.18234545538E+03  0.18640895692E+03  0.10566000000E+00 0.  1.
         13    1    4    4    0    0 -0.15102555782E+02  0.43056366064E+01 -0.11975612098E+03  0.12078147777E+03  0.10566000000E+00 0. -1.
        -13    1    4    4    0    0 -0.93348253415E+00  0.16247331468E+00 -0.87985303188E+01  0.88500331652E+01  0.10566000000E+00 0.  1.
        -14    1    4    4    0    0 -0.21230679824E+02  0.60015928445E+01 -0.15827626909E+03  0.15980656507E+03  0.00000000000E+00 0.  1.
<mgrwt>
<rscale>  0 0.79397274E+02</rscale>
<asrwt>0</asrwt>
<pdfrwt beam="1">  1        2 0.72694055E-01 0.79397274E+02</pdfrwt>
<pdfrwt beam="2">  1       -1 0.51312785E-03 0.79397274E+02</pdfrwt>
<totfact> 0.30494477E+05</totfact>
</mgrwt>
</event>
<event>
 8    1  0.2561077E-020  0.7741354E+02  0.7818608E-02  0.1336556E+00
         -1   -1    0    0    0  501 -0.00000000000E+00  0.00000000000E+00  0.28063758866E+02  0.28063759319E+02  0.50400000000E-02 0.  1.
          2   -1    0    0  501    0  0.00000000000E+00 -0.00000000000E+00 -0.53386074455E+02  0.53386074516E+02  0.25500000000E-02 0. -1.
         24    2    1    2    0    0  0.00000000000E+00  0.00000000000E+00 -0.25322315589E+02  0.81449833835E+02  0.77413537350E+02 0.  0.
         66    2    3    3    0    0  0.18287763517E+02 -0.40370186110E+01 -0.48279013367E+02  0.51822803093E+02  0.19999937434E+01 0.  0.
        -13    1    3    3    0    0 -0.18287763517E+02  0.40370186110E+01  0.22956697778E+02  0.29627030742E+02  0.10566000000E+00 0.  1.
         13    1    4    4    0    0  0.82277555753E+01 -0.22036665546E+01 -0.21035128729E+02  0.22694490803E+02  0.10566000000E+00 0. -1.
        -13    1    4    4    0    0  0.57837639163E+00  0.17410001576E+00 -0.17528738717E+01  0.18570301321E+01  0.10566000000E+00 0.  1.
        -14    1    4    4    0    0  0.94816315499E+01 -0.20074520721E+01 -0.25491010766E+02  0.27271282158E+02  0.00000000000E+00 0.  1.
<mgrwt>
<rscale>  0 0.77413537E+02</rscale>
<asrwt>0</asrwt>
<pdfrwt beam="1">  1        2 0.82132422E-02 0.77413537E+02</pdfrwt>
<pdfrwt beam="2">  1       -1 0.43175014E-02 0.77413537E+02</pdfrwt>
<totfact> 0.16580865E+05</totfact>
</mgrwt>
</event>
<event>
 8    1  0.2561077E-020  0.7935449E+02  0.7818608E-02  0.1330893E+00
         -1   -1    0    0    0  501 -0.00000000000E+00  0.00000000000E+00  0.10860198104E+01  0.10860315052E+01  0.50400000000E-02 0.  1.
          2   -1    0    0  501    0  0.00000000000E+00 -0.00000000000E+00 -0.14495826087E+04  0.14495826087E+04  0.25500000000E-02 0. -1.
         24    2    1    2    0    0  0.00000000000E+00 -0.35527136788E-14 -0.14484965889E+04  0.14506686402E+04  0.79354493612E+02 0.  0.
         66    2    3    3    0    0  0.55434661754E+01 -0.19691827766E+02 -0.13456595376E+04  0.13458165140E+04  0.19999995209E+01 0.  0.
        -13    1    3    3    0    0 -0.55434661754E+01  0.19691827766E+02 -0.10283705130E+03  0.10485212626E+03  0.10566000000E+00 0.  1.
         13    1    4    4    0    0  0.11807660111E+01 -0.33639157188E+01 -0.22244080099E+03  0.22246939395E+03  0.10566000000E+00 0. -1.
        -13    1    4    4    0    0  0.40479197492E+01 -0.14611845449E+02 -0.10358258574E+04  0.10359368271E+04  0.10566000000E+00 0.  1.
        -14    1    4    4    0    0  0.31478041512E+00 -0.17160665988E+01 -0.87392879214E+02  0.87410292922E+02  0.00000000000E+00 0.  1.
<mgrwt>
<rscale>  0 0.79354494E+02</rscale>
<asrwt>0</asrwt>
<pdfrwt beam="1">  1        2 0.22301116E+00 0.79354494E+02</pdfrwt>
<pdfrwt beam="2">  1       -1 0.16708203E-03 0.79354494E+02</pdfrwt>
<totfact> 0.34370214E+05</totfact>
</mgrwt>
</event>
<event>
 8    1  0.2561077E-020  0.7877424E+02  0.7818608E-02  0.1332566E+00
          2   -1    0    0  501    0  0.00000000000E+00  0.00000000000E+00  0.34190412014E+03  0.34190412015E+03  0.25500000000E-02 0. -1.
         -1   -1    0    0    0  501 -0.00000000000E+00 -0.00000000000E+00 -0.45373682110E+01  0.45373710101E+01  0.50400000000E-02 0.  1.
         24    2    1    2    0    0 -0.17763568394E-14  0.71054273576E-14  0.33736675193E+03  0.34644149116E+03  0.78774243823E+02 0.  0.
         66    2    3    3    0    0  0.15629841442E+02 -0.29772838978E+02  0.25877450985E+03  0.26095777597E+03  0.20000011344E+01 0.  0.
        -13    1    3    3    0    0 -0.15629841442E+02  0.29772838978E+02  0.78592242080E+02  0.85483715195E+02  0.10566000000E+00 0.  1.
         13    1    4    4    0    0  0.32154323278E+01 -0.66148123857E+01  0.59144438226E+02  0.59600087962E+02  0.10566000000E+00 0. -1.
        -13    1    4    4    0    0  0.36497785828E+01 -0.72527570494E+01  0.66918968504E+02  0.67409812922E+02  0.10566000000E+00 0.  1.
         14    1    4    4    0    0  0.87646305316E+01 -0.15905269543E+02  0.13271110312E+03  0.13394787508E+03  0.00000000000E+00 0. -1.
<mgrwt>
<rscale>  0 0.78774244E+02</rscale>
<asrwt>0</asrwt>
<pdfrwt beam="1">  1        2 0.52600650E-01 0.78774244E+02</pdfrwt>
<pdfrwt beam="2">  1       -1 0.69805666E-03 0.78774244E+02</pdfrwt>
<totfact> 0.27826234E+05</totfact>
</mgrwt>
</event>
<event>
 8    1  0.2561077E-020  0.7955886E+02  0.7818608E-02  0.1330308E+00
          2   -1    0    0  501    0  0.00000000000E+00  0.00000000000E+00  0.18796537429E+03  0.18796537430E+03  0.25500000000E-02 0. -1.
         -1   -1    0    0    0  501 -0.00000000000E+00 -0.00000000000E+00 -0.84185881075E+01  0.84185896162E+01  0.50400000000E-02 0.  1.
         24    2    1    2    0    0  0.00000000000E+00  0.35527136788E-14  0.17954678618E+03  0.19638396392E+03  0.79558864105E+02 0.  0.
         66    2    3    3    0    0 -0.31674003352E+02  0.19241277994E+02  0.12533812308E+03  0.13071768957E+03  0.20000009755E+01 0.  0.
        -13    1    3    3    0    0  0.31674003352E+02 -0.19241277994E+02  0.54208663104E+02  0.65666274348E+02  0.10566000000E+00 0.  1.
         13    1    4    4    0    0 -0.67699663599E+01  0.39137453057E+01  0.28326325167E+02  0.29386080180E+02  0.10566000000E+00 0.  1.
        -13    1    4    4    0    0 -0.20732845160E+02  0.13216131739E+02  0.82411387901E+02  0.86000959450E+02  0.10566000000E+00 0. -1.
        -14    1    4    4    0    0 -0.41711918317E+01  0.21114009491E+01  0.14600410007E+02  0.15330649942E+02  0.00000000000E+00 0.  1.
<mgrwt>
<rscale>  0 0.79558864E+02</rscale>
<asrwt>0</asrwt>
<pdfrwt beam="1">  1        2 0.28917750E-01 0.79558864E+02</pdfrwt>
<pdfrwt beam="2">  1       -1 0.12951675E-02 0.79558864E+02</pdfrwt>
<totfact> 0.21908711E+05</totfact>
</mgrwt>
</event>
<event>
 8    1  0.2561077E-020  0.7957305E+02  0.7818608E-02  0.1330267E+00
         -1   -1    0    0    0  501 -0.00000000000E+00  0.00000000000E+00  0.30829326163E+01  0.30829367360E+01  0.50400000000E-02 0.  1.
          2   -1    0    0  501    0  0.00000000000E+00 -0.00000000000E+00 -0.51346131914E+03  0.51346131914E+03  0.25500000000E-02 0. -1.
         24    2    1    2    0    0  0.00000000000E+00  0.00000000000E+00 -0.51037838652E+03  0.51654425588E+03  0.79573053570E+02 0.  0.
         66    2    3    3    0    0  0.30831843323E+02 -0.24605704568E+02 -0.28775488814E+03  0.29045295473E+03  0.20000007837E+01 0.  0.
        -13    1    3    3    0    0 -0.30831843323E+02  0.24605704568E+02 -0.22262349838E+03  0.22609130115E+03  0.10566000000E+00 0.  1.
         13    1    4    4    0    0  0.75489245821E+01 -0.56894009567E+01 -0.66197989680E+02  0.66869578638E+02  0.10566000000E+00 0. -1.
        -13    1    4    4    0    0  0.13042438364E+02 -0.11080868956E+02 -0.12174343449E+03  0.12294049724E+03  0.10566000000E+00 0.  1.
        -14    1    4    4    0    0  0.10240480376E+02 -0.78354346559E+01 -0.99813463963E+02  0.10064287885E+03  0.00000000000E+00 0.  1.
<mgrwt>
<rscale>  0 0.79573054E+02</rscale>
<asrwt>0</asrwt>
<pdfrwt beam="1">  1        2 0.78993981E-01 0.79573054E+02</pdfrwt>
<pdfrwt beam="2">  1       -1 0.47429805E-03 0.79573054E+02</pdfrwt>
<totfact> 0.31139235E+05</totfact>
</mgrwt>
</event>
<event>
 8    1  0.2561077E-020  0.8071641E+02  0.7818608E-02  0.1327031E+00
          2   -1    0    0  501    0  0.00000000000E+00  0.00000000000E+00  0.46536086664E+03  0.46536086665E+03  0.25500000000E-02 0. -1.
         -1   -1    0    0    0  501 -0.00000000000E+00 -0.00000000000E+00 -0.35000449185E+01  0.35000485473E+01  0.50400000000E-02 0.  1.
         24    2    1    2    0    0  0.00000000000E+00 -0.88817841970E-15  0.46186082173E+03  0.46886091520E+03  0.80716411935E+02 0.  0.
         66    2    3    3    0    0  0.26573890924E+02  0.59395021017E+01  0.40390806551E+03  0.40482980962E+03  0.20000030687E+01 0.  0.
        -13    1    3    3    0    0 -0.26573890924E+02 -0.59395021017E+01  0.57952756215E+02  0.64031105574E+02  0.10566000000E+00 0.  1.
         13    1    4    4    0    0  0.39363988882E+01  0.49603503007E+00  0.66899149479E+02  0.67016778884E+02  0.10566000000E+00 0. -1.
        -13    1    4    4    0    0  0.84336259843E+01  0.19994909468E+01  0.13052780171E+03  0.13081529801E+03  0.10566000000E+00 0. -1.
         14    1    4    4    0    0  0.14203866051E+02  0.34439761248E+01  0.20648111432E+03  0.20699773273E+03  0.00000000000E+00 0. -1.
<mgrwt>
<rscale>  0 0.80716412E+02</rscale>
<asrwt>0</asrwt>
<pdfrwt beam="1">  1        2 0.71593992E-01 0.80716412E+02</pdfrwt>
<pdfrwt beam="2">  1       -1 0.53846864E-03 0.80716412E+02</pdfrwt>
<totfact> 0.29065341E+05</totfact>
</mgrwt>
</event>
<event>
 8    1  0.2561077E-020  0.7894291E+02  0.7818608E-02  0.1332078E+00
          2   -1    0    0  501    0  0.00000000000E+00  0.00000000000E+00  0.92508925651E+03  0.92508925651E+03  0.25500000000E-02 0. -1.
         -1   -1    0    0    0  501 -0.00000000000E+00 -0.00000000000E+00 -0.16841532997E+01  0.16841608410E+01  0.50400000000E-02 0.  1.
         24    2    1    2    0    0  0.88817841970E-15  0.71054273576E-14  0.92340510321E+03  0.92677341735E+03  0.78942906458E+02 0.  0.
         66    2    3    3    0    0 -0.69963198421E+01 -0.28642060438E+02  0.76963320375E+03  0.77020035343E+03  0.19999999120E+01 0.  0.
        -13    1    3    3    0    0  0.69963198421E+01  0.28642060438E+02  0.15377189946E+03  0.15657306392E+03  0.10566000000E+00 0.  1.
         13    1    4    4    0    0 -0.97629893135E+00 -0.52099379676E+01  0.14159341660E+03  0.14169263708E+03  0.10566000000E+00 0. -1.
        -13    1    4    4    0    0 -0.38468975900E+01 -0.17297039798E+02  0.47030609807E+03  0.47063980203E+03  0.10566000000E+00 0.  1.
        -14    1    4    4    0    0 -0.21731233207E+01 -0.61350826720E+01  0.15773368908E+03  0.15786791433E+03  0.00000000000E+00 0.  1.
<mgrwt>
<rscale>  0 0.78942906E+02</rscale>
<asrwt>0</asrwt>
<pdfrwt beam="1">  1        2 0.14232132E+00 0.78942906E+02</pdfrwt>
<pdfrwt beam="2">  1       -1 0.25910129E-03 0.78942906E+02</pdfrwt>
<totfact> 0.36275150E+05</totfact>
</mgrwt>
</event>
<event>
 8    1  0.2561077E-020  0.8070986E+02  0.7818608E-02  0.1327049E+00
          2   -1    0    0  501    0  0.00000000000E+00  0.00000000000E+00  0.96680453332E+01  0.96680456694E+01  0.25500000000E-02 0. -1.
         -1   -1    0    0    0  501 -0.00000000000E+00 -0.00000000000E+00 -0.16844358716E+03  0.16844358724E+03  0.50400000000E-02 0.  1.
         24    2    1    2    0    0  0.00000000000E+00  0.35527136788E-14 -0.15877554183E+03  0.17811163290E+03  0.80709857475E+02 0.  0.
         66    2    3    3    0    0  0.17211343590E+02  0.30169816931E+02 -0.34206544648E+02  0.48790735816E+02  0.20000007216E+01 0.  0.
        -13    1    3    3    0    0 -0.17211343590E+02 -0.30169816931E+02 -0.12456899718E+03  0.12932089709E+03  0.10566000000E+00 0.  1.
         13    1    4    4    0    0  0.31202686900E+01  0.60549784209E+01 -0.71229742246E+01  0.98563059112E+01  0.10566000000E+00 0. -1.
        -13    1    4    4    0    0  0.40496476528E+01  0.59078478542E+01 -0.75057824115E+01  0.10375463653E+02  0.10566000000E+00 0.  1.
        -14    1    4    4    0    0  0.10041427247E+02  0.18206990656E+02 -0.19577788012E+02  0.28558966251E+02  0.00000000000E+00 0.  1.
<mgrwt>
<rscale>  0 0.80709857E+02</rscale>
<asrwt>0</asrwt>
<pdfrwt beam="1">  1        2 0.14873917E-02 0.80709857E+02</pdfrwt>
<pdfrwt beam="2">  1       -1 0.25914396E-01 0.80709857E+02</pdfrwt>
<totfact> 0.10231349E+05</totfact>
</mgrwt>
</event>
<event>
 8    1  0.2561077E-020  0.8030137E+02  0.7818608E-02  0.1328198E+00
          2   -1    0    0  501    0  0.00000000000E+00  0.00000000000E+00  0.16975245441E+03  0.16975245443E+03  0.25500000000E-02 0. -1.
         -1   -1    0    0    0  501 -0.00000000000E+00 -0.00000000000E+00 -0.94966357722E+01  0.94966371096E+01  0.50400000000E-02 0.  1.
         24    2    1    2    0    0  0.00000000000E+00  0.00000000000E+00  0.16025581864E+03  0.17924909154E+03  0.80301366180E+02 0.  0.
         66    2    3    3    0    0 -0.73811337640E+01 -0.31396908323E+02  0.13346247052E+03  0.13731889174E+03  0.20000009936E+01 0.  0.
        -13    1    3    3    0    0  0.73811337640E+01  0.31396908323E+02  0.26793348125E+02  0.41930199805E+02  0.10566000000E+00 0.  1.
         13    1    4    4    0    0 -0.53987188103E+00 -0.22695570416E+01  0.10996859254E+02  0.11242082917E+02  0.10566000000E+00 0. -1.
        -13    1    4    4    0    0 -0.60461868637E+01 -0.27017908164E+02  0.11434375823E+03  0.11764790668E+03  0.10566000000E+00 0.  1.
        -14    1    4    4    0    0 -0.79507501927E+00 -0.21094431171E+01  0.81218530348E+01  0.84289021391E+01  0.00000000000E+00 0.  1.
<mgrwt>
<rscale>  0 0.80301366E+02</rscale>
<asrwt>0</asrwt>
<pdfrwt beam="1">  1        2 0.26115763E-01 0.80301366E+02</pdfrwt>
<pdfrwt beam="2">  1       -1 0.14610209E-02 0.80301366E+02</pdfrwt>
<totfact> 0.20652579E+05</totfact>
</mgrwt>
</event>
<event>
 8    1  0.2561077E-020  0.7662669E+02  0.7818608E-02  0.1338906E+00
          2   -1    0    0  501    0  0.00000000000E+00  0.00000000000E+00  0.27444477074E+02  0.27444477192E+02  0.25500000000E-02 0. -1.
         -1   -1    0    0    0  501 -0.00000000000E+00 -0.00000000000E+00 -0.53486622390E+02  0.53486622628E+02  0.50400000000E-02 0.  1.
         24    2    1    2    0    0  0.00000000000E+00  0.00000000000E+00 -0.26042145317E+02  0.80931099820E+02  0.76626689772E+02 0.  0.
         66    2    3    3    0    0  0.85358676482E+01  0.19470475884E+02  0.20601331703E+02  0.29671119522E+02  0.19999995268E+01 0.  0.
        -13    1    3    3    0    0 -0.85358676482E+01 -0.19470475884E+02 -0.46643477020E+02  0.51259980298E+02  0.10566000000E+00 0.  1.
         13    1    4    4    0    0  0.98451563422E+00  0.31925134030E+01  0.29623099199E+01  0.44663023811E+01  0.10566000000E+00 0.  1.
        -13    1    4    4    0    0  0.44063805072E+01  0.92776793527E+01  0.11090888701E+02  0.15116563748E+02  0.10566000000E+00 0. -1.
         14    1    4    4    0    0  0.31449715068E+01  0.70002831281E+01  0.65481330822E+01  0.10088253393E+02  0.00000000000E+00 0. -1.
<mgrwt>
<rscale>  0 0.76626690E+02</rscale>
<asrwt>0</asrwt>
<pdfrwt beam="1">  1        2 0.42222273E-02 0.76626690E+02</pdfrwt>
<pdfrwt beam="2">  1       -1 0.82287112E-02 0.76626690E+02</pdfrwt>
<totfact> 0.14919966E+05</totfact>
</mgrwt>
</event>
<event>
 8    1  0.2561077E-020  0.7717499E+02  0.7818608E-02  0.1337265E+00
          2   -1    0    0  501    0  0.00000000000E+00  0.00000000000E+00  0.32665686514E+03  0.32665686515E+03  0.25500000000E-02 0. -1.
         -1   -1    0    0    0  501 -0.00000000000E+00 -0.00000000000E+00 -0.45582831292E+01  0.45582859155E+01  0.50400000000E-02 0.  1.
         24    2    1    2    0    0 -0.35527136788E-14  0.44408920985E-15  0.32209858202E+03  0.33121515107E+03  0.77174994409E+02 0.  0.
         66    2    3    3    0    0 -0.19257502506E+02  0.20318581487E+01  0.30427307621E+03  0.30489520290E+03  0.19999989824E+01 0.  0.
        -13    1    3    3    0    0  0.19257502506E+02 -0.20318581487E+01  0.17825505805E+02  0.26319948168E+02  0.10566000000E+00 0.  1.
         13    1    4    4    0    0 -0.94297753023E+01  0.10525318033E+01  0.13863119059E+03  0.13895555640E+03  0.10566000000E+00 0. -1.
        -13    1    4    4    0    0 -0.55255401274E+01  0.10799028151E+01  0.95520869712E+02  0.95686704920E+02  0.10566000000E+00 0.  1.
        -14    1    4    4    0    0 -0.43021870765E+01 -0.10057646979E+00  0.70121015909E+02  0.70252941585E+02  0.00000000000E+00 0.  1.
<mgrwt>
<rscale>  0 0.77174994E+02</rscale>
<asrwt>0</asrwt>
<pdfrwt beam="1">  1        2 0.50254912E-01 0.77174994E+02</pdfrwt>
<pdfrwt beam="2">  1       -1 0.70127440E-03 0.77174994E+02</pdfrwt>
<totfact> 0.28881262E+05</totfact>
</mgrwt>
</event>
<event>
 8    1  0.2561077E-020  0.7885152E+02  0.7818608E-02  0.1332343E+00
          2   -1    0    0  501    0  0.00000000000E+00  0.00000000000E+00  0.65432572593E+03  0.65432572593E+03  0.25500000000E-02 0. -1.
         -1   -1    0    0    0  501 -0.00000000000E+00 -0.00000000000E+00 -0.23755583730E+01  0.23755637194E+01  0.50400000000E-02 0.  1.
         24    2    1    2    0    0  0.00000000000E+00  0.17763568394E-14  0.65195016755E+03  0.65670128965E+03  0.78851524120E+02 0.  0.
         66    2    3    3    0    0  0.75522725904E+01  0.71087706369E+01  0.64274986725E+03  0.64283665367E+03  0.20000021306E+01 0.  0.
        -13    1    3    3    0    0 -0.75522725904E+01 -0.71087706369E+01  0.92003003071E+01  0.13864635986E+02  0.10566000000E+00 0.  1.
         13    1    4    4    0    0  0.21154363382E+01  0.23971418684E+01  0.23254861258E+03  0.23257061237E+03  0.10566000000E+00 0. -1.
        -13    1    4    4    0    0  0.68388120315E+00  0.25242719213E+00  0.30745892874E+02  0.30754715177E+02  0.10566000000E+00 0.  1.
         14    1    4    4    0    0  0.47529550491E+01  0.44592015764E+01  0.37945536180E+03  0.37951132612E+03  0.00000000000E+00 0. -1.
<mgrwt>
<rscale>  0 0.78851524E+02</rscale>
<asrwt>0</asrwt>
<pdfrwt beam="1">  1        2 0.10066552E+00 0.78851524E+02</pdfrwt>
<pdfrwt beam="2">  1       -1 0.36547085E-03 0.78851524E+02</pdfrwt>
<totfact> 0.34172892E+05</totfact>
</mgrwt>
</event>
<event>
 8    1  0.2561077E-020  0.7754615E+02  0.7818608E-02  0.1336163E+00
         -1   -1    0    0    0  501 -0.00000000000E+00  0.00000000000E+00  0.86801738734E+02  0.86801738881E+02  0.50400000000E-02 0.  1.
          2   -1    0    0  501    0  0.00000000000E+00 -0.00000000000E+00 -0.17319370327E+02  0.17319370514E+02  0.25500000000E-02 0. -1.
         24    2    1    2    0    0 -0.22204460493E-15  0.00000000000E+00  0.69482368408E+02  0.10412110939E+03  0.77546153367E+02 0.  0.
         66    2    3    3    0    0 -0.19026553576E+01  0.16693758538E+02 -0.12115854481E+02  0.20810949065E+02  0.19999999003E+01 0.  0.
        -13    1    3    3    0    0  0.19026553576E+01 -0.16693758538E+02  0.81598222889E+02  0.83310160330E+02  0.10566000000E+00 0.  1.
         13    1    4    4    0    0 -0.21832176924E-01  0.44970744321E+01 -0.41124405472E+01  0.60948737790E+01  0.10566000000E+00 0. -1.
        -13    1    4    4    0    0 -0.71617985417E+00  0.44003313388E+01 -0.26537223906E+01  0.51893386897E+01  0.10566000000E+00 0.  1.
         14    1    4    4    0    0 -0.11646433266E+01  0.77963527676E+01 -0.53496915436E+01  0.95267365958E+01  0.00000000000E+00 0. -1.
<mgrwt>
<rscale>  0 0.77546153E+02</rscale>
<asrwt>0</asrwt>
<pdfrwt beam="1">  1        2 0.26645185E-02 0.77546153E+02</pdfrwt>
<pdfrwt beam="2">  1       -1 0.13354114E-01 0.77546153E+02</pdfrwt>
<totfact> 0.13190430E+05</totfact>
</mgrwt>
</event>
<event>
 8    1  0.2561077E-020  0.8358395E+02  0.7818608E-02  0.1319178E+00
          2   -1    0    0  501    0  0.00000000000E+00  0.00000000000E+00  0.77010767044E+03  0.77010767044E+03  0.25500000000E-02 0. -1.
         -1   -1    0    0    0  501 -0.00000000000E+00 -0.00000000000E+00 -0.22679518672E+01  0.22679574673E+01  0.50400000000E-02 0.  1.
         24    2    1    2    0    0  0.35527136788E-14  0.00000000000E+00  0.76783971857E+03  0.77237562791E+03  0.83583952849E+02 0.  0.
         66    2    3    3    0    0 -0.20081176676E+02  0.16811715179E+02  0.68480716763E+03  0.68531069178E+03  0.20000006491E+01 0.  0.
        -13    1    3    3    0    0  0.20081176676E+02 -0.16811715179E+02  0.83032550938E+02  0.87064936130E+02  0.10566000000E+00 0.  1.
         13    1    4    4    0    0 -0.11382642452E+02  0.95137843762E+01  0.39126789120E+03  0.39154903970E+03  0.10566000000E+00 0. -1.
        -13    1    4    4    0    0 -0.47429204627E+01  0.37986482171E+01  0.17304643901E+03  0.17315312946E+03  0.10566000000E+00 0.  1.
        -14    1    4    4    0    0 -0.39556137612E+01  0.34992825859E+01  0.12049283742E+03  0.12060852262E+03  0.00000000000E+00 0.  1.
<mgrwt>
<rscale>  0 0.83583953E+02</rscale>
<asrwt>0</asrwt>
<pdfrwt beam="1">  1        2 0.11847815E+00 0.83583953E+02</pdfrwt>
<pdfrwt beam="2">  1       -1 0.34891596E-03 0.83583953E+02</pdfrwt>
<totfact> 0.30448511E+05</totfact>
</mgrwt>
</event>
<event>
 8    1  0.2561077E-020  0.7956790E+02  0.7818608E-02  0.1330282E+00
         -1   -1    0    0    0  501 -0.00000000000E+00  0.00000000000E+00  0.47496859969E+02  0.47496860236E+02  0.50400000000E-02 0.  1.
          2   -1    0    0  501    0  0.00000000000E+00 -0.00000000000E+00 -0.33323521043E+02  0.33323521141E+02  0.25500000000E-02 0. -1.
         24    2    1    2    0    0  0.71054273576E-14  0.00000000000E+00  0.14173338925E+02  0.80820381377E+02  0.79567898739E+02 0.  0.
         66    2    3    3    0    0  0.34829683784E+02 -0.18613045388E+02  0.24137206201E+01  0.39615380251E+02  0.19999935097E+01 0.  0.
        -13    1    3    3    0    0 -0.34829683784E+02  0.18613045388E+02  0.11759618305E+02  0.41205001127E+02  0.10566000000E+00 0.  1.
         13    1    4    4    0    0  0.28766915041E+01 -0.15421836793E+01 -0.67454506954E-01  0.32664045457E+01  0.10566000000E+00 0. -1.
        -13    1    4    4    0    0  0.28327602779E+02 -0.14653542251E+02  0.25034222658E+01  0.31991524921E+02  0.10566000000E+00 0.  1.
        -14    1    4    4    0    0  0.36253895007E+01 -0.24173194585E+01 -0.22247138810E-01  0.43574507836E+01  0.00000000000E+00 0.  1.
<mgrwt>
<rscale>  0 0.79567899E+02</rscale>
<asrwt>0</asrwt>
<pdfrwt beam="1">  1        2 0.51266956E-02 0.79567899E+02</pdfrwt>
<pdfrwt beam="2">  1       -1 0.73072093E-02 0.79567899E+02</pdfrwt>
<totfact> 0.13947393E+05</totfact>
</mgrwt>
</event>
<event>
 8    1  0.2561077E-020  0.7734876E+02  0.7818608E-02  0.1336748E+00
         -1   -1    0    0    0  501 -0.00000000000E+00  0.00000000000E+00  0.22675685056E+03  0.22675685061E+03  0.50400000000E-02 0.  1.
          2   -1    0    0  501    0  0.00000000000E+00 -0.00000000000E+00 -0.65960864086E+01  0.65960869015E+01  0.25500000000E-02 0. -1.
         24    2    1    2    0    0  0.00000000000E+00  0.35527136788E-14  0.22016076415E+03  0.23335293751E+03  0.77348764542E+02 0.  0.
         66    2    3    3    0    0 -0.32180086671E+02  0.15897438724E+02  0.66914595780E+02  0.75959526535E+02  0.20000017203E+01 0.  0.
        -13    1    3    3    0    0  0.32180086671E+02 -0.15897438724E+02  0.15324616837E+03  0.15739341098E+03  0.10566000000E+00 0.  1.
         13    1    4    4    0    0 -0.57492888403E+01  0.29705578568E+01  0.11192434178E+02  0.12929048032E+02  0.10566000000E+00 0. -1.
        -13    1    4    4    0    0 -0.62573170979E+01  0.23824865418E+01  0.12516635176E+02  0.14195336542E+02  0.10566000000E+00 0.  1.
         14    1    4    4    0    0 -0.20173480733E+02  0.10544394325E+02  0.43205526427E+02  0.48835141961E+02  0.00000000000E+00 0. -1.
<mgrwt>
<rscale>  0 0.77348765E+02</rscale>
<asrwt>0</asrwt>
<pdfrwt beam="1">  1        2 0.10147826E-02 0.77348765E+02</pdfrwt>
<pdfrwt beam="2">  1       -1 0.34885669E-01 0.77348765E+02</pdfrwt>
<totfact> 0.10432763E+05</totfact>
</mgrwt>
</event>
<event>
 8    1  0.2561077E-020  0.8243744E+02  0.7818608E-02  0.1322273E+00
         -1   -1    0    0    0  501 -0.00000000000E+00  0.00000000000E+00  0.11125521642E+03  0.11125521654E+03  0.50400000000E-02 0.  1.
          2   -1    0    0  501    0  0.00000000000E+00 -0.00000000000E+00 -0.15271040301E+02  0.15271040514E+02  0.25500000000E-02 0. -1.
         24    2    1    2    0    0 -0.35527136788E-14 -0.71054273576E-14  0.95984176123E+02  0.12652625705E+03  0.82437440874E+02 0.  0.
         66    2    3    3    0    0 -0.24229569358E+02 -0.32782819678E+02  0.38915211846E+02  0.56393075569E+02  0.19999904645E+01 0.  0.
        -13    1    3    3    0    0  0.24229569358E+02  0.32782819678E+02  0.57068964277E+02  0.70133181483E+02  0.10566000000E+00 0.  1.
         13    1    4    4    0    0 -0.12732368259E+02 -0.16770577105E+02  0.18879635164E+02  0.28281040396E+02  0.10566000000E+00 0. -1.
        -13    1    4    4    0    0 -0.94375072771E+01 -0.12870813968E+02  0.16033938613E+02  0.22623499890E+02  0.10566000000E+00 0.  1.
        -14    1    4    4    0    0 -0.20596938218E+01 -0.31414286041E+01  0.40016380693E+01  0.54885352829E+01  0.00000000000E+00 0.  1.
<mgrwt>
<rscale>  0 0.82437441E+02</rscale>
<asrwt>0</asrwt>
<pdfrwt beam="1">  1        2 0.23493909E-02 0.82437441E+02</pdfrwt>
<pdfrwt beam="2">  1       -1 0.17116187E-01 0.82437441E+02</pdfrwt>
<totfact> 0.10742299E+05</totfact>
</mgrwt>
</event>
<event>
 8    1  0.2561077E-020  0.8111529E+02  0.7818608E-02  0.1325916E+00
         -1   -1    0    0    0  501 -0.00000000000E+00  0.00000000000E+00  0.85656483584E+01  0.85656498412E+01  0.50400000000E-02 0.  1.
          2   -1    0    0  501    0  0.00000000000E+00 -0.00000000000E+00 -0.19203712934E+03  0.19203712936E+03  0.25500000000E-02 0. -1.
         24    2    1    2    0    0  0.35527136788E-14  0.22204460493E-15 -0.18347148099E+03  0.20060277920E+03  0.81115292569E+02 0.  0.
         66    2    3    3    0    0  0.13754379705E+02  0.12570318760E+01 -0.18603251639E+03  0.18655524716E+03  0.19999993015E+01 0.  0.
        -13    1    3    3    0    0 -0.13754379705E+02 -0.12570318760E+01  0.25610354034E+01  0.14047532046E+02  0.10566000000E+00 0.  1.
         13    1    4    4    0    0  0.11709518287E+02  0.93913307207E+00 -0.15049780888E+03  0.15095561079E+03  0.10566000000E+00 0. -1.
        -13    1    4    4    0    0  0.78393481681E+00  0.20482641492E+00 -0.98891711027E+01  0.99228713985E+01  0.10566000000E+00 0. -1.
         14    1    4    4    0    0  0.12609266014E+01  0.11307238899E+00 -0.25645536410E+02  0.25676764964E+02  0.00000000000E+00 0. -1.
<mgrwt>
<rscale>  0 0.81115293E+02</rscale>
<asrwt>0</asrwt>
<pdfrwt beam="1">  1        2 0.29544171E-01 0.81115293E+02</pdfrwt>
<pdfrwt beam="2">  1       -1 0.13177923E-02 0.81115293E+02</pdfrwt>
<totfact> 0.20969372E+05</totfact>
</mgrwt>
</event>
<event>
 8    1  0.2561077E-020  0.7921644E+02  0.7818608E-02  0.1331290E+00
         -1   -1    0    0    0  501 -0.00000000000E+00  0.00000000000E+00  0.19245795830E+01  0.19245861822E+01  0.50400000000E-02 0.  1.
          2   -1    0    0  501    0  0.00000000000E+00 -0.00000000000E+00 -0.81514343382E+03  0.81514343382E+03  0.25500000000E-02 0. -1.
         24    2    1    2    0    0  0.17763568394E-14  0.35527136788E-14 -0.81321885423E+03  0.81706802000E+03  0.79216440404E+02 0.  0.
         66    2    3    3    0    0  0.12875027815E+02  0.19893750730E+02 -0.73389675124E+03  0.73428194118E+03  0.20000011373E+01 0.  0.
        -13    1    3    3    0    0 -0.12875027815E+02 -0.19893750730E+02 -0.79322102998E+02  0.82786078826E+02  0.10566000000E+00 0.  1.
         13    1    4    4    0    0  0.65064408368E+01  0.83242436030E+01 -0.31929424899E+03  0.31946902104E+03  0.10566000000E+00 0. -1.
        -13    1    4    4    0    0  0.12672254023E+01  0.24976853852E+01 -0.87008577452E+02  0.87053707599E+02  0.10566000000E+00 0.  1.
         14    1    4    4    0    0  0.51013615762E+01  0.90718217417E+01 -0.32759392480E+03  0.32775921254E+03  0.00000000000E+00 0. -1.
<mgrwt>
<rscale>  0 0.79216440E+02</rscale>
<asrwt>0</asrwt>
<pdfrwt beam="1">  1        2 0.12540641E+00 0.79216440E+02</pdfrwt>
<pdfrwt beam="2">  1       -1 0.29609033E-03 0.79216440E+02</pdfrwt>
<totfact> 0.35366304E+05</totfact>
</mgrwt>
</event>
<event>
 8    1  0.2561077E-020  0.7875775E+02  0.7818608E-02  0.1332614E+00
          2   -1    0    0  501    0  0.00000000000E+00  0.00000000000E+00  0.14835504265E+02  0.14835504484E+02  0.25500000000E-02 0. -1.
         -1   -1    0    0    0  501 -0.00000000000E+00 -0.00000000000E+00 -0.10452598158E+03  0.10452598170E+03  0.50400000000E-02 0.  1.
         24    2    1    2    0    0  0.00000000000E+00  0.00000000000E+00 -0.89690477316E+02  0.11936148619E+03  0.78757746688E+02 0.  0.
         66    2    3    3    0    0  0.33811442656E+02 -0.11114403523E+02 -0.19426013037E+02  0.40596965464E+02  0.20000005422E+01 0.  0.
        -13    1    3    3    0    0 -0.33811442656E+02  0.11114403523E+02 -0.70264464279E+02  0.78764520723E+02  0.10566000000E+00 0.  1.
         13    1    4    4    0    0  0.18107295094E+02 -0.64512880903E+01 -0.10266250839E+02  0.21792207873E+02  0.10566000000E+00 0. -1.
        -13    1    4    4    0    0  0.69110493163E+00 -0.41529369976E+00 -0.33406906259E+00  0.87912516615E+00  0.10566000000E+00 0.  1.
        -14    1    4    4    0    0  0.15013042631E+02 -0.42478217330E+01 -0.88256931355E+01  0.17925632425E+02  0.00000000000E+00 0.  1.
<mgrwt>
<rscale>  0 0.78757747E+02</rscale>
<asrwt>0</asrwt>
<pdfrwt beam="1">  1        2 0.22823854E-02 0.78757747E+02</pdfrwt>
<pdfrwt beam="2">  1       -1 0.16080920E-01 0.78757747E+02</pdfrwt>
<totfact> 0.12208194E+05</totfact>
</mgrwt>
</event>
<event>
 8    1  0.2561077E-020  0.7983561E+02  0.7818608E-02  0.1329519E+00
          2   -1    0    0  501    0  0.00000000000E+00  0.00000000000E+00  0.46160021448E+01  0.46160028492E+01  0.25500000000E-02 0. -1.
         -1   -1    0    0    0  501 -0.00000000000E+00 -0.00000000000E+00 -0.34519724303E+03  0.34519724306E+03  0.50400000000E-02 0.  1.
         24    2    1    2    0    0  0.00000000000E+00  0.00000000000E+00 -0.34058124088E+03  0.34981324591E+03  0.79835614705E+02 0.  0.
         66    2    3    3    0    0  0.13486136173E+02  0.16935141888E+02 -0.31721589991E+03  0.31796006361E+03  0.20000000378E+01 0.  0.
        -13    1    3    3    0    0 -0.13486136173E+02 -0.16935141888E+02 -0.23365340977E+02  0.31853182300E+02  0.10566000000E+00 0.  1.
         13    1    4    4    0    0  0.61256999423E+01  0.91539891377E+01 -0.16478278145E+03  0.16515052511E+03  0.10566000000E+00 0. -1.
        -13    1    4    4    0    0  0.56100733866E+01  0.58347545739E+01 -0.11742075667E+03  0.11769945856E+03  0.10566000000E+00 0.  1.
         14    1    4    4    0    0  0.17503628445E+01  0.19463981766E+01 -0.35012361784E+02  0.35110079943E+02  0.00000000000E+00 0. -1.
<mgrwt>
<rscale>  0 0.79835615E+02</rscale>
<asrwt>0</asrwt>
<pdfrwt beam="1">  1        2 0.71015451E-03 0.79835615E+02</pdfrwt>
<pdfrwt beam="2">  1       -1 0.53107248E-01 0.79835615E+02</pdfrwt>
<totfact> 0.81817956E+04</totfact>
</mgrwt>
</event>
<event>
 8    1  0.2561077E-020  0.7958566E+02  0.7818608E-02  0.1330231E+00
          2   -1    0    0  501    0  0.00000000000E+00  0.00000000000E+00  0.25553626305E+02  0.25553626432E+02  0.25500000000E-02 0. -1.
         -1   -1    0    0    0  501 -0.00000000000E+00 -0.00000000000E+00 -0.61966513677E+02  0.61966513882E+02  0.50400000000E-02 0.  1.
         24    2    1    2    0    0 -0.71054273576E-14  0.00000000000E+00 -0.36412887373E+02  0.87520140314E+02  0.79585655704E+02 0.  0.
         66    2    3    3    0    0 -0.35947268592E+02 -0.23602553968E+01  0.30431444769E+00  0.36081429227E+02  0.20000007587E+01 0.  0.
        -13    1    3    3    0    0  0.35947268592E+02  0.23602553968E+01 -0.36717201820E+02  0.51438711087E+02  0.10566000000E+00 0.  1.
         13    1    4    4    0    0 -0.21017767729E+02 -0.17161712764E+01  0.71854929200E+00  0.21100219934E+02  0.10566000000E+00 0. -1.
        -13    1    4    4    0    0 -0.14046886545E+02 -0.74244311204E+00 -0.57527297098E+00  0.14078648600E+02  0.10566000000E+00 0.  1.
        -14    1    4    4    0    0 -0.88261431870E+00  0.98358991660E-01  0.16103812667E+00  0.90256069328E+00  0.00000000000E+00 0.  1.
<mgrwt>
<rscale>  0 0.79585656E+02</rscale>
<asrwt>0</asrwt>
<pdfrwt beam="1">  1        2 0.39313272E-02 0.79585656E+02</pdfrwt>
<pdfrwt beam="2">  1       -1 0.95333098E-02 0.79585656E+02</pdfrwt>
<totfact> 0.13229357E+05</totfact>
</mgrwt>
</event>
<event>
 8    1  0.2561077E-020  0.8144602E+02  0.7818608E-02  0.1324997E+00
         -1   -1    0    0    0  501 -0.00000000000E+00  0.00000000000E+00  0.20483424197E+03  0.20483424203E+03  0.50400000000E-02 0.  1.
          2   -1    0    0  501    0  0.00000000000E+00 -0.00000000000E+00 -0.80961251881E+01  0.80961255897E+01  0.25500000000E-02 0. -1.
         24    2    1    2    0    0  0.00000000000E+00  0.00000000000E+00  0.19673811678E+03  0.21293036762E+03  0.81446024217E+02 0.  0.
         66    2    3    3    0    0  0.29733917435E+02  0.18303496804E+02  0.15309519526E+03  0.15703904804E+03  0.19999893498E+01 0.  0.
        -13    1    3    3    0    0 -0.29733917435E+02 -0.18303496804E+02  0.43642921525E+02  0.55891319582E+02  0.10566000000E+00 0.  1.
         13    1    4    4    0    0  0.14257085547E+02  0.86045798343E+01  0.72158406485E+02  0.74055047585E+02  0.10566000000E+00 0. -1.
        -13    1    4    4    0    0  0.40380612579E+01  0.21364622924E+01  0.18039413288E+02  0.18609191430E+02  0.10566000000E+00 0.  1.
         14    1    4    4    0    0  0.11438770630E+02  0.75624546775E+01  0.62897375486E+02  0.64374809027E+02  0.00000000000E+00 0. -1.
<mgrwt>
<rscale>  0 0.81446024E+02</rscale>
<asrwt>0</asrwt>
<pdfrwt beam="1">  1        2 0.12455576E-02 0.81446024E+02</pdfrwt>
<pdfrwt beam="2">  1       -1 0.31512965E-01 0.81446024E+02</pdfrwt>
<totfact> 0.94469960E+04</totfact>
</mgrwt>
</event>
<event>
 8    1  0.2561077E-020  0.7959867E+02  0.7818608E-02  0.1330194E+00
         -1   -1    0    0    0  501 -0.00000000000E+00  0.00000000000E+00  0.13397790244E+02  0.13397791192E+02  0.50400000000E-02 0.  1.
          2   -1    0    0  501    0  0.00000000000E+00 -0.00000000000E+00 -0.11822747070E+03  0.11822747073E+03  0.25500000000E-02 0. -1.
         24    2    1    2    0    0  0.00000000000E+00  0.71054273576E-14 -0.10482968046E+03  0.13162526192E+03  0.79598666264E+02 0.  0.
         66    2    3    3    0    0  0.85562269631E+01  0.28718597997E+02 -0.95695864740E+02  0.10029788341E+03  0.19999993532E+01 0.  0.
        -13    1    3    3    0    0 -0.85562269631E+01 -0.28718597997E+02 -0.91338157173E+01  0.31327378511E+02  0.10566000000E+00 0.  1.
         13    1    4    4    0    0  0.58149524856E+01  0.18327085539E+02 -0.62730693251E+02  0.65611331160E+02  0.10566000000E+00 0. -1.
        -13    1    4    4    0    0  0.21122084814E+01  0.86424247873E+01 -0.28259324226E+02  0.29626905012E+02  0.10566000000E+00 0.  1.
        -14    1    4    4    0    0  0.62906599611E+00  0.17490876709E+01 -0.47058472634E+01  0.50596472382E+01  0.00000000000E+00 0.  1.
<mgrwt>
<rscale>  0 0.79598666E+02</rscale>
<asrwt>0</asrwt>
<pdfrwt beam="1">  1        2 0.18188841E-01 0.79598666E+02</pdfrwt>
<pdfrwt beam="2">  1       -1 0.20611987E-02 0.79598666E+02</pdfrwt>
<totfact> 0.18855001E+05</totfact>
</mgrwt>
</event>
<event>
 8    1  0.2561077E-020  0.8038168E+02  0.7818608E-02  0.1327972E+00
         -1   -1    0    0    0  501 -0.00000000000E+00  0.00000000000E+00  0.34552604031E+01  0.34552640789E+01  0.50400000000E-02 0.  1.
          2   -1    0    0  501    0  0.00000000000E+00 -0.00000000000E+00 -0.46749085969E+03  0.46749085970E+03  0.25500000000E-02 0. -1.
         24    2    1    2    0    0  0.00000000000E+00  0.00000000000E+00 -0.46403559929E+03  0.47094612378E+03  0.80381677601E+02 0.  0.
         66    2    3    3    0    0  0.28645874576E+02  0.87599838630E+01 -0.38893109560E+03  0.39008809334E+03  0.19999988889E+01 0.  0.
        -13    1    3    3    0    0 -0.28645874576E+02 -0.87599838630E+01 -0.75104503692E+02  0.80858030439E+02  0.10566000000E+00 0.  1.
         13    1    4    4    0    0  0.42979792680E+01  0.11159199773E+01 -0.54312515727E+02  0.54493838476E+02  0.10566000000E+00 0. -1.
        -13    1    4    4    0    0  0.24071643765E+02  0.76118470883E+01 -0.33256526586E+03  0.33352219037E+03  0.10566000000E+00 0.  1.
        -14    1    4    4    0    0  0.27625154279E+00  0.32216797469E-01 -0.20533140072E+01  0.20720644896E+01  0.00000000000E+00 0.  1.
<mgrwt>
<rscale>  0 0.80381678E+02</rscale>
<asrwt>0</asrwt>
<pdfrwt beam="1">  1        2 0.71921621E-01 0.80381678E+02</pdfrwt>
<pdfrwt beam="2">  1       -1 0.53157918E-03 0.80381678E+02</pdfrwt>
<totfact> 0.29426647E+05</totfact>
</mgrwt>
</event>
<event>
 8    1  0.2561077E-020  0.7658312E+02  0.7818608E-02  0.1339038E+00
         -1   -1    0    0    0  501 -0.00000000000E+00  0.00000000000E+00  0.49332871052E+01  0.49332896797E+01  0.50400000000E-02 0.  1.
          2   -1    0    0  501    0  0.00000000000E+00 -0.00000000000E+00 -0.29721420410E+03  0.29721420411E+03  0.25500000000E-02 0. -1.
         24    2    1    2    0    0  0.35527136788E-14  0.17763568394E-14 -0.29228091700E+03  0.30214749379E+03  0.76583115402E+02 0.  0.
         66    2    3    3    0    0  0.18456978832E+02  0.14573691898E+02 -0.26533373682E+03  0.26638138908E+03  0.19999969866E+01 0.  0.
        -13    1    3    3    0    0 -0.18456978832E+02 -0.14573691898E+02 -0.26947180178E+02  0.35766104718E+02  0.10566000000E+00 0.  1.
         13    1    4    4    0    0  0.14922527636E+02  0.11907896684E+02 -0.21028426902E+03  0.21114915296E+03  0.10566000000E+00 0. -1.
        -13    1    4    4    0    0  0.64568288583E+00  0.86814212625E+00 -0.13239007937E+02  0.13283563992E+02  0.10566000000E+00 0. -1.
         14    1    4    4    0    0  0.28887683101E+01  0.17976530879E+01 -0.41810459859E+02  0.41948672120E+02  0.00000000000E+00 0. -1.
<mgrwt>
<rscale>  0 0.76583115E+02</rscale>
<asrwt>0</asrwt>
<pdfrwt beam="1">  1        2 0.45725248E-01 0.76583115E+02</pdfrwt>
<pdfrwt beam="2">  1       -1 0.75896768E-03 0.76583115E+02</pdfrwt>
<totfact> 0.28482536E+05</totfact>
</mgrwt>
</event>
<event>
 8    1  0.2561077E-020  0.8201098E+02  0.7818608E-02  0.1323440E+00
         -1   -1    0    0    0  501 -0.00000000000E+00  0.00000000000E+00  0.20770933628E+02  0.20770934239E+02  0.50400000000E-02 0.  1.
          2   -1    0    0  501    0  0.00000000000E+00 -0.00000000000E+00 -0.80952078290E+02  0.80952078330E+02  0.25500000000E-02 0. -1.
         24    2    1    2    0    0  0.35527136788E-14  0.00000000000E+00 -0.60181144662E+02  0.10172301257E+03  0.82010981663E+02 0.  0.
         66    2    3    3    0    0  0.30948672458E+02  0.21797597774E+02 -0.49582032850E+02  0.62412607702E+02  0.20000057511E+01 0.  0.
        -13    1    3    3    0    0 -0.30948672458E+02 -0.21797597774E+02 -0.10599111813E+02  0.39310404868E+02  0.10566000000E+00 0.  1.
         13    1    4    4    0    0  0.11842214638E+02  0.81854049156E+01 -0.17819471327E+02  0.22908156268E+02  0.10566000000E+00 0. -1.
        -13    1    4    4    0    0  0.15486140759E+02  0.11239274138E+02 -0.26593808582E+02  0.32762534360E+02  0.10566000000E+00 0.  1.
        -14    1    4    4    0    0  0.36203170609E+01  0.23729187206E+01 -0.51687529401E+01  0.67419170739E+01  0.00000000000E+00 0.  1.
<mgrwt>
<rscale>  0 0.82010982E+02</rscale>
<asrwt>0</asrwt>
<pdfrwt beam="1">  1        2 0.12454166E-01 0.82010982E+02</pdfrwt>
<pdfrwt beam="2">  1       -1 0.31955283E-02 0.82010982E+02</pdfrwt>
<totfact> 0.15661163E+05</totfact>
</mgrwt>
</event>
<event>
 8    1  0.2561077E-020  0.7991582E+02  0.7818608E-02  0.1329291E+00
          2   -1    0    0  501    0  0.00000000000E+00  0.00000000000E+00  0.17102832548E+03  0.17102832550E+03  0.25500000000E-02 0. -1.
         -1   -1    0    0    0  501 -0.00000000000E+00 -0.00000000000E+00 -0.93354966751E+01  0.93354980356E+01  0.50400000000E-02 0.  1.
         24    2    1    2    0    0  0.00000000000E+00  0.00000000000E+00  0.16169282880E+03  0.18036382353E+03  0.79915817915E+02 0.  0.
         66    2    3    3    0    0 -0.73539440326E+01  0.33181012514E+02  0.12821535019E+03  0.13265834353E+03  0.19999995940E+01 0.  0.
        -13    1    3    3    0    0  0.73539440326E+01 -0.33181012514E+02  0.33477478610E+02  0.47705480004E+02  0.10566000000E+00 0.  1.
         13    1    4    4    0    0 -0.25535290427E+01  0.15487649382E+02  0.59701505510E+02  0.61730614108E+02  0.10566000000E+00 0. -1.
        -13    1    4    4    0    0 -0.53341149570E+00  0.13997289302E+01  0.53406650875E+01  0.55477595941E+01  0.10566000000E+00 0. -1.
        -14    1    4    4    0    0 -0.42670034941E+01  0.16293634201E+02  0.63173179596E+02  0.65379969827E+02  0.00000000000E+00 0.  1.
<mgrwt>
<rscale>  0 0.79915818E+02</rscale>
<asrwt>0</asrwt>
<pdfrwt beam="1">  1        2 0.26312049E-01 0.79915818E+02</pdfrwt>
<pdfrwt beam="2">  1       -1 0.14362304E-02 0.79915818E+02</pdfrwt>
<totfact> 0.20969726E+05</totfact>
</mgrwt>
</event>
<event>
 8    1  0.2561077E-020  0.7887325E+02  0.7818608E-02  0.1332280E+00
         -1   -1    0    0    0  501 -0.00000000000E+00  0.00000000000E+00  0.14893925968E+02  0.14893926820E+02  0.50400000000E-02 0.  1.
          2   -1    0    0  501    0  0.00000000000E+00 -0.00000000000E+00 -0.10442158548E+03  0.10442158551E+03  0.25500000000E-02 0. -1.
         24    2    1    2    0    0  0.00000000000E+00  0.00000000000E+00 -0.89527659515E+02  0.11931551233E+03  0.78873250633E+02 0.  0.
         66    2    3    3    0    0 -0.34983036356E+01  0.11792816018E+02 -0.10143353410E+03  0.10219623514E+03  0.19999996297E+01 0.  0.
        -13    1    3    3    0    0  0.34983036356E+01 -0.11792816018E+02  0.11905874586E+02  0.17119277195E+02  0.10566000000E+00 0.  1.
         13    1    4    4    0    0 -0.92181251716E+00  0.19774674067E+01 -0.19745149114E+02  0.19865603269E+02  0.10566000000E+00 0. -1.
        -13    1    4    4    0    0 -0.53625394552E+00  0.26627131719E+01 -0.27533046783E+02  0.27666901506E+02  0.10566000000E+00 0.  1.
        -14    1    4    4    0    0 -0.20402371730E+01  0.71526354397E+01 -0.54155338204E+02  0.54663730365E+02  0.00000000000E+00 0.  1.
<mgrwt>
<rscale>  0 0.78873251E+02</rscale>
<asrwt>0</asrwt>
<pdfrwt beam="1">  1        2 0.16064859E-01 0.78873251E+02</pdfrwt>
<pdfrwt beam="2">  1       -1 0.22913734E-02 0.78873251E+02</pdfrwt>
<totfact> 0.18637158E+05</totfact>
</mgrwt>
</event>
<event>
 8    1  0.2561077E-020  0.7998022E+02  0.7818608E-02  0.1329108E+00
         -1   -1    0    0    0  501 -0.00000000000E+00  0.00000000000E+00  0.97582170284E+00  0.97583471825E+00  0.50400000000E-02 0.  1.
          2   -1    0    0  501    0  0.00000000000E+00 -0.00000000000E+00 -0.16388220586E+04  0.16388220586E+04  0.25500000000E-02 0. -1.
         24    2    1    2    0    0 -0.17763568394E-14  0.27755575616E-16 -0.16378462369E+04  0.16397978933E+04  0.79980217674E+02 0.  0.
         66    2    3    3    0    0 -0.12134052114E+02  0.22884041534E+00 -0.16001248217E+04  0.16001720947E+04  0.20000007268E+01 0.  0.
        -13    1    3    3    0    0  0.12134052114E+02 -0.22884041534E+00 -0.37721415131E+02  0.39625798568E+02  0.10566000000E+00 0.  1.
         13    1    4    4    0    0 -0.20207234978E+01  0.13093070380E+00 -0.35327129803E+03  0.35327711735E+03  0.10566000000E+00 0. -1.
        -13    1    4    4    0    0 -0.12370252659E+01 -0.31653430772E+00 -0.15502900048E+03  0.15503429485E+03  0.10566000000E+00 0.  1.
         14    1    4    4    0    0 -0.88763033499E+01  0.41444401926E+00 -0.10918245232E+04  0.10918606825E+04  0.00000000000E+00 0. -1.
<mgrwt>
<rscale>  0 0.79980218E+02</rscale>
<asrwt>0</asrwt>
<pdfrwt beam="1">  1        2 0.25212427E+00 0.79980218E+02</pdfrwt>
<pdfrwt beam="2">  1       -1 0.15012873E-03 0.79980218E+02</pdfrwt>
<totfact> 0.31990668E+05</totfact>
</mgrwt>
</event>
<event>
 8    1  0.2561077E-020  0.7958775E+02  0.7818608E-02  0.1330225E+00
          2   -1    0    0  501    0  0.00000000000E+00  0.00000000000E+00  0.27900973992E+02  0.27900974108E+02  0.25500000000E-02 0. -1.
         -1   -1    0    0    0  501 -0.00000000000E+00 -0.00000000000E+00 -0.56756175620E+02  0.56756175844E+02  0.50400000000E-02 0.  1.
         24    2    1    2    0    0 -0.88817841970E-15  0.00000000000E+00 -0.28855201629E+02  0.84657149952E+02  0.79587752682E+02 0.  0.
         66    2    3    3    0    0 -0.78428715269E+01  0.35621627361E+02  0.24200102279E+01  0.36609662917E+02  0.19999999368E+01 0.  0.
        -13    1    3    3    0    0  0.78428715269E+01 -0.35621627361E+02 -0.31275211856E+02  0.48047487035E+02  0.10566000000E+00 0.  1.
         13    1    4    4    0    0 -0.23385119161E+01  0.11727290263E+02  0.10675640263E+01  0.12006199727E+02  0.10566000000E+00 0. -1.
        -13    1    4    4    0    0 -0.20388486171E+01  0.96661196449E+01  0.12566592739E+01  0.99589722984E+01  0.10566000000E+00 0.  1.
         14    1    4    4    0    0 -0.34655109937E+01  0.14228217453E+02  0.95786927621E-01  0.14644490892E+02  0.00000000000E+00 0. -1.
<mgrwt>
<rscale>  0 0.79587753E+02</rscale>
<asrwt>0</asrwt>
<pdfrwt beam="1">  1        2 0.42924575E-02 0.79587753E+02</pdfrwt>
<pdfrwt beam="2">  1       -1 0.87317194E-02 0.79587753E+02</pdfrwt>
<totfact> 0.13458426E+05</totfact>
</mgrwt>
</event>
<event>
 8    1  0.2561077E-020  0.8007911E+02  0.7818608E-02  0.1328827E+00
          2   -1    0    0  501    0  0.00000000000E+00  0.00000000000E+00  0.75630692517E+03  0.75630692518E+03  0.25500000000E-02 0. -1.
         -1   -1    0    0    0  501 -0.00000000000E+00 -0.00000000000E+00 -0.21197261285E+01  0.21197321202E+01  0.50400000000E-02 0.  1.
         24    2    1    2    0    0  0.35527136788E-14  0.35527136788E-14  0.75418719904E+03  0.75842665730E+03  0.80079106494E+02 0.  0.
         66    2    3    3    0    0 -0.15742252713E+02 -0.23084423366E+02  0.64861010629E+03  0.64921474036E+03  0.19999991350E+01 0.  0.
        -13    1    3    3    0    0  0.15742252713E+02  0.23084423366E+02  0.10557709275E+03  0.10921191694E+03  0.10566000000E+00 0.  1.
         13    1    4    4    0    0 -0.13411989030E+02 -0.19995848209E+02  0.56531505262E+03  0.56582756674E+03  0.10566000000E+00 0. -1.
        -13    1    4    4    0    0 -0.95697785413E+00 -0.17370861412E+01  0.44521686889E+02  0.44565962824E+02  0.10566000000E+00 0.  1.
         14    1    4    4    0    0 -0.13732858291E+01 -0.13514890159E+01  0.38773366782E+02  0.38821210802E+02  0.00000000000E+00 0. -1.
<mgrwt>
<rscale>  0 0.80079106E+02</rscale>
<asrwt>0</asrwt>
<pdfrwt beam="1">  1        2 0.11635492E+00 0.80079106E+02</pdfrwt>
<pdfrwt beam="2">  1       -1 0.32611215E-03 0.80079106E+02</pdfrwt>
<totfact> 0.33922382E+05</totfact>
</mgrwt>
</event>
<event>
 8    1  0.2561077E-020  0.7998751E+02  0.7818608E-02  0.1329087E+00
         -1   -1    0    0    0  501 -0.00000000000E+00  0.00000000000E+00  0.41439637353E+01  0.41439668002E+01  0.50400000000E-02 0.  1.
          2   -1    0    0  501    0  0.00000000000E+00 -0.00000000000E+00 -0.38598311435E+03  0.38598311436E+03  0.25500000000E-02 0. -1.
         24    2    1    2    0    0 -0.88817841970E-15  0.00000000000E+00 -0.38183915061E+03  0.39012708116E+03  0.79987514721E+02 0.  0.
         66    2    3    3    0    0  0.67332427462E+01  0.33317201315E+02 -0.29359329990E+03  0.29556115815E+03  0.20000004525E+01 0.  0.
        -13    1    3    3    0    0 -0.67332427462E+01 -0.33317201315E+02 -0.88245850718E+02  0.94565923008E+02  0.10566000000E+00 0.  1.
         13    1    4    4    0    0  0.11462818875E+01  0.37650865754E+01 -0.32357122259E+02  0.32595772180E+02  0.10566000000E+00 0. -1.
        -13    1    4    4    0    0 -0.46007357150E-02  0.10527899852E+01 -0.10251838316E+02  0.10306296173E+02  0.10566000000E+00 0.  1.
         14    1    4    4    0    0  0.55915615944E+01  0.28499324755E+02 -0.25098433932E+03  0.25265908980E+03  0.00000000000E+00 0. -1.
<mgrwt>
<rscale>  0 0.79987515E+02</rscale>
<asrwt>0</asrwt>
<pdfrwt beam="1">  1        2 0.59381989E-01 0.79987515E+02</pdfrwt>
<pdfrwt beam="2">  1       -1 0.63753343E-03 0.79987515E+02</pdfrwt>
<totfact> 0.27913288E+05</totfact>
</mgrwt>
</event>
<event>
 8    1  0.2561077E-020  0.8138575E+02  0.7818608E-02  0.1325164E+00
          2   -1    0    0  501    0  0.00000000000E+00  0.00000000000E+00  0.55383970115E+03  0.55383970116E+03  0.25500000000E-02 0. -1.
         -1   -1    0    0    0  501 -0.00000000000E+00 -0.00000000000E+00 -0.29898702268E+01  0.29898744748E+01  0.50400000000E-02 0.  1.
         24    2    1    2    0    0  0.00000000000E+00  0.00000000000E+00  0.55084983093E+03  0.55682957563E+03  0.81385748562E+02 0.  0.
         66    2    3    3    0    0 -0.34307649129E+02  0.19980678676E+02  0.33588563291E+03  0.33822980459E+03  0.20000015203E+01 0.  0.
        -13    1    3    3    0    0  0.34307649129E+02 -0.19980678676E+02  0.21496419802E+03  0.21859977105E+03  0.10566000000E+00 0.  1.
         13    1    4    4    0    0 -0.11246040813E+02  0.65068740899E+01  0.10471848693E+03  0.10552149313E+03  0.10566000000E+00 0. -1.
        -13    1    4    4    0    0 -0.15690910509E+02  0.94927405273E+01  0.16293490179E+03  0.16396374654E+03  0.10566000000E+00 0.  1.
        -14    1    4    4    0    0 -0.73706978070E+01  0.39810640593E+01  0.68232244191E+02  0.68744564909E+02  0.00000000000E+00 0.  1.
<mgrwt>
<rscale>  0 0.81385749E+02</rscale>
<asrwt>0</asrwt>
<pdfrwt beam="1">  1        2 0.85206134E-01 0.81385749E+02</pdfrwt>
<pdfrwt beam="2">  1       -1 0.45998022E-03 0.81385749E+02</pdfrwt>
<totfact> 0.30052934E+05</totfact>
</mgrwt>
</event>
<event>
 8    1  0.2561077E-020  0.8027172E+02  0.7818608E-02  0.1328282E+00
          2   -1    0    0  501    0  0.00000000000E+00  0.00000000000E+00  0.43857155954E+03  0.43857155955E+03  0.25500000000E-02 0. -1.
         -1   -1    0    0    0  501 -0.00000000000E+00 -0.00000000000E+00 -0.36730303039E+01  0.36730337617E+01  0.50400000000E-02 0.  1.
         24    2    1    2    0    0  0.00000000000E+00  0.00000000000E+00  0.43489852924E+03  0.44224459331E+03  0.80271723411E+02 0.  0.
         66    2    3    3    0    0 -0.65884748310E+01 -0.30711827941E+02  0.35501503386E+03  0.35640748959E+03  0.19999996658E+01 0.  0.
        -13    1    3    3    0    0  0.65884748310E+01  0.30711827941E+02  0.79883495380E+02  0.85837103715E+02  0.10566000000E+00 0.  1.
         13    1    4    4    0    0 -0.29706239328E+01 -0.14339762061E+02  0.16976261729E+03  0.17039310660E+03  0.10566000000E+00 0. -1.
        -13    1    4    4    0    0 -0.76270141060E+00 -0.34424989307E+01  0.45191592391E+02  0.45329060206E+02  0.10566000000E+00 0.  1.
         14    1    4    4    0    0 -0.28551494876E+01 -0.12929566949E+02  0.14006082417E+03  0.14068532279E+03  0.00000000000E+00 0. -1.
<mgrwt>
<rscale>  0 0.80271723E+02</rscale>
<asrwt>0</asrwt>
<pdfrwt beam="1">  1        2 0.67472553E-01 0.80271723E+02</pdfrwt>
<pdfrwt beam="2">  1       -1 0.56508181E-03 0.80271723E+02</pdfrwt>
<totfact> 0.28907300E+05</totfact>
</mgrwt>
</event>
<event>
 8    1  0.2561077E-020  0.8142650E+02  0.7818608E-02  0.1325051E+00
         -1   -1    0    0    0  501 -0.00000000000E+00  0.00000000000E+00  0.54664321624E+01  0.54664344858E+01  0.50400000000E-02 0.  1.
          2   -1    0    0  501    0  0.00000000000E+00 -0.00000000000E+00 -0.30322675036E+03  0.30322675037E+03  0.25500000000E-02 0. -1.
         24    2    1    2    0    0  0.00000000000E+00  0.35527136788E-14 -0.29776031819E+03  0.30869318485E+03  0.81426502342E+02 0.  0.
         66    2    3    3    0    0 -0.71351765715E+01 -0.31850053090E+02 -0.24107211161E+03  0.24327987920E+03  0.20000004115E+01 0.  0.
        -13    1    3    3    0    0  0.71351765715E+01  0.31850053090E+02 -0.56688206584E+02  0.65413305652E+02  0.10566000000E+00 0.  1.
         13    1    4    4    0    0 -0.20297542680E+01 -0.62985115283E+01 -0.48932350514E+02  0.49377902353E+02  0.10566000000E+00 0.  1.
        -13    1    4    4    0    0 -0.93042418671E+00 -0.54014248409E+01 -0.37247452577E+02  0.37648704718E+02  0.10566000000E+00 0. -1.
        -14    1    4    4    0    0 -0.41749981167E+01 -0.20150116720E+02 -0.15489230852E+03  0.15625327213E+03  0.00000000000E+00 0.  1.
<mgrwt>
<rscale>  0 0.81426502E+02</rscale>
<asrwt>0</asrwt>
<pdfrwt beam="1">  1        2 0.46650256E-01 0.81426502E+02</pdfrwt>
<pdfrwt beam="2">  1       -1 0.84098998E-03 0.81426502E+02</pdfrwt>
<totfact> 0.24433691E+05</totfact>
</mgrwt>
</event>
<event>
 8    1  0.2561077E-020  0.7967889E+02  0.7818608E-02  0.1329965E+00
          2   -1    0    0  501    0  0.00000000000E+00  0.00000000000E+00  0.69882261485E+01  0.69882266138E+01  0.25500000000E-02 0. -1.
         -1   -1    0    0    0  501 -0.00000000000E+00 -0.00000000000E+00 -0.22712218075E+03  0.22712218080E+03  0.50400000000E-02 0.  1.
         24    2    1    2    0    0  0.00000000000E+00  0.35527136788E-14 -0.22013395460E+03  0.23411040742E+03  0.79678886122E+02 0.  0.
         66    2    3    3    0    0  0.35162776080E+02  0.17842097205E+02 -0.93932160468E+02  0.10189215883E+03  0.20000014951E+01 0.  0.
        -13    1    3    3    0    0 -0.35162776080E+02 -0.17842097205E+02 -0.12620179413E+03  0.13221824859E+03  0.10566000000E+00 0.  1.
         13    1    4    4    0    0  0.36434946406E+01  0.22154427165E+01 -0.99917333544E+01  0.10864121644E+02  0.10566000000E+00 0. -1.
        -13    1    4    4    0    0  0.98177281951E+01  0.54605717890E+01 -0.25531997871E+02  0.27894438702E+02  0.10566000000E+00 0.  1.
        -14    1    4    4    0    0  0.21701553244E+02  0.10166082699E+02 -0.58408429243E+02  0.63133598482E+02  0.00000000000E+00 0.  1.
<mgrwt>
<rscale>  0 0.79678886E+02</rscale>
<asrwt>0</asrwt>
<pdfrwt beam="1">  1        2 0.10751119E-02 0.79678886E+02</pdfrwt>
<pdfrwt beam="2">  1       -1 0.34941868E-01 0.79678886E+02</pdfrwt>
<totfact> 0.96672300E+04</totfact>
</mgrwt>
</event>
<event>
 8    1  0.2561077E-020  0.8148715E+02  0.7818608E-02  0.1324883E+00
          2   -1    0    0  501    0  0.00000000000E+00  0.00000000000E+00  0.11940307909E+03  0.11940307912E+03  0.25500000000E-02 0. -1.
         -1   -1    0    0    0  501 -0.00000000000E+00 -0.00000000000E+00 -0.13902812911E+02  0.13902813824E+02  0.50400000000E-02 0.  1.
         24    2    1    2    0    0  0.00000000000E+00 -0.35527136788E-14  0.10550026618E+03  0.13330589295E+03  0.81487145791E+02 0.  0.
         66    2    3    3    0    0 -0.21436345777E+02  0.25333786885E+02  0.91380915851E+02  0.97240883643E+02  0.19999978828E+01 0.  0.
        -13    1    3    3    0    0  0.21436345777E+02 -0.25333786885E+02  0.14119350333E+02  0.36065009304E+02  0.10566000000E+00 0.  1.
         13    1    4    4    0    0 -0.13141656307E+02  0.15799237157E+02  0.54516884625E+02  0.58261658907E+02  0.10566000000E+00 0. -1.
        -13    1    4    4    0    0 -0.55525678052E+01  0.66878150408E+01  0.26339140818E+02  0.27736607261E+02  0.10566000000E+00 0.  1.
        -14    1    4    4    0    0 -0.27421216652E+01  0.28467346865E+01  0.10524890408E+02  0.11242617476E+02  0.00000000000E+00 0.  1.
<mgrwt>
<rscale>  0 0.81487146E+02</rscale>
<asrwt>0</asrwt>
<pdfrwt beam="1">  1        2 0.18369705E-01 0.81487146E+02</pdfrwt>
<pdfrwt beam="2">  1       -1 0.21388943E-02 0.81487146E+02</pdfrwt>
<totfact> 0.17763334E+05</totfact>
</mgrwt>
</event>
<event>
 8    1  0.2561077E-020  0.7947770E+02  0.7818608E-02  0.1330540E+00
         -1   -1    0    0    0  501 -0.00000000000E+00  0.00000000000E+00  0.57052244426E+02  0.57052244648E+02  0.50400000000E-02 0.  1.
          2   -1    0    0  501    0  0.00000000000E+00 -0.00000000000E+00 -0.27679478164E+02  0.27679478281E+02  0.25500000000E-02 0. -1.
         24    2    1    2    0    0  0.71054273576E-14  0.88817841970E-15  0.29372766262E+02  0.84731722929E+02  0.79477704249E+02 0.  0.
         66    2    3    3    0    0  0.36937204145E+02  0.71217745024E+01  0.11223674167E+01  0.37687351098E+02  0.20000005145E+01 0.  0.
        -13    1    3    3    0    0 -0.36937204145E+02 -0.71217745024E+01  0.28250398845E+02  0.47044371832E+02  0.10566000000E+00 0.  1.
         13    1    4    4    0    0  0.24477617013E+02  0.45706396189E+01 -0.31091658600E-01  0.24900935964E+02  0.10566000000E+00 0. -1.
        -13    1    4    4    0    0  0.11934752526E+02  0.25683796805E+01  0.10787423338E+01  0.12256008367E+02  0.10566000000E+00 0.  1.
        -14    1    4    4    0    0  0.52483460593E+00 -0.17244797134E-01  0.74716741441E-01  0.53040676661E+00  0.00000000000E+00 0.  1.
<mgrwt>
<rscale>  0 0.79477704E+02</rscale>
<asrwt>0</asrwt>
<pdfrwt beam="1">  1        2 0.42583813E-02 0.79477704E+02</pdfrwt>
<pdfrwt beam="2">  1       -1 0.87772684E-02 0.79477704E+02</pdfrwt>
<totfact> 0.13489807E+05</totfact>
</mgrwt>
</event>
<event>
 8    1  0.2561077E-020  0.7899833E+02  0.7818608E-02  0.1331918E+00
         -1   -1    0    0    0  501 -0.00000000000E+00  0.00000000000E+00  0.12676987974E+02  0.12676988976E+02  0.50400000000E-02 0.  1.
          2   -1    0    0  501    0  0.00000000000E+00 -0.00000000000E+00 -0.12307213009E+03  0.12307213012E+03  0.25500000000E-02 0. -1.
         24    2    1    2    0    0 -0.35527136788E-14  0.00000000000E+00 -0.11039514212E+03  0.13574911909E+03  0.78998328664E+02 0.  0.
         66    2    3    3    0    0 -0.26094120921E+02  0.17004117831E+02 -0.96906156669E+02  0.10180788956E+03  0.20000015180E+01 0.  0.
        -13    1    3    3    0    0  0.26094120921E+02 -0.17004117831E+02 -0.13488985446E+02  0.33941229534E+02  0.10566000000E+00 0.  1.
         13    1    4    4    0    0 -0.44862898731E+01  0.26630001273E+01 -0.18358779792E+02  0.19085971969E+02  0.10566000000E+00 0.  1.
        -13    1    4    4    0    0 -0.63769677301E+01  0.44836576777E+01 -0.24558084281E+02  0.25765860575E+02  0.10566000000E+00 0. -1.
        -14    1    4    4    0    0 -0.15230863318E+02  0.98574600258E+01 -0.53989292596E+02  0.56956057014E+02  0.00000000000E+00 0.  1.
<mgrwt>
<rscale>  0 0.78998329E+02</rscale>
<asrwt>0</asrwt>
<pdfrwt beam="1">  1        2 0.18934173E-01 0.78998329E+02</pdfrwt>
<pdfrwt beam="2">  1       -1 0.19503060E-02 0.78998329E+02</pdfrwt>
<totfact> 0.19471661E+05</totfact>
</mgrwt>
</event>
<event>
 8    1  0.2561077E-020  0.8073779E+02  0.7818608E-02  0.1326971E+00
          2   -1    0    0  501    0  0.00000000000E+00  0.00000000000E+00  0.17321201533E+03  0.17321201535E+03  0.25500000000E-02 0. -1.
         -1   -1    0    0    0  501 -0.00000000000E+00 -0.00000000000E+00 -0.94083988498E+01  0.94084001998E+01  0.50400000000E-02 0.  1.
         24    2    1    2    0    0  0.71054273576E-14  0.00000000000E+00  0.16380361648E+03  0.18262041555E+03  0.80737794143E+02 0.  0.
         66    2    3    3    0    0 -0.28090596620E+02 -0.55555236967E+01  0.14623502261E+03  0.14902559278E+03  0.20000011383E+01 0.  0.
        -13    1    3    3    0    0  0.28090596620E+02  0.55555236967E+01  0.17568593868E+02  0.33594822764E+02  0.10566000000E+00 0.  1.
         13    1    4    4    0    0 -0.94008775869E+01 -0.18288351081E+01  0.53842826040E+02  0.54688044555E+02  0.10566000000E+00 0. -1.
        -13    1    4    4    0    0 -0.14408289072E+02 -0.27990248137E+01  0.71425685217E+02  0.72918262504E+02  0.10566000000E+00 0.  1.
         14    1    4    4    0    0 -0.42814299604E+01 -0.92766377489E+00  0.20966511354E+02  0.21419285725E+02  0.00000000000E+00 0. -1.
<mgrwt>
<rscale>  0 0.80737794E+02</rscale>
<asrwt>0</asrwt>
<pdfrwt beam="1">  1        2 0.26648001E-01 0.80737794E+02</pdfrwt>
<pdfrwt beam="2">  1       -1 0.14474461E-02 0.80737794E+02</pdfrwt>
<totfact> 0.20496147E+05</totfact>
</mgrwt>
</event>
<event>
 8    1  0.2561077E-020  0.7909373E+02  0.7818608E-02  0.1331643E+00
          2   -1    0    0  501    0  0.00000000000E+00  0.00000000000E+00  0.55898501891E+02  0.55898501950E+02  0.25500000000E-02 0. -1.
         -1   -1    0    0    0  501 -0.00000000000E+00 -0.00000000000E+00 -0.27978470258E+02  0.27978470712E+02  0.50400000000E-02 0.  1.
         24    2    1    2    0    0  0.00000000000E+00  0.00000000000E+00  0.27920031633E+02  0.83876972662E+02  0.79093731588E+02 0.  0.
         66    2    3    3    0    0 -0.12065212738E+02 -0.15976278153E+02  0.50105139782E+02  0.53993850174E+02  0.20000004855E+01 0.  0.
        -13    1    3    3    0    0  0.12065212738E+02  0.15976278153E+02 -0.22185108149E+02  0.29883122489E+02  0.10566000000E+00 0.  1.
         13    1    4    4    0    0 -0.12474548950E+01 -0.14103668763E+01  0.54065759636E+01  0.57260375590E+01  0.10566000000E+00 0. -1.
        -13    1    4    4    0    0 -0.42241558287E+01 -0.44219933930E+01  0.15263638214E+02  0.16443458687E+02  0.10566000000E+00 0.  1.
         14    1    4    4    0    0 -0.65936020147E+01 -0.10143917884E+02  0.29434925605E+02  0.31824353928E+02  0.00000000000E+00 0. -1.
<mgrwt>
<rscale>  0 0.79093732E+02</rscale>
<asrwt>0</asrwt>
<pdfrwt beam="1">  1        2 0.85997695E-02 0.79093732E+02</pdfrwt>
<pdfrwt beam="2">  1       -1 0.43043801E-02 0.79093732E+02</pdfrwt>
<totfact> 0.15799812E+05</totfact>
</mgrwt>
</event>
<event>
 8    1  0.2561077E-020  0.7844622E+02  0.7818608E-02  0.1333520E+00
         -1   -1    0    0    0  501 -0.00000000000E+00  0.00000000000E+00  0.11547067939E+02  0.11547069039E+02  0.50400000000E-02 0.  1.
          2   -1    0    0  501    0  0.00000000000E+00 -0.00000000000E+00 -0.13323314322E+03  0.13323314325E+03  0.25500000000E-02 0. -1.
         24    2    1    2    0    0 -0.17763568394E-14  0.00000000000E+00 -0.12168607528E+03  0.14478021229E+03  0.78446216937E+02 0.  0.
         66    2    3    3    0    0 -0.15564391374E+02 -0.34672050487E+02 -0.78589252508E+02  0.87319367695E+02  0.20000002565E+01 0.  0.
        -13    1    3    3    0    0  0.15564391374E+02  0.34672050487E+02 -0.43096822775E+02  0.57460844591E+02  0.10566000000E+00 0.  1.
         13    1    4    4    0    0 -0.35976117739E+01 -0.96693846642E+01 -0.20672411496E+02  0.23104102911E+02  0.10566000000E+00 0.  1.
        -13    1    4    4    0    0 -0.84538193571E+01 -0.17935559801E+02 -0.42360148853E+02  0.46771195644E+02  0.10566000000E+00 0. -1.
         14    1    4    4    0    0 -0.35129602432E+01 -0.70671060216E+01 -0.15556692160E+02  0.17444069139E+02  0.00000000000E+00 0. -1.
<mgrwt>
<rscale>  0 0.78446217E+02</rscale>
<asrwt>0</asrwt>
<pdfrwt beam="1">  1        2 0.20497406E-01 0.78446217E+02</pdfrwt>
<pdfrwt beam="2">  1       -1 0.17764722E-02 0.78446217E+02</pdfrwt>
<totfact> 0.20324739E+05</totfact>
</mgrwt>
</event>
<event>
 8    1  0.2561077E-020  0.7992431E+02  0.7818608E-02  0.1329266E+00
          2   -1    0    0  501    0  0.00000000000E+00  0.00000000000E+00  0.11058896011E+03  0.11058896014E+03  0.25500000000E-02 0. -1.
         -1   -1    0    0    0  501 -0.00000000000E+00 -0.00000000000E+00 -0.14440627228E+02  0.14440628108E+02  0.50400000000E-02 0.  1.
         24    2    1    2    0    0  0.00000000000E+00  0.00000000000E+00  0.96148332881E+02  0.12502958825E+03  0.79924314331E+02 0.  0.
         66    2    3    3    0    0 -0.97955240754E+01  0.17714162013E+02  0.10196021414E+03  0.10396936613E+03  0.19999995517E+01 0.  0.
        -13    1    3    3    0    0  0.97955240754E+01 -0.17714162013E+02 -0.58118812606E+01  0.21060222115E+02  0.10566000000E+00 0.  1.
         13    1    4    4    0    0 -0.31045924345E+01  0.47542085971E+01  0.29609595394E+02  0.30149300108E+02  0.10566000000E+00 0. -1.
        -13    1    4    4    0    0 -0.18119022045E+00  0.41311744200E+00  0.37359616457E+01  0.37645809024E+01  0.10566000000E+00 0.  1.
         14    1    4    4    0    0 -0.65097414204E+01  0.12546835974E+02  0.68614657102E+02  0.70055485121E+02  0.00000000000E+00 0. -1.
<mgrwt>
<rscale>  0 0.79924314E+02</rscale>
<asrwt>0</asrwt>
<pdfrwt beam="1">  1        2 0.17013687E-01 0.79924314E+02</pdfrwt>
<pdfrwt beam="2">  1       -1 0.22216349E-02 0.79924314E+02</pdfrwt>
<totfact> 0.18288219E+05</totfact>
</mgrwt>
</event>
<event>
 8    1  0.2561077E-020  0.7919776E+02  0.7818608E-02  0.1331344E+00
          2   -1    0    0  501    0  0.00000000000E+00  0.00000000000E+00  0.16341608545E+03  0.16341608547E+03  0.25500000000E-02 0. -1.
         -1   -1    0    0    0  501 -0.00000000000E+00 -0.00000000000E+00 -0.95955739302E+01  0.95955752538E+01  0.50400000000E-02 0.  1.
         24    2    1    2    0    0  0.00000000000E+00  0.35527136788E-14  0.15382051152E+03  0.17301166073E+03  0.79197758695E+02 0.  0.
         66    2    3    3    0    0  0.27985052868E+02  0.25334793396E+02  0.10290401377E+03  0.10962778385E+03  0.20000003648E+01 0.  0.
        -13    1    3    3    0    0 -0.27985052868E+02 -0.25334793396E+02  0.50916497755E+02  0.63383876879E+02  0.10566000000E+00 0.  1.
         13    1    4    4    0    0  0.10302855165E+02  0.97388291189E+01  0.36724896039E+02  0.39366518392E+02  0.10566000000E+00 0. -1.
        -13    1    4    4    0    0  0.24063089998E+01  0.25930557135E+01  0.97685318926E+01  0.10389881631E+02  0.10566000000E+00 0.  1.
        -14    1    4    4    0    0  0.15275888704E+02  0.13002908564E+02  0.56410585836E+02  0.59871383825E+02  0.00000000000E+00 0.  1.
<mgrwt>
<rscale>  0 0.79197759E+02</rscale>
<asrwt>0</asrwt>
<pdfrwt beam="1">  1        2 0.25140936E-01 0.79197759E+02</pdfrwt>
<pdfrwt beam="2">  1       -1 0.14762423E-02 0.79197759E+02</pdfrwt>
<totfact> 0.21154595E+05</totfact>
</mgrwt>
</event>
<event>
 8    1  0.2561077E-020  0.7871084E+02  0.7818608E-02  0.1332750E+00
          2   -1    0    0  501    0  0.00000000000E+00  0.00000000000E+00  0.14819903887E+02  0.14819904106E+02  0.25500000000E-02 0. -1.
         -1   -1    0    0    0  501 -0.00000000000E+00 -0.00000000000E+00 -0.10451139877E+03  0.10451139890E+03  0.50400000000E-02 0.  1.
         24    2    1    2    0    0  0.00000000000E+00  0.00000000000E+00 -0.89691494888E+02  0.11933130300E+03  0.78710835474E+02 0.  0.
         66    2    3    3    0    0 -0.37960775895E+02 -0.10188017895E+02 -0.47033498329E+02  0.61326716549E+02  0.19999956159E+01 0.  0.
        -13    1    3    3    0    0  0.37960775895E+02  0.10188017895E+02 -0.42657996559E+02  0.58004586453E+02  0.10566000000E+00 0.  1.
         13    1    4    4    0    0 -0.30531988647E+00 -0.65232746195E-01 -0.24507993250E+00  0.41073562442E+00  0.10566000000E+00 0. -1.
        -13    1    4    4    0    0 -0.90741990684E+01 -0.19714263320E+01 -0.11240748689E+02  0.14580576314E+02  0.10566000000E+00 0.  1.
         14    1    4    4    0    0 -0.28581256940E+02 -0.81513588165E+01 -0.35547669707E+02  0.46335404610E+02  0.00000000000E+00 0. -1.
<mgrwt>
<rscale>  0 0.78710835E+02</rscale>
<asrwt>0</asrwt>
<pdfrwt beam="1">  1        2 0.22799853E-02 0.78710835E+02</pdfrwt>
<pdfrwt beam="2">  1       -1 0.16078676E-01 0.78710835E+02</pdfrwt>
<totfact> 0.12226739E+05</totfact>
</mgrwt>
</event>
<event>
 8    1  0.2561077E-020  0.8015405E+02  0.7818608E-02  0.1328615E+00
          2   -1    0    0  501    0  0.00000000000E+00  0.00000000000E+00  0.13933715418E+02  0.13933715651E+02  0.25500000000E-02 0. -1.
         -1   -1    0    0    0  501 -0.00000000000E+00 -0.00000000000E+00 -0.11527204345E+03  0.11527204356E+03  0.50400000000E-02 0.  1.
         24    2    1    2    0    0  0.00000000000E+00  0.35527136788E-14 -0.10133832803E+03  0.12920575921E+03  0.80154048462E+02 0.  0.
         66    2    3    3    0    0 -0.26226826411E+02  0.20043375215E+02 -0.14134181978E+02  0.35963292670E+02  0.20000014763E+01 0.  0.
        -13    1    3    3    0    0  0.26226826411E+02 -0.20043375215E+02 -0.87204146054E+02  0.93242466541E+02  0.10566000000E+00 0.  1.
         13    1    4    4    0    0 -0.14322075201E+02  0.99614310128E+01 -0.76815591360E+01  0.19062252246E+02  0.10566000000E+00 0. -1.
        -13    1    4    4    0    0 -0.10682706660E+02  0.87674949312E+01 -0.55630467383E+01  0.14897914015E+02  0.10566000000E+00 0.  1.
        -14    1    4    4    0    0 -0.12220445496E+01  0.13144492708E+01 -0.88957610339E+00  0.20031264090E+01  0.00000000000E+00 0.  1.
<mgrwt>
<rscale>  0 0.80154048E+02</rscale>
<asrwt>0</asrwt>
<pdfrwt beam="1">  1        2 0.21436486E-02 0.80154048E+02</pdfrwt>
<pdfrwt beam="2">  1       -1 0.17734160E-01 0.80154048E+02</pdfrwt>
<totfact> 0.11433615E+05</totfact>
</mgrwt>
</event>
<event>
 8    1  0.2561077E-020  0.8376091E+02  0.7818608E-02  0.1318705E+00
          2   -1    0    0  501    0  0.00000000000E+00  0.00000000000E+00  0.11377544236E+02  0.11377544521E+02  0.25500000000E-02 0. -1.
         -1   -1    0    0    0  501 -0.00000000000E+00 -0.00000000000E+00 -0.15416089848E+03  0.15416089857E+03  0.50400000000E-02 0.  1.
         24    2    1    2    0    0  0.00000000000E+00  0.00000000000E+00 -0.14278335425E+03  0.16553844309E+03  0.83760909077E+02 0.  0.
         66    2    3    3    0    0  0.28087859817E+02 -0.15638206410E+02 -0.18457790769E+02  0.37123731052E+02  0.19999995738E+01 0.  0.
        -13    1    3    3    0    0 -0.28087859817E+02  0.15638206410E+02 -0.12432556348E+03  0.12841471204E+03  0.10566000000E+00 0.  1.
         13    1    4    4    0    0  0.11822497186E+02 -0.64501470817E+01 -0.75981370525E+01  0.15463462994E+02  0.10566000000E+00 0. -1.
        -13    1    4    4    0    0  0.20683033164E+01 -0.13919336709E+01 -0.93562566153E+00  0.26649422821E+01  0.10566000000E+00 0.  1.
         14    1    4    4    0    0  0.14197059315E+02 -0.77961256574E+01 -0.99240280553E+01  0.18995325775E+02  0.00000000000E+00 0. -1.
<mgrwt>
<rscale>  0 0.83760909E+02</rscale>
<asrwt>0</asrwt>
<pdfrwt beam="1">  1        2 0.17503916E-02 0.83760909E+02</pdfrwt>
<pdfrwt beam="2">  1       -1 0.23717060E-01 0.83760909E+02</pdfrwt>
<totfact> 0.95360946E+04</totfact>
</mgrwt>
</event>
<event>
 8    1  0.2561077E-020  0.8052806E+02  0.7818608E-02  0.1327560E+00
          2   -1    0    0  501    0  0.00000000000E+00  0.00000000000E+00  0.43955388800E+03  0.43955388801E+03  0.25500000000E-02 0. -1.
         -1   -1    0    0    0  501 -0.00000000000E+00 -0.00000000000E+00 -0.36882651254E+01  0.36882685690E+01  0.50400000000E-02 0.  1.
         24    2    1    2    0    0  0.00000000000E+00  0.00000000000E+00  0.43586562288E+03  0.44324215658E+03  0.80528058232E+02 0.  0.
         66    2    3    3    0    0 -0.26977967285E+02  0.30767588217E+01  0.38152477432E+03  0.38249500727E+03  0.19999999971E+01 0.  0.
        -13    1    3    3    0    0  0.26977967285E+02 -0.30767588217E+01  0.54340848556E+02  0.60747149312E+02  0.10566000000E+00 0.  1.
         13    1    4    4    0    0 -0.11030414029E+02  0.18839982548E+01  0.16001473619E+03  0.16040556862E+03  0.10566000000E+00 0. -1.
        -13    1    4    4    0    0 -0.13595626614E+02  0.12051127174E+01  0.19351854777E+03  0.19399931148E+03  0.10566000000E+00 0.  1.
         14    1    4    4    0    0 -0.23519266417E+01 -0.12352150510E-01  0.27991490358E+02  0.28090127162E+02  0.00000000000E+00 0. -1.
<mgrwt>
<rscale>  0 0.80528058E+02</rscale>
<asrwt>0</asrwt>
<pdfrwt beam="1">  1        2 0.67623671E-01 0.80528058E+02</pdfrwt>
<pdfrwt beam="2">  1       -1 0.56742571E-03 0.80528058E+02</pdfrwt>
<totfact> 0.28689430E+05</totfact>
</mgrwt>
</event>
<event>
 8    1  0.2561077E-020  0.7851223E+02  0.7818608E-02  0.1333327E+00
          2   -1    0    0  501    0  0.00000000000E+00  0.00000000000E+00  0.15528448236E+02  0.15528448446E+02  0.25500000000E-02 0. -1.
         -1   -1    0    0    0  501 -0.00000000000E+00 -0.00000000000E+00 -0.99239947518E+02  0.99239947646E+02  0.50400000000E-02 0.  1.
         24    2    1    2    0    0  0.00000000000E+00 -0.44408920985E-15 -0.83711499282E+02  0.11476839609E+03  0.78512225987E+02 0.  0.
         66    2    3    3    0    0  0.31233569037E+02  0.27574563075E+01 -0.74174920014E+01  0.32282481470E+02  0.20000055478E+01 0.  0.
        -13    1    3    3    0    0 -0.31233569037E+02 -0.27574563075E+01 -0.76294007280E+02  0.82485914622E+02  0.10566000000E+00 0.  1.
         13    1    4    4    0    0  0.11492002664E+02  0.50687714034E+00 -0.18894643664E+01  0.11657799505E+02  0.10566000000E+00 0. -1.
        -13    1    4    4    0    0  0.14062468671E+02  0.15677749493E+01 -0.39147982236E+01  0.14681544626E+02  0.10566000000E+00 0. -1.
         14    1    4    4    0    0  0.56790977010E+01  0.68280421787E+00 -0.16132294113E+01  0.59431373391E+01  0.00000000000E+00 0. -1.
<mgrwt>
<rscale>  0 0.78512226E+02</rscale>
<asrwt>0</asrwt>
<pdfrwt beam="1">  1        2 0.23889921E-02 0.78512226E+02</pdfrwt>
<pdfrwt beam="2">  1       -1 0.15267684E-01 0.78512226E+02</pdfrwt>
<totfact> 0.12440938E+05</totfact>
</mgrwt>
</event>
<event>
 8    1  0.2561077E-020  0.7945297E+02  0.7818608E-02  0.1330611E+00
         -1   -1    0    0    0  501 -0.00000000000E+00  0.00000000000E+00  0.25141423382E+02  0.25141423887E+02  0.50400000000E-02 0.  1.
          2   -1    0    0  501    0  0.00000000000E+00 -0.00000000000E+00 -0.62772650375E+02  0.62772650427E+02  0.25500000000E-02 0. -1.
         24    2    1    2    0    0  0.00000000000E+00  0.00000000000E+00 -0.37631226993E+02  0.87914074313E+02  0.79452974881E+02 0.  0.
         66    2    3    3    0    0  0.10874920255E+02  0.28323244567E+02 -0.47161448159E+02  0.56113031046E+02  0.19999968460E+01 0.  0.
        -13    1    3    3    0    0 -0.10874920255E+02 -0.28323244567E+02  0.95302211660E+01  0.31801043267E+02  0.10566000000E+00 0.  1.
         13    1    4    4    0    0  0.65860673817E+01  0.16879301217E+02 -0.27250876356E+02  0.32724738644E+02  0.10566000000E+00 0. -1.
        -13    1    4    4    0    0  0.28458224146E+01  0.88309129962E+01 -0.14709102458E+02  0.17391164099E+02  0.10566000000E+00 0.  1.
        -14    1    4    4    0    0  0.14430304588E+01  0.26130303535E+01 -0.52014693455E+01  0.59971283033E+01  0.00000000000E+00 0.  1.
<mgrwt>
<rscale>  0 0.79452975E+02</rscale>
<asrwt>0</asrwt>
<pdfrwt beam="1">  1        2 0.96573308E-02 0.79452975E+02</pdfrwt>
<pdfrwt beam="2">  1       -1 0.38679114E-02 0.79452975E+02</pdfrwt>
<totfact> 0.16026572E+05</totfact>
</mgrwt>
</event>
<event>
 8    1  0.2561077E-020  0.8069144E+02  0.7818608E-02  0.1327101E+00
         -1   -1    0    0    0  501 -0.00000000000E+00  0.00000000000E+00  0.27223257874E+02  0.27223258341E+02  0.50400000000E-02 0.  1.
          2   -1    0    0  501    0  0.00000000000E+00 -0.00000000000E+00 -0.59793624193E+02  0.59793624247E+02  0.25500000000E-02 0. -1.
         24    2    1    2    0    0  0.35527136788E-14  0.00000000000E+00 -0.32570366319E+02  0.87016882588E+02  0.80691443743E+02 0.  0.
         66    2    3    3    0    0  0.26360223683E+02  0.19130606817E+02 -0.41926638216E+02  0.53128942290E+02  0.20000017469E+01 0.  0.
        -13    1    3    3    0    0 -0.26360223683E+02 -0.19130606817E+02  0.93562718970E+01  0.33887940298E+02  0.10566000000E+00 0.  1.
         13    1    4    4    0    0  0.80279681867E+01  0.63032149149E+01 -0.12531442376E+02  0.16162518477E+02  0.10566000000E+00 0. -1.
        -13    1    4    4    0    0  0.98367998812E+00  0.10436965536E+01 -0.20829682100E+01  0.25311755005E+01  0.10566000000E+00 0.  1.
        -14    1    4    4    0    0  0.17348575509E+02  0.11783695348E+02 -0.27312227630E+02  0.34435248313E+02  0.00000000000E+00 0.  1.
<mgrwt>
<rscale>  0 0.80691444E+02</rscale>
<asrwt>0</asrwt>
<pdfrwt beam="1">  1        2 0.91990191E-02 0.80691444E+02</pdfrwt>
<pdfrwt beam="2">  1       -1 0.41881936E-02 0.80691444E+02</pdfrwt>
<totfact> 0.15193625E+05</totfact>
</mgrwt>
</event>
<event>
 8    1  0.2561077E-020  0.7985826E+02  0.7818608E-02  0.1329454E+00
          2   -1    0    0  501    0  0.00000000000E+00  0.00000000000E+00  0.35444970456E+03  0.35444970457E+03  0.25500000000E-02 0. -1.
         -1   -1    0    0    0  501 -0.00000000000E+00 -0.00000000000E+00 -0.44980573839E+01  0.44980602075E+01  0.50400000000E-02 0.  1.
         24    2    1    2    0    0  0.88817841970E-15  0.00000000000E+00  0.34995164718E+03  0.35894776478E+03  0.79858264926E+02 0.  0.
         66    2    3    3    0    0 -0.48714177403E+01  0.19538303304E+02  0.32993488856E+03  0.33055484671E+03  0.19999973766E+01 0.  0.
        -13    1    3    3    0    0  0.48714177403E+01 -0.19538303304E+02  0.20016758625E+02  0.28392918072E+02  0.10566000000E+00 0.  1.
         13    1    4    4    0    0 -0.22897202137E+01  0.12207666496E+02  0.20349914015E+03  0.20387785840E+03  0.10566000000E+00 0. -1.
        -13    1    4    4    0    0 -0.11411595358E-01  0.27190866182E+00  0.61107342908E+01  0.61177039936E+01  0.10566000000E+00 0. -1.
        -14    1    4    4    0    0 -0.25702859312E+01  0.70587281459E+01  0.12032501411E+03  0.12055928431E+03  0.00000000000E+00 0.  1.
<mgrwt>
<rscale>  0 0.79858265E+02</rscale>
<asrwt>0</asrwt>
<pdfrwt beam="1">  1        2 0.54530733E-01 0.79858265E+02</pdfrwt>
<pdfrwt beam="2">  1       -1 0.69200893E-03 0.79858265E+02</pdfrwt>
<totfact> 0.27197177E+05</totfact>
</mgrwt>
</event>
<event>
 8    1  0.2561077E-020  0.8028112E+02  0.7818608E-02  0.1328256E+00
         -1   -1    0    0    0  501 -0.00000000000E+00  0.00000000000E+00  0.28237635420E+01  0.28237680398E+01  0.50400000000E-02 0.  1.
          2   -1    0    0  501    0  0.00000000000E+00 -0.00000000000E+00 -0.57060845064E+03  0.57060845065E+03  0.25500000000E-02 0. -1.
         24    2    1    2    0    0 -0.17763568394E-14  0.00000000000E+00 -0.56778468710E+03  0.57343221869E+03  0.80281121838E+02 0.  0.
         66    2    3    3    0    0  0.14380575917E+02  0.53773575646E+01 -0.54878986688E+03  0.54900822849E+03  0.20000044709E+01 0.  0.
        -13    1    3    3    0    0 -0.14380575917E+02 -0.53773575646E+01 -0.18994820218E+02  0.24423990199E+02  0.10566000000E+00 0.  1.
         13    1    4    4    0    0  0.25871153475E+01  0.76191187053E+00 -0.97391657766E+02  0.97429050298E+02  0.10566000000E+00 0. -1.
        -13    1    4    4    0    0  0.66938124942E+01  0.24421747385E+01 -0.22358912780E+03  0.22370266109E+03  0.10566000000E+00 0.  1.
         14    1    4    4    0    0  0.50996480752E+01  0.21732709555E+01 -0.22780908131E+03  0.22787651710E+03  0.00000000000E+00 0. -1.
<mgrwt>
<rscale>  0 0.80281122E+02</rscale>
<asrwt>0</asrwt>
<pdfrwt beam="1">  1        2 0.87785824E-01 0.80281122E+02</pdfrwt>
<pdfrwt beam="2">  1       -1 0.43442596E-03 0.80281122E+02</pdfrwt>
<totfact> 0.31418112E+05</totfact>
</mgrwt>
</event>
<event>
 8    1  0.2561077E-020  0.8054587E+02  0.7818608E-02  0.1327509E+00
         -1   -1    0    0    0  501 -0.00000000000E+00  0.00000000000E+00  0.38872414799E+01  0.38872447472E+01  0.50400000000E-02 0.  1.
          2   -1    0    0  501    0  0.00000000000E+00 -0.00000000000E+00 -0.41723901126E+03  0.41723901126E+03  0.25500000000E-02 0. -1.
         24    2    1    2    0    0  0.00000000000E+00  0.00000000000E+00 -0.41335176978E+03  0.42112625601E+03  0.80545874660E+02 0.  0.
         66    2    3    3    0    0 -0.34799815730E+02  0.16850674783E+02 -0.26524239667E+03  0.26805316896E+03  0.19999947693E+01 0.  0.
        -13    1    3    3    0    0  0.34799815730E+02 -0.16850674783E+02 -0.14810937311E+03  0.15307308706E+03  0.10566000000E+00 0.  1.
         13    1    4    4    0    0 -0.12897315476E+01  0.58822541034E+00 -0.10652928878E+02  0.10747347315E+02  0.10566000000E+00 0. -1.
        -13    1    4    4    0    0 -0.32520103563E+02  0.15553880762E+02 -0.24449716684E+03  0.24714035708E+03  0.10566000000E+00 0.  1.
        -14    1    4    4    0    0 -0.98998061988E+00  0.70856861068E+00 -0.10092300954E+02  0.10165464556E+02  0.00000000000E+00 0.  1.
<mgrwt>
<rscale>  0 0.80545875E+02</rscale>
<asrwt>0</asrwt>
<pdfrwt beam="1">  1        2 0.64190582E-01 0.80545875E+02</pdfrwt>
<pdfrwt beam="2">  1       -1 0.59803773E-03 0.80545875E+02</pdfrwt>
<totfact> 0.28166079E+05</totfact>
</mgrwt>
</event>
<event>
 8    1  0.2561077E-020  0.7805156E+02  0.7818608E-02  0.1334674E+00
         -1   -1    0    0    0  501 -0.00000000000E+00  0.00000000000E+00  0.59018258293E+02  0.59018258508E+02  0.50400000000E-02 0.  1.
          2   -1    0    0  501    0  0.00000000000E+00 -0.00000000000E+00 -0.25805766986E+02  0.25805767112E+02  0.25500000000E-02 0. -1.
         24    2    1    2    0    0 -0.88817841970E-15  0.71054273576E-14  0.33212491307E+02  0.84824025620E+02  0.78051558239E+02 0.  0.
         66    2    3    3    0    0  0.30765603482E+01 -0.19491858145E+02 -0.19941135630E+02  0.28125551406E+02  0.19999985398E+01 0.  0.
        -13    1    3    3    0    0 -0.30765603482E+01  0.19491858145E+02  0.53153626937E+02  0.56698474213E+02  0.10566000000E+00 0.  1.
         13    1    4    4    0    0  0.20296189148E+00 -0.32197569700E+01 -0.38968037624E+01  0.50600664099E+01  0.10566000000E+00 0. -1.
        -13    1    4    4    0    0  0.74886535447E-01 -0.31529956947E+01 -0.31543512611E+01  0.44618477964E+01  0.10566000000E+00 0.  1.
         14    1    4    4    0    0  0.27987119213E+01 -0.13119105481E+02 -0.12889980607E+02  0.18603637200E+02  0.00000000000E+00 0. -1.
<mgrwt>
<rscale>  0 0.78051558E+02</rscale>
<asrwt>0</asrwt>
<pdfrwt beam="1">  1        2 0.39701180E-02 0.78051558E+02</pdfrwt>
<pdfrwt beam="2">  1       -1 0.90797321E-02 0.78051558E+02</pdfrwt>
<totfact> 0.14002453E+05</totfact>
</mgrwt>
</event>
<event>
 8    1  0.2561077E-020  0.7963578E+02  0.7818608E-02  0.1330088E+00
          2   -1    0    0  501    0  0.00000000000E+00  0.00000000000E+00  0.45588339799E+03  0.45588339800E+03  0.25500000000E-02 0. -1.
         -1   -1    0    0    0  501 -0.00000000000E+00 -0.00000000000E+00 -0.34777827722E+01  0.34777864242E+01  0.50400000000E-02 0.  1.
         24    2    1    2    0    0  0.00000000000E+00  0.00000000000E+00  0.45240561522E+03  0.45936118442E+03  0.79635777590E+02 0.  0.
         66    2    3    3    0    0  0.24987735453E+02  0.57008882802E+01  0.40192939730E+03  0.40275070138E+03  0.20000005585E+01 0.  0.
        -13    1    3    3    0    0 -0.24987735453E+02 -0.57008882802E+01  0.50476217917E+02  0.56610483036E+02  0.10566000000E+00 0.  1.
         13    1    4    4    0    0  0.13384938610E+02  0.26383805885E+01  0.21521610340E+03  0.21564809287E+03  0.10566000000E+00 0. -1.
        -13    1    4    4    0    0  0.72096800041E+01  0.21112805416E+01  0.10792473037E+03  0.10818593061E+03  0.10566000000E+00 0. -1.
         14    1    4    4    0    0  0.43931168385E+01  0.95122715006E+00  0.78788563529E+02  0.78916677906E+02  0.00000000000E+00 0. -1.
<mgrwt>
<rscale>  0 0.79635778E+02</rscale>
<asrwt>0</asrwt>
<pdfrwt beam="1">  1        2 0.70135893E-01 0.79635778E+02</pdfrwt>
<pdfrwt beam="2">  1       -1 0.53504390E-03 0.79635778E+02</pdfrwt>
<totfact> 0.29900404E+05</totfact>
</mgrwt>
</event>
<event>
 8    1  0.2561077E-020  0.7915857E+02  0.7818608E-02  0.1331456E+00
         -1   -1    0    0    0  501 -0.00000000000E+00  0.00000000000E+00  0.33757800555E+01  0.33757838178E+01  0.50400000000E-02 0.  1.
          2   -1    0    0  501    0  0.00000000000E+00 -0.00000000000E+00 -0.46404655098E+03  0.46404655099E+03  0.25500000000E-02 0. -1.
         24    2    1    2    0    0  0.00000000000E+00  0.00000000000E+00 -0.46067077092E+03  0.46742233480E+03  0.79158574331E+02 0.  0.
         66    2    3    3    0    0  0.39742990408E+01 -0.37357309035E+02 -0.30355755054E+03  0.30587996026E+03  0.20000013006E+01 0.  0.
        -13    1    3    3    0    0 -0.39742990408E+01  0.37357309035E+02 -0.15711322038E+03  0.16154237455E+03  0.10566000000E+00 0.  1.
         13    1    4    4    0    0  0.28106829778E+01 -0.28907865175E+02 -0.23520935715E+03  0.23699581739E+03  0.10566000000E+00 0. -1.
        -13    1    4    4    0    0  0.13799285110E+00 -0.31361457936E+01 -0.27622988598E+02  0.27800991270E+02  0.10566000000E+00 0.  1.
         14    1    4    4    0    0  0.10256232119E+01 -0.53132980667E+01 -0.40725204799E+02  0.41083151598E+02  0.00000000000E+00 0. -1.
<mgrwt>
<rscale>  0 0.79158574E+02</rscale>
<asrwt>0</asrwt>
<pdfrwt beam="1">  1        2 0.71391727E-01 0.79158574E+02</pdfrwt>
<pdfrwt beam="2">  1       -1 0.51935144E-03 0.79158574E+02</pdfrwt>
<totfact> 0.30552121E+05</totfact>
</mgrwt>
</event>
<event>
 8    1  0.2561077E-020  0.8222689E+02  0.7818608E-02  0.1322848E+00
         -1   -1    0    0    0  501 -0.00000000000E+00  0.00000000000E+00  0.77768850164E+02  0.77768850327E+02  0.50400000000E-02 0.  1.
          2   -1    0    0  501    0  0.00000000000E+00 -0.00000000000E+00 -0.21735120243E+02  0.21735120392E+02  0.25500000000E-02 0. -1.
         24    2    1    2    0    0  0.71054273576E-14  0.00000000000E+00  0.56033729921E+02  0.99503970719E+02  0.82226889155E+02 0.  0.
         66    2    3    3    0    0 -0.36650021219E+02 -0.11302388419E+02  0.10193236629E+02  0.39734998597E+02  0.20000002828E+01 0.  0.
        -13    1    3    3    0    0  0.36650021219E+02  0.11302388419E+02  0.45840493292E+02  0.59768972123E+02  0.10566000000E+00 0.  1.
         13    1    4    4    0    0 -0.92512167636E+01 -0.26748250579E+01  0.19641784902E+01  0.98289807139E+01  0.10566000000E+00 0. -1.
        -13    1    4    4    0    0 -0.41683690499E+01 -0.17158568696E+01  0.15097698873E+01  0.47550009970E+01  0.10566000000E+00 0.  1.
         14    1    4    4    0    0 -0.23230435406E+02 -0.69117064913E+01  0.67192882517E+01  0.25151016886E+02  0.00000000000E+00 0. -1.
<mgrwt>
<rscale>  0 0.82226889E+02</rscale>
<asrwt>0</asrwt>
<pdfrwt beam="1">  1        2 0.33438646E-02 0.82226889E+02</pdfrwt>
<pdfrwt beam="2">  1       -1 0.11964439E-01 0.82226889E+02</pdfrwt>
<totfact> 0.11670309E+05</totfact>
</mgrwt>
</event>
<event>
 8    1  0.2561077E-020  0.8012788E+02  0.7818608E-02  0.1328689E+00
         -1   -1    0    0    0  501 -0.00000000000E+00  0.00000000000E+00  0.30753923977E+01  0.30753965275E+01  0.50400000000E-02 0.  1.
          2   -1    0    0  501    0  0.00000000000E+00 -0.00000000000E+00 -0.52192305241E+03  0.52192305242E+03  0.25500000000E-02 0. -1.
         24    2    1    2    0    0  0.00000000000E+00 -0.71054273576E-14 -0.51884766001E+03  0.52499844894E+03  0.80127879625E+02 0.  0.
         66    2    3    3    0    0  0.23351114682E+02  0.32068686290E+02 -0.29513476413E+03  0.29779557452E+03  0.20000024594E+01 0.  0.
        -13    1    3    3    0    0 -0.23351114682E+02 -0.32068686290E+02 -0.22371289589E+03  0.22720287442E+03  0.10566000000E+00 0.  1.
         13    1    4    4    0    0  0.31532742443E+01  0.40478775401E+01 -0.35853904525E+02  0.36219360635E+02  0.10566000000E+00 0. -1.
        -13    1    4    4    0    0  0.92885366827E+00  0.11433414846E+01 -0.91111737145E+01  0.92300947654E+01  0.10566000000E+00 0.  1.
         14    1    4    4    0    0  0.19268986769E+02  0.26877467265E+02 -0.25016968589E+03  0.25234611912E+03  0.00000000000E+00 0. -1.
<mgrwt>
<rscale>  0 0.80127880E+02</rscale>
<asrwt>0</asrwt>
<pdfrwt beam="1">  1        2 0.80295784E-01 0.80127880E+02</pdfrwt>
<pdfrwt beam="2">  1       -1 0.47313803E-03 0.80127880E+02</pdfrwt>
<totfact> 0.30737052E+05</totfact>
</mgrwt>
</event>
<event>
 8    1  0.2561077E-020  0.7992570E+02  0.7818608E-02  0.1329262E+00
          2   -1    0    0  501    0  0.00000000000E+00  0.00000000000E+00  0.48835713595E+03  0.48835713596E+03  0.25500000000E-02 0. -1.
         -1   -1    0    0    0  501 -0.00000000000E+00 -0.00000000000E+00 -0.32702060948E+01  0.32702099786E+01  0.50400000000E-02 0.  1.
         24    2    1    2    0    0  0.71054273576E-14 -0.88817841970E-15  0.48508692986E+03  0.49162734594E+03  0.79925701467E+02 0.  0.
         66    2    3    3    0    0  0.39123395813E+02 -0.74669499115E+01  0.26076377253E+03  0.26379564157E+03  0.20000006328E+01 0.  0.
        -13    1    3    3    0    0 -0.39123395813E+02  0.74669499115E+01  0.22432315733E+03  0.22783170437E+03  0.10566000000E+00 0.  1.
         13    1    4    4    0    0  0.19978514673E+01 -0.56342091064E+00  0.12849039388E+02  0.13016060496E+02  0.10566000000E+00 0.  1.
        -13    1    4    4    0    0  0.13705840523E+02 -0.31069852914E+01  0.88463102031E+02  0.89572512564E+02  0.10566000000E+00 0. -1.
         14    1    4    4    0    0  0.23419703822E+02 -0.37965437095E+01  0.15945163112E+03  0.16120706851E+03  0.00000000000E+00 0. -1.
<mgrwt>
<rscale>  0 0.79925701E+02</rscale>
<asrwt>0</asrwt>
<pdfrwt beam="1">  1        2 0.75131830E-01 0.79925701E+02</pdfrwt>
<pdfrwt beam="2">  1       -1 0.50310918E-03 0.79925701E+02</pdfrwt>
<totfact> 0.30295358E+05</totfact>
</mgrwt>
</event>
<event>
 8    1  0.2561077E-020  0.7749523E+02  0.7818608E-02  0.1336314E+00
         -1   -1    0    0    0  501 -0.00000000000E+00  0.00000000000E+00  0.20524110084E+01  0.20524171966E+01  0.50400000000E-02 0.  1.
          2   -1    0    0  501    0  0.00000000000E+00 -0.00000000000E+00 -0.73151782165E+03  0.73151782166E+03  0.25500000000E-02 0. -1.
         24    2    1    2    0    0  0.35527136788E-14  0.00000000000E+00 -0.72946541064E+03  0.73357023885E+03  0.77495225695E+02 0.  0.
         66    2    3    3    0    0 -0.26895390040E+02 -0.16158312093E+02 -0.57977602782E+03  0.58062784594E+03  0.19999984707E+01 0.  0.
        -13    1    3    3    0    0  0.26895390040E+02  0.16158312093E+02 -0.14968938283E+03  0.15294239291E+03  0.10566000000E+00 0.  1.
         13    1    4    4    0    0 -0.20553420053E+02 -0.12512842716E+02 -0.45385733081E+03  0.45449477687E+03  0.10566000000E+00 0. -1.
        -13    1    4    4    0    0 -0.62283756289E+01 -0.36633902466E+01 -0.12300362573E+03  0.12321573032E+03  0.10566000000E+00 0.  1.
        -14    1    4    4    0    0 -0.11359435852E+00  0.17920869199E-01 -0.29150712823E+01  0.29173387559E+01  0.00000000000E+00 0.  1.
<mgrwt>
<rscale>  0 0.77495226E+02</rscale>
<asrwt>0</asrwt>
<pdfrwt beam="1">  1        2 0.11254100E+00 0.77495226E+02</pdfrwt>
<pdfrwt beam="2">  1       -1 0.31575660E-03 0.77495226E+02</pdfrwt>
<totfact> 0.36684343E+05</totfact>
</mgrwt>
</event>
<event>
 8    1  0.2561077E-020  0.7830034E+02  0.7818608E-02  0.1333945E+00
         -1   -1    0    0    0  501 -0.00000000000E+00  0.00000000000E+00  0.19028283623E+01  0.19028350370E+01  0.50400000000E-02 0.  1.
          2   -1    0    0  501    0  0.00000000000E+00 -0.00000000000E+00 -0.80550248820E+03  0.80550248820E+03  0.25500000000E-02 0. -1.
         24    2    1    2    0    0  0.00000000000E+00  0.00000000000E+00 -0.80359965983E+03  0.80740532324E+03  0.78300336569E+02 0.  0.
         66    2    3    3    0    0 -0.24055787235E+01 -0.26281602206E+02 -0.69989136765E+03  0.70039163040E+03  0.19999989636E+01 0.  0.
        -13    1    3    3    0    0  0.24055787235E+01  0.26281602206E+02 -0.10370829218E+03  0.10701369284E+03  0.10566000000E+00 0.  1.
         13    1    4    4    0    0 -0.17963150117E+01 -0.13533642949E+02 -0.38085630746E+03  0.38110093720E+03  0.10566000000E+00 0. -1.
        -13    1    4    4    0    0 -0.22016337054E+00 -0.33212454576E+01 -0.78040448479E+02  0.78111471028E+02  0.10566000000E+00 0.  1.
         14    1    4    4    0    0 -0.38910034124E+00 -0.94267137997E+01 -0.24099461172E+03  0.24117922217E+03  0.00000000000E+00 0. -1.
<mgrwt>
<rscale>  0 0.78300337E+02</rscale>
<asrwt>0</asrwt>
<pdfrwt beam="1">  1        2 0.12392319E+00 0.78300337E+02</pdfrwt>
<pdfrwt beam="2">  1       -1 0.29274398E-03 0.78300337E+02</pdfrwt>
<totfact> 0.36377466E+05</totfact>
</mgrwt>
</event>
<event>
 8    1  0.2561077E-020  0.8636282E+02  0.7818608E-02  0.1311907E+00
         -1   -1    0    0    0  501 -0.00000000000E+00  0.00000000000E+00  0.37200201639E+01  0.37200235781E+01  0.50400000000E-02 0.  1.
          2   -1    0    0  501    0  0.00000000000E+00 -0.00000000000E+00 -0.50124282516E+03  0.50124282517E+03  0.25500000000E-02 0. -1.
         24    2    1    2    0    0  0.00000000000E+00  0.00000000000E+00 -0.49752280500E+03  0.50496284875E+03  0.86362822564E+02 0.  0.
         66    2    3    3    0    0 -0.35040656859E+01 -0.42963939023E+02 -0.26122965385E+03  0.26476992009E+03  0.20000003905E+01 0.  0.
        -13    1    3    3    0    0  0.35040656859E+01  0.42963939023E+02 -0.23629315115E+03  0.24019292865E+03  0.10566000000E+00 0.  1.
         13    1    4    4    0    0 -0.16588154937E+01 -0.19413946923E+02 -0.11812234034E+03  0.11971863453E+03  0.10566000000E+00 0. -1.
        -13    1    4    4    0    0 -0.49550825239E+00 -0.11389884306E+02 -0.65267604570E+02  0.66255915685E+02  0.10566000000E+00 0.  1.
        -14    1    4    4    0    0 -0.13497419398E+01 -0.12160107794E+02 -0.77839708947E+02  0.78795369876E+02  0.00000000000E+00 0.  1.
<mgrwt>
<rscale>  0 0.86362823E+02</rscale>
<asrwt>0</asrwt>
<pdfrwt beam="1">  1        2 0.77114227E-01 0.86362823E+02</pdfrwt>
<pdfrwt beam="2">  1       -1 0.57231146E-03 0.86362823E+02</pdfrwt>
<totfact> 0.24946237E+05</totfact>
</mgrwt>
</event>
<event>
 8    1  0.2561077E-020  0.7899035E+02  0.7818608E-02  0.1331941E+00
         -1   -1    0    0    0  501 -0.00000000000E+00  0.00000000000E+00  0.37881902040E+02  0.37881902376E+02  0.50400000000E-02 0.  1.
          2   -1    0    0  501    0  0.00000000000E+00 -0.00000000000E+00 -0.41177154467E+02  0.41177154546E+02  0.25500000000E-02 0. -1.
         24    2    1    2    0    0  0.00000000000E+00  0.00000000000E+00 -0.32952524267E+01  0.79059056922E+02  0.78990352530E+02 0.  0.
         66    2    3    3    0    0  0.29247951884E+01  0.20500440899E+02 -0.35279118117E+02  0.40956546080E+02  0.19999969264E+01 0.  0.
        -13    1    3    3    0    0 -0.29247951884E+01 -0.20500440899E+02  0.31983865691E+02  0.38102510842E+02  0.10566000000E+00 0.  1.
         13    1    4    4    0    0  0.25959585331E+01  0.16625295357E+02 -0.28531732254E+02  0.33124165739E+02  0.10566000000E+00 0. -1.
        -13    1    4    4    0    0 -0.16511200505E+00  0.26324544466E+01 -0.45240703414E+01  0.52378864895E+01  0.10566000000E+00 0.  1.
         14    1    4    4    0    0  0.49394866030E+00  0.12426910947E+01 -0.22233155214E+01  0.25944938511E+01  0.00000000000E+00 0. -1.
<mgrwt>
<rscale>  0 0.78990353E+02</rscale>
<asrwt>0</asrwt>
<pdfrwt beam="1">  1        2 0.63349468E-02 0.78990353E+02</pdfrwt>
<pdfrwt beam="2">  1       -1 0.58279850E-02 0.78990353E+02</pdfrwt>
<totfact> 0.14852001E+05</totfact>
</mgrwt>
</event>
<event>
 8    1  0.2561077E-020  0.8032928E+02  0.7818608E-02  0.1328120E+00
          2   -1    0    0  501    0  0.00000000000E+00  0.00000000000E+00  0.76725663997E+01  0.76725668234E+01  0.25500000000E-02 0. -1.
         -1   -1    0    0    0  501 -0.00000000000E+00 -0.00000000000E+00 -0.21025536269E+03  0.21025536275E+03  0.50400000000E-02 0.  1.
         24    2    1    2    0    0  0.00000000000E+00  0.00000000000E+00 -0.20258279629E+03  0.21792792958E+03  0.80329279442E+02 0.  0.
         66    2    3    3    0    0 -0.53576686441E+00  0.40119010381E+02 -0.98177124916E+02  0.10607813110E+03  0.20000000759E+01 0.  0.
        -13    1    3    3    0    0  0.53576686441E+00 -0.40119010381E+02 -0.10440567138E+03  0.11184979848E+03  0.10566000000E+00 0.  1.
         13    1    4    4    0    0 -0.18607667467E+00  0.21550482549E+02 -0.50331240242E+02  0.54751281546E+02  0.10566000000E+00 0. -1.
        -13    1    4    4    0    0 -0.12155090081E-01  0.11657047763E+02 -0.29594513272E+02  0.31807755188E+02  0.10566000000E+00 0.  1.
         14    1    4    4    0    0 -0.33753509966E+00  0.69114800686E+01 -0.18251371402E+02  0.19519094363E+02  0.00000000000E+00 0. -1.
<mgrwt>
<rscale>  0 0.80329279E+02</rscale>
<asrwt>0</asrwt>
<pdfrwt beam="1">  1        2 0.11803950E-02 0.80329279E+02</pdfrwt>
<pdfrwt beam="2">  1       -1 0.32346975E-01 0.80329279E+02</pdfrwt>
<totfact> 0.97062437E+04</totfact>
</mgrwt>
</event>
<event>
 8    1  0.2561077E-020  0.7812266E+02  0.7818608E-02  0.1334465E+00
          2   -1    0    0  501    0  0.00000000000E+00  0.00000000000E+00  0.24027368329E+03  0.24027368331E+03  0.25500000000E-02 0. -1.
         -1   -1    0    0    0  501 -0.00000000000E+00 -0.00000000000E+00 -0.63502058748E+01  0.63502078748E+01  0.50400000000E-02 0.  1.
         24    2    1    2    0    0  0.17763568394E-14 -0.35527136788E-14  0.23392347742E+03  0.24662389118E+03  0.78122662614E+02 0.  0.
         66    2    3    3    0    0  0.13935570023E+02 -0.31676988663E+02  0.17405033344E+03  0.17746873044E+03  0.19999981640E+01 0.  0.
        -13    1    3    3    0    0 -0.13935570023E+02  0.31676988663E+02  0.59873143982E+02  0.69155160740E+02  0.10566000000E+00 0.  1.
         13    1    4    4    0    0  0.45347819485E+01 -0.90133476885E+01  0.47508686128E+02  0.48568416749E+02  0.10566000000E+00 0. -1.
        -13    1    4    4    0    0  0.67622566361E+01 -0.17077597567E+02  0.94832441306E+02  0.96594904325E+02  0.10566000000E+00 0.  1.
        -14    1    4    4    0    0  0.26385314381E+01 -0.55860434073E+01  0.31709206002E+02  0.32305409367E+02  0.00000000000E+00 0.  1.
<mgrwt>
<rscale>  0 0.78122663E+02</rscale>
<asrwt>0</asrwt>
<pdfrwt beam="1">  1        2 0.36965178E-01 0.78122663E+02</pdfrwt>
<pdfrwt beam="2">  1       -1 0.97695502E-03 0.78122663E+02</pdfrwt>
<totfact> 0.25047127E+05</totfact>
</mgrwt>
</event>
<event>
 8    1  0.2561077E-020  0.7854515E+02  0.7818608E-02  0.1333232E+00
         -1   -1    0    0    0  501 -0.00000000000E+00  0.00000000000E+00  0.20332600733E+01  0.20332663198E+01  0.50400000000E-02 0.  1.
          2   -1    0    0  501    0  0.00000000000E+00 -0.00000000000E+00 -0.75855163327E+03  0.75855163327E+03  0.25500000000E-02 0. -1.
         24    2    1    2    0    0 -0.71054273576E-14  0.17763568394E-14 -0.75651837319E+03  0.76058489959E+03  0.78545149476E+02 0.  0.
         66    2    3    3    0    0  0.26115344575E+02 -0.10728510182E+02 -0.64249312861E+03  0.64311626668E+03  0.19999991592E+01 0.  0.
        -13    1    3    3    0    0 -0.26115344575E+02  0.10728510182E+02 -0.11402524458E+03  0.11746863292E+03  0.10566000000E+00 0.  1.
         13    1    4    4    0    0  0.26669091998E+01 -0.10266579658E+01 -0.59590837798E+02  0.59659412876E+02  0.10566000000E+00 0. -1.
        -13    1    4    4    0    0  0.41710826859E+01 -0.10497510295E+01 -0.97664804606E+02  0.97759527059E+02  0.10566000000E+00 0.  1.
         14    1    4    4    0    0  0.19277352689E+02 -0.86521011871E+01 -0.48523748621E+03  0.48569732674E+03  0.00000000000E+00 0. -1.
<mgrwt>
<rscale>  0 0.78545149E+02</rscale>
<asrwt>0</asrwt>
<pdfrwt beam="1">  1        2 0.11670003E+00 0.78545149E+02</pdfrwt>
<pdfrwt beam="2">  1       -1 0.31281033E-03 0.78545149E+02</pdfrwt>
<totfact> 0.35690055E+05</totfact>
</mgrwt>
</event>
<event>
 8    1  0.2561077E-020  0.7531633E+02  0.7818608E-02  0.1342894E+00
         -1   -1    0    0    0  501 -0.00000000000E+00  0.00000000000E+00  0.10864306494E+02  0.10864307663E+02  0.50400000000E-02 0.  1.
          2   -1    0    0  501    0  0.00000000000E+00 -0.00000000000E+00 -0.13053177615E+03  0.13053177617E+03  0.25500000000E-02 0. -1.
         24    2    1    2    0    0  0.00000000000E+00  0.00000000000E+00 -0.11966746966E+03  0.14139608384E+03  0.75316327782E+02 0.  0.
         66    2    3    3    0    0 -0.86885684550E+01  0.50256895354E+01 -0.12796441814E+03  0.12837305441E+03  0.20000029580E+01 0.  0.
        -13    1    3    3    0    0  0.86885684550E+01 -0.50256895354E+01  0.82969484874E+01  0.13023029423E+02  0.10566000000E+00 0.  1.
         13    1    4    4    0    0 -0.19040219662E+00  0.34350899698E+00 -0.31290842362E+01  0.31554054606E+01  0.10566000000E+00 0. -1.
        -13    1    4    4    0    0 -0.77501666187E+00  0.16005274020E+00 -0.78582359112E+01  0.78986899785E+01  0.10566000000E+00 0. -1.
         14    1    4    4    0    0 -0.77231495965E+01  0.45221277982E+01 -0.11697709800E+03  0.11731895898E+03  0.00000000000E+00 0. -1.
<mgrwt>
<rscale>  0 0.75316328E+02</rscale>
<asrwt>0</asrwt>
<pdfrwt beam="1">  1        2 0.20081811E-01 0.75316328E+02</pdfrwt>
<pdfrwt beam="2">  1       -1 0.16714320E-02 0.75316328E+02</pdfrwt>
<totfact> 0.22497305E+05</totfact>
</mgrwt>
</event>
<event>
 8    1  0.2561077E-020  0.7804690E+02  0.7818608E-02  0.1334687E+00
          2   -1    0    0  501    0  0.00000000000E+00  0.00000000000E+00  0.49832447314E+03  0.49832447314E+03  0.25500000000E-02 0. -1.
         -1   -1    0    0    0  501 -0.00000000000E+00 -0.00000000000E+00 -0.30558979529E+01  0.30559021091E+01  0.50400000000E-02 0.  1.
         24    2    1    2    0    0  0.00000000000E+00  0.00000000000E+00  0.49526857518E+03  0.50138037525E+03  0.78046903357E+02 0.  0.
         66    2    3    3    0    0 -0.63933044029E+01 -0.37841602783E+02  0.29228697967E+03  0.29480254362E+03  0.19999988120E+01 0.  0.
        -13    1    3    3    0    0  0.63933044029E+01  0.37841602783E+02  0.20298159551E+03  0.20657783163E+03  0.10566000000E+00 0.  1.
         13    1    4    4    0    0 -0.17758406581E+01 -0.89547106389E+01  0.65215127747E+02  0.65851078227E+02  0.10566000000E+00 0. -1.
        -13    1    4    4    0    0 -0.14940301567E+01 -0.12862416578E+02  0.99211373035E+02  0.10005289396E+03  0.10566000000E+00 0.  1.
        -14    1    4    4    0    0 -0.31234335880E+01 -0.16024475566E+02  0.12786047889E+03  0.12889857143E+03  0.00000000000E+00 0.  1.
<mgrwt>
<rscale>  0 0.78046903E+02</rscale>
<asrwt>0</asrwt>
<pdfrwt beam="1">  1        2 0.76665305E-01 0.78046903E+02</pdfrwt>
<pdfrwt beam="2">  1       -1 0.47013846E-03 0.78046903E+02</pdfrwt>
<totfact> 0.32440250E+05</totfact>
</mgrwt>
</event>
<event>
 8    1  0.2561077E-020  0.7972039E+02  0.7818608E-02  0.1329847E+00
          2   -1    0    0  501    0  0.00000000000E+00  0.00000000000E+00  0.43607803117E+01  0.43607810572E+01  0.25500000000E-02 0. -1.
         -1   -1    0    0    0  501 -0.00000000000E+00 -0.00000000000E+00 -0.36434645664E+03  0.36434645667E+03  0.50400000000E-02 0.  1.
         24    2    1    2    0    0 -0.22204460493E-15  0.00000000000E+00 -0.35998567633E+03  0.36870723773E+03  0.79720386316E+02 0.  0.
         66    2    3    3    0    0 -0.17593705505E+01 -0.38660777200E+02 -0.13645424004E+03  0.14185031090E+03  0.19999997925E+01 0.  0.
        -13    1    3    3    0    0  0.17593705505E+01  0.38660777200E+02 -0.22353143629E+03  0.22685692683E+03  0.10566000000E+00 0.  1.
         13    1    4    4    0    0 -0.11098732828E+01 -0.11963445160E+02 -0.40020094457E+02  0.41784865240E+02  0.10566000000E+00 0. -1.
        -13    1    4    4    0    0  0.88262824108E-01 -0.25569538410E+01 -0.91994314572E+01  0.95491626043E+01  0.10566000000E+00 0.  1.
        -14    1    4    4    0    0 -0.73776009176E+00 -0.24140378199E+02 -0.87234714125E+02  0.90516283055E+02  0.00000000000E+00 0.  1.
<mgrwt>
<rscale>  0 0.79720386E+02</rscale>
<asrwt>0</asrwt>
<pdfrwt beam="1">  1        2 0.67088963E-03 0.79720386E+02</pdfrwt>
<pdfrwt beam="2">  1       -1 0.56053277E-01 0.79720386E+02</pdfrwt>
<totfact> 0.80094196E+04</totfact>
</mgrwt>
</event>
<event>
 8    1  0.2561077E-020  0.7966689E+02  0.7818608E-02  0.1329999E+00
         -1   -1    0    0    0  501 -0.00000000000E+00  0.00000000000E+00  0.79974336943E+02  0.79974337102E+02  0.50400000000E-02 0.  1.
          2   -1    0    0  501    0  0.00000000000E+00 -0.00000000000E+00 -0.19840157562E+02  0.19840157726E+02  0.25500000000E-02 0. -1.
         24    2    1    2    0    0  0.00000000000E+00  0.35527136788E-14  0.60134179381E+02  0.99814494828E+02  0.79666893049E+02 0.  0.
         66    2    3    3    0    0  0.17551801518E+02 -0.14996828868E+02  0.70717914052E+02  0.74417699436E+02  0.20000022172E+01 0.  0.
        -13    1    3    3    0    0 -0.17551801518E+02  0.14996828868E+02 -0.10583734671E+02  0.25396795393E+02  0.10566000000E+00 0.  1.
         13    1    4    4    0    0  0.66849636518E+01 -0.57057530309E+01  0.26340657779E+02  0.27768431229E+02  0.10566000000E+00 0. -1.
        -13    1    4    4    0    0  0.10164406364E+02 -0.84708427043E+01  0.42070435476E+02  0.44102188585E+02  0.10566000000E+00 0.  1.
        -14    1    4    4    0    0  0.70243150222E+00 -0.82023313257E+00  0.23068207972E+01  0.25470796213E+01  0.00000000000E+00 0.  1.
<mgrwt>
<rscale>  0 0.79666893E+02</rscale>
<asrwt>0</asrwt>
<pdfrwt beam="1">  1        2 0.30523320E-02 0.79666893E+02</pdfrwt>
<pdfrwt beam="2">  1       -1 0.12303744E-01 0.79666893E+02</pdfrwt>
<totfact> 0.12545038E+05</totfact>
</mgrwt>
</event>
<event>
 8    1  0.2561077E-020  0.7834439E+02  0.7818608E-02  0.1333817E+00
          2   -1    0    0  501    0  0.00000000000E+00  0.00000000000E+00  0.38666573905E+03  0.38666573906E+03  0.25500000000E-02 0. -1.
         -1   -1    0    0    0  501 -0.00000000000E+00 -0.00000000000E+00 -0.39684412301E+01  0.39684444306E+01  0.50400000000E-02 0.  1.
         24    2    1    2    0    0  0.00000000000E+00  0.00000000000E+00  0.38269729782E+03  0.39063418349E+03  0.78344390683E+02 0.  0.
         66    2    3    3    0    0 -0.15517247296E+02 -0.34210346066E+02  0.24639347718E+03  0.24924862756E+03  0.19999999473E+01 0.  0.
        -13    1    3    3    0    0  0.15517247296E+02  0.34210346066E+02  0.13630382064E+03  0.14138555593E+03  0.10566000000E+00 0.  1.
         13    1    4    4    0    0 -0.14649278186E+00 -0.26563191423E+00  0.16770246386E+01  0.17075116758E+01  0.10566000000E+00 0.  1.
        -13    1    4    4    0    0 -0.26414563546E+01 -0.71692591225E+01  0.50675263906E+02  0.51248113175E+02  0.10566000000E+00 0.  1.
         14    1    4    4    0    0 -0.12729298159E+02 -0.26775455029E+02  0.19404118864E+03  0.19629300271E+03  0.00000000000E+00 0. -1.
<mgrwt>
<rscale>  0 0.78344391E+02</rscale>
<asrwt>0</asrwt>
<pdfrwt beam="1">  1        2 0.59487042E-01 0.78344391E+02</pdfrwt>
<pdfrwt beam="2">  1       -1 0.61052962E-03 0.78344391E+02</pdfrwt>
<totfact> 0.29485841E+05</totfact>
</mgrwt>
</event>
<event>
 8    1  0.2561077E-020  0.7917906E+02  0.7818608E-02  0.1331397E+00
         -1   -1    0    0    0  501 -0.00000000000E+00  0.00000000000E+00  0.11160134186E+02  0.11160135324E+02  0.50400000000E-02 0.  1.
          2   -1    0    0  501    0  0.00000000000E+00 -0.00000000000E+00 -0.14044013576E+03  0.14044013578E+03  0.25500000000E-02 0. -1.
         24    2    1    2    0    0  0.00000000000E+00  0.00000000000E+00 -0.12928000157E+03  0.15160027111E+03  0.79179059053E+02 0.  0.
         66    2    3    3    0    0  0.18917525681E+02  0.23007011353E+02 -0.11454044163E+03  0.11836683703E+03  0.19999976316E+01 0.  0.
        -13    1    3    3    0    0 -0.18917525681E+02 -0.23007011353E+02 -0.14739559949E+02  0.33233434080E+02  0.10566000000E+00 0.  1.
         13    1    4    4    0    0  0.84066397816E+01  0.11307361430E+02 -0.55756844430E+02  0.57509693790E+02  0.10566000000E+00 0.  1.
        -13    1    4    4    0    0  0.84088386340E+01  0.98384067745E+01 -0.48426752328E+02  0.50126483221E+02  0.10566000000E+00 0. -1.
        -14    1    4    4    0    0  0.21020472650E+01  0.18612431478E+01 -0.10356844867E+02  0.10730660015E+02  0.00000000000E+00 0.  1.
<mgrwt>
<rscale>  0 0.79179059E+02</rscale>
<asrwt>0</asrwt>
<pdfrwt beam="1">  1        2 0.21606174E-01 0.79179059E+02</pdfrwt>
<pdfrwt beam="2">  1       -1 0.17169439E-02 0.79179059E+02</pdfrwt>
<totfact> 0.20158246E+05</totfact>
</mgrwt>
</event>
<event>
 8    1  0.2561077E-020  0.8267953E+02  0.7818608E-02  0.1321615E+00
          2   -1    0    0  501    0  0.00000000000E+00  0.00000000000E+00  0.27251098484E+02  0.27251098603E+02  0.25500000000E-02 0. -1.
         -1   -1    0    0    0  501 -0.00000000000E+00 -0.00000000000E+00 -0.62712194326E+02  0.62712194528E+02  0.50400000000E-02 0.  1.
         24    2    1    2    0    0  0.00000000000E+00  0.00000000000E+00 -0.35461095842E+02  0.89963293131E+02  0.82679530675E+02 0.  0.
         66    2    3    3    0    0  0.26670203625E+02  0.14806195541E+02  0.12578710111E+02  0.33056726657E+02  0.20000103527E+01 0.  0.
        -13    1    3    3    0    0 -0.26670203625E+02 -0.14806195541E+02 -0.48039805953E+02  0.56906566474E+02  0.10566000000E+00 0.  1.
         13    1    4    4    0    0  0.55480203014E+01  0.33545799844E+01  0.28537919994E+01  0.70844215676E+01  0.10566000000E+00 0. -1.
        -13    1    4    4    0    0  0.11309199096E+02  0.52010405594E+01  0.50239411933E+01  0.13423857725E+02  0.10566000000E+00 0.  1.
        -14    1    4    4    0    0  0.98129842284E+01  0.62505749970E+01  0.47009769185E+01  0.12548447364E+02  0.00000000000E+00 0.  1.
<mgrwt>
<rscale>  0 0.82679531E+02</rscale>
<asrwt>0</asrwt>
<pdfrwt beam="1">  1        2 0.41924767E-02 0.82679531E+02</pdfrwt>
<pdfrwt beam="2">  1       -1 0.96480299E-02 0.82679531E+02</pdfrwt>
<totfact> 0.12029094E+05</totfact>
</mgrwt>
</event>
<event>
 8    1  0.2561077E-020  0.7861630E+02  0.7818608E-02  0.1333025E+00
          2   -1    0    0  501    0  0.00000000000E+00  0.00000000000E+00  0.37867156231E+01  0.37867164817E+01  0.25500000000E-02 0. -1.
         -1   -1    0    0    0  501 -0.00000000000E+00 -0.00000000000E+00 -0.40803971337E+03  0.40803971340E+03  0.50400000000E-02 0.  1.
         24    2    1    2    0    0  0.00000000000E+00  0.00000000000E+00 -0.40425299775E+03  0.41182642988E+03  0.78616297055E+02 0.  0.
         66    2    3    3    0    0  0.34786362736E+02  0.71323807403E+01 -0.29025077670E+03  0.29242174214E+03  0.20000033903E+01 0.  0.
        -13    1    3    3    0    0 -0.34786362736E+02 -0.71323807403E+01 -0.11400222105E+03  0.11940468775E+03  0.10566000000E+00 0.  1.
         13    1    4    4    0    0  0.11359607316E+02  0.19740912356E+01 -0.91108166331E+02  0.91834889072E+02  0.10566000000E+00 0. -1.
        -13    1    4    4    0    0  0.86286750250E+01  0.21798167648E+01 -0.78932048447E+02  0.79432267183E+02  0.10566000000E+00 0.  1.
         14    1    4    4    0    0  0.14798080395E+02  0.29784727400E+01 -0.12021056192E+03  0.12115458588E+03  0.00000000000E+00 0. -1.
<mgrwt>
<rscale>  0 0.78616297E+02</rscale>
<asrwt>0</asrwt>
<pdfrwt beam="1">  1        2 0.58257202E-03 0.78616297E+02</pdfrwt>
<pdfrwt beam="2">  1       -1 0.62775306E-01 0.78616297E+02</pdfrwt>
<totfact> 0.78463897E+04</totfact>
</mgrwt>
</event>
<event>
 8    1  0.2561077E-020  0.8310868E+02  0.7818608E-02  0.1320454E+00
          2   -1    0    0  501    0  0.00000000000E+00  0.00000000000E+00  0.18821098430E+03  0.18821098431E+03  0.25500000000E-02 0. -1.
         -1   -1    0    0    0  501 -0.00000000000E+00 -0.00000000000E+00 -0.91746131905E+01  0.91746145749E+01  0.50400000000E-02 0.  1.
         24    2    1    2    0    0  0.35527136788E-14  0.00000000000E+00  0.17903637111E+03  0.19738559889E+03  0.83108678667E+02 0.  0.
         66    2    3    3    0    0  0.26900441128E+02 -0.30736261818E+02  0.10740738383E+03  0.11492909820E+03  0.19999971678E+01 0.  0.
        -13    1    3    3    0    0 -0.26900441128E+02  0.30736261818E+02  0.71628987279E+02  0.82456500691E+02  0.10566000000E+00 0.  1.
         13    1    4    4    0    0  0.98401169861E+01 -0.10482888716E+02  0.39132601196E+02  0.41690412549E+02  0.10566000000E+00 0. -1.
        -13    1    4    4    0    0  0.27131677655E+01 -0.28657119909E+01  0.93654713254E+01  0.10163503418E+02  0.10566000000E+00 0. -1.
        -14    1    4    4    0    0  0.14347156377E+02 -0.17387661111E+02  0.58909311305E+02  0.63075182230E+02  0.00000000000E+00 0.  1.
<mgrwt>
<rscale>  0 0.83108679E+02</rscale>
<asrwt>0</asrwt>
<pdfrwt beam="1">  1        2 0.28955534E-01 0.83108679E+02</pdfrwt>
<pdfrwt beam="2">  1       -1 0.14114792E-02 0.83108679E+02</pdfrwt>
<totfact> 0.19527511E+05</totfact>
</mgrwt>
</event>
<event>
 8    1  0.2561077E-020  0.7907781E+02  0.7818608E-02  0.1331689E+00
         -1   -1    0    0    0  501 -0.00000000000E+00  0.00000000000E+00  0.54681493271E+01  0.54681516498E+01  0.50400000000E-02 0.  1.
          2   -1    0    0  501    0  0.00000000000E+00 -0.00000000000E+00 -0.28589651093E+03  0.28589651094E+03  0.25500000000E-02 0. -1.
         24    2    1    2    0    0  0.00000000000E+00  0.00000000000E+00 -0.28042836160E+03  0.29136466259E+03  0.79077813675E+02 0.  0.
         66    2    3    3    0    0 -0.82432504670E+01 -0.38571288963E+02 -0.13156521958E+03  0.13736485179E+03  0.19999982421E+01 0.  0.
        -13    1    3    3    0    0  0.82432504670E+01  0.38571288963E+02 -0.14886314202E+03  0.15399981080E+03  0.10566000000E+00 0.  1.
         13    1    4    4    0    0 -0.39868700417E+01 -0.18191398518E+02 -0.63699798631E+02  0.66366389253E+02  0.10566000000E+00 0. -1.
        -13    1    4    4    0    0  0.39323652664E-01 -0.75028928070E+00 -0.27883139871E+01  0.28896953612E+01  0.10566000000E+00 0.  1.
        -14    1    4    4    0    0 -0.42957040779E+01 -0.19629601165E+02 -0.65077106966E+02  0.68108767178E+02  0.00000000000E+00 0.  1.
<mgrwt>
<rscale>  0 0.79077814E+02</rscale>
<asrwt>0</asrwt>
<pdfrwt beam="1">  1        2 0.43984067E-01 0.79077814E+02</pdfrwt>
<pdfrwt beam="2">  1       -1 0.84125415E-03 0.79077814E+02</pdfrwt>
<totfact> 0.25826985E+05</totfact>
</mgrwt>
</event>
<event>
 8    1  0.2561077E-020  0.7899940E+02  0.7818608E-02  0.1331915E+00
          2   -1    0    0  501    0  0.00000000000E+00  0.00000000000E+00  0.69026449329E+01  0.69026454039E+01  0.25500000000E-02 0. -1.
         -1   -1    0    0    0  501 -0.00000000000E+00 -0.00000000000E+00 -0.22603312495E+03  0.22603312501E+03  0.50400000000E-02 0.  1.
         24    2    1    2    0    0  0.00000000000E+00  0.00000000000E+00 -0.21913048002E+03  0.23293577041E+03  0.78999404200E+02 0.  0.
         66    2    3    3    0    0  0.27010422215E+02  0.28327424274E+02 -0.94538199387E+02  0.10234000696E+03  0.20000018105E+01 0.  0.
        -13    1    3    3    0    0 -0.27010422215E+02 -0.28327424274E+02 -0.12459228063E+03  0.13059576345E+03  0.10566000000E+00 0.  1.
         13    1    4    4    0    0  0.19179101737E+02  0.20397578061E+02 -0.68113438214E+02  0.73643402716E+02  0.10566000000E+00 0.  1.
        -13    1    4    4    0    0  0.73681145907E+01  0.72210962780E+01 -0.23840674157E+02  0.25977341134E+02  0.10566000000E+00 0. -1.
        -14    1    4    4    0    0  0.46320588708E+00  0.70874993485E+00 -0.25840870159E+01  0.27192631115E+01  0.00000000000E+00 0.  1.
<mgrwt>
<rscale>  0 0.78999404E+02</rscale>
<asrwt>0</asrwt>
<pdfrwt beam="1">  1        2 0.10619456E-02 0.78999404E+02</pdfrwt>
<pdfrwt beam="2">  1       -1 0.34774321E-01 0.78999404E+02</pdfrwt>
<totfact> 0.98963682E+04</totfact>
</mgrwt>
</event>
<event>
 8    1  0.2561077E-020  0.8031549E+02  0.7818608E-02  0.1328159E+00
         -1   -1    0    0    0  501 -0.00000000000E+00  0.00000000000E+00  0.86003295891E+01  0.86003310659E+01  0.50400000000E-02 0.  1.
          2   -1    0    0  501    0  0.00000000000E+00 -0.00000000000E+00 -0.18750959113E+03  0.18750959115E+03  0.25500000000E-02 0. -1.
         24    2    1    2    0    0 -0.17763568394E-14  0.00000000000E+00 -0.17890926154E+03  0.19610992221E+03  0.80315488701E+02 0.  0.
         66    2    3    3    0    0  0.12083566281E+02  0.29108524176E+01 -0.18268590963E+03  0.18311916124E+03  0.20000000203E+01 0.  0.
        -13    1    3    3    0    0 -0.12083566281E+02 -0.29108524176E+01  0.37766480880E+01  0.12990760974E+02  0.10566000000E+00 0.  1.
         13    1    4    4    0    0  0.83927553822E+01  0.23412625131E+01 -0.13336476305E+03  0.13364913408E+03  0.10566000000E+00 0. -1.
        -13    1    4    4    0    0  0.54406810348E-01 -0.76960982851E-01 -0.17582713642E+01  0.17639629587E+01  0.10566000000E+00 0.  1.
         14    1    4    4    0    0  0.36364040889E+01  0.64655088738E+00 -0.47562875215E+02  0.47706064200E+02  0.00000000000E+00 0. -1.
<mgrwt>
<rscale>  0 0.80315489E+02</rscale>
<asrwt>0</asrwt>
<pdfrwt beam="1">  1        2 0.28847626E-01 0.80315489E+02</pdfrwt>
<pdfrwt beam="2">  1       -1 0.13231279E-02 0.80315489E+02</pdfrwt>
<totfact> 0.21349967E+05</totfact>
</mgrwt>
</event>
<event>
 8    1  0.2561077E-020  0.7959951E+02  0.7818608E-02  0.1330192E+00
          2   -1    0    0  501    0  0.00000000000E+00  0.00000000000E+00  0.76468465231E+02  0.76468465274E+02  0.25500000000E-02 0. -1.
         -1   -1    0    0    0  501 -0.00000000000E+00 -0.00000000000E+00 -0.20714687721E+02  0.20714688334E+02  0.50400000000E-02 0.  1.
         24    2    1    2    0    0  0.00000000000E+00 -0.71054273576E-14  0.55753777510E+02  0.97183153608E+02  0.79599507779E+02 0.  0.
         66    2    3    3    0    0  0.28887801421E+02 -0.25320767218E+02  0.40486255619E+02  0.55846067207E+02  0.20000012416E+01 0.  0.
        -13    1    3    3    0    0 -0.28887801421E+02  0.25320767218E+02  0.15267521891E+02  0.41337086401E+02  0.10566000000E+00 0.  1.
         13    1    4    4    0    0  0.45750678471E+01 -0.38190803317E+01  0.68223764944E+01  0.90593932165E+01  0.10566000000E+00 0. -1.
        -13    1    4    4    0    0  0.24950505755E+01 -0.26810311171E+01  0.33672124957E+01  0.49761922443E+01  0.10566000000E+00 0.  1.
         14    1    4    4    0    0  0.21817682998E+02 -0.18820655769E+02  0.30296666629E+02  0.41810481746E+02  0.00000000000E+00 0. -1.
<mgrwt>
<rscale>  0 0.79599508E+02</rscale>
<asrwt>0</asrwt>
<pdfrwt beam="1">  1        2 0.11764379E-01 0.79599508E+02</pdfrwt>
<pdfrwt beam="2">  1       -1 0.31868751E-02 0.79599508E+02</pdfrwt>
<totfact> 0.16729841E+05</totfact>
</mgrwt>
</event>
<event>
 8    1  0.2561077E-020  0.8138669E+02  0.7818608E-02  0.1325162E+00
         -1   -1    0    0    0  501 -0.00000000000E+00  0.00000000000E+00  0.28888904174E+01  0.28888948138E+01  0.50400000000E-02 0.  1.
          2   -1    0    0  501    0  0.00000000000E+00 -0.00000000000E+00 -0.57321215075E+03  0.57321215075E+03  0.25500000000E-02 0. -1.
         24    2    1    2    0    0 -0.71054273576E-14 -0.17763568394E-14 -0.57032326033E+03  0.57610104557E+03  0.81386690741E+02 0.  0.
         66    2    3    3    0    0 -0.22344008621E+02  0.10944867852E+02 -0.51304967339E+03  0.51365651195E+03  0.20000125955E+01 0.  0.
        -13    1    3    3    0    0  0.22344008621E+02 -0.10944867852E+02 -0.57273586941E+02  0.62444533617E+02  0.10566000000E+00 0.  1.
         13    1    4    4    0    0 -0.20985996067E+01  0.87305317671E+00 -0.39231765137E+02  0.39297695886E+02  0.10566000000E+00 0. -1.
        -13    1    4    4    0    0 -0.12618157749E+01  0.38378747224E+00 -0.31350140187E+02  0.31378048468E+02  0.10566000000E+00 0.  1.
         14    1    4    4    0    0 -0.18983593239E+02  0.96880272028E+01 -0.44246776806E+03  0.44298076760E+03  0.00000000000E+00 0. -1.
<mgrwt>
<rscale>  0 0.81386691E+02</rscale>
<asrwt>0</asrwt>
<pdfrwt beam="1">  1        2 0.88186394E-01 0.81386691E+02</pdfrwt>
<pdfrwt beam="2">  1       -1 0.44444548E-03 0.81386691E+02</pdfrwt>
<totfact> 0.30358308E+05</totfact>
</mgrwt>
</event>
<event>
 8    1  0.2561077E-020  0.7900293E+02  0.7818608E-02  0.1331905E+00
          2   -1    0    0  501    0  0.00000000000E+00  0.00000000000E+00  0.37982916380E+03  0.37982916380E+03  0.25500000000E-02 0. -1.
         -1   -1    0    0    0  501 -0.00000000000E+00 -0.00000000000E+00 -0.41080709210E+01  0.41080740126E+01  0.50400000000E-02 0.  1.
         24    2    1    2    0    0  0.17763568394E-14 -0.35527136788E-14  0.37572109287E+03  0.38393723782E+03  0.79002930018E+02 0.  0.
         66    2    3    3    0    0 -0.11822769703E+02 -0.24971215607E+02  0.32500769087E+03  0.32618604909E+03  0.20000010722E+01 0.  0.
        -13    1    3    3    0    0  0.11822769703E+02  0.24971215607E+02  0.50713402002E+02  0.57751188724E+02  0.10566000000E+00 0.  1.
         13    1    4    4    0    0 -0.50071661032E+01 -0.92851993151E+01  0.13052119880E+03  0.13094686380E+03  0.10566000000E+00 0. -1.
        -13    1    4    4    0    0 -0.38166552635E+00 -0.14419449738E+01  0.17885362752E+02  0.17947764170E+02  0.10566000000E+00 0.  1.
        -14    1    4    4    0    0 -0.64339380733E+01 -0.14244071318E+02  0.17660112932E+03  0.17729142112E+03  0.00000000000E+00 0.  1.
<mgrwt>
<rscale>  0 0.79002930E+02</rscale>
<asrwt>0</asrwt>
<pdfrwt beam="1">  1        2 0.58435265E-01 0.79002930E+02</pdfrwt>
<pdfrwt beam="2">  1       -1 0.63201106E-03 0.79002930E+02</pdfrwt>
<totfact> 0.28667861E+05</totfact>
</mgrwt>
</event>
<event>
 8    1  0.2561077E-020  0.8088067E+02  0.7818608E-02  0.1326571E+00
          2   -1    0    0  501    0  0.00000000000E+00  0.00000000000E+00  0.45236728928E+03  0.45236728928E+03  0.25500000000E-02 0. -1.
         -1   -1    0    0    0  501 -0.00000000000E+00 -0.00000000000E+00 -0.36152479544E+01  0.36152514675E+01  0.50400000000E-02 0.  1.
         24    2    1    2    0    0  0.00000000000E+00  0.35527136788E-14  0.44875204132E+03  0.45598254075E+03  0.80880670615E+02 0.  0.
         66    2    3    3    0    0  0.34030311600E+02  0.21721846672E+02  0.23508264267E+03  0.23853249174E+03  0.20000001683E+01 0.  0.
        -13    1    3    3    0    0 -0.34030311600E+02 -0.21721846672E+02  0.21366939865E+03  0.21745004901E+03  0.10566000000E+00 0.  1.
         13    1    4    4    0    0  0.26683411395E+02  0.16267079472E+02  0.18090676289E+03  0.18358619322E+03  0.10566000000E+00 0. -1.
        -13    1    4    4    0    0  0.56786189353E+01  0.40723023686E+01  0.42586416523E+02  0.43156047038E+02  0.10566000000E+00 0.  1.
         14    1    4    4    0    0  0.16682812697E+01  0.13824648314E+01  0.11589463260E+02  0.11790251484E+02  0.00000000000E+00 0. -1.
<mgrwt>
<rscale>  0 0.80880671E+02</rscale>
<asrwt>0</asrwt>
<pdfrwt beam="1">  1        2 0.69594982E-01 0.80880671E+02</pdfrwt>
<pdfrwt beam="2">  1       -1 0.55619215E-03 0.80880671E+02</pdfrwt>
<totfact> 0.28640050E+05</totfact>
</mgrwt>
</event>
<event>
 8    1  0.2561077E-020  0.7291273E+02  0.7818608E-02  0.1350459E+00
          2   -1    0    0  501    0  0.00000000000E+00  0.00000000000E+00  0.12621626460E+04  0.12621626460E+04  0.25500000000E-02 0. -1.
         -1   -1    0    0    0  501 -0.00000000000E+00 -0.00000000000E+00 -0.10530014319E+01  0.10530134933E+01  0.50400000000E-02 0.  1.
         24    2    1    2    0    0 -0.35527136788E-14  0.00000000000E+00  0.12611096446E+04  0.12632156595E+04  0.72912733956E+02 0.  0.
         66    2    3    3    0    0  0.18515761546E+02 -0.10972347068E+02  0.11402295515E+04  0.11404344155E+04  0.19999992448E+01 0.  0.
        -13    1    3    3    0    0 -0.18515761546E+02  0.10972347068E+02  0.12088009304E+03  0.12278124402E+03  0.10566000000E+00 0.  1.
         13    1    4    4    0    0  0.95275755806E+00 -0.73470076086E+00  0.58262232612E+02  0.58274749636E+02  0.10566000000E+00 0. -1.
        -13    1    4    4    0    0  0.11406220810E+02 -0.56882560533E+01  0.67097032270E+03  0.67109138218E+03  0.10566000000E+00 0.  1.
        -14    1    4    4    0    0  0.61567831778E+01 -0.45493902537E+01  0.41099699621E+03  0.41106828366E+03  0.00000000000E+00 0.  1.
<mgrwt>
<rscale>  0 0.72912734E+02</rscale>
<asrwt>0</asrwt>
<pdfrwt beam="1">  1        2 0.19417930E+00 0.72912734E+02</pdfrwt>
<pdfrwt beam="2">  1       -1 0.16200079E-03 0.72912734E+02</pdfrwt>
<totfact> 0.44227968E+05</totfact>
</mgrwt>
</event>
<event>
 8    1  0.2561077E-020  0.8353120E+02  0.7818608E-02  0.1319319E+00
         -1   -1    0    0    0  501 -0.00000000000E+00  0.00000000000E+00  0.12162895754E+02  0.12162896798E+02  0.50400000000E-02 0.  1.
          2   -1    0    0  501    0  0.00000000000E+00 -0.00000000000E+00 -0.14341692366E+03  0.14341692368E+03  0.25500000000E-02 0. -1.
         24    2    1    2    0    0 -0.71054273576E-14 -0.55511151231E-16 -0.13125402790E+03  0.15557982048E+03  0.83531195965E+02 0.  0.
         66    2    3    3    0    0 -0.41732672784E+02 -0.21322297371E+00 -0.64107646593E+02  0.76520923896E+02  0.20000001236E+01 0.  0.
        -13    1    3    3    0    0  0.41732672784E+02  0.21322297371E+00 -0.67146381309E+02  0.79058896581E+02  0.10566000000E+00 0.  1.
         13    1    4    4    0    0 -0.19830233847E+02  0.14092868997E+00 -0.29466588429E+02  0.35518291527E+02  0.10566000000E+00 0. -1.
        -13    1    4    4    0    0 -0.60564268451E+01 -0.45226041722E+00 -0.89085472036E+01  0.10782310649E+02  0.10566000000E+00 0.  1.
         14    1    4    4    0    0 -0.15846012092E+02  0.98108753549E-01 -0.25732510960E+02  0.30220321720E+02  0.00000000000E+00 0. -1.
<mgrwt>
<rscale>  0 0.83531196E+02</rscale>
<asrwt>0</asrwt>
<pdfrwt beam="1">  1        2 0.22064141E-01 0.83531196E+02</pdfrwt>
<pdfrwt beam="2">  1       -1 0.18712149E-02 0.83531196E+02</pdfrwt>
<totfact> 0.17599588E+05</totfact>
</mgrwt>
</event>
<event>
 8    1  0.2561077E-020  0.8107403E+02  0.7818608E-02  0.1326031E+00
          2   -1    0    0  501    0  0.00000000000E+00  0.00000000000E+00  0.25606166036E+02  0.25606166163E+02  0.25500000000E-02 0. -1.
         -1   -1    0    0    0  501 -0.00000000000E+00 -0.00000000000E+00 -0.64173978742E+02  0.64173978940E+02  0.50400000000E-02 0.  1.
         24    2    1    2    0    0  0.00000000000E+00  0.00000000000E+00 -0.38567812706E+02  0.89780145104E+02  0.81074029614E+02 0.  0.
         66    2    3    3    0    0  0.35591179036E+02  0.48163594972E+01  0.14605515207E+01  0.36000869814E+02  0.20000181741E+01 0.  0.
        -13    1    3    3    0    0 -0.35591179036E+02 -0.48163594972E+01 -0.40028364227E+02  0.53779275289E+02  0.10566000000E+00 0.  1.
         13    1    4    4    0    0  0.24099375588E+02  0.32182568164E+01  0.17697299168E+01  0.24377862676E+02  0.10566000000E+00 0. -1.
        -13    1    4    4    0    0  0.50172856728E+01  0.69730115529E+00 -0.43177576712E+00  0.50849757888E+01  0.10566000000E+00 0.  1.
         14    1    4    4    0    0  0.64745177752E+01  0.90080152546E+00  0.12259737102E+00  0.65380313493E+01  0.00000000000E+00 0. -1.
<mgrwt>
<rscale>  0 0.81074030E+02</rscale>
<asrwt>0</asrwt>
<pdfrwt beam="1">  1        2 0.39394102E-02 0.81074030E+02</pdfrwt>
<pdfrwt beam="2">  1       -1 0.98729198E-02 0.81074030E+02</pdfrwt>
<totfact> 0.12558629E+05</totfact>
</mgrwt>
</event>
<event>
 8    1  0.2561077E-020  0.8921713E+02  0.7818608E-02  0.1304759E+00
         -1   -1    0    0    0  501 -0.00000000000E+00  0.00000000000E+00  0.19547798926E+01  0.19547863899E+01  0.50400000000E-02 0.  1.
          2   -1    0    0  501    0  0.00000000000E+00 -0.00000000000E+00 -0.10179768474E+04  0.10179768474E+04  0.25500000000E-02 0. -1.
         24    2    1    2    0    0  0.35527136788E-14  0.35527136788E-14 -0.10160220675E+04  0.10199316338E+04  0.89217128119E+02 0.  0.
         66    2    3    3    0    0  0.19347746202E+02  0.30653914264E+02 -0.80504065159E+03  0.80585882663E+03  0.19999980429E+01 0.  0.
        -13    1    3    3    0    0 -0.19347746202E+02 -0.30653914264E+02 -0.21098141592E+03  0.21407280717E+03  0.10566000000E+00 0.  1.
         13    1    4    4    0    0  0.10100863185E+02  0.16532198358E+02 -0.41305974777E+03  0.41351385396E+03  0.10566000000E+00 0. -1.
        -13    1    4    4    0    0  0.81495275841E+00  0.16273677377E+01 -0.40578756075E+02  0.40619688359E+02  0.10566000000E+00 0.  1.
        -14    1    4    4    0    0  0.84319302586E+01  0.12494348168E+02 -0.35140214774E+03  0.35172528431E+03  0.00000000000E+00 0.  1.
<mgrwt>
<rscale>  0 0.89217128E+02</rscale>
<asrwt>0</asrwt>
<pdfrwt beam="1">  1        2 0.15661140E+00 0.89217128E+02</pdfrwt>
<pdfrwt beam="2">  1       -1 0.30073668E-03 0.89217128E+02</pdfrwt>
<totfact> 0.26520088E+05</totfact>
</mgrwt>
</event>
<event>
 8    1  0.2561077E-020  0.8004348E+02  0.7818608E-02  0.1328928E+00
          2   -1    0    0  501    0  0.00000000000E+00  0.00000000000E+00  0.12734344951E+03  0.12734344954E+03  0.25500000000E-02 0. -1.
         -1   -1    0    0    0  501 -0.00000000000E+00 -0.00000000000E+00 -0.12578107188E+02  0.12578108198E+02  0.50400000000E-02 0.  1.
         24    2    1    2    0    0  0.00000000000E+00  0.00000000000E+00  0.11476534232E+03  0.13992155774E+03  0.80043478937E+02 0.  0.
         66    2    3    3    0    0 -0.10874409118E+02  0.48131509439E+01  0.12417349122E+03  0.12475766558E+03  0.20000004949E+01 0.  0.
        -13    1    3    3    0    0  0.10874409118E+02 -0.48131509439E+01 -0.94081488988E+01  0.15163892159E+02  0.10566000000E+00 0.  1.
         13    1    4    4    0    0 -0.51420694494E+01  0.23202697857E+01  0.56774803728E+02  0.57054483019E+02  0.10566000000E+00 0. -1.
        -13    1    4    4    0    0 -0.35202637169E+01  0.86753139550E+00  0.34484343962E+02  0.34674572959E+02  0.10566000000E+00 0.  1.
        -14    1    4    4    0    0 -0.22120759513E+01  0.16253497627E+01  0.32914343533E+02  0.33028609600E+02  0.00000000000E+00 0.  1.
<mgrwt>
<rscale>  0 0.80043479E+02</rscale>
<asrwt>0</asrwt>
<pdfrwt beam="1">  1        2 0.19591300E-01 0.80043479E+02</pdfrwt>
<pdfrwt beam="2">  1       -1 0.19350935E-02 0.80043479E+02</pdfrwt>
<totfact> 0.18998050E+05</totfact>
</mgrwt>
</event>
<event>
 8    1  0.2561077E-020  0.7909637E+02  0.7818608E-02  0.1331636E+00
          2   -1    0    0  501    0  0.00000000000E+00  0.00000000000E+00  0.44197412027E+03  0.44197412028E+03  0.25500000000E-02 0. -1.
         -1   -1    0    0    0  501 -0.00000000000E+00 -0.00000000000E+00 -0.35388000443E+01  0.35388036333E+01  0.50400000000E-02 0.  1.
         24    2    1    2    0    0  0.00000000000E+00  0.00000000000E+00  0.43843532023E+03  0.44551292391E+03  0.79096367490E+02 0.  0.
         66    2    3    3    0    0  0.27037684354E+02 -0.22451778857E+02  0.32120122284E+03  0.32312434804E+03  0.19999987758E+01 0.  0.
        -13    1    3    3    0    0 -0.27037684354E+02  0.22451778857E+02  0.11723409739E+03  0.12238857587E+03  0.10566000000E+00 0.  1.
         13    1    4    4    0    0  0.16055759139E+02 -0.12651647661E+02  0.18179073315E+03  0.18293641904E+03  0.10566000000E+00 0. -1.
        -13    1    4    4    0    0  0.59667133214E+01 -0.53198140318E+01  0.79674756973E+02  0.80074840943E+02  0.10566000000E+00 0.  1.
         14    1    4    4    0    0  0.50152118942E+01 -0.44803171642E+01  0.59735732720E+02  0.60113088058E+02  0.00000000000E+00 0. -1.
<mgrwt>
<rscale>  0 0.79096367E+02</rscale>
<asrwt>0</asrwt>
<pdfrwt beam="1">  1        2 0.67995946E-01 0.79096367E+02</pdfrwt>
<pdfrwt beam="2">  1       -1 0.54443164E-03 0.79096367E+02</pdfrwt>
<totfact> 0.30119899E+05</totfact>
</mgrwt>
</event>
<event>
 8    1  0.2561077E-020  0.8080862E+02  0.7818608E-02  0.1326772E+00
         -1   -1    0    0    0  501 -0.00000000000E+00  0.00000000000E+00  0.34282316279E+01  0.34282353327E+01  0.50400000000E-02 0.  1.
          2   -1    0    0  501    0  0.00000000000E+00 -0.00000000000E+00 -0.47619512230E+03  0.47619512231E+03  0.25500000000E-02 0. -1.
         24    2    1    2    0    0  0.71054273576E-14 -0.35527136788E-14 -0.47276689067E+03  0.47962335764E+03  0.80808615120E+02 0.  0.
         66    2    3    3    0    0  0.33202067863E+02 -0.22363289451E+02 -0.26793957736E+03  0.27092085773E+03  0.20000030843E+01 0.  0.
        -13    1    3    3    0    0 -0.33202067863E+02  0.22363289451E+02 -0.20482731331E+03  0.20870249991E+03  0.10566000000E+00 0.  1.
         13    1    4    4    0    0  0.21620235189E+02 -0.15274871435E+02 -0.17689571015E+03  0.17886547934E+03  0.10566000000E+00 0. -1.
        -13    1    4    4    0    0  0.72566546251E+01 -0.47218600551E+01 -0.55545315496E+02  0.56216085210E+02  0.10566000000E+00 0.  1.
        -14    1    4    4    0    0  0.43251780488E+01 -0.23665579614E+01 -0.35498551716E+02  0.35839293180E+02  0.00000000000E+00 0.  1.
<mgrwt>
<rscale>  0 0.80808615E+02</rscale>
<asrwt>0</asrwt>
<pdfrwt beam="1">  1        2 0.73260735E-01 0.80808615E+02</pdfrwt>
<pdfrwt beam="2">  1       -1 0.52742092E-03 0.80808615E+02</pdfrwt>
<totfact> 0.29199197E+05</totfact>
</mgrwt>
</event>
<event>
 8    1  0.2561077E-020  0.8004712E+02  0.7818608E-02  0.1328918E+00
          2   -1    0    0  501    0  0.00000000000E+00  0.00000000000E+00  0.10363206163E+03  0.10363206166E+03  0.25500000000E-02 0. -1.
         -1   -1    0    0    0  501 -0.00000000000E+00 -0.00000000000E+00 -0.15457430003E+02  0.15457430824E+02  0.50400000000E-02 0.  1.
         24    2    1    2    0    0  0.00000000000E+00  0.35527136788E-14  0.88174631623E+02  0.11908949248E+03  0.80047120858E+02 0.  0.
         66    2    3    3    0    0  0.23434414230E+02 -0.22642046117E+02  0.78624175977E+02  0.85132808460E+02  0.20000013882E+01 0.  0.
        -13    1    3    3    0    0 -0.23434414230E+02  0.22642046117E+02  0.95504556459E+01  0.33956684021E+02  0.10566000000E+00 0.  1.
         13    1    4    4    0    0  0.12882796190E+02 -0.13356063624E+02  0.44403625699E+02  0.48125294934E+02  0.10566000000E+00 0. -1.
        -13    1    4    4    0    0  0.22222978640E+01 -0.14966643990E+01  0.61746689566E+01  0.67317392165E+01  0.10566000000E+00 0.  1.
        -14    1    4    4    0    0  0.83293201755E+01 -0.77893180937E+01  0.28045881322E+02  0.30275774310E+02  0.00000000000E+00 0.  1.
<mgrwt>
<rscale>  0 0.80047121E+02</rscale>
<asrwt>0</asrwt>
<pdfrwt beam="1">  1        2 0.15943395E-01 0.80047121E+02</pdfrwt>
<pdfrwt beam="2">  1       -1 0.23780661E-02 0.80047121E+02</pdfrwt>
<totfact> 0.17876742E+05</totfact>
</mgrwt>
</event>
<event>
 8    1  0.2561077E-020  0.7967263E+02  0.7818608E-02  0.1329983E+00
          2   -1    0    0  501    0  0.00000000000E+00  0.00000000000E+00  0.95510651241E+02  0.95510651275E+02  0.25500000000E-02 0. -1.
         -1   -1    0    0    0  501 -0.00000000000E+00 -0.00000000000E+00 -0.16615235695E+02  0.16615236459E+02  0.50400000000E-02 0.  1.
         24    2    1    2    0    0  0.00000000000E+00  0.17763568394E-14  0.78895415546E+02  0.11212588773E+03  0.79672630847E+02 0.  0.
         66    2    3    3    0    0  0.35324971934E+02 -0.10747135769E+02  0.60421079877E+02  0.70838276859E+02  0.20000013451E+01 0.  0.
        -13    1    3    3    0    0 -0.35324971934E+02  0.10747135769E+02  0.18474335669E+02  0.41287610876E+02  0.10566000000E+00 0.  1.
         13    1    4    4    0    0  0.12276628350E+02 -0.36571171256E+01  0.22363056554E+02  0.25772224813E+02  0.10566000000E+00 0. -1.
        -13    1    4    4    0    0  0.26533566342E+01 -0.74319560267E+00  0.49369609314E+01  0.56548552949E+01  0.10566000000E+00 0.  1.
        -14    1    4    4    0    0  0.20394986950E+02 -0.63468230404E+01  0.33121062391E+02  0.39411196751E+02  0.00000000000E+00 0.  1.
<mgrwt>
<rscale>  0 0.79672631E+02</rscale>
<asrwt>0</asrwt>
<pdfrwt beam="1">  1        2 0.14693946E-01 0.79672631E+02</pdfrwt>
<pdfrwt beam="2">  1       -1 0.25561902E-02 0.79672631E+02</pdfrwt>
<totfact> 0.17694845E+05</totfact>
</mgrwt>
</event>
<event>
 8    1  0.2561077E-020  0.8048139E+02  0.7818608E-02  0.1327691E+00
         -1   -1    0    0    0  501 -0.00000000000E+00  0.00000000000E+00  0.59272385951E+01  0.59272407379E+01  0.50400000000E-02 0.  1.
          2   -1    0    0  501    0  0.00000000000E+00 -0.00000000000E+00 -0.27319859696E+03  0.27319859697E+03  0.25500000000E-02 0. -1.
         24    2    1    2    0    0  0.00000000000E+00  0.17763568394E-14 -0.26727135836E+03  0.27912583770E+03  0.80481390861E+02 0.  0.
         66    2    3    3    0    0 -0.19086087178E+01  0.15864838929E+02 -0.26171172618E+03  0.26220671907E+03  0.20000005928E+01 0.  0.
        -13    1    3    3    0    0  0.19086087178E+01 -0.15864838929E+02 -0.55596321813E+01  0.16919118639E+02  0.10566000000E+00 0.  1.
         13    1    4    4    0    0 -0.36908916559E+00  0.10820554399E+02 -0.17669197231E+03  0.17702340203E+03  0.10566000000E+00 0. -1.
        -13    1    4    4    0    0 -0.72860562863E+00  0.23674348248E+01 -0.39859468106E+02  0.39936499290E+02  0.10566000000E+00 0.  1.
         14    1    4    4    0    0 -0.81091392361E+00  0.26768497060E+01 -0.45160285763E+02  0.45246817744E+02  0.00000000000E+00 0. -1.
<mgrwt>
<rscale>  0 0.80481391E+02</rscale>
<asrwt>0</asrwt>
<pdfrwt beam="1">  1        2 0.42030544E-01 0.80481391E+02</pdfrwt>
<pdfrwt beam="2">  1       -1 0.91188324E-03 0.80481391E+02</pdfrwt>
<totfact> 0.24259475E+05</totfact>
</mgrwt>
</event>
<event>
 8    1  0.2561077E-020  0.7941569E+02  0.7818608E-02  0.1330718E+00
          2   -1    0    0  501    0  0.00000000000E+00  0.00000000000E+00  0.45934862807E+03  0.45934862808E+03  0.25500000000E-02 0. -1.
         -1   -1    0    0    0  501 -0.00000000000E+00 -0.00000000000E+00 -0.34324952144E+01  0.34324989146E+01  0.50400000000E-02 0.  1.
         24    2    1    2    0    0  0.00000000000E+00  0.00000000000E+00  0.45591613286E+03  0.46278112699E+03  0.79415686748E+02 0.  0.
         66    2    3    3    0    0 -0.22742866639E+02 -0.17129825305E+02  0.38917685559E+03  0.39022210831E+03  0.19999975146E+01 0.  0.
        -13    1    3    3    0    0  0.22742866639E+02  0.17129825305E+02  0.66739277271E+02  0.72559018686E+02  0.10566000000E+00 0.  1.
         13    1    4    4    0    0 -0.25140799288E+00 -0.33831370622E+00  0.50529104346E+01  0.50715609075E+01  0.10566000000E+00 0. -1.
        -13    1    4    4    0    0 -0.18371047932E+01 -0.10774592545E+01  0.32960315851E+02  0.33029221267E+02  0.10566000000E+00 0.  1.
         14    1    4    4    0    0 -0.20654353853E+02 -0.15714052344E+02  0.35116362930E+03  0.35212132613E+03  0.00000000000E+00 0. -1.
<mgrwt>
<rscale>  0 0.79415687E+02</rscale>
<asrwt>0</asrwt>
<pdfrwt beam="1">  1        2 0.70668976E-01 0.79415687E+02</pdfrwt>
<pdfrwt beam="2">  1       -1 0.52807680E-03 0.79415687E+02</pdfrwt>
<totfact> 0.30192959E+05</totfact>
</mgrwt>
</event>
<event>
 8    1  0.2561077E-020  0.8206193E+02  0.7818608E-02  0.1323300E+00
         -1   -1    0    0    0  501 -0.00000000000E+00  0.00000000000E+00  0.58787947913E+02  0.58787948129E+02  0.50400000000E-02 0.  1.
          2   -1    0    0  501    0  0.00000000000E+00 -0.00000000000E+00 -0.28637505244E+02  0.28637505358E+02  0.25500000000E-02 0. -1.
         24    2    1    2    0    0  0.00000000000E+00  0.71054273576E-14  0.30150442669E+02  0.87425453487E+02  0.82061932248E+02 0.  0.
         66    2    3    3    0    0 -0.98766379824E+01  0.33991949877E+02 -0.69699360596E+01  0.36132819364E+02  0.19999980610E+01 0.  0.
        -13    1    3    3    0    0  0.98766379824E+01 -0.33991949877E+02  0.37120378728E+02  0.51292634123E+02  0.10566000000E+00 0.  1.
         13    1    4    4    0    0 -0.63498902951E+01  0.21369172495E+02 -0.36242067514E+01  0.22585585635E+02  0.10566000000E+00 0. -1.
        -13    1    4    4    0    0 -0.42607529623E+00  0.12864507795E+01 -0.14843756069E+00  0.13673673651E+01  0.10566000000E+00 0.  1.
         14    1    4    4    0    0 -0.31006723911E+01  0.11336326602E+02 -0.31972917475E+01  0.12179866364E+02  0.00000000000E+00 0. -1.
<mgrwt>
<rscale>  0 0.82061932E+02</rscale>
<asrwt>0</asrwt>
<pdfrwt beam="1">  1        2 0.44057701E-02 0.82061932E+02</pdfrwt>
<pdfrwt beam="2">  1       -1 0.90442996E-02 0.82061932E+02</pdfrwt>
<totfact> 0.12410471E+05</totfact>
</mgrwt>
</event>
<event>
 8    1  0.2561077E-020  0.8031526E+02  0.7818608E-02  0.1328159E+00
          2   -1    0    0  501    0  0.00000000000E+00  0.00000000000E+00  0.39001035069E+02  0.39001035152E+02  0.25500000000E-02 0. -1.
         -1   -1    0    0    0  501 -0.00000000000E+00 -0.00000000000E+00 -0.41348527771E+02  0.41348528078E+02  0.50400000000E-02 0.  1.
         24    2    1    2    0    0  0.00000000000E+00  0.00000000000E+00 -0.23474927017E+01  0.80349563230E+02  0.80315263738E+02 0.  0.
         66    2    3    3    0    0  0.20684995571E+02 -0.24594191031E+02  0.22875077795E+02  0.39496992922E+02  0.19999978769E+01 0.  0.
        -13    1    3    3    0    0 -0.20684995571E+02  0.24594191031E+02 -0.25222570497E+02  0.40852570308E+02  0.10566000000E+00 0.  1.
         13    1    4    4    0    0  0.94792619407E+01 -0.10162849863E+02  0.10534404549E+02  0.17439173361E+02  0.10566000000E+00 0. -1.
        -13    1    4    4    0    0  0.29654234562E+01 -0.37606593510E+01  0.35630671892E+01  0.59701680763E+01  0.10566000000E+00 0.  1.
         14    1    4    4    0    0  0.82403101746E+01 -0.10670681816E+02  0.87776060576E+01  0.16087651485E+02  0.00000000000E+00 0. -1.
<mgrwt>
<rscale>  0 0.80315264E+02</rscale>
<asrwt>0</asrwt>
<pdfrwt beam="1">  1        2 0.60001592E-02 0.80315264E+02</pdfrwt>
<pdfrwt beam="2">  1       -1 0.63613120E-02 0.80315264E+02</pdfrwt>
<totfact> 0.14027919E+05</totfact>
</mgrwt>
</event>
<event>
 8    1  0.2561077E-020  0.8344281E+02  0.7818608E-02  0.1319556E+00
         -1   -1    0    0    0  501 -0.00000000000E+00  0.00000000000E+00  0.27177760795E+01  0.27177807528E+01  0.50400000000E-02 0.  1.
          2   -1    0    0  501    0  0.00000000000E+00 -0.00000000000E+00 -0.64047741094E+03  0.64047741095E+03  0.25500000000E-02 0. -1.
         24    2    1    2    0    0  0.35527136788E-14  0.00000000000E+00 -0.63775963486E+03  0.64319519170E+03  0.83442811350E+02 0.  0.
         66    2    3    3    0    0 -0.23824679646E+02  0.20798175073E+02 -0.52853476657E+03  0.52948387976E+03  0.20000002487E+01 0.  0.
        -13    1    3    3    0    0  0.23824679646E+02 -0.20798175073E+02 -0.10922486829E+03  0.11371131194E+03  0.10566000000E+00 0.  1.
         13    1    4    4    0    0 -0.36697798018E+01  0.34459660360E+01 -0.84929244901E+02  0.85078374274E+02  0.10566000000E+00 0. -1.
        -13    1    4    4    0    0 -0.14633909315E+02  0.12051950278E+02 -0.30448114564E+03  0.30507077871E+03  0.10566000000E+00 0.  1.
        -14    1    4    4    0    0 -0.55209905290E+01  0.53002587582E+01 -0.13912437603E+03  0.13933472677E+03  0.00000000000E+00 0.  1.
<mgrwt>
<rscale>  0 0.83442811E+02</rscale>
<asrwt>0</asrwt>
<pdfrwt beam="1">  1        2 0.98534866E-01 0.83442811E+02</pdfrwt>
<pdfrwt beam="2">  1       -1 0.41812027E-03 0.83442811E+02</pdfrwt>
<totfact> 0.29328711E+05</totfact>
</mgrwt>
</event>
<event>
 8    1  0.2561077E-020  0.7937228E+02  0.7818608E-02  0.1330842E+00
         -1   -1    0    0    0  501 -0.00000000000E+00  0.00000000000E+00  0.44699560872E+01  0.44699589286E+01  0.50400000000E-02 0.  1.
          2   -1    0    0  501    0  0.00000000000E+00 -0.00000000000E+00 -0.35235005193E+03  0.35235005194E+03  0.25500000000E-02 0. -1.
         24    2    1    2    0    0  0.00000000000E+00  0.00000000000E+00 -0.34788009584E+03  0.35682001087E+03  0.79372281510E+02 0.  0.
         66    2    3    3    0    0  0.33759271713E+02 -0.17265533188E+02 -0.22632169246E+03  0.22948484817E+03  0.19999994431E+01 0.  0.
        -13    1    3    3    0    0 -0.33759271713E+02  0.17265533188E+02 -0.12155840338E+03  0.12733516270E+03  0.10566000000E+00 0.  1.
         13    1    4    4    0    0  0.25988877166E+02 -0.12934102996E+02 -0.17080983689E+03  0.17325912472E+03  0.10566000000E+00 0. -1.
        -13    1    4    4    0    0  0.76865088196E+01 -0.42392266719E+01 -0.54017870120E+02  0.54726546730E+02  0.10566000000E+00 0.  1.
         14    1    4    4    0    0  0.83885726996E-01 -0.92203520451E-01 -0.14939854528E+01  0.14991767199E+01  0.00000000000E+00 0. -1.
<mgrwt>
<rscale>  0 0.79372282E+02</rscale>
<asrwt>0</asrwt>
<pdfrwt beam="1">  1        2 0.54207679E-01 0.79372282E+02</pdfrwt>
<pdfrwt beam="2">  1       -1 0.68768605E-03 0.79372282E+02</pdfrwt>
<totfact> 0.27576325E+05</totfact>
</mgrwt>
</event>
<event>
 8    1  0.2561077E-020  0.8309713E+02  0.7818608E-02  0.1320485E+00
         -1   -1    0    0    0  501 -0.00000000000E+00  0.00000000000E+00  0.18407436576E+01  0.18407505574E+01  0.50400000000E-02 0.  1.
          2   -1    0    0  501    0  0.00000000000E+00 -0.00000000000E+00 -0.93781652654E+03  0.93781652655E+03  0.25500000000E-02 0. -1.
         24    2    1    2    0    0 -0.35527136788E-14 -0.35527136788E-14 -0.93597578288E+03  0.93965727710E+03  0.83097125499E+02 0.  0.
         66    2    3    3    0    0 -0.19180742650E+02 -0.24006630015E+02 -0.78408371797E+03  0.78468815204E+03  0.20000000805E+01 0.  0.
        -13    1    3    3    0    0  0.19180742650E+02  0.24006630015E+02 -0.15189206491E+03  0.15496912506E+03  0.10566000000E+00 0.  1.
         13    1    4    4    0    0 -0.14673971735E+02 -0.17700456107E+02 -0.58770207341E+03  0.58815165548E+03  0.10566000000E+00 0. -1.
        -13    1    4    4    0    0 -0.13142707712E+01 -0.16475821771E+01 -0.63038790485E+02  0.63074100109E+02  0.10566000000E+00 0.  1.
        -14    1    4    4    0    0 -0.31925001436E+01 -0.46585917310E+01 -0.13334285407E+03  0.13346239645E+03  0.00000000000E+00 0.  1.
<mgrwt>
<rscale>  0 0.83097125E+02</rscale>
<asrwt>0</asrwt>
<pdfrwt beam="1">  1        2 0.14427908E+00 0.83097125E+02</pdfrwt>
<pdfrwt beam="2">  1       -1 0.28319261E-03 0.83097125E+02</pdfrwt>
<totfact> 0.31786023E+05</totfact>
</mgrwt>
</event>
<event>
 8    1  0.2561077E-020  0.7552902E+02  0.7818608E-02  0.1342241E+00
          2   -1    0    0  501    0  0.00000000000E+00  0.00000000000E+00  0.19216470194E+02  0.19216470363E+02  0.25500000000E-02 0. -1.
         -1   -1    0    0    0  501 -0.00000000000E+00 -0.00000000000E+00 -0.74215402499E+02  0.74215402670E+02  0.50400000000E-02 0.  1.
         24    2    1    2    0    0  0.00000000000E+00  0.35527136788E-14 -0.54998932305E+02  0.93431873034E+02  0.75529016569E+02 0.  0.
         66    2    3    3    0    0 -0.24552362482E+02  0.28584293780E+02 -0.24961642298E+02  0.45243385722E+02  0.20000027777E+01 0.  0.
        -13    1    3    3    0    0  0.24552362482E+02 -0.28584293780E+02 -0.30037290007E+02  0.48188487311E+02  0.10566000000E+00 0.  1.
         13    1    4    4    0    0 -0.15359095586E+02  0.17423504640E+02 -0.14981004749E+02  0.27639138889E+02  0.10566000000E+00 0. -1.
        -13    1    4    4    0    0 -0.63337288477E+01  0.83332753783E+01 -0.68783567249E+01  0.12525276640E+02  0.10566000000E+00 0.  1.
        -14    1    4    4    0    0 -0.28595380479E+01  0.28275137608E+01 -0.31022808241E+01  0.50789701935E+01  0.00000000000E+00 0.  1.
<mgrwt>
<rscale>  0 0.75529017E+02</rscale>
<asrwt>0</asrwt>
<pdfrwt beam="1">  1        2 0.29563801E-02 0.75529017E+02</pdfrwt>
<pdfrwt beam="2">  1       -1 0.11417754E-01 0.75529017E+02</pdfrwt>
<totfact> 0.14519867E+05</totfact>
</mgrwt>
</event>
<event>
 8    1  0.2561077E-020  0.7869266E+02  0.7818608E-02  0.1332803E+00
          2   -1    0    0  501    0  0.00000000000E+00  0.00000000000E+00  0.97378851638E+03  0.97378851638E+03  0.25500000000E-02 0. -1.
         -1   -1    0    0    0  501 -0.00000000000E+00 -0.00000000000E+00 -0.15898008020E+01  0.15898087909E+01  0.50400000000E-02 0.  1.
         24    2    1    2    0    0  0.35527136788E-14 -0.44408920985E-15  0.97219871558E+03  0.97537832517E+03  0.78692659431E+02 0.  0.
         66    2    3    3    0    0  0.21241435056E+02 -0.30722107422E+01  0.89478087091E+03  0.89504047059E+03  0.20000014545E+01 0.  0.
        -13    1    3    3    0    0 -0.21241435056E+02  0.30722107422E+01  0.77417844661E+02  0.80337854577E+02  0.10566000000E+00 0.  1.
         13    1    4    4    0    0  0.15749702921E+02 -0.20964498989E+01  0.69278957661E+03  0.69297175763E+03  0.10566000000E+00 0. -1.
        -13    1    4    4    0    0  0.18583649031E+01 -0.20831143052E+00  0.63203154467E+02  0.63230900771E+02  0.10566000000E+00 0.  1.
         14    1    4    4    0    0  0.36333672318E+01 -0.76744941276E+00  0.13878813983E+03  0.13883781219E+03  0.00000000000E+00 0. -1.
<mgrwt>
<rscale>  0 0.78692659E+02</rscale>
<asrwt>0</asrwt>
<pdfrwt beam="1">  1        2 0.14981367E+00 0.78692659E+02</pdfrwt>
<pdfrwt beam="2">  1       -1 0.24458527E-03 0.78692659E+02</pdfrwt>
<totfact> 0.36719775E+05</totfact>
</mgrwt>
</event>
<event>
 8    1  0.2561077E-020  0.8026412E+02  0.7818608E-02  0.1328304E+00
         -1   -1    0    0    0  501 -0.00000000000E+00  0.00000000000E+00  0.11870170176E+02  0.11870171246E+02  0.50400000000E-02 0.  1.
          2   -1    0    0  501    0  0.00000000000E+00 -0.00000000000E+00 -0.13568317322E+03  0.13568317324E+03  0.25500000000E-02 0. -1.
         24    2    1    2    0    0 -0.35527136788E-14  0.71054273576E-14 -0.12381300304E+03  0.14755334449E+03  0.80264124910E+02 0.  0.
         66    2    3    3    0    0 -0.17215868190E+02  0.28359427734E+02 -0.10337639475E+03  0.10858785487E+03  0.19999934111E+01 0.  0.
        -13    1    3    3    0    0  0.17215868190E+02 -0.28359427734E+02 -0.20436608286E+02  0.38965489618E+02  0.10566000000E+00 0.  1.
         13    1    4    4    0    0 -0.12937831775E+00  0.11552163980E+00 -0.56645020808E+00  0.60175898181E+00  0.10566000000E+00 0.  1.
        -13    1    4    4    0    0 -0.44446659656E+00  0.66502129919E+00 -0.20647734548E+01  0.22168124275E+01  0.10566000000E+00 0.  1.
         14    1    4    4    0    0 -0.16642023275E+02  0.27578884795E+02 -0.10074517109E+03  0.10576928346E+03  0.00000000000E+00 0. -1.
<mgrwt>
<rscale>  0 0.80264125E+02</rscale>
<asrwt>0</asrwt>
<pdfrwt beam="1">  1        2 0.20874333E-01 0.80264125E+02</pdfrwt>
<pdfrwt beam="2">  1       -1 0.18261802E-02 0.80264125E+02</pdfrwt>
<totfact> 0.19233052E+05</totfact>
</mgrwt>
</event>
<event>
 8    1  0.2561077E-020  0.8177258E+02  0.7818608E-02  0.1324095E+00
         -1   -1    0    0    0  501 -0.00000000000E+00  0.00000000000E+00  0.49015232211E+02  0.49015232470E+02  0.50400000000E-02 0.  1.
          2   -1    0    0  501    0  0.00000000000E+00 -0.00000000000E+00 -0.34105495138E+02  0.34105495233E+02  0.25500000000E-02 0. -1.
         24    2    1    2    0    0 -0.71054273576E-14  0.17763568394E-14  0.14909737073E+02  0.83120727703E+02  0.81772581678E+02 0.  0.
         66    2    3    3    0    0 -0.39190613324E+02  0.10841137801E+02  0.33618094343E+01  0.40850167755E+02  0.20000003378E+01 0.  0.
        -13    1    3    3    0    0  0.39190613324E+02 -0.10841137801E+02  0.11547927639E+02  0.42270559949E+02  0.10566000000E+00 0.  1.
         13    1    4    4    0    0 -0.26097766445E+02  0.80696882191E+01  0.25994789844E+01  0.27440512685E+02  0.10566000000E+00 0. -1.
        -13    1    4    4    0    0 -0.12137941191E+02  0.25110953820E+01  0.77748203318E+00  0.12419776919E+02  0.10566000000E+00 0.  1.
         14    1    4    4    0    0 -0.95490568835E+00  0.26035420008E+00 -0.15151583192E-01  0.98987815090E+00  0.00000000000E+00 0. -1.
<mgrwt>
<rscale>  0 0.81772582E+02</rscale>
<asrwt>0</asrwt>
<pdfrwt beam="1">  1        2 0.52469993E-02 0.81772582E+02</pdfrwt>
<pdfrwt beam="2">  1       -1 0.75408050E-02 0.81772582E+02</pdfrwt>
<totfact> 0.12983617E+05</totfact>
</mgrwt>
</event>
<event>
 8    1  0.2561077E-020  0.7734522E+02  0.7818608E-02  0.1336759E+00
          2   -1    0    0  501    0  0.00000000000E+00  0.00000000000E+00  0.31843688592E+03  0.31843688593E+03  0.25500000000E-02 0. -1.
         -1   -1    0    0    0  501 -0.00000000000E+00 -0.00000000000E+00 -0.46965984480E+01  0.46966011522E+01  0.50400000000E-02 0.  1.
         24    2    1    2    0    0  0.00000000000E+00  0.35527136788E-14  0.31374028748E+03  0.32313348709E+03  0.77345216343E+02 0.  0.
         66    2    3    3    0    0 -0.16927415958E+02 -0.16952978030E+02  0.28366810067E+03  0.28468497010E+03  0.19999969506E+01 0.  0.
        -13    1    3    3    0    0  0.16927415958E+02  0.16952978030E+02  0.30072186803E+02  0.38448516984E+02  0.10566000000E+00 0.  1.
         13    1    4    4    0    0 -0.16897177995E+01 -0.18451623169E+01  0.23508498211E+02  0.23641497888E+02  0.10566000000E+00 0.  1.
        -13    1    4    4    0    0 -0.25373078642E+01 -0.23503816266E+01  0.40767991074E+02  0.40914575462E+02  0.10566000000E+00 0. -1.
        -14    1    4    4    0    0 -0.12700390295E+02 -0.12757434086E+02  0.21939161139E+03  0.22012889675E+03  0.00000000000E+00 0.  1.
<mgrwt>
<rscale>  0 0.77345216E+02</rscale>
<asrwt>0</asrwt>
<pdfrwt beam="1">  1        2 0.48990291E-01 0.77345216E+02</pdfrwt>
<pdfrwt beam="2">  1       -1 0.72255380E-03 0.77345216E+02</pdfrwt>
<totfact> 0.28453905E+05</totfact>
</mgrwt>
</event>
<event>
 8    1  0.2561077E-020  0.8149744E+02  0.7818608E-02  0.1324855E+00
          2   -1    0    0  501    0  0.00000000000E+00  0.00000000000E+00  0.99000454420E+03  0.99000454420E+03  0.25500000000E-02 0. -1.
         -1   -1    0    0    0  501 -0.00000000000E+00 -0.00000000000E+00 -0.16772189612E+01  0.16772265337E+01  0.50400000000E-02 0.  1.
         24    2    1    2    0    0  0.00000000000E+00  0.35527136788E-14  0.98832732524E+03  0.99168177074E+03  0.81497439214E+02 0.  0.
         66    2    3    3    0    0  0.26116437280E+02 -0.18448587990E+02  0.80134051609E+03  0.80198069890E+03  0.19999978858E+01 0.  0.
        -13    1    3    3    0    0 -0.26116437280E+02  0.18448587990E+02  0.18698680915E+03  0.18970107183E+03  0.10566000000E+00 0.  1.
         13    1    4    4    0    0  0.61538936586E+01 -0.40175559413E+01  0.18464685847E+03  0.18479308610E+03  0.10566000000E+00 0. -1.
        -13    1    4    4    0    0  0.18994705546E+02 -0.13289965583E+02  0.57516386493E+03  0.57563087539E+03  0.10566000000E+00 0.  1.
        -14    1    4    4    0    0  0.96783807611E+00 -0.11410664664E+01  0.41529792695E+02  0.41556737414E+02  0.00000000000E+00 0.  1.
<mgrwt>
<rscale>  0 0.81497439E+02</rscale>
<asrwt>0</asrwt>
<pdfrwt beam="1">  1        2 0.15230878E+00 0.81497439E+02</pdfrwt>
<pdfrwt beam="2">  1       -1 0.25803361E-03 0.81497439E+02</pdfrwt>
<totfact> 0.33558274E+05</totfact>
</mgrwt>
</event>
<event>
 8    1  0.2561077E-020  0.7895715E+02  0.7818608E-02  0.1332037E+00
         -1   -1    0    0    0  501 -0.00000000000E+00  0.00000000000E+00  0.14673869910E+01  0.14673956464E+01  0.50400000000E-02 0.  1.
          2   -1    0    0  501    0  0.00000000000E+00 -0.00000000000E+00 -0.10621282012E+04  0.10621282012E+04  0.25500000000E-02 0. -1.
         24    2    1    2    0    0  0.00000000000E+00  0.00000000000E+00 -0.10606608142E+04  0.10635955969E+04  0.78957145586E+02 0.  0.
         66    2    3    3    0    0  0.15613278338E+02 -0.14228788915E+02 -0.97952791048E+03  0.97975770491E+03  0.20000035169E+01 0.  0.
        -13    1    3    3    0    0 -0.15613278338E+02  0.14228788915E+02 -0.81132903739E+02  0.83837891956E+02  0.10566000000E+00 0.  1.
         13    1    4    4    0    0  0.76628956055E+01 -0.67337082532E+01 -0.48091771814E+03  0.48102590947E+03  0.10566000000E+00 0. -1.
        -13    1    4    4    0    0  0.63793446445E+01 -0.66581526805E+01 -0.42582635964E+03  0.42592619873E+03  0.10566000000E+00 0.  1.
        -14    1    4    4    0    0  0.15710380880E+01 -0.83692798126E+00 -0.72783832695E+02  0.72805596700E+02  0.00000000000E+00 0.  1.
<mgrwt>
<rscale>  0 0.78957146E+02</rscale>
<asrwt>0</asrwt>
<pdfrwt beam="1">  1        2 0.16340372E+00 0.78957146E+02</pdfrwt>
<pdfrwt beam="2">  1       -1 0.22575336E-03 0.78957146E+02</pdfrwt>
<totfact> 0.36494628E+05</totfact>
</mgrwt>
</event>
<event>
 8    1  0.2561077E-020  0.7937277E+02  0.7818608E-02  0.1330841E+00
          2   -1    0    0  501    0  0.00000000000E+00  0.00000000000E+00  0.78719468471E+02  0.78719468512E+02  0.25500000000E-02 0. -1.
         -1   -1    0    0    0  501 -0.00000000000E+00 -0.00000000000E+00 -0.20007871857E+02  0.20007872491E+02  0.50400000000E-02 0.  1.
         24    2    1    2    0    0  0.00000000000E+00  0.00000000000E+00  0.58711596614E+02  0.98727341003E+02  0.79372767903E+02 0.  0.
         66    2    3    3    0    0 -0.25517722284E+02 -0.30002446639E+02  0.35169038517E+02  0.52840914245E+02  0.19999982745E+01 0.  0.
        -13    1    3    3    0    0  0.25517722284E+02  0.30002446639E+02  0.23542558097E+02  0.45886426759E+02  0.10566000000E+00 0.  1.
         13    1    4    4    0    0 -0.17623402050E+02 -0.20229313498E+02  0.24483197963E+02  0.36321447809E+02  0.10566000000E+00 0. -1.
        -13    1    4    4    0    0 -0.51307470918E+00 -0.36842009810E+00  0.60994180185E+00  0.88440492034E+00  0.10566000000E+00 0.  1.
         14    1    4    4    0    0 -0.73812455250E+01 -0.94047130432E+01  0.10075898752E+02  0.15635061515E+02  0.00000000000E+00 0. -1.
<mgrwt>
<rscale>  0 0.79372768E+02</rscale>
<asrwt>0</asrwt>
<pdfrwt beam="1">  1        2 0.12110688E-01 0.79372768E+02</pdfrwt>
<pdfrwt beam="2">  1       -1 0.30781342E-02 0.79372768E+02</pdfrwt>
<totfact> 0.16983389E+05</totfact>
</mgrwt>
</event>
<event>
 8    1  0.2561077E-020  0.7983711E+02  0.7818608E-02  0.1329514E+00
          2   -1    0    0  501    0  0.00000000000E+00  0.00000000000E+00  0.32881401555E+02  0.32881401654E+02  0.25500000000E-02 0. -1.
         -1   -1    0    0    0  501 -0.00000000000E+00 -0.00000000000E+00 -0.48461777335E+02  0.48461777597E+02  0.50400000000E-02 0.  1.
         24    2    1    2    0    0  0.00000000000E+00  0.00000000000E+00 -0.15580375780E+02  0.81343179251E+02  0.79837113557E+02 0.  0.
         66    2    3    3    0    0 -0.17606738113E+02  0.23541701456E+02  0.19681747968E+02  0.35434166305E+02  0.20000010574E+01 0.  0.
        -13    1    3    3    0    0  0.17606738113E+02 -0.23541701456E+02 -0.35262123748E+02  0.45909012946E+02  0.10566000000E+00 0.  1.
         13    1    4    4    0    0 -0.10906071470E+02  0.15789334245E+02  0.12180027250E+02  0.22729049664E+02  0.10566000000E+00 0. -1.
        -13    1    4    4    0    0 -0.27231349920E+01  0.29194161175E+01  0.28340251622E+01  0.48970723200E+01  0.10566000000E+00 0.  1.
         14    1    4    4    0    0 -0.39775316511E+01  0.48329510933E+01  0.46676955560E+01  0.78080443204E+01  0.00000000000E+00 0. -1.
<mgrwt>
<rscale>  0 0.79837114E+02</rscale>
<asrwt>0</asrwt>
<pdfrwt beam="1">  1        2 0.50586771E-02 0.79837114E+02</pdfrwt>
<pdfrwt beam="2">  1       -1 0.74556581E-02 0.79837114E+02</pdfrwt>
<totfact> 0.13780080E+05</totfact>
</mgrwt>
</event>
<event>
 8    1  0.2561077E-020  0.7986544E+02  0.7818608E-02  0.1329434E+00
         -1   -1    0    0    0  501 -0.00000000000E+00  0.00000000000E+00  0.80818648502E+02  0.80818648659E+02  0.50400000000E-02 0.  1.
          2   -1    0    0  501    0  0.00000000000E+00 -0.00000000000E+00 -0.19730867143E+02  0.19730867308E+02  0.25500000000E-02 0. -1.
         24    2    1    2    0    0  0.00000000000E+00  0.00000000000E+00  0.61087781359E+02  0.10054951597E+03  0.79865437643E+02 0.  0.
         66    2    3    3    0    0  0.19003769024E+02  0.58132978720E+01 -0.13007393458E+02  0.23835477066E+02  0.20000032868E+01 0.  0.
        -13    1    3    3    0    0 -0.19003769024E+02 -0.58132978720E+01  0.74095174817E+02  0.76714038901E+02  0.10566000000E+00 0.  1.
         13    1    4    4    0    0  0.91216455143E+01  0.18672094684E+01 -0.55788159944E+01  0.10854733531E+02  0.10566000000E+00 0. -1.
        -13    1    4    4    0    0  0.73869069142E+01  0.28832152962E+01 -0.56568394684E+01  0.97411663064E+01  0.10566000000E+00 0.  1.
         14    1    4    4    0    0  0.24952165955E+01  0.10628731073E+01 -0.17717379953E+01  0.32395772293E+01  0.00000000000E+00 0. -1.
<mgrwt>
<rscale>  0 0.79865438E+02</rscale>
<asrwt>0</asrwt>
<pdfrwt beam="1">  1        2 0.30355180E-02 0.79865438E+02</pdfrwt>
<pdfrwt beam="2">  1       -1 0.12433638E-01 0.79865438E+02</pdfrwt>
<totfact> 0.12441758E+05</totfact>
</mgrwt>
</event>
<event>
 8    1  0.2561077E-020  0.7980416E+02  0.7818608E-02  0.1329608E+00
          2   -1    0    0  501    0  0.00000000000E+00  0.00000000000E+00  0.29055297600E+03  0.29055297602E+03  0.25500000000E-02 0. -1.
         -1   -1    0    0    0  501 -0.00000000000E+00 -0.00000000000E+00 -0.54798113825E+01  0.54798137003E+01  0.50400000000E-02 0.  1.
         24    2    1    2    0    0  0.35527136788E-14 -0.35527136788E-14  0.28507316462E+03  0.29603278972E+03  0.79804156530E+02 0.  0.
         66    2    3    3    0    0 -0.30272776660E+02  0.24487939149E+02  0.11070036364E+03  0.11736554298E+03  0.19999995339E+01 0.  0.
        -13    1    3    3    0    0  0.30272776660E+02 -0.24487939149E+02  0.17437280098E+03  0.17866724674E+03  0.10566000000E+00 0.  1.
         13    1    4    4    0    0 -0.88575436329E+01  0.69087437223E+01  0.31030070068E+02  0.33000958039E+02  0.10566000000E+00 0. -1.
        -13    1    4    4    0    0 -0.91552046915E-01  0.15559394125E+00  0.49721263041E+00  0.53942162293E+00  0.10566000000E+00 0.  1.
        -14    1    4    4    0    0 -0.21323680980E+02  0.17423601485E+02  0.79173080943E+02  0.83825163318E+02  0.00000000000E+00 0.  1.
<mgrwt>
<rscale>  0 0.79804157E+02</rscale>
<asrwt>0</asrwt>
<pdfrwt beam="1">  1        2 0.44700455E-01 0.79804157E+02</pdfrwt>
<pdfrwt beam="2">  1       -1 0.84304814E-03 0.79804157E+02</pdfrwt>
<totfact> 0.25363251E+05</totfact>
</mgrwt>
</event>
<event>
 8    1  0.2561077E-020  0.8115127E+02  0.7818608E-02  0.1325816E+00
          2   -1    0    0  501    0  0.00000000000E+00  0.00000000000E+00  0.50584056494E+03  0.50584056494E+03  0.25500000000E-02 0. -1.
         -1   -1    0    0    0  501 -0.00000000000E+00 -0.00000000000E+00 -0.32547436087E+01  0.32547475110E+01  0.50400000000E-02 0.  1.
         24    2    1    2    0    0  0.00000000000E+00  0.00000000000E+00  0.50258582133E+03  0.50909531245E+03  0.81151274561E+02 0.  0.
         66    2    3    3    0    0 -0.10192441301E+02  0.25343323819E+00  0.49766569964E+03  0.49777414425E+03  0.19999992418E+01 0.  0.
        -13    1    3    3    0    0  0.10192441301E+02 -0.25343323819E+00  0.49201216900E+01  0.11321168207E+02  0.10566000000E+00 0.  1.
         13    1    4    4    0    0 -0.43511850814E+01  0.38980857389E+00  0.22048019933E+03  0.22052350038E+03  0.10566000000E+00 0. -1.
        -13    1    4    4    0    0 -0.53829454641E+01 -0.12932704674E+00  0.23055941038E+03  0.23062230097E+03  0.10566000000E+00 0.  1.
         14    1    4    4    0    0 -0.45831075571E+00 -0.70482889553E-02  0.46626089934E+02  0.46628342894E+02  0.00000000000E+00 0. -1.
<mgrwt>
<rscale>  0 0.81151275E+02</rscale>
<asrwt>0</asrwt>
<pdfrwt beam="1">  1        2 0.77821645E-01 0.81151275E+02</pdfrwt>
<pdfrwt beam="2">  1       -1 0.50072996E-03 0.81151275E+02</pdfrwt>
<totfact> 0.29445981E+05</totfact>
</mgrwt>
</event>
<event>
 8    1  0.2561077E-020  0.7994053E+02  0.7818608E-02  0.1329220E+00
          2   -1    0    0  501    0  0.00000000000E+00  0.00000000000E+00  0.17948966089E+03  0.17948966091E+03  0.25500000000E-02 0. -1.
         -1   -1    0    0    0  501 -0.00000000000E+00 -0.00000000000E+00 -0.89009133730E+01  0.89009147999E+01  0.50400000000E-02 0.  1.
         24    2    1    2    0    0 -0.35527136788E-14  0.00000000000E+00  0.17058874752E+03  0.18839057571E+03  0.79940529371E+02 0.  0.
         66    2    3    3    0    0 -0.18563679582E+02 -0.28677358219E+02  0.13413711187E+03  0.13843325412E+03  0.19999984883E+01 0.  0.
        -13    1    3    3    0    0  0.18563679582E+02  0.28677358219E+02  0.36451635651E+02  0.49957321583E+02  0.10566000000E+00 0.  1.
         13    1    4    4    0    0 -0.12680409823E+01 -0.23723921463E+01  0.10030015706E+02  0.10385015721E+02  0.10566000000E+00 0. -1.
        -13    1    4    4    0    0 -0.34458210669E+01 -0.59793093421E+01  0.29429972498E+02  0.30228467846E+02  0.10566000000E+00 0.  1.
        -14    1    4    4    0    0 -0.13849817533E+02 -0.20325656730E+02  0.94677123662E+02  0.97819770558E+02  0.00000000000E+00 0.  1.
<mgrwt>
<rscale>  0 0.79940529E+02</rscale>
<asrwt>0</asrwt>
<pdfrwt beam="1">  1        2 0.27613789E-01 0.79940529E+02</pdfrwt>
<pdfrwt beam="2">  1       -1 0.13693716E-02 0.79940529E+02</pdfrwt>
<totfact> 0.21295767E+05</totfact>
</mgrwt>
</event>
<event>
 8    1  0.2561077E-020  0.6979691E+02  0.7818608E-02  0.1360785E+00
         -1   -1    0    0    0  501 -0.00000000000E+00  0.00000000000E+00  0.56000611039E+02  0.56000611266E+02  0.50400000000E-02 0.  1.
          2   -1    0    0  501    0  0.00000000000E+00 -0.00000000000E+00 -0.21748014792E+02  0.21748014941E+02  0.25500000000E-02 0. -1.
         24    2    1    2    0    0  0.00000000000E+00 -0.88817841970E-15  0.34252596248E+02  0.77748626207E+02  0.69796909153E+02 0.  0.
         66    2    3    3    0    0 -0.31047588212E+02  0.59819674445E+01  0.76292295936E+00  0.31690987869E+02  0.19999980864E+01 0.  0.
        -13    1    3    3    0    0  0.31047588212E+02 -0.59819674445E+01  0.33489673288E+02  0.46057638338E+02  0.10566000000E+00 0.  1.
         13    1    4    4    0    0 -0.38034774657E+01  0.84578805780E+00  0.44533077725E+00  0.39231724163E+01  0.10566000000E+00 0. -1.
        -13    1    4    4    0    0 -0.53071999179E+01  0.48116044090E+00  0.36353945568E+00  0.53423975245E+01  0.10566000000E+00 0.  1.
         14    1    4    4    0    0 -0.21936910829E+02  0.46550189458E+01 -0.45947273568E-01  0.22425417928E+02  0.00000000000E+00 0. -1.
<mgrwt>
<rscale>  0 0.69796909E+02</rscale>
<asrwt>0</asrwt>
<pdfrwt beam="1">  1        2 0.33458485E-02 0.69796909E+02</pdfrwt>
<pdfrwt beam="2">  1       -1 0.86154786E-02 0.69796909E+02</pdfrwt>
<totfact> 0.18541340E+05</totfact>
</mgrwt>
</event>
<event>
 8    1  0.2561077E-020  0.7369872E+02  0.7818608E-02  0.1347949E+00
         -1   -1    0    0    0  501 -0.00000000000E+00  0.00000000000E+00  0.14675976340E+01  0.14676062881E+01  0.50400000000E-02 0.  1.
          2   -1    0    0  501    0  0.00000000000E+00 -0.00000000000E+00 -0.92523415420E+03  0.92523415420E+03  0.25500000000E-02 0. -1.
         24    2    1    2    0    0  0.17763568394E-14  0.00000000000E+00 -0.92376655656E+03  0.92670176049E+03  0.73698723656E+02 0.  0.
         66    2    3    3    0    0  0.13181990228E+02  0.26042744091E+00 -0.89453292459E+03  0.89463231878E+03  0.19999876663E+01 0.  0.
        -13    1    3    3    0    0 -0.13181990228E+02 -0.26042744091E+00 -0.29233631976E+02  0.32069441706E+02  0.10566000000E+00 0.  1.
         13    1    4    4    0    0  0.33216584798E+01  0.65463344451E+00 -0.21866316975E+03  0.21868940287E+03  0.10566000000E+00 0. -1.
        -13    1    4    4    0    0  0.65706383295E+01 -0.14332458939E+00 -0.48684931921E+03  0.48689368923E+03  0.10566000000E+00 0.  1.
        -14    1    4    4    0    0  0.32896934184E+01 -0.25088141421E+00 -0.18902043563E+03  0.18904922668E+03  0.00000000000E+00 0.  1.
<mgrwt>
<rscale>  0 0.73698724E+02</rscale>
<asrwt>0</asrwt>
<pdfrwt beam="1">  1        2 0.14234325E+00 0.73698724E+02</pdfrwt>
<pdfrwt beam="2">  1       -1 0.22578566E-03 0.73698724E+02</pdfrwt>
<totfact> 0.43326203E+05</totfact>
</mgrwt>
</event>
<event>
 8    1  0.2561077E-020  0.7980070E+02  0.7818608E-02  0.1329618E+00
          2   -1    0    0  501    0  0.00000000000E+00  0.00000000000E+00  0.29256935780E+02  0.29256935891E+02  0.25500000000E-02 0. -1.
         -1   -1    0    0    0  501 -0.00000000000E+00 -0.00000000000E+00 -0.54415746683E+02  0.54415746916E+02  0.50400000000E-02 0.  1.
         24    2    1    2    0    0  0.71054273576E-14  0.17763568394E-14 -0.25158810903E+02  0.83672682807E+02  0.79800702266E+02 0.  0.
         66    2    3    3    0    0 -0.38921307473E+02  0.86243064782E+01 -0.11657567387E+02  0.41582997870E+02  0.19999992075E+01 0.  0.
        -13    1    3    3    0    0  0.38921307473E+02 -0.86243064782E+01 -0.13501243516E+02  0.42089684937E+02  0.10566000000E+00 0.  1.
         13    1    4    4    0    0 -0.62077465731E+01  0.19104173208E+01 -0.17515317136E+01  0.67279149247E+01  0.10566000000E+00 0. -1.
        -13    1    4    4    0    0 -0.23034057013E+02  0.47271790315E+01 -0.75511655301E+01  0.24697070049E+02  0.10566000000E+00 0.  1.
         14    1    4    4    0    0 -0.96795038864E+01  0.19867101259E+01 -0.23548701437E+01  0.10158012896E+02  0.00000000000E+00 0. -1.
<mgrwt>
<rscale>  0 0.79800702E+02</rscale>
<asrwt>0</asrwt>
<pdfrwt beam="1">  1        2 0.45010671E-02 0.79800702E+02</pdfrwt>
<pdfrwt beam="2">  1       -1 0.83716534E-02 0.79800702E+02</pdfrwt>
<totfact> 0.13482859E+05</totfact>
</mgrwt>
</event>
<event>
 8    1  0.2561077E-020  0.8037987E+02  0.7818608E-02  0.1327977E+00
          2   -1    0    0  501    0  0.00000000000E+00  0.00000000000E+00  0.12001358812E+02  0.12001359083E+02  0.25500000000E-02 0. -1.
         -1   -1    0    0    0  501 -0.00000000000E+00 -0.00000000000E+00 -0.13458734092E+03  0.13458734101E+03  0.50400000000E-02 0.  1.
         24    2    1    2    0    0 -0.35527136788E-14  0.17763568394E-14 -0.12258598211E+03  0.14658870010E+03  0.80379873021E+02 0.  0.
         66    2    3    3    0    0 -0.29492725223E+02  0.13803693956E+02 -0.18450116136E+02  0.37480256090E+02  0.20000008121E+01 0.  0.
        -13    1    3    3    0    0  0.29492725223E+02 -0.13803693956E+02 -0.10413586597E+03  0.10910844401E+03  0.10566000000E+00 0.  1.
         13    1    4    4    0    0 -0.75009146830E+01  0.35242660802E+01 -0.51630082410E+01  0.97648343877E+01  0.10566000000E+00 0.  1.
        -13    1    4    4    0    0 -0.11002002922E+02  0.43224312275E+01 -0.63205595837E+01  0.13404779651E+02  0.10566000000E+00 0. -1.
        -14    1    4    4    0    0 -0.10989807618E+02  0.59569966479E+01 -0.69665483109E+01  0.14310642051E+02  0.00000000000E+00 0.  1.
<mgrwt>
<rscale>  0 0.80379873E+02</rscale>
<asrwt>0</asrwt>
<pdfrwt beam="1">  1        2 0.18463630E-02 0.80379873E+02</pdfrwt>
<pdfrwt beam="2">  1       -1 0.20705744E-01 0.80379873E+02</pdfrwt>
<totfact> 0.10949843E+05</totfact>
</mgrwt>
</event>
<event>
 8    1  0.2561077E-020  0.8027670E+02  0.7818608E-02  0.1328268E+00
         -1   -1    0    0    0  501 -0.00000000000E+00  0.00000000000E+00  0.10020733039E+02  0.10020734307E+02  0.50400000000E-02 0.  1.
          2   -1    0    0  501    0  0.00000000000E+00 -0.00000000000E+00 -0.16077535513E+03  0.16077535515E+03  0.25500000000E-02 0. -1.
         24    2    1    2    0    0  0.22204460493E-15  0.00000000000E+00 -0.15075462209E+03  0.17079608946E+03  0.80276697068E+02 0.  0.
         66    2    3    3    0    0 -0.18227992747E+01 -0.11995792086E+02 -0.15677093750E+03  0.15725249909E+03  0.20000003749E+01 0.  0.
        -13    1    3    3    0    0  0.18227992747E+01  0.11995792086E+02  0.60163154049E+01  0.13543590368E+02  0.10566000000E+00 0.  1.
         13    1    4    4    0    0 -0.42026789021E+00 -0.61562499087E+01 -0.69848587324E+02  0.70120698465E+02  0.10566000000E+00 0. -1.
        -13    1    4    4    0    0 -0.13332317970E+01 -0.55522545671E+01 -0.80282890427E+02  0.80485767047E+02  0.10566000000E+00 0.  1.
         14    1    4    4    0    0 -0.69299587501E-01 -0.28728761043E+00 -0.66394597466E+01  0.66460335788E+01  0.00000000000E+00 0. -1.
<mgrwt>
<rscale>  0 0.80276697E+02</rscale>
<asrwt>0</asrwt>
<pdfrwt beam="1">  1        2 0.24734668E-01 0.80276697E+02</pdfrwt>
<pdfrwt beam="2">  1       -1 0.15416515E-02 0.80276697E+02</pdfrwt>
<totfact> 0.20300752E+05</totfact>
</mgrwt>
</event>
<event>
 8    1  0.2561077E-020  0.8489197E+02  0.7818608E-02  0.1315715E+00
         -1   -1    0    0    0  501 -0.00000000000E+00  0.00000000000E+00  0.38350393239E+01  0.38350426357E+01  0.50400000000E-02 0.  1.
          2   -1    0    0  501    0  0.00000000000E+00 -0.00000000000E+00 -0.46978936712E+03  0.46978936713E+03  0.25500000000E-02 0. -1.
         24    2    1    2    0    0  0.35527136788E-14  0.00000000000E+00 -0.46595432780E+03  0.47362440977E+03  0.84891966234E+02 0.  0.
         66    2    3    3    0    0 -0.24358051414E+02 -0.25136100513E+02 -0.36683320462E+03  0.36850473301E+03  0.20000046384E+01 0.  0.
        -13    1    3    3    0    0  0.24358051414E+02  0.25136100513E+02 -0.99121123177E+02  0.10511967676E+03  0.10566000000E+00 0.  1.
         13    1    4    4    0    0 -0.15087436153E+02 -0.14803815252E+02 -0.22438404129E+03  0.22537744525E+03  0.10566000000E+00 0. -1.
        -13    1    4    4    0    0 -0.86718471894E+01 -0.92662637483E+01 -0.12926213935E+03  0.12988370340E+03  0.10566000000E+00 0.  1.
        -14    1    4    4    0    0 -0.59876807124E+00 -0.10660215123E+01 -0.13187023985E+02  0.13243584359E+02  0.00000000000E+00 0.  1.
<mgrwt>
<rscale>  0 0.84891966E+02</rscale>
<asrwt>0</asrwt>
<pdfrwt beam="1">  1        2 0.72275242E-01 0.84891966E+02</pdfrwt>
<pdfrwt beam="2">  1       -1 0.59000668E-03 0.84891966E+02</pdfrwt>
<totfact> 0.25551717E+05</totfact>
</mgrwt>
</event>
<event>
 8    1  0.2561077E-020  0.7772207E+02  0.7818608E-02  0.1335643E+00
          2   -1    0    0  501    0  0.00000000000E+00  0.00000000000E+00  0.93101185082E+02  0.93101185117E+02  0.25500000000E-02 0. -1.
         -1   -1    0    0    0  501 -0.00000000000E+00 -0.00000000000E+00 -0.16220846296E+02  0.16220847079E+02  0.50400000000E-02 0.  1.
         24    2    1    2    0    0  0.00000000000E+00  0.35527136788E-14  0.76880338786E+02  0.10932203220E+03  0.77722070428E+02 0.  0.
         66    2    3    3    0    0 -0.11662007683E+02 -0.19472186053E+02  0.82789600765E+02  0.85867842931E+02  0.20000004648E+01 0.  0.
        -13    1    3    3    0    0  0.11662007683E+02  0.19472186053E+02 -0.59092619792E+01  0.23454189265E+02  0.10566000000E+00 0.  1.
         13    1    4    4    0    0 -0.58844395319E+01 -0.96373674890E+01  0.40859628879E+02  0.42391342476E+02  0.10566000000E+00 0. -1.
        -13    1    4    4    0    0 -0.17663082952E+01 -0.21561929182E+01  0.87252011120E+01  0.91602025837E+01  0.10566000000E+00 0.  1.
        -14    1    4    4    0    0 -0.40112598561E+01 -0.76786256462E+01  0.33204770774E+02  0.34316297871E+02  0.00000000000E+00 0.  1.
<mgrwt>
<rscale>  0 0.77722070E+02</rscale>
<asrwt>0</asrwt>
<pdfrwt beam="1">  1        2 0.14323259E-01 0.77722070E+02</pdfrwt>
<pdfrwt beam="2">  1       -1 0.24955149E-02 0.77722070E+02</pdfrwt>
<totfact> 0.18777889E+05</totfact>
</mgrwt>
</event>
<event>
 8    1  0.2561077E-020  0.8160970E+02  0.7818608E-02  0.1324544E+00
          2   -1    0    0  501    0  0.00000000000E+00  0.00000000000E+00  0.14854409157E+03  0.14854409159E+03  0.25500000000E-02 0. -1.
         -1   -1    0    0    0  501 -0.00000000000E+00 -0.00000000000E+00 -0.11209032387E+02  0.11209033520E+02  0.50400000000E-02 0.  1.
         24    2    1    2    0    0  0.00000000000E+00  0.00000000000E+00  0.13733505918E+03  0.15975312511E+03  0.81609696129E+02 0.  0.
         66    2    3    3    0    0  0.17123776861E+02 -0.28202951570E+02  0.11562400747E+03  0.12025614875E+03  0.19999994085E+01 0.  0.
        -13    1    3    3    0    0 -0.17123776861E+02  0.28202951570E+02  0.21711051716E+02  0.39496976364E+02  0.10566000000E+00 0.  1.
         13    1    4    4    0    0  0.34844621001E+01 -0.61583438977E+01  0.26852850518E+02  0.27769649271E+02  0.10566000000E+00 0. -1.
        -13    1    4    4    0    0  0.30065433428E+01 -0.46896573220E+01  0.17433594201E+02  0.18302282903E+02  0.10566000000E+00 0.  1.
        -14    1    4    4    0    0  0.10632771418E+02 -0.17354950351E+02  0.71337562749E+02  0.74184216574E+02  0.00000000000E+00 0.  1.
<mgrwt>
<rscale>  0 0.81609696E+02</rscale>
<asrwt>0</asrwt>
<pdfrwt beam="1">  1        2 0.22852938E-01 0.81609696E+02</pdfrwt>
<pdfrwt beam="2">  1       -1 0.17244666E-02 0.81609696E+02</pdfrwt>
<totfact> 0.18937889E+05</totfact>
</mgrwt>
</event>
<event>
 8    1  0.2561077E-020  0.8023077E+02  0.7818608E-02  0.1328398E+00
          2   -1    0    0  501    0  0.00000000000E+00  0.00000000000E+00  0.91889802212E+01  0.91889805751E+01  0.25500000000E-02 0. -1.
         -1   -1    0    0    0  501 -0.00000000000E+00 -0.00000000000E+00 -0.17512761851E+03  0.17512761858E+03  0.50400000000E-02 0.  1.
         24    2    1    2    0    0  0.00000000000E+00  0.00000000000E+00 -0.16593863829E+03  0.18431659916E+03  0.80230773697E+02 0.  0.
         66    2    3    3    0    0 -0.37755975252E+02 -0.90129155757E+01 -0.59990872331E+02  0.71481823534E+02  0.20000046043E+01 0.  0.
        -13    1    3    3    0    0  0.37755975252E+02  0.90129155757E+01 -0.10594776596E+03  0.11283477563E+03  0.10566000000E+00 0.  1.
         13    1    4    4    0    0 -0.32566958585E+02 -0.74711686971E+01 -0.52090934356E+02  0.61886200072E+02  0.10566000000E+00 0. -1.
        -13    1    4    4    0    0 -0.88160545534E+00 -0.22013607421E+00 -0.10041470790E+01  0.13583679406E+01  0.10566000000E+00 0.  1.
         14    1    4    4    0    0 -0.43074112118E+01 -0.13216108044E+01 -0.68957908954E+01  0.82372555223E+01  0.00000000000E+00 0. -1.
<mgrwt>
<rscale>  0 0.80230774E+02</rscale>
<asrwt>0</asrwt>
<pdfrwt beam="1">  1        2 0.14136894E-02 0.80230774E+02</pdfrwt>
<pdfrwt beam="2">  1       -1 0.26942708E-01 0.80230774E+02</pdfrwt>
<totfact> 0.10276425E+05</totfact>
</mgrwt>
</event>
<event>
 8    1  0.2561077E-020  0.7938480E+02  0.7818608E-02  0.1330806E+00
          2   -1    0    0  501    0  0.00000000000E+00  0.00000000000E+00  0.11924715925E+02  0.11924716198E+02  0.25500000000E-02 0. -1.
         -1   -1    0    0    0  501 -0.00000000000E+00 -0.00000000000E+00 -0.13211943208E+03  0.13211943218E+03  0.50400000000E-02 0.  1.
         24    2    1    2    0    0  0.00000000000E+00  0.00000000000E+00 -0.12019471615E+03  0.14404414837E+03  0.79384802635E+02 0.  0.
         66    2    3    3    0    0 -0.31173960521E+02 -0.23998339371E+02 -0.69342231622E+02  0.79750117125E+02  0.19999970058E+01 0.  0.
        -13    1    3    3    0    0  0.31173960521E+02  0.23998339371E+02 -0.50852484532E+02  0.64294031249E+02  0.10566000000E+00 0.  1.
         13    1    4    4    0    0 -0.44752382290E+01 -0.35691049699E+01 -0.10349259888E+02  0.11827282518E+02  0.10566000000E+00 0. -1.
        -13    1    4    4    0    0 -0.12834445664E+02 -0.87174298499E+01 -0.26960227098E+02  0.31105973509E+02  0.10566000000E+00 0.  1.
        -14    1    4    4    0    0 -0.13864276628E+02 -0.11711804551E+02 -0.32032744636E+02  0.36816861099E+02  0.00000000000E+00 0.  1.
<mgrwt>
<rscale>  0 0.79384803E+02</rscale>
<asrwt>0</asrwt>
<pdfrwt beam="1">  1        2 0.18345718E-02 0.79384803E+02</pdfrwt>
<pdfrwt beam="2">  1       -1 0.20326065E-01 0.79384803E+02</pdfrwt>
<totfact> 0.11349176E+05</totfact>
</mgrwt>
</event>
<event>
 8    1  0.2561077E-020  0.7981222E+02  0.7818608E-02  0.1329585E+00
         -1   -1    0    0    0  501 -0.00000000000E+00  0.00000000000E+00  0.49493963543E+01  0.49493989204E+01  0.50400000000E-02 0.  1.
          2   -1    0    0  501    0  0.00000000000E+00 -0.00000000000E+00 -0.32175581596E+03  0.32175581597E+03  0.25500000000E-02 0. -1.
         24    2    1    2    0    0  0.00000000000E+00 -0.71054273576E-14 -0.31680641960E+03  0.32670521489E+03  0.79812216692E+02 0.  0.
         66    2    3    3    0    0 -0.53763810032E+01  0.33589739049E+02 -0.24371215215E+03  0.24608289080E+03  0.19999997875E+01 0.  0.
        -13    1    3    3    0    0  0.53763810032E+01 -0.33589739049E+02 -0.73094267457E+02  0.80622324087E+02  0.10566000000E+00 0.  1.
         13    1    4    4    0    0 -0.28484128466E+01  0.18688718994E+02 -0.13393139882E+03  0.13525905673E+03  0.10566000000E+00 0. -1.
        -13    1    4    4    0    0  0.14288980799E-01  0.14556271091E+01 -0.12660115925E+02  0.12743969309E+02  0.10566000000E+00 0.  1.
        -14    1    4    4    0    0 -0.25422571373E+01  0.13445392946E+02 -0.97120637405E+02  0.98079864767E+02  0.00000000000E+00 0.  1.
<mgrwt>
<rscale>  0 0.79812217E+02</rscale>
<asrwt>0</asrwt>
<pdfrwt beam="1">  1        2 0.49500878E-01 0.79812217E+02</pdfrwt>
<pdfrwt beam="2">  1       -1 0.76144605E-03 0.79812217E+02</pdfrwt>
<totfact> 0.26309219E+05</totfact>
</mgrwt>
</event>
<event>
 8    1  0.2561077E-020  0.8079387E+02  0.7818608E-02  0.1326814E+00
          2   -1    0    0  501    0  0.00000000000E+00  0.00000000000E+00  0.92278321899E+03  0.92278321899E+03  0.25500000000E-02 0. -1.
         -1   -1    0    0    0  501 -0.00000000000E+00 -0.00000000000E+00 -0.17684643580E+01  0.17684715398E+01  0.50400000000E-02 0.  1.
         24    2    1    2    0    0  0.00000000000E+00  0.00000000000E+00  0.92101475463E+03  0.92455169053E+03  0.80793874880E+02 0.  0.
         66    2    3    3    0    0 -0.18729115262E+02  0.21398117109E+02  0.78872548431E+03  0.78924048855E+03  0.20000002280E+01 0.  0.
        -13    1    3    3    0    0  0.18729115262E+02 -0.21398117109E+02  0.13228927032E+03  0.13531120198E+03  0.10566000000E+00 0.  1.
         13    1    4    4    0    0 -0.77092622299E+01  0.88149568481E+01  0.34080422829E+03  0.34100538027E+03  0.10566000000E+00 0. -1.
        -13    1    4    4    0    0 -0.38895997604E+01  0.40046743319E+01  0.13659605365E+03  0.13671012925E+03  0.10566000000E+00 0.  1.
        -14    1    4    4    0    0 -0.71302532714E+01  0.85784859291E+01  0.31132520237E+03  0.31152497904E+03  0.00000000000E+00 0.  1.
<mgrwt>
<rscale>  0 0.80793875E+02</rscale>
<asrwt>0</asrwt>
<pdfrwt beam="1">  1        2 0.14196688E+00 0.80793875E+02</pdfrwt>
<pdfrwt beam="2">  1       -1 0.27207156E-03 0.80793875E+02</pdfrwt>
<totfact> 0.34148953E+05</totfact>
</mgrwt>
</event>
<event>
 8    1  0.2561077E-020  0.7679322E+02  0.7818608E-02  0.1338406E+00
         -1   -1    0    0    0  501 -0.00000000000E+00  0.00000000000E+00  0.26213094186E+01  0.26213142638E+01  0.50400000000E-02 0.  1.
          2   -1    0    0  501    0  0.00000000000E+00 -0.00000000000E+00 -0.56242818468E+03  0.56242818468E+03  0.25500000000E-02 0. -1.
         24    2    1    2    0    0  0.00000000000E+00  0.35527136788E-14 -0.55980687526E+03  0.56504949895E+03  0.76793220229E+02 0.  0.
         66    2    3    3    0    0  0.22219877165E+02  0.27936853940E+02 -0.38365710440E+03  0.38531930202E+03  0.20000010798E+01 0.  0.
        -13    1    3    3    0    0 -0.22219877165E+02 -0.27936853940E+02 -0.17614977086E+03  0.17973019693E+03  0.10566000000E+00 0.  1.
         13    1    4    4    0    0  0.73388631373E+01  0.95034566877E+01 -0.13070167466E+03  0.13125209913E+03  0.10566000000E+00 0. -1.
        -13    1    4    4    0    0  0.16218656554E+01  0.14028369233E+01 -0.20687957166E+02  0.20799065733E+02  0.10566000000E+00 0.  1.
        -14    1    4    4    0    0  0.13259148373E+02  0.17030560329E+02 -0.23226747257E+03  0.23326813716E+03  0.00000000000E+00 0.  1.
<mgrwt>
<rscale>  0 0.76793220E+02</rscale>
<asrwt>0</asrwt>
<pdfrwt beam="1">  1        2 0.86527317E-01 0.76793220E+02</pdfrwt>
<pdfrwt beam="2">  1       -1 0.40327919E-03 0.76793220E+02</pdfrwt>
<totfact> 0.35113122E+05</totfact>
</mgrwt>
</event>
<event>
 8    1  0.2561077E-020  0.7984286E+02  0.7818608E-02  0.1329498E+00
         -1   -1    0    0    0  501 -0.00000000000E+00  0.00000000000E+00  0.11548356041E+03  0.11548356052E+03  0.50400000000E-02 0.  1.
          2   -1    0    0  501    0  0.00000000000E+00 -0.00000000000E+00 -0.13800411447E+02  0.13800411683E+02  0.25500000000E-02 0. -1.
         24    2    1    2    0    0  0.00000000000E+00  0.00000000000E+00  0.10168314897E+03  0.12928397221E+03  0.79842862460E+02 0.  0.
         66    2    3    3    0    0  0.23429949234E+02 -0.23996420974E+02  0.15884338068E+02  0.37163193572E+02  0.20000049941E+01 0.  0.
        -13    1    3    3    0    0 -0.23429949234E+02  0.23996420974E+02  0.85798810897E+02  0.92120778634E+02  0.10566000000E+00 0.  1.
         13    1    4    4    0    0  0.70799968779E+01 -0.66623292498E+01  0.48107962099E+01  0.10847484088E+02  0.10566000000E+00 0.  1.
        -13    1    4    4    0    0  0.53198054449E+01 -0.52351868118E+01  0.41420337318E+01  0.85366924741E+01  0.10566000000E+00 0.  1.
         14    1    4    4    0    0  0.11030146911E+02 -0.12098904912E+02  0.69315081263E+01  0.17779017010E+02  0.00000000000E+00 0. -1.
<mgrwt>
<rscale>  0 0.79842862E+02</rscale>
<asrwt>0</asrwt>
<pdfrwt beam="1">  1        2 0.21231403E-02 0.79842862E+02</pdfrwt>
<pdfrwt beam="2">  1       -1 0.17766701E-01 0.79842862E+02</pdfrwt>
<totfact> 0.11540868E+05</totfact>
</mgrwt>
</event>
<event>
 8    1  0.2561077E-020  0.8533802E+02  0.7818608E-02  0.1314551E+00
         -1   -1    0    0    0  501 -0.00000000000E+00  0.00000000000E+00  0.96119502235E+01  0.96119515449E+01  0.50400000000E-02 0.  1.
          2   -1    0    0  501    0  0.00000000000E+00 -0.00000000000E+00 -0.18941465813E+03  0.18941465814E+03  0.25500000000E-02 0. -1.
         24    2    1    2    0    0  0.00000000000E+00  0.00000000000E+00 -0.17980270790E+03  0.19902660969E+03  0.85338019633E+02 0.  0.
         66    2    3    3    0    0 -0.20669134536E+02 -0.29116648066E+02 -0.14432907960E+03  0.14869389879E+03  0.20000006942E+01 0.  0.
        -13    1    3    3    0    0  0.20669134536E+02  0.29116648066E+02 -0.35473628300E+02  0.50332710893E+02  0.10566000000E+00 0.  1.
         13    1    4    4    0    0 -0.13342908389E+02 -0.20245132978E+02 -0.96694399020E+02  0.99688096478E+02  0.10566000000E+00 0. -1.
        -13    1    4    4    0    0 -0.89327037690E+00 -0.11550367261E+01 -0.62666180347E+01  0.64353482760E+01  0.10566000000E+00 0.  1.
         14    1    4    4    0    0 -0.64329557700E+01 -0.77164783618E+01 -0.41368062547E+02  0.42570454040E+02  0.00000000000E+00 0. -1.
<mgrwt>
<rscale>  0 0.85338020E+02</rscale>
<asrwt>0</asrwt>
<pdfrwt beam="1">  1        2 0.29140714E-01 0.85338020E+02</pdfrwt>
<pdfrwt beam="2">  1       -1 0.14787618E-02 0.85338020E+02</pdfrwt>
<totfact> 0.18241971E+05</totfact>
</mgrwt>
</event>
<event>
 8    1  0.2561077E-020  0.8090238E+02  0.7818608E-02  0.1326510E+00
         -1   -1    0    0    0  501 -0.00000000000E+00  0.00000000000E+00  0.31865344850E+01  0.31865384708E+01  0.50400000000E-02 0.  1.
          2   -1    0    0  501    0  0.00000000000E+00 -0.00000000000E+00 -0.51350382259E+03  0.51350382260E+03  0.25500000000E-02 0. -1.
         24    2    1    2    0    0  0.35527136788E-14  0.00000000000E+00 -0.51031728811E+03  0.51669036107E+03  0.80902377474E+02 0.  0.
         66    2    3    3    0    0  0.22469680799E+02 -0.19505775763E+02 -0.43009353815E+03  0.43112621516E+03  0.19999998957E+01 0.  0.
        -13    1    3    3    0    0 -0.22469680799E+02  0.19505775763E+02 -0.80223749958E+02  0.85564145907E+02  0.10566000000E+00 0.  1.
         13    1    4    4    0    0  0.82828621051E+01 -0.66717903988E+01 -0.15108350544E+03  0.15145743750E+03  0.10566000000E+00 0. -1.
        -13    1    4    4    0    0  0.51146692969E+01 -0.37285046548E+01 -0.91507995272E+02  0.91726691599E+02  0.10566000000E+00 0.  1.
         14    1    4    4    0    0  0.90721493974E+01 -0.91054807096E+01 -0.18750203743E+03  0.18794208607E+03  0.00000000000E+00 0. -1.
<mgrwt>
<rscale>  0 0.80902377E+02</rscale>
<asrwt>0</asrwt>
<pdfrwt beam="1">  1        2 0.79000522E-01 0.80902377E+02</pdfrwt>
<pdfrwt beam="2">  1       -1 0.49023679E-03 0.80902377E+02</pdfrwt>
<totfact> 0.29824004E+05</totfact>
</mgrwt>
</event>
<event>
 8    1  0.2561077E-020  0.7852633E+02  0.7818608E-02  0.1333286E+00
         -1   -1    0    0    0  501 -0.00000000000E+00  0.00000000000E+00  0.85597476375E+01  0.85597491213E+01  0.50400000000E-02 0.  1.
          2   -1    0    0  501    0  0.00000000000E+00 -0.00000000000E+00 -0.18009831756E+03  0.18009831758E+03  0.25500000000E-02 0. -1.
         24    2    1    2    0    0  0.00000000000E+00  0.00000000000E+00 -0.17153856992E+03  0.18865806670E+03  0.78526334180E+02 0.  0.
         66    2    3    3    0    0  0.30899255222E+02  0.22694058652E+02 -0.10589765694E+03  0.11264145738E+03  0.19999759282E+01 0.  0.
        -13    1    3    3    0    0 -0.30899255222E+02 -0.22694058652E+02 -0.65640912983E+02  0.76016609321E+02  0.10566000000E+00 0.  1.
         13    1    4    4    0    0  0.35599010024E+01  0.30476656244E+01 -0.12030962323E+02  0.12911869708E+02  0.10566000000E+00 0. -1.
        -13    1    4    4    0    0  0.18920138247E+01  0.10069937476E+01 -0.58098205941E+01  0.61934588149E+01  0.10566000000E+00 0.  1.
         14    1    4    4    0    0  0.25447340395E+02  0.18639399280E+02 -0.88056874022E+02  0.93536128855E+02  0.00000000000E+00 0. -1.
<mgrwt>
<rscale>  0 0.78526334E+02</rscale>
<asrwt>0</asrwt>
<pdfrwt beam="1">  1        2 0.27707431E-01 0.78526334E+02</pdfrwt>
<pdfrwt beam="2">  1       -1 0.13168845E-02 0.78526334E+02</pdfrwt>
<totfact> 0.22349324E+05</totfact>
</mgrwt>
</event>
<event>
 8    1  0.2561077E-020  0.7942350E+02  0.7818608E-02  0.1330695E+00
         -1   -1    0    0    0  501 -0.00000000000E+00  0.00000000000E+00  0.38698476785E+01  0.38698509604E+01  0.50400000000E-02 0.  1.
          2   -1    0    0  501    0  0.00000000000E+00 -0.00000000000E+00 -0.40751535701E+03  0.40751535702E+03  0.25500000000E-02 0. -1.
         24    2    1    2    0    0 -0.35527136788E-14 -0.35527136788E-14 -0.40364550933E+03  0.41138520798E+03  0.79423498664E+02 0.  0.
         66    2    3    3    0    0 -0.24247620163E+02 -0.27805947309E+02 -0.27770433499E+03  0.28015141527E+03  0.20000045035E+01 0.  0.
        -13    1    3    3    0    0  0.24247620163E+02  0.27805947309E+02 -0.12594117435E+03  0.13123379271E+03  0.10566000000E+00 0.  1.
         13    1    4    4    0    0 -0.12387684869E+02 -0.13967215348E+02 -0.14295034326E+03  0.14416431474E+03  0.10566000000E+00 0. -1.
        -13    1    4    4    0    0 -0.41888512895E+01 -0.40579454888E+01 -0.44985457785E+02  0.45362054328E+02  0.10566000000E+00 0.  1.
        -14    1    4    4    0    0 -0.76710840046E+01 -0.97807864715E+01 -0.89768533938E+02  0.90625046203E+02  0.00000000000E+00 0.  1.
<mgrwt>
<rscale>  0 0.79423499E+02</rscale>
<asrwt>0</asrwt>
<pdfrwt beam="1">  1        2 0.62694636E-01 0.79423499E+02</pdfrwt>
<pdfrwt beam="2">  1       -1 0.59536176E-03 0.79423499E+02</pdfrwt>
<totfact> 0.28979602E+05</totfact>
</mgrwt>
</event>
<event>
 8    1  0.2561077E-020  0.7866775E+02  0.7818608E-02  0.1332875E+00
         -1   -1    0    0    0  501 -0.00000000000E+00  0.00000000000E+00  0.38930053306E+02  0.38930053632E+02  0.50400000000E-02 0.  1.
          2   -1    0    0  501    0  0.00000000000E+00 -0.00000000000E+00 -0.39741884062E+02  0.39741884144E+02  0.25500000000E-02 0. -1.
         24    2    1    2    0    0  0.00000000000E+00  0.35527136788E-14 -0.81183075633E+00  0.78671937776E+02  0.78667748947E+02 0.  0.
         66    2    3    3    0    0 -0.60491159310E+01 -0.26879875969E+02 -0.28443882211E+02  0.39650649135E+02  0.20000014792E+01 0.  0.
        -13    1    3    3    0    0  0.60491159310E+01  0.26879875969E+02  0.27632051455E+02  0.39021288642E+02  0.10566000000E+00 0.  1.
         13    1    4    4    0    0 -0.26838545372E+01 -0.13478410846E+02 -0.14688665532E+02  0.20115633056E+02  0.10566000000E+00 0. -1.
        -13    1    4    4    0    0 -0.20445463628E+01 -0.10279271018E+02 -0.10378900746E+02  0.14750468712E+02  0.10566000000E+00 0.  1.
        -14    1    4    4    0    0 -0.13207150310E+01 -0.31221941044E+01 -0.33763159337E+01  0.47845473666E+01  0.00000000000E+00 0.  1.
<mgrwt>
<rscale>  0 0.78667749E+02</rscale>
<asrwt>0</asrwt>
<pdfrwt beam="1">  1        2 0.61141360E-02 0.78667749E+02</pdfrwt>
<pdfrwt beam="2">  1       -1 0.59892390E-02 0.78667749E+02</pdfrwt>
<totfact> 0.14912089E+05</totfact>
</mgrwt>
</event>
<event>
 8    1  0.2561077E-020  0.7862913E+02  0.7818608E-02  0.1332987E+00
          2   -1    0    0  501    0  0.00000000000E+00  0.00000000000E+00  0.38033112262E+03  0.38033112263E+03  0.25500000000E-02 0. -1.
         -1   -1    0    0    0  501 -0.00000000000E+00 -0.00000000000E+00 -0.40639181136E+01  0.40639212388E+01  0.50400000000E-02 0.  1.
         24    2    1    2    0    0  0.17763568394E-14 -0.71054273576E-14  0.37626720451E+03  0.38439504387E+03  0.78629133041E+02 0.  0.
         66    2    3    3    0    0  0.15317027901E+02 -0.33211372952E+02  0.25842518788E+03  0.26100801585E+03  0.19999921592E+01 0.  0.
        -13    1    3    3    0    0 -0.15317027901E+02  0.33211372952E+02  0.11784201663E+03  0.12338702802E+03  0.10566000000E+00 0.  1.
         13    1    4    4    0    0  0.81613665342E+01 -0.17155751229E+02  0.13388725771E+03  0.13522846093E+03  0.10566000000E+00 0. -1.
        -13    1    4    4    0    0  0.49264124106E+01 -0.12420541903E+02  0.95401471569E+02  0.96332711692E+02  0.10566000000E+00 0.  1.
        -14    1    4    4    0    0  0.22292489558E+01 -0.36350798202E+01  0.29136458597E+02  0.29446843222E+02  0.00000000000E+00 0.  1.
<mgrwt>
<rscale>  0 0.78629133E+02</rscale>
<asrwt>0</asrwt>
<pdfrwt beam="1">  1        2 0.58512487E-01 0.78629133E+02</pdfrwt>
<pdfrwt beam="2">  1       -1 0.62521834E-03 0.78629133E+02</pdfrwt>
<totfact> 0.29038465E+05</totfact>
</mgrwt>
</event>
<event>
 8    1  0.2561077E-020  0.7992565E+02  0.7818608E-02  0.1329263E+00
         -1   -1    0    0    0  501 -0.00000000000E+00  0.00000000000E+00  0.61801656977E+01  0.61801677527E+01  0.50400000000E-02 0.  1.
          2   -1    0    0  501    0  0.00000000000E+00 -0.00000000000E+00 -0.25841170696E+03  0.25841170697E+03  0.25500000000E-02 0. -1.
         24    2    1    2    0    0  0.88817841970E-15  0.00000000000E+00 -0.25223154126E+03  0.26459187472E+03  0.79925651471E+02 0.  0.
         66    2    3    3    0    0 -0.68766249354E+01  0.24326260476E+02 -0.22855018716E+03  0.22995269726E+03  0.20000019449E+01 0.  0.
        -13    1    3    3    0    0  0.68766249354E+01 -0.24326260476E+02 -0.23681354105E+02  0.34639177466E+02  0.10566000000E+00 0.  1.
         13    1    4    4    0    0 -0.54050454910E+01  0.16169661831E+02 -0.14968440722E+03  0.15065226653E+03  0.10566000000E+00 0. -1.
        -13    1    4    4    0    0 -0.57357980010E+00  0.28091246074E+01 -0.27252423751E+02  0.27403027920E+02  0.10566000000E+00 0.  1.
         14    1    4    4    0    0 -0.89799964433E+00  0.53474740380E+01 -0.51613356182E+02  0.51897402809E+02  0.00000000000E+00 0. -1.
<mgrwt>
<rscale>  0 0.79925651E+02</rscale>
<asrwt>0</asrwt>
<pdfrwt beam="1">  1        2 0.39755639E-01 0.79925651E+02</pdfrwt>
<pdfrwt beam="2">  1       -1 0.95079508E-03 0.79925651E+02</pdfrwt>
<totfact> 0.24212824E+05</totfact>
</mgrwt>
</event>
<event>
 8    1  0.2561077E-020  0.8086495E+02  0.7818608E-02  0.1326615E+00
         -1   -1    0    0    0  501 -0.00000000000E+00  0.00000000000E+00  0.17986683924E+03  0.17986683931E+03  0.50400000000E-02 0.  1.
          2   -1    0    0  501    0  0.00000000000E+00 -0.00000000000E+00 -0.90888615581E+01  0.90888619158E+01  0.25500000000E-02 0. -1.
         24    2    1    2    0    0  0.00000000000E+00  0.00000000000E+00  0.17077797769E+03  0.18895570123E+03  0.80864945217E+02 0.  0.
         66    2    3    3    0    0 -0.31354690405E+02  0.70806030384E+01  0.28226780508E+02  0.42825257685E+02  0.20000020384E+01 0.  0.
        -13    1    3    3    0    0  0.31354690405E+02 -0.70806030384E+01  0.14255119718E+03  0.14613044354E+03  0.10566000000E+00 0.  1.
         13    1    4    4    0    0 -0.10966994881E+02  0.21608120049E+01  0.88744225337E+01  0.14272723096E+02  0.10566000000E+00 0. -1.
        -13    1    4    4    0    0 -0.20074091228E+02  0.47472160740E+01  0.18915136047E+02  0.27987474605E+02  0.10566000000E+00 0.  1.
         14    1    4    4    0    0 -0.31360429720E+00  0.17257495948E+00  0.43722192711E+00  0.56505998390E+00  0.00000000000E+00 0. -1.
<mgrwt>
<rscale>  0 0.80864945E+02</rscale>
<asrwt>0</asrwt>
<pdfrwt beam="1">  1        2 0.13982864E-02 0.80864945E+02</pdfrwt>
<pdfrwt beam="2">  1       -1 0.27671822E-01 0.80864945E+02</pdfrwt>
<totfact> 0.99977229E+04</totfact>
</mgrwt>
</event>
<event>
 8    1  0.2561077E-020  0.8103941E+02  0.7818608E-02  0.1326127E+00
         -1   -1    0    0    0  501 -0.00000000000E+00  0.00000000000E+00  0.10236790385E+02  0.10236791625E+02  0.50400000000E-02 0.  1.
          2   -1    0    0  501    0  0.00000000000E+00 -0.00000000000E+00 -0.16038683308E+03  0.16038683310E+03  0.25500000000E-02 0. -1.
         24    2    1    2    0    0  0.35527136788E-14  0.00000000000E+00 -0.15015004269E+03  0.17062362472E+03  0.81039410122E+02 0.  0.
         66    2    3    3    0    0 -0.27455909597E+02  0.20933914771E+02 -0.11967373058E+03  0.12457069297E+03  0.19999988177E+01 0.  0.
        -13    1    3    3    0    0  0.27455909597E+02 -0.20933914771E+02 -0.30476312109E+02  0.46052931755E+02  0.10566000000E+00 0.  1.
         13    1    4    4    0    0 -0.66636162091E+01  0.57889026108E+01 -0.30517916279E+02  0.31769003014E+02  0.10566000000E+00 0. -1.
        -13    1    4    4    0    0 -0.19009432162E+00  0.22650367985E+00 -0.88674905053E+00  0.94070594891E+00  0.10566000000E+00 0. -1.
         14    1    4    4    0    0 -0.20602199066E+02  0.14918508480E+02 -0.88269065254E+02  0.91860984006E+02  0.00000000000E+00 0. -1.
<mgrwt>
<rscale>  0 0.81039410E+02</rscale>
<asrwt>0</asrwt>
<pdfrwt beam="1">  1        2 0.24674896E-01 0.81039410E+02</pdfrwt>
<pdfrwt beam="2">  1       -1 0.15748910E-02 0.81039410E+02</pdfrwt>
<totfact> 0.19782206E+05</totfact>
</mgrwt>
</event>
<event>
 8    1  0.2561077E-020  0.8086748E+02  0.7818608E-02  0.1326608E+00
          2   -1    0    0  501    0  0.00000000000E+00  0.00000000000E+00  0.18122801538E+02  0.18122801717E+02  0.25500000000E-02 0. -1.
         -1   -1    0    0    0  501 -0.00000000000E+00 -0.00000000000E+00 -0.90211629290E+02  0.90211629430E+02  0.50400000000E-02 0.  1.
         24    2    1    2    0    0 -0.35527136788E-14  0.00000000000E+00 -0.72088827752E+02  0.10833443115E+03  0.80867483487E+02 0.  0.
         66    2    3    3    0    0  0.29495788102E+02  0.16290096081E+02 -0.61853996368E+01  0.34316583655E+02  0.19999997397E+01 0.  0.
        -13    1    3    3    0    0 -0.29495788102E+02 -0.16290096081E+02 -0.65903428115E+02  0.74017847493E+02  0.10566000000E+00 0.  1.
         13    1    4    4    0    0  0.23463487632E+02  0.12585892210E+02 -0.46624508499E+01  0.27031269791E+02  0.10566000000E+00 0. -1.
        -13    1    4    4    0    0  0.34257477060E+01  0.21882796106E+01 -0.12667853142E+01  0.42591341922E+01  0.10566000000E+00 0.  1.
         14    1    4    4    0    0  0.26065527648E+01  0.15159242603E+01 -0.25616347277E+00  0.30261796713E+01  0.00000000000E+00 0. -1.
<mgrwt>
<rscale>  0 0.80867483E+02</rscale>
<asrwt>0</asrwt>
<pdfrwt beam="1">  1        2 0.27881234E-02 0.80867483E+02</pdfrwt>
<pdfrwt beam="2">  1       -1 0.13878712E-01 0.80867483E+02</pdfrwt>
<totfact> 0.11793691E+05</totfact>
</mgrwt>
</event>
<event>
 8    1  0.2561077E-020  0.8035481E+02  0.7818608E-02  0.1328048E+00
          2   -1    0    0  501    0  0.00000000000E+00  0.00000000000E+00  0.41466757365E+02  0.41466757443E+02  0.25500000000E-02 0. -1.
         -1   -1    0    0    0  501 -0.00000000000E+00 -0.00000000000E+00 -0.38928141458E+02  0.38928141784E+02  0.50400000000E-02 0.  1.
         24    2    1    2    0    0  0.35527136788E-14  0.00000000000E+00  0.25386159067E+01  0.80394899227E+02  0.80354808512E+02 0.  0.
         66    2    3    3    0    0  0.30801886244E+02  0.19018655344E+02  0.18649809500E+02  0.40771078483E+02  0.19999997448E+01 0.  0.
        -13    1    3    3    0    0 -0.30801886244E+02 -0.19018655344E+02 -0.16111193593E+02  0.39623820744E+02  0.10566000000E+00 0.  1.
         13    1    4    4    0    0  0.42353757735E+01  0.27453623351E+01  0.24982105296E+01  0.56327295496E+01  0.10566000000E+00 0. -1.
        -13    1    4    4    0    0  0.14949066901E+02  0.10186229292E+02  0.94862332667E+01  0.20426298099E+02  0.10566000000E+00 0.  1.
         14    1    4    4    0    0  0.11617443570E+02  0.60870637174E+01  0.66653657033E+01  0.14712050835E+02  0.00000000000E+00 0. -1.
<mgrwt>
<rscale>  0 0.80354809E+02</rscale>
<asrwt>0</asrwt>
<pdfrwt beam="1">  1        2 0.63795012E-02 0.80354809E+02</pdfrwt>
<pdfrwt beam="2">  1       -1 0.59889449E-02 0.80354809E+02</pdfrwt>
<totfact> 0.14187131E+05</totfact>
</mgrwt>
</event>
<event>
 8    1  0.2561077E-020  0.8732365E+02  0.7818608E-02  0.1309465E+00
         -1   -1    0    0    0  501 -0.00000000000E+00  0.00000000000E+00  0.25624922029E+02  0.25624922525E+02  0.50400000000E-02 0.  1.
          2   -1    0    0  501    0  0.00000000000E+00 -0.00000000000E+00 -0.74394565569E+02  0.74394565612E+02  0.25500000000E-02 0. -1.
         24    2    1    2    0    0  0.00000000000E+00 -0.88817841970E-15 -0.48769643539E+02  0.10001948814E+03  0.87323650155E+02 0.  0.
         66    2    3    3    0    0 -0.89887199631E+01 -0.68068458637E+01 -0.72683807852E+02  0.73580338075E+02  0.19999975508E+01 0.  0.
        -13    1    3    3    0    0  0.89887199631E+01  0.68068458637E+01  0.23914164313E+02  0.26439150062E+02  0.10566000000E+00 0.  1.
         13    1    4    4    0    0 -0.13555005999E+01 -0.10953708849E+01 -0.15153581750E+02  0.15253833064E+02  0.10566000000E+00 0. -1.
        -13    1    4    4    0    0 -0.10093976608E+01 -0.10812344226E+01 -0.11023687987E+02  0.11122985768E+02  0.10566000000E+00 0.  1.
         14    1    4    4    0    0 -0.66238217023E+01 -0.46302405562E+01 -0.46506538115E+02  0.47203519244E+02  0.00000000000E+00 0. -1.
<mgrwt>
<rscale>  0 0.87323650E+02</rscale>
<asrwt>0</asrwt>
<pdfrwt beam="1">  1        2 0.11445318E-01 0.87323650E+02</pdfrwt>
<pdfrwt beam="2">  1       -1 0.39422958E-02 0.87323650E+02</pdfrwt>
<totfact> 0.12919582E+05</totfact>
</mgrwt>
</event>
<event>
 8    1  0.2561077E-020  0.7801372E+02  0.7818608E-02  0.1334785E+00
          2   -1    0    0  501    0  0.00000000000E+00  0.00000000000E+00  0.46389205389E+02  0.46389205459E+02  0.25500000000E-02 0. -1.
         -1   -1    0    0    0  501 -0.00000000000E+00 -0.00000000000E+00 -0.32799338627E+02  0.32799339014E+02  0.50400000000E-02 0.  1.
         24    2    1    2    0    0  0.00000000000E+00  0.00000000000E+00  0.13589866762E+02  0.79188544473E+02  0.78013723775E+02 0.  0.
         66    2    3    3    0    0 -0.19608659227E+02  0.33317376941E+02  0.11872979251E+02  0.40490921941E+02  0.20000001068E+01 0.  0.
        -13    1    3    3    0    0  0.19608659227E+02 -0.33317376941E+02  0.17168875107E+01  0.38697622532E+02  0.10566000000E+00 0.  1.
         13    1    4    4    0    0 -0.61584667793E+01  0.99836999086E+01  0.40552904390E+01  0.12411991038E+02  0.10566000000E+00 0. -1.
        -13    1    4    4    0    0 -0.13462249525E+02  0.23209652464E+02  0.78374551038E+01  0.27952763661E+02  0.10566000000E+00 0.  1.
        -14    1    4    4    0    0  0.12057077433E-01  0.12402456821E+00 -0.19766291455E-01  0.12616724184E+00  0.00000000000E+00 0.  1.
<mgrwt>
<rscale>  0 0.78013724E+02</rscale>
<asrwt>0</asrwt>
<pdfrwt beam="1">  1        2 0.71368008E-02 0.78013724E+02</pdfrwt>
<pdfrwt beam="2">  1       -1 0.50460522E-02 0.78013724E+02</pdfrwt>
<totfact> 0.15753299E+05</totfact>
</mgrwt>
</event>
<event>
 8    1  0.2561077E-020  0.8117773E+02  0.7818608E-02  0.1325742E+00
          2   -1    0    0  501    0  0.00000000000E+00  0.00000000000E+00  0.81324124073E+03  0.81324124073E+03  0.25500000000E-02 0. -1.
         -1   -1    0    0    0  501 -0.00000000000E+00 -0.00000000000E+00 -0.20257869509E+01  0.20257932205E+01  0.50400000000E-02 0.  1.
         24    2    1    2    0    0 -0.35527136788E-14  0.00000000000E+00  0.81121545378E+03  0.81526703395E+03  0.81177732186E+02 0.  0.
         66    2    3    3    0    0  0.21814583611E+02  0.20530502474E+02  0.68053833910E+03  0.68120027053E+03  0.19999991173E+01 0.  0.
        -13    1    3    3    0    0 -0.21814583611E+02 -0.20530502474E+02  0.13067711468E+03  0.13406676342E+03  0.10566000000E+00 0.  1.
         13    1    4    4    0    0  0.60445385511E+01  0.57399003403E+01  0.17747686813E+03  0.17767254371E+03  0.10566000000E+00 0. -1.
        -13    1    4    4    0    0  0.48609724590E+01  0.37631601179E+01  0.14719818184E+03  0.14732652961E+03  0.10566000000E+00 0.  1.
        -14    1    4    4    0    0  0.10909072601E+02  0.11027442016E+02  0.35586328913E+03  0.35620119721E+03  0.00000000000E+00 0.  1.
<mgrwt>
<rscale>  0 0.81177732E+02</rscale>
<asrwt>0</asrwt>
<pdfrwt beam="1">  1        2 0.12511403E+00 0.81177732E+02</pdfrwt>
<pdfrwt beam="2">  1       -1 0.31166004E-03 0.81177732E+02</pdfrwt>
<totfact> 0.33176280E+05</totfact>
</mgrwt>
</event>
<event>
 8    1  0.2561077E-020  0.7713324E+02  0.7818608E-02  0.1337389E+00
         -1   -1    0    0    0  501 -0.00000000000E+00  0.00000000000E+00  0.18753355226E+02  0.18753355903E+02  0.50400000000E-02 0.  1.
          2   -1    0    0  501    0  0.00000000000E+00 -0.00000000000E+00 -0.79312971076E+02  0.79312971117E+02  0.25500000000E-02 0. -1.
         24    2    1    2    0    0  0.00000000000E+00  0.00000000000E+00 -0.60559615850E+02  0.98066327020E+02  0.77133244606E+02 0.  0.
         66    2    3    3    0    0  0.25764433358E+02 -0.22771842471E+02 -0.81685745270E+01  0.35398989350E+02  0.20000003413E+01 0.  0.
        -13    1    3    3    0    0 -0.25764433358E+02  0.22771842471E+02 -0.52391041323E+02  0.62667337671E+02  0.10566000000E+00 0.  1.
         13    1    4    4    0    0  0.14198225676E+02 -0.13160708251E+02 -0.49412484441E+01  0.19980514363E+02  0.10566000000E+00 0. -1.
        -13    1    4    4    0    0  0.50043379835E+01 -0.35195088470E+01 -0.14939527353E+01  0.62986824010E+01  0.10566000000E+00 0.  1.
         14    1    4    4    0    0  0.65618696991E+01 -0.60916253736E+01 -0.17333733476E+01  0.91197925855E+01  0.00000000000E+00 0. -1.
<mgrwt>
<rscale>  0 0.77133245E+02</rscale>
<asrwt>0</asrwt>
<pdfrwt beam="1">  1        2 0.12201995E-01 0.77133245E+02</pdfrwt>
<pdfrwt beam="2">  1       -1 0.28851317E-02 0.77133245E+02</pdfrwt>
<totfact> 0.18377241E+05</totfact>
</mgrwt>
</event>
<event>
 8    1  0.2561077E-020  0.8086917E+02  0.7818608E-02  0.1326603E+00
          2   -1    0    0  501    0  0.00000000000E+00  0.00000000000E+00  0.77761573152E+03  0.77761573152E+03  0.25500000000E-02 0. -1.
         -1   -1    0    0    0  501 -0.00000000000E+00 -0.00000000000E+00 -0.21025210191E+01  0.21025270598E+01  0.50400000000E-02 0.  1.
         24    2    1    2    0    0  0.00000000000E+00  0.00000000000E+00  0.77551321050E+03  0.77971825858E+03  0.80869172791E+02 0.  0.
         66    2    3    3    0    0  0.31825244455E+02 -0.27944452846E+01  0.62657380854E+03  0.62739094085E+03  0.19999992462E+01 0.  0.
        -13    1    3    3    0    0 -0.31825244455E+02  0.27944452846E+01  0.14893940196E+03  0.15232731774E+03  0.10566000000E+00 0.  1.
         13    1    4    4    0    0  0.12900329117E+02 -0.11012288891E+01  0.25793128287E+03  0.25825605326E+03  0.10566000000E+00 0. -1.
        -13    1    4    4    0    0  0.14224875283E+02 -0.16982941257E+01  0.28660912090E+03  0.28696695041E+03  0.10566000000E+00 0.  1.
        -14    1    4    4    0    0  0.47000400542E+01  0.50777301999E-02  0.82033404771E+02  0.82167937181E+02  0.00000000000E+00 0.  1.
<mgrwt>
<rscale>  0 0.80869173E+02</rscale>
<asrwt>0</asrwt>
<pdfrwt beam="1">  1        2 0.11963317E+00 0.80869173E+02</pdfrwt>
<pdfrwt beam="2">  1       -1 0.32346530E-03 0.80869173E+02</pdfrwt>
<totfact> 0.33244343E+05</totfact>
</mgrwt>
</event>
<event>
 8    1  0.2561077E-020  0.7950557E+02  0.7818608E-02  0.1330460E+00
         -1   -1    0    0    0  501 -0.00000000000E+00  0.00000000000E+00  0.30561869309E+01  0.30561910866E+01  0.50400000000E-02 0.  1.
          2   -1    0    0  501    0  0.00000000000E+00 -0.00000000000E+00 -0.51707663627E+03  0.51707663628E+03  0.25500000000E-02 0. -1.
         24    2    1    2    0    0  0.35527136788E-14  0.35527136788E-14 -0.51402044934E+03  0.52013282736E+03  0.79505570633E+02 0.  0.
         66    2    3    3    0    0  0.17409121709E+02  0.21404088417E+02 -0.44417403936E+03  0.44503459389E+03  0.19999995363E+01 0.  0.
        -13    1    3    3    0    0 -0.17409121709E+02 -0.21404088417E+02 -0.69846409975E+02  0.75098233468E+02  0.10566000000E+00 0.  1.
         13    1    4    4    0    0  0.72375086482E+01  0.82474475125E+01 -0.16759306920E+03  0.16795192744E+03  0.10566000000E+00 0. -1.
        -13    1    4    4    0    0  0.45618128761E+01  0.66320136930E+01 -0.13886379013E+03  0.13909693425E+03  0.10566000000E+00 0.  1.
         14    1    4    4    0    0  0.56098001848E+01  0.65246272115E+01 -0.13771718003E+03  0.13798573221E+03  0.00000000000E+00 0. -1.
<mgrwt>
<rscale>  0 0.79505571E+02</rscale>
<asrwt>0</asrwt>
<pdfrwt beam="1">  1        2 0.79550182E-01 0.79505571E+02</pdfrwt>
<pdfrwt beam="2">  1       -1 0.47018334E-03 0.79505571E+02</pdfrwt>
<totfact> 0.31276684E+05</totfact>
</mgrwt>
</event>
<event>
 8    1  0.2561077E-020  0.8471034E+02  0.7818608E-02  0.1316192E+00
          2   -1    0    0  501    0  0.00000000000E+00  0.00000000000E+00  0.86853766244E+02  0.86853766281E+02  0.25500000000E-02 0. -1.
         -1   -1    0    0    0  501 -0.00000000000E+00 -0.00000000000E+00 -0.20654953558E+02  0.20654954173E+02  0.50400000000E-02 0.  1.
         24    2    1    2    0    0  0.35527136788E-14 -0.35527136788E-14  0.66198812685E+02  0.10750872045E+03  0.84710342774E+02 0.  0.
         66    2    3    3    0    0 -0.24394362690E+02  0.22199553869E+02  0.66792923305E+02  0.74519794214E+02  0.20000007693E+01 0.  0.
        -13    1    3    3    0    0  0.24394362690E+02 -0.22199553869E+02 -0.59411061989E+00  0.32988926240E+02  0.10566000000E+00 0.  1.
         13    1    4    4    0    0 -0.81441690442E+01  0.69362137074E+01  0.22786507785E+02  0.25172895167E+02  0.10566000000E+00 0. -1.
        -13    1    4    4    0    0 -0.73896512083E+01  0.64674037906E+01  0.20479975138E+02  0.22712877459E+02  0.10566000000E+00 0.  1.
        -14    1    4    4    0    0 -0.88605424374E+01  0.87959363706E+01  0.23526440382E+02  0.26634021588E+02  0.00000000000E+00 0.  1.
<mgrwt>
<rscale>  0 0.84710343E+02</rscale>
<asrwt>0</asrwt>
<pdfrwt beam="1">  1        2 0.13362118E-01 0.84710343E+02</pdfrwt>
<pdfrwt beam="2">  1       -1 0.31776852E-02 0.84710343E+02</pdfrwt>
<totfact> 0.14617216E+05</totfact>
</mgrwt>
</event>
<event>
 8    1  0.2561077E-020  0.8045592E+02  0.7818608E-02  0.1327763E+00
         -1   -1    0    0    0  501 -0.00000000000E+00  0.00000000000E+00  0.14049421241E+03  0.14049421250E+03  0.50400000000E-02 0.  1.
          2   -1    0    0  501    0  0.00000000000E+00 -0.00000000000E+00 -0.11518545103E+02  0.11518545386E+02  0.25500000000E-02 0. -1.
         24    2    1    2    0    0  0.88817841970E-15 -0.35527136788E-14  0.12897566731E+03  0.15201275789E+03  0.80455924599E+02 0.  0.
         66    2    3    3    0    0  0.70296049784E+01 -0.20808544065E+02  0.90602245799E+00  0.22073326042E+02  0.19999984046E+01 0.  0.
        -13    1    3    3    0    0 -0.70296049784E+01  0.20808544065E+02  0.12806964485E+03  0.12993943185E+03  0.10566000000E+00 0.  1.
         13    1    4    4    0    0  0.49630537482E+01 -0.15481623782E+02  0.10423313870E+00  0.16258370337E+02  0.10566000000E+00 0. -1.
        -13    1    4    4    0    0  0.17013185431E+00 -0.11842839182E+01  0.10158663675E+00  0.12053867127E+01  0.10566000000E+00 0.  1.
         14    1    4    4    0    0  0.18964193759E+01 -0.41426363643E+01  0.70020268253E+00  0.46095689921E+01  0.00000000000E+00 0. -1.
<mgrwt>
<rscale>  0 0.80455925E+02</rscale>
<asrwt>0</asrwt>
<pdfrwt beam="1">  1        2 0.17720840E-02 0.80455925E+02</pdfrwt>
<pdfrwt beam="2">  1       -1 0.21614493E-01 0.80455925E+02</pdfrwt>
<totfact> 0.10809676E+05</totfact>
</mgrwt>
</event>
<event>
 8    1  0.2561077E-020  0.7861873E+02  0.7818608E-02  0.1333018E+00
         -1   -1    0    0    0  501 -0.00000000000E+00  0.00000000000E+00  0.40787731207E+01  0.40787762346E+01  0.50400000000E-02 0.  1.
          2   -1    0    0  501    0  0.00000000000E+00 -0.00000000000E+00 -0.37884565660E+03  0.37884565661E+03  0.25500000000E-02 0. -1.
         24    2    1    2    0    0  0.17763568394E-14  0.00000000000E+00 -0.37476688348E+03  0.38292443284E+03  0.78618727511E+02 0.  0.
         66    2    3    3    0    0 -0.89083581161E+01  0.38246950318E+02 -0.19245494357E+03  0.19643088697E+03  0.20000000626E+01 0.  0.
        -13    1    3    3    0    0  0.89083581161E+01 -0.38246950318E+02 -0.18231193991E+03  0.18649354587E+03  0.10566000000E+00 0.  1.
         13    1    4    4    0    0 -0.59314150710E+01  0.28773780380E+02 -0.14423952620E+03  0.14720110123E+03  0.10566000000E+00 0. -1.
        -13    1    4    4    0    0 -0.10898106166E+01  0.29026895799E+01 -0.14439033043E+02  0.14768552171E+02  0.10566000000E+00 0.  1.
         14    1    4    4    0    0 -0.18871324285E+01  0.65704803583E+01 -0.33776384326E+02  0.34461233568E+02  0.00000000000E+00 0. -1.
<mgrwt>
<rscale>  0 0.78618728E+02</rscale>
<asrwt>0</asrwt>
<pdfrwt beam="1">  1        2 0.58283919E-01 0.78618728E+02</pdfrwt>
<pdfrwt beam="2">  1       -1 0.62750410E-03 0.78618728E+02</pdfrwt>
<totfact> 0.29008330E+05</totfact>
</mgrwt>
</event>
<event>
 8    1  0.2561077E-020  0.7492362E+02  0.7818608E-02  0.1344108E+00
         -1   -1    0    0    0  501 -0.00000000000E+00  0.00000000000E+00  0.32271758578E+01  0.32271797934E+01  0.50400000000E-02 0.  1.
          2   -1    0    0  501    0  0.00000000000E+00 -0.00000000000E+00 -0.43486510782E+03  0.43486510783E+03  0.25500000000E-02 0. -1.
         24    2    1    2    0    0  0.00000000000E+00  0.00000000000E+00 -0.43163793196E+03  0.43809228762E+03  0.74923615531E+02 0.  0.
         66    2    3    3    0    0 -0.86373123066E+01 -0.32010291486E+02 -0.31760580055E+03  0.31933791893E+03  0.19999995309E+01 0.  0.
        -13    1    3    3    0    0  0.86373123066E+01  0.32010291486E+02 -0.11403213141E+03  0.11875436869E+03  0.10566000000E+00 0.  1.
         13    1    4    4    0    0 -0.43448703364E+01 -0.16495948941E+02 -0.16104958452E+03  0.16195052970E+03  0.10566000000E+00 0. -1.
        -13    1    4    4    0    0 -0.39368136873E+01 -0.12783468454E+02 -0.13286810992E+03  0.13353973703E+03  0.10566000000E+00 0.  1.
        -14    1    4    4    0    0 -0.35562828291E+00 -0.27308740907E+01 -0.23688106108E+02  0.23847652206E+02  0.00000000000E+00 0.  1.
<mgrwt>
<rscale>  0 0.74923616E+02</rscale>
<asrwt>0</asrwt>
<pdfrwt beam="1">  1        2 0.66902278E-01 0.74923616E+02</pdfrwt>
<pdfrwt beam="2">  1       -1 0.49648924E-03 0.74923616E+02</pdfrwt>
<totfact> 0.34487068E+05</totfact>
</mgrwt>
</event>
<event>
 8    1  0.2561077E-020  0.7765074E+02  0.7818608E-02  0.1335854E+00
          2   -1    0    0  501    0  0.00000000000E+00  0.00000000000E+00  0.38045472781E+02  0.38045472866E+02  0.25500000000E-02 0. -1.
         -1   -1    0    0    0  501 -0.00000000000E+00 -0.00000000000E+00 -0.39621251144E+02  0.39621251464E+02  0.50400000000E-02 0.  1.
         24    2    1    2    0    0  0.00000000000E+00 -0.17763568394E-14 -0.15757783630E+01  0.77666724331E+02  0.77650737220E+02 0.  0.
         66    2    3    3    0    0  0.33118407025E+02  0.14734499796E+02 -0.14628526208E+02  0.39139853728E+02  0.20000006765E+01 0.  0.
        -13    1    3    3    0    0 -0.33118407025E+02 -0.14734499796E+02  0.13052747845E+02  0.38526870603E+02  0.10566000000E+00 0.  1.
         13    1    4    4    0    0  0.22910905488E+02  0.97833195299E+01 -0.10821478663E+02  0.27161341937E+02  0.10566000000E+00 0. -1.
        -13    1    4    4    0    0  0.59338091940E+01  0.31133439264E+01 -0.23935493670E+01  0.71164067170E+01  0.10566000000E+00 0.  1.
         14    1    4    4    0    0  0.42736923427E+01  0.18378363401E+01 -0.14134981784E+01  0.48621050743E+01  0.00000000000E+00 0. -1.
<mgrwt>
<rscale>  0 0.77650737E+02</rscale>
<asrwt>0</asrwt>
<pdfrwt beam="1">  1        2 0.58531497E-02 0.77650737E+02</pdfrwt>
<pdfrwt beam="2">  1       -1 0.60955772E-02 0.77650737E+02</pdfrwt>
<totfact> 0.15321703E+05</totfact>
</mgrwt>
</event>
<event>
 8    1  0.2561077E-020  0.7872166E+02  0.7818608E-02  0.1332719E+00
         -1   -1    0    0    0  501 -0.00000000000E+00  0.00000000000E+00  0.44329177114E+01  0.44329205765E+01  0.50400000000E-02 0.  1.
          2   -1    0    0  501    0  0.00000000000E+00 -0.00000000000E+00 -0.34949319049E+03  0.34949319050E+03  0.25500000000E-02 0. -1.
         24    2    1    2    0    0 -0.35527136788E-14  0.00000000000E+00 -0.34506027278E+03  0.35392611108E+03  0.78721663163E+02 0.  0.
         66    2    3    3    0    0  0.13330650154E+02  0.16466414967E+02 -0.32164684902E+03  0.32235003419E+03  0.20000005958E+01 0.  0.
        -13    1    3    3    0    0 -0.13330650154E+02 -0.16466414967E+02 -0.23413423760E+02  0.31576076887E+02  0.10566000000E+00 0.  1.
         13    1    4    4    0    0  0.23476900616E+01  0.21082097495E+01 -0.50674386842E+02  0.50772638722E+02  0.10566000000E+00 0. -1.
        -13    1    4    4    0    0  0.11819776672E+01  0.11155510104E+01 -0.27449109514E+02  0.27497387192E+02  0.10566000000E+00 0.  1.
        -14    1    4    4    0    0  0.98009824255E+01  0.13242654207E+02 -0.24352335266E+03  0.24408000827E+03  0.00000000000E+00 0.  1.
<mgrwt>
<rscale>  0 0.78721663E+02</rscale>
<asrwt>0</asrwt>
<pdfrwt beam="1">  1        2 0.53768162E-01 0.78721663E+02</pdfrwt>
<pdfrwt beam="2">  1       -1 0.68198784E-03 0.78721663E+02</pdfrwt>
<totfact> 0.28094246E+05</totfact>
</mgrwt>
</event>
<event>
 8    1  0.2561077E-020  0.7626549E+02  0.7818608E-02  0.1339996E+00
          2   -1    0    0  501    0  0.00000000000E+00  0.00000000000E+00  0.12637088807E+04  0.12637088807E+04  0.25500000000E-02 0. -1.
         -1   -1    0    0    0  501 -0.00000000000E+00 -0.00000000000E+00 -0.11506599136E+01  0.11506709513E+01  0.50400000000E-02 0.  1.
         24    2    1    2    0    0  0.44408920985E-15  0.35527136788E-14  0.12625582208E+04  0.12648595516E+04  0.76265487179E+02 0.  0.
         66    2    3    3    0    0 -0.18369918857E+01 -0.17992168058E+02  0.11879904051E+04  0.11881297468E+04  0.20000009412E+01 0.  0.
        -13    1    3    3    0    0  0.18369918857E+01  0.17992168058E+02  0.74567815712E+02  0.76729804865E+02  0.10566000000E+00 0.  1.
         13    1    4    4    0    0 -0.85359863581E-01 -0.60912493935E+01  0.35999578848E+03  0.36004734340E+03  0.10566000000E+00 0.  1.
        -13    1    4    4    0    0 -0.78091254885E+00 -0.78866881155E+01  0.53803737163E+03  0.53809574809E+03  0.10566000000E+00 0. -1.
        -14    1    4    4    0    0 -0.97071947329E+00 -0.40142305490E+01  0.28995724496E+03  0.28998665529E+03  0.00000000000E+00 0.  1.
<mgrwt>
<rscale>  0 0.76265487E+02</rscale>
<asrwt>0</asrwt>
<pdfrwt beam="1">  1        2 0.19441716E+00 0.76265487E+02</pdfrwt>
<pdfrwt beam="2">  1       -1 0.17702508E-03 0.76265487E+02</pdfrwt>
<totfact> 0.39378350E+05</totfact>
</mgrwt>
</event>
<event>
 8    1  0.2561077E-020  0.7968219E+02  0.7818608E-02  0.1329956E+00
          2   -1    0    0  501    0  0.00000000000E+00  0.00000000000E+00  0.36136887586E+02  0.36136887676E+02  0.25500000000E-02 0. -1.
         -1   -1    0    0    0  501 -0.00000000000E+00 -0.00000000000E+00 -0.43925005339E+02  0.43925005628E+02  0.50400000000E-02 0.  1.
         24    2    1    2    0    0  0.00000000000E+00  0.11102230246E-15 -0.77881177528E+01  0.80061893305E+02  0.79682193628E+02 0.  0.
         66    2    3    3    0    0  0.35466466268E+02  0.76744074376E+00  0.14268605407E+02  0.38289062476E+02  0.20000025499E+01 0.  0.
        -13    1    3    3    0    0 -0.35466466268E+02 -0.76744074376E+00 -0.22056723160E+02  0.41772830829E+02  0.10566000000E+00 0.  1.
         13    1    4    4    0    0  0.22439758660E+02  0.91744818879E-01  0.86231217175E+01  0.24039978744E+02  0.10566000000E+00 0. -1.
        -13    1    4    4    0    0  0.24966142295E+01  0.74349029478E-01  0.67598539311E+00  0.25897356383E+01  0.10566000000E+00 0.  1.
        -14    1    4    4    0    0  0.10530093379E+02  0.60134689541E+00  0.49694982961E+01  0.11659348094E+02  0.00000000000E+00 0.  1.
<mgrwt>
<rscale>  0 0.79682194E+02</rscale>
<asrwt>0</asrwt>
<pdfrwt beam="1">  1        2 0.55595212E-02 0.79682194E+02</pdfrwt>
<pdfrwt beam="2">  1       -1 0.67576931E-02 0.79682194E+02</pdfrwt>
<totfact> 0.14118702E+05</totfact>
</mgrwt>
</event>
<event>
 8    1  0.2561077E-020  0.7796872E+02  0.7818608E-02  0.1334917E+00
          2   -1    0    0  501    0  0.00000000000E+00  0.00000000000E+00  0.69225745192E+03  0.69225745193E+03  0.25500000000E-02 0. -1.
         -1   -1    0    0    0  501 -0.00000000000E+00 -0.00000000000E+00 -0.21953945013E+01  0.21954002865E+01  0.50400000000E-02 0.  1.
         24    2    1    2    0    0 -0.35527136788E-14  0.17763568394E-14  0.69006205742E+03  0.69445285221E+03  0.77968717158E+02 0.  0.
         66    2    3    3    0    0  0.28246060029E+02 -0.81434590574E+01  0.57296886829E+03  0.57372596234E+03  0.20000014312E+01 0.  0.
        -13    1    3    3    0    0 -0.28246060029E+02  0.81434590574E+01  0.11709318913E+03  0.12072688987E+03  0.10566000000E+00 0.  1.
         13    1    4    4    0    0  0.14190459809E+02 -0.39119396438E+01  0.28522767086E+03  0.28560726148E+03  0.10566000000E+00 0. -1.
        -13    1    4    4    0    0  0.10522714180E+02 -0.37596619920E+01  0.22137338156E+03  0.22165524537E+03  0.10566000000E+00 0.  1.
        -14    1    4    4    0    0  0.35328860399E+01 -0.47185742164E+00  0.66367815870E+02  0.66463455497E+02  0.00000000000E+00 0.  1.
<mgrwt>
<rscale>  0 0.77968717E+02</rscale>
<asrwt>0</asrwt>
<pdfrwt beam="1">  1        2 0.10650116E+00 0.77968717E+02</pdfrwt>
<pdfrwt beam="2">  1       -1 0.33775341E-03 0.77968717E+02</pdfrwt>
<totfact> 0.35669995E+05</totfact>
</mgrwt>
</event>
<event>
 8    1  0.2561077E-020  0.7847707E+02  0.7818608E-02  0.1333430E+00
         -1   -1    0    0    0  501 -0.00000000000E+00  0.00000000000E+00  0.19774114215E+02  0.19774114858E+02  0.50400000000E-02 0.  1.
          2   -1    0    0  501    0  0.00000000000E+00 -0.00000000000E+00 -0.77862540084E+02  0.77862540125E+02  0.25500000000E-02 0. -1.
         24    2    1    2    0    0  0.00000000000E+00  0.00000000000E+00 -0.58088425868E+02  0.97636654983E+02  0.78477074209E+02 0.  0.
         66    2    3    3    0    0  0.15484673593E+01 -0.33036244960E+02 -0.55274793488E+02  0.64444503450E+02  0.19999993962E+01 0.  0.
        -13    1    3    3    0    0 -0.15484673593E+01  0.33036244960E+02 -0.28136323802E+01  0.33192151533E+02  0.10566000000E+00 0.  1.
         13    1    4    4    0    0  0.10289015674E+01 -0.24426175079E+02 -0.39400790765E+02  0.46369495839E+02  0.10566000000E+00 0. -1.
        -13    1    4    4    0    0  0.16135223476E+00 -0.70462754392E+00 -0.13194675986E+01  0.15082086390E+01  0.10566000000E+00 0.  1.
         14    1    4    4    0    0  0.35821355716E+00 -0.79054423367E+01 -0.14554535124E+02  0.16566798972E+02  0.00000000000E+00 0. -1.
<mgrwt>
<rscale>  0 0.78477074E+02</rscale>
<asrwt>0</asrwt>
<pdfrwt beam="1">  1        2 0.11978852E-01 0.78477074E+02</pdfrwt>
<pdfrwt beam="2">  1       -1 0.30421715E-02 0.78477074E+02</pdfrwt>
<totfact> 0.17461902E+05</totfact>
</mgrwt>
</event>
<event>
 8    1  0.2561077E-020  0.8192176E+02  0.7818608E-02  0.1323685E+00
         -1   -1    0    0    0  501 -0.00000000000E+00  0.00000000000E+00  0.69242114790E+02  0.69242114973E+02  0.50400000000E-02 0.  1.
          2   -1    0    0  501    0  0.00000000000E+00 -0.00000000000E+00 -0.24230828399E+02  0.24230828533E+02  0.25500000000E-02 0. -1.
         24    2    1    2    0    0  0.00000000000E+00  0.00000000000E+00  0.45011286391E+02  0.93472943506E+02  0.81921763074E+02 0.  0.
         66    2    3    3    0    0  0.14206157312E+02 -0.13476788603E+02 -0.18499191621E+02  0.27012197814E+02  0.20000008663E+01 0.  0.
        -13    1    3    3    0    0 -0.14206157312E+02  0.13476788603E+02  0.63510478012E+02  0.66460745693E+02  0.10566000000E+00 0.  1.
         13    1    4    4    0    0  0.10420681701E+02 -0.10350771834E+02 -0.14149554926E+02  0.20394856050E+02  0.10566000000E+00 0. -1.
        -13    1    4    4    0    0  0.37793552599E+01 -0.31271719181E+01 -0.43856052500E+01  0.65808379277E+01  0.10566000000E+00 0. -1.
         14    1    4    4    0    0  0.61203512413E-02  0.11551493060E-02  0.35968554940E-01  0.36503835603E-01  0.00000000000E+00 0. -1.
<mgrwt>
<rscale>  0 0.81921763E+02</rscale>
<asrwt>0</asrwt>
<pdfrwt beam="1">  1        2 0.37278198E-02 0.81921763E+02</pdfrwt>
<pdfrwt beam="2">  1       -1 0.10652633E-01 0.81921763E+02</pdfrwt>
<totfact> 0.12058536E+05</totfact>
</mgrwt>
</event>
<event>
 8    1  0.2561077E-020  0.7700794E+02  0.7818608E-02  0.1337763E+00
         -1   -1    0    0    0  501 -0.00000000000E+00  0.00000000000E+00  0.50512086259E+01  0.50512111403E+01  0.50400000000E-02 0.  1.
          2   -1    0    0  501    0  0.00000000000E+00 -0.00000000000E+00 -0.29350509501E+03  0.29350509502E+03  0.25500000000E-02 0. -1.
         24    2    1    2    0    0  0.00000000000E+00  0.35527136788E-14 -0.28845388639E+03  0.29855630616E+03  0.77007943608E+02 0.  0.
         66    2    3    3    0    0 -0.92632196850E+01  0.28297170110E+02 -0.23881464228E+03  0.24067191453E+03  0.20000003101E+01 0.  0.
        -13    1    3    3    0    0  0.92632196850E+01 -0.28297170110E+02 -0.49639244103E+02  0.57884391629E+02  0.10566000000E+00 0.  1.
         13    1    4    4    0    0 -0.34243900880E+01  0.11576949768E+02 -0.93140856776E+02  0.93920086128E+02  0.10566000000E+00 0. -1.
        -13    1    4    4    0    0 -0.48823625941E+01  0.12327425612E+02 -0.10878866738E+03  0.10959374161E+03  0.10566000000E+00 0.  1.
        -14    1    4    4    0    0 -0.95646700294E+00  0.43927947312E+01 -0.36885118130E+02  0.37158086793E+02  0.00000000000E+00 0.  1.
<mgrwt>
<rscale>  0 0.77007944E+02</rscale>
<asrwt>0</asrwt>
<pdfrwt beam="1">  1        2 0.45154617E-01 0.77007944E+02</pdfrwt>
<pdfrwt beam="2">  1       -1 0.77710944E-03 0.77007944E+02</pdfrwt>
<totfact> 0.27947098E+05</totfact>
</mgrwt>
</event>
<event>
 8    1  0.2561077E-020  0.7795591E+02  0.7818608E-02  0.1334954E+00
          2   -1    0    0  501    0  0.00000000000E+00  0.00000000000E+00  0.98961209656E+03  0.98961209656E+03  0.25500000000E-02 0. -1.
         -1   -1    0    0    0  501 -0.00000000000E+00 -0.00000000000E+00 -0.15352246549E+01  0.15352329279E+01  0.50400000000E-02 0.  1.
         24    2    1    2    0    0  0.00000000000E+00  0.88817841970E-15  0.98807687190E+03  0.99114732949E+03  0.77955910384E+02 0.  0.
         66    2    3    3    0    0  0.26644157545E+02 -0.62479089486E+01  0.84678442050E+03  0.84722889605E+03  0.19999985877E+01 0.  0.
        -13    1    3    3    0    0 -0.26644157545E+02  0.62479089486E+01  0.14129245140E+03  0.14391843344E+03  0.10566000000E+00 0.  1.
         13    1    4    4    0    0  0.89928225360E+01 -0.29703962617E+01  0.29981250321E+03  0.29996206820E+03  0.10566000000E+00 0. -1.
        -13    1    4    4    0    0  0.50549233878E+01 -0.91863105642E+00  0.14853308405E+03  0.14862195112E+03  0.10566000000E+00 0.  1.
         14    1    4    4    0    0  0.12596411621E+02 -0.23588816305E+01  0.39843883324E+03  0.39864487673E+03  0.00000000000E+00 0. -1.
<mgrwt>
<rscale>  0 0.77955910E+02</rscale>
<asrwt>0</asrwt>
<pdfrwt beam="1">  1        2 0.15224850E+00 0.77955910E+02</pdfrwt>
<pdfrwt beam="2">  1       -1 0.23618830E-03 0.77955910E+02</pdfrwt>
<totfact> 0.37658737E+05</totfact>
</mgrwt>
</event>
<event>
 8    1  0.2561077E-020  0.7925390E+02  0.7818608E-02  0.1331182E+00
          2   -1    0    0  501    0  0.00000000000E+00  0.00000000000E+00  0.27570858811E+03  0.27570858813E+03  0.25500000000E-02 0. -1.
         -1   -1    0    0    0  501 -0.00000000000E+00 -0.00000000000E+00 -0.56954877382E+01  0.56954899681E+01  0.50400000000E-02 0.  1.
         24    2    1    2    0    0  0.00000000000E+00  0.00000000000E+00  0.27001310038E+03  0.28140407809E+03  0.79253900808E+02 0.  0.
         66    2    3    3    0    0  0.28973385819E+02  0.59142824416E+01  0.22862077546E+03  0.23053393412E+03  0.19999957342E+01 0.  0.
        -13    1    3    3    0    0 -0.28973385819E+02 -0.59142824416E+01  0.41392324913E+02  0.50870143979E+02  0.10566000000E+00 0.  1.
         13    1    4    4    0    0  0.19618313584E+02  0.34996542099E+01  0.15546938261E+03  0.15674139817E+03  0.10566000000E+00 0. -1.
        -13    1    4    4    0    0  0.16292078187E+01  0.42610908523E+00  0.15562450618E+02  0.15653655175E+02  0.10566000000E+00 0.  1.
         14    1    4    4    0    0  0.77258644164E+01  0.19885191465E+01  0.57588942237E+02  0.58138880772E+02  0.00000000000E+00 0. -1.
<mgrwt>
<rscale>  0 0.79253901E+02</rscale>
<asrwt>0</asrwt>
<pdfrwt beam="1">  1        2 0.42416709E-01 0.79253901E+02</pdfrwt>
<pdfrwt beam="2">  1       -1 0.87622899E-03 0.79253901E+02</pdfrwt>
<totfact> 0.25341864E+05</totfact>
</mgrwt>
</event>
<event>
 8    1  0.2561077E-020  0.7635452E+02  0.7818608E-02  0.1339727E+00
          2   -1    0    0  501    0  0.00000000000E+00  0.00000000000E+00  0.15202246904E+03  0.15202246906E+03  0.25500000000E-02 0. -1.
         -1   -1    0    0    0  501 -0.00000000000E+00 -0.00000000000E+00 -0.95874178498E+01  0.95874191745E+01  0.50400000000E-02 0.  1.
         24    2    1    2    0    0  0.00000000000E+00  0.71054273576E-14  0.14243505119E+03  0.16160988823E+03  0.76354516356E+02 0.  0.
         66    2    3    3    0    0 -0.18130397620E+02 -0.23488306982E+02  0.12202369015E+03  0.12559535358E+03  0.20000000805E+01 0.  0.
        -13    1    3    3    0    0  0.18130397620E+02  0.23488306982E+02  0.20411361034E+02  0.36014534650E+02  0.10566000000E+00 0.  1.
         13    1    4    4    0    0 -0.34755250141E+01 -0.55627274529E+01  0.26815973442E+02  0.27606716692E+02  0.10566000000E+00 0. -1.
        -13    1    4    4    0    0 -0.10274607015E+01 -0.11587664227E+01  0.54244210804E+01  0.56421559007E+01  0.10566000000E+00 0.  1.
         14    1    4    4    0    0 -0.13627411904E+02 -0.16766813106E+02  0.89783295631E+02  0.92346480990E+02  0.00000000000E+00 0. -1.
<mgrwt>
<rscale>  0 0.76354516E+02</rscale>
<asrwt>0</asrwt>
<pdfrwt beam="1">  1        2 0.23388072E-01 0.76354516E+02</pdfrwt>
<pdfrwt beam="2">  1       -1 0.14749875E-02 0.76354516E+02</pdfrwt>
<totfact> 0.22759137E+05</totfact>
</mgrwt>
</event>
<event>
 8    1  0.2561077E-020  0.7972447E+02  0.7818608E-02  0.1329835E+00
          2   -1    0    0  501    0  0.00000000000E+00  0.00000000000E+00  0.19802133068E+02  0.19802133232E+02  0.25500000000E-02 0. -1.
         -1   -1    0    0    0  501 -0.00000000000E+00 -0.00000000000E+00 -0.80243759327E+02  0.80243759485E+02  0.50400000000E-02 0.  1.
         24    2    1    2    0    0  0.35527136788E-14  0.00000000000E+00 -0.60441626259E+02  0.10004589272E+03  0.79724465911E+02 0.  0.
         66    2    3    3    0    0 -0.17697391221E+02 -0.29061825000E+02 -0.42417632957E+01  0.34347924031E+02  0.20000002453E+01 0.  0.
        -13    1    3    3    0    0  0.17697391221E+02  0.29061825000E+02 -0.56199862964E+02  0.65697968687E+02  0.10566000000E+00 0.  1.
         13    1    4    4    0    0 -0.14135550145E+01 -0.29077302357E+01 -0.56960959322E+00  0.32846083521E+01  0.10566000000E+00 0.  1.
        -13    1    4    4    0    0 -0.55527851035E+01 -0.95571720566E+01 -0.68486214771E+00  0.11074888727E+02  0.10566000000E+00 0. -1.
         14    1    4    4    0    0 -0.10731051103E+02 -0.16596922708E+02 -0.29872915547E+01  0.19988426951E+02  0.00000000000E+00 0. -1.
<mgrwt>
<rscale>  0 0.79724466E+02</rscale>
<asrwt>0</asrwt>
<pdfrwt beam="1">  1        2 0.30464821E-02 0.79724466E+02</pdfrwt>
<pdfrwt beam="2">  1       -1 0.12345194E-01 0.79724466E+02</pdfrwt>
<totfact> 0.12514191E+05</totfact>
</mgrwt>
</event>
<event>
 8    1  0.2561077E-020  0.8071453E+02  0.7818608E-02  0.1327036E+00
          2   -1    0    0  501    0  0.00000000000E+00  0.00000000000E+00  0.18314222330E+04  0.18314222330E+04  0.25500000000E-02 0. -1.
         -1   -1    0    0    0  501 -0.00000000000E+00 -0.00000000000E+00 -0.88930663676E+00  0.88932091833E+00  0.50400000000E-02 0.  1.
         24    2    1    2    0    0  0.35527136788E-14 -0.22204460493E-15  0.18305329264E+04  0.18323115540E+04  0.80714534808E+02 0.  0.
         66    2    3    3    0    0  0.18056375693E+02 -0.88491533929E+00  0.17342927464E+04  0.17343881186E+04  0.20000017061E+01 0.  0.
        -13    1    3    3    0    0 -0.18056375693E+02  0.88491533929E+00  0.96240180031E+02  0.97923435371E+02  0.10566000000E+00 0.  1.
         13    1    4    4    0    0  0.27625788900E+01 -0.53419768896E+00  0.28721466247E+03  0.28722846431E+03  0.10566000000E+00 0. -1.
        -13    1    4    4    0    0  0.66250471607E+01  0.65696957243E-01  0.56391777829E+03  0.56395670703E+03  0.10566000000E+00 0.  1.
        -14    1    4    4    0    0  0.86687496428E+01 -0.41641460758E+00  0.88316030562E+03  0.88320294726E+03  0.00000000000E+00 0.  1.
<mgrwt>
<rscale>  0 0.80714535E+02</rscale>
<asrwt>0</asrwt>
<pdfrwt beam="1">  1        2 0.28175630E+00 0.80714535E+02</pdfrwt>
<pdfrwt beam="2">  1       -1 0.13681797E-03 0.80714535E+02</pdfrwt>
<totfact> 0.29166972E+05</totfact>
</mgrwt>
</event>
<event>
 8    1  0.2561077E-020  0.8223323E+02  0.7818608E-02  0.1322831E+00
         -1   -1    0    0    0  501 -0.00000000000E+00  0.00000000000E+00  0.10746043294E+03  0.10746043306E+03  0.50400000000E-02 0.  1.
          2   -1    0    0  501    0  0.00000000000E+00 -0.00000000000E+00 -0.15732077274E+02  0.15732077480E+02  0.25500000000E-02 0. -1.
         24    2    1    2    0    0  0.00000000000E+00 -0.17763568394E-14  0.91728355671E+02  0.12319251054E+03  0.82233225765E+02 0.  0.
         66    2    3    3    0    0 -0.33084074464E+02 -0.15662243083E+02  0.17916329989E+02  0.40802655944E+02  0.20000025825E+01 0.  0.
        -13    1    3    3    0    0  0.33084074464E+02  0.15662243083E+02  0.73812025681E+02  0.82389854598E+02  0.10566000000E+00 0.  1.
         13    1    4    4    0    0 -0.80403890678E+01 -0.36573844693E+01  0.39753525743E+01  0.96870485517E+01  0.10566000000E+00 0. -1.
        -13    1    4    4    0    0 -0.14389016307E+02 -0.68716595133E+01  0.71254652445E+01  0.17465592281E+02  0.10566000000E+00 0.  1.
         14    1    4    4    0    0 -0.10654669089E+02 -0.51331991004E+01  0.68155121706E+01  0.13650015112E+02  0.00000000000E+00 0. -1.
<mgrwt>
<rscale>  0 0.82233226E+02</rscale>
<asrwt>0</asrwt>
<pdfrwt beam="1">  1        2 0.24203196E-02 0.82233226E+02</pdfrwt>
<pdfrwt beam="2">  1       -1 0.16532374E-01 0.82233226E+02</pdfrwt>
<totfact> 0.10893387E+05</totfact>
</mgrwt>
</event>
<event>
 8    1  0.2561077E-020  0.8329335E+02  0.7818608E-02  0.1319957E+00
         -1   -1    0    0    0  501 -0.00000000000E+00  0.00000000000E+00  0.63730013030E+02  0.63730013230E+02  0.50400000000E-02 0.  1.
          2   -1    0    0  501    0  0.00000000000E+00 -0.00000000000E+00 -0.27215521718E+02  0.27215521837E+02  0.25500000000E-02 0. -1.
         24    2    1    2    0    0 -0.44408920985E-15  0.00000000000E+00  0.36514491313E+02  0.90945535067E+02  0.83293350711E+02 0.  0.
         66    2    3    3    0    0 -0.22667948075E+01 -0.36647007998E+02  0.39672271726E+02  0.54092797107E+02  0.20000002679E+01 0.  0.
        -13    1    3    3    0    0  0.22667948075E+01  0.36647007998E+02 -0.31577804134E+01  0.36852737959E+02  0.10566000000E+00 0.  1.
         13    1    4    4    0    0 -0.20135239750E+01 -0.31241268762E+02  0.33232953218E+02  0.45656450763E+02  0.10566000000E+00 0. -1.
        -13    1    4    4    0    0 -0.33971348863E+00 -0.53080245515E+01  0.62810729305E+01  0.82312557418E+01  0.10566000000E+00 0.  1.
        -14    1    4    4    0    0  0.86442656076E-01 -0.97714684766E-01  0.15824557731E+00  0.20509060229E+00  0.00000000000E+00 0.  1.
<mgrwt>
<rscale>  0 0.83293351E+02</rscale>
<asrwt>0</asrwt>
<pdfrwt beam="1">  1        2 0.41870034E-02 0.83293351E+02</pdfrwt>
<pdfrwt beam="2">  1       -1 0.98046174E-02 0.83293351E+02</pdfrwt>
<totfact> 0.11776222E+05</totfact>
</mgrwt>
</event>
<event>
 8    1  0.2561077E-020  0.7736291E+02  0.7818608E-02  0.1336706E+00
         -1   -1    0    0    0  501 -0.00000000000E+00  0.00000000000E+00  0.30694813443E+01  0.30694854821E+01  0.50400000000E-02 0.  1.
          2   -1    0    0  501    0  0.00000000000E+00 -0.00000000000E+00 -0.48746152241E+03  0.48746152241E+03  0.25500000000E-02 0. -1.
         24    2    1    2    0    0  0.35527136788E-14  0.00000000000E+00 -0.48439204106E+03  0.49053100790E+03  0.77362912706E+02 0.  0.
         66    2    3    3    0    0  0.18365133405E+02 -0.77435915553E+00 -0.45797419409E+03  0.45834729214E+03  0.20000009636E+01 0.  0.
        -13    1    3    3    0    0 -0.18365133405E+02  0.77435915553E+00 -0.26417846975E+02  0.32183715756E+02  0.10566000000E+00 0.  1.
         13    1    4    4    0    0  0.16186486369E+02 -0.68805793855E+00 -0.38906080581E+03  0.38939799377E+03  0.10566000000E+00 0. -1.
        -13    1    4    4    0    0  0.32888710554E+00  0.11378874189E+00 -0.11949432727E+02  0.11954966379E+02  0.10566000000E+00 0.  1.
         14    1    4    4    0    0  0.18497599302E+01 -0.20008995887E+00 -0.56963955548E+02  0.56994331994E+02  0.00000000000E+00 0. -1.
<mgrwt>
<rscale>  0 0.77362913E+02</rscale>
<asrwt>0</asrwt>
<pdfrwt beam="1">  1        2 0.74994019E-01 0.77362913E+02</pdfrwt>
<pdfrwt beam="2">  1       -1 0.47222861E-03 0.77362913E+02</pdfrwt>
<totfact> 0.32957344E+05</totfact>
</mgrwt>
</event>
<event>
 8    1  0.2561077E-020  0.8685725E+02  0.7818608E-02  0.1310646E+00
         -1   -1    0    0    0  501 -0.00000000000E+00  0.00000000000E+00  0.16679460561E+02  0.16679461322E+02  0.50400000000E-02 0.  1.
          2   -1    0    0  501    0  0.00000000000E+00 -0.00000000000E+00 -0.11307593577E+03  0.11307593580E+03  0.25500000000E-02 0. -1.
         24    2    1    2    0    0  0.35527136788E-14  0.35527136788E-14 -0.96396475212E+02  0.12975539712E+03  0.86857254444E+02 0.  0.
         66    2    3    3    0    0 -0.26855498641E+02 -0.24641541873E+02 -0.83437058235E+02  0.91072312377E+02  0.20000004039E+01 0.  0.
        -13    1    3    3    0    0  0.26855498641E+02  0.24641541873E+02 -0.12959416977E+02  0.38683084747E+02  0.10566000000E+00 0.  1.
         13    1    4    4    0    0 -0.12774073548E+02 -0.10644823701E+02 -0.38819344329E+02  0.42230816767E+02  0.10566000000E+00 0.  1.
        -13    1    4    4    0    0 -0.12483231023E+02 -0.12125708315E+02 -0.38745586477E+02  0.42474645312E+02  0.10566000000E+00 0. -1.
        -14    1    4    4    0    0 -0.15981940698E+01 -0.18710098578E+01 -0.58721274289E+01  0.63668502977E+01  0.00000000000E+00 0.  1.
<mgrwt>
<rscale>  0 0.86857254E+02</rscale>
<asrwt>0</asrwt>
<pdfrwt beam="1">  1        2 0.17396297E-01 0.86857254E+02</pdfrwt>
<pdfrwt beam="2">  1       -1 0.25660710E-02 0.86857254E+02</pdfrwt>
<totfact> 0.14724799E+05</totfact>
</mgrwt>
</event>
<event>
 8    1  0.2561077E-020  0.8049833E+02  0.7818608E-02  0.1327643E+00
         -1   -1    0    0    0  501 -0.00000000000E+00  0.00000000000E+00  0.45669463895E+02  0.45669464173E+02  0.50400000000E-02 0.  1.
          2   -1    0    0  501    0  0.00000000000E+00 -0.00000000000E+00 -0.35472179813E+02  0.35472179904E+02  0.25500000000E-02 0. -1.
         24    2    1    2    0    0  0.00000000000E+00  0.00000000000E+00  0.10197284082E+02  0.81141644078E+02  0.80498334150E+02 0.  0.
         66    2    3    3    0    0 -0.15616032960E+02 -0.29491335714E+02 -0.17536353263E+02  0.37750802048E+02  0.20000004904E+01 0.  0.
        -13    1    3    3    0    0  0.15616032960E+02  0.29491335714E+02  0.27733637346E+02  0.43390842029E+02  0.10566000000E+00 0.  1.
         13    1    4    4    0    0 -0.10609092490E+01 -0.14863660404E+01 -0.89194369555E+00  0.20350774020E+01  0.10566000000E+00 0. -1.
        -13    1    4    4    0    0 -0.73284423261E+01 -0.12419624537E+02 -0.76086315319E+01  0.16305078300E+02  0.10566000000E+00 0. -1.
         14    1    4    4    0    0 -0.72266813847E+01 -0.15585345137E+02 -0.90357780356E+01  0.19410646346E+02  0.00000000000E+00 0. -1.
<mgrwt>
<rscale>  0 0.80498334E+02</rscale>
<asrwt>0</asrwt>
<pdfrwt beam="1">  1        2 0.54572585E-02 0.80498334E+02</pdfrwt>
<pdfrwt beam="2">  1       -1 0.70260714E-02 0.80498334E+02</pdfrwt>
<totfact> 0.13673215E+05</totfact>
</mgrwt>
</event>
<event>
 8    1  0.2561077E-020  0.8103005E+02  0.7818608E-02  0.1326153E+00
          2   -1    0    0  501    0  0.00000000000E+00  0.00000000000E+00  0.36902956405E+03  0.36902956405E+03  0.25500000000E-02 0. -1.
         -1   -1    0    0    0  501 -0.00000000000E+00 -0.00000000000E+00 -0.44480628849E+01  0.44480657402E+01  0.50400000000E-02 0.  1.
         24    2    1    2    0    0  0.00000000000E+00  0.00000000000E+00  0.36458150116E+03  0.37347762979E+03  0.81030049786E+02 0.  0.
         66    2    3    3    0    0  0.41906823113E+00 -0.32555827775E+02  0.29334694652E+03  0.29515502463E+03  0.19999983791E+01 0.  0.
        -13    1    3    3    0    0 -0.41906823113E+00  0.32555827775E+02  0.71234554642E+02  0.78322605163E+02  0.10566000000E+00 0.  1.
         13    1    4    4    0    0 -0.63857255539E+00 -0.18285272911E+02  0.16690683844E+03  0.16790670881E+03  0.10566000000E+00 0. -1.
        -13    1    4    4    0    0  0.43724140608E+00 -0.45486086057E+01  0.38618979505E+02  0.38888529958E+02  0.10566000000E+00 0.  1.
        -14    1    4    4    0    0  0.62039938044E+00 -0.97219462590E+01  0.87821128575E+02  0.88359785868E+02  0.00000000000E+00 0.  1.
<mgrwt>
<rscale>  0 0.81030050E+02</rscale>
<asrwt>0</asrwt>
<pdfrwt beam="1">  1        2 0.56773796E-01 0.81030050E+02</pdfrwt>
<pdfrwt beam="2">  1       -1 0.68431738E-03 0.81030050E+02</pdfrwt>
<totfact> 0.26557661E+05</totfact>
</mgrwt>
</event>
<event>
 8    1  0.2561077E-020  0.8100545E+02  0.7818608E-02  0.1326222E+00
         -1   -1    0    0    0  501 -0.00000000000E+00  0.00000000000E+00  0.39648871193E+01  0.39648903226E+01  0.50400000000E-02 0.  1.
          2   -1    0    0  501    0  0.00000000000E+00 -0.00000000000E+00 -0.41374950659E+03  0.41374950660E+03  0.25500000000E-02 0. -1.
         24    2    1    2    0    0  0.17763568394E-14 -0.35527136788E-14 -0.40978461947E+03  0.41771439692E+03  0.81005450680E+02 0.  0.
         66    2    3    3    0    0 -0.10184682388E+02  0.20324239060E+02 -0.37771850024E+03  0.37840727778E+03  0.20000009493E+01 0.  0.
        -13    1    3    3    0    0  0.10184682388E+02 -0.20324239060E+02 -0.32066119234E+02  0.39307119145E+02  0.10566000000E+00 0.  1.
         13    1    4    4    0    0 -0.34426324675E+01  0.57467396027E+01 -0.10985601119E+03  0.11006012490E+03  0.10566000000E+00 0. -1.
        -13    1    4    4    0    0 -0.17957698668E+01  0.39183112998E+01 -0.62224951833E+02  0.62374143261E+02  0.10566000000E+00 0.  1.
         14    1    4    4    0    0 -0.49462800538E+01  0.10659188157E+02 -0.20563753722E+03  0.20597300962E+03  0.00000000000E+00 0. -1.
<mgrwt>
<rscale>  0 0.81005451E+02</rscale>
<asrwt>0</asrwt>
<pdfrwt beam="1">  1        2 0.63653736E-01 0.81005451E+02</pdfrwt>
<pdfrwt beam="2">  1       -1 0.60998321E-03 0.81005451E+02</pdfrwt>
<totfact> 0.27669847E+05</totfact>
</mgrwt>
</event>
<event>
 8    1  0.2561077E-020  0.7391162E+02  0.7818608E-02  0.1347275E+00
          2   -1    0    0  501    0  0.00000000000E+00  0.00000000000E+00  0.76523388992E+01  0.76523393241E+01  0.25500000000E-02 0. -1.
         -1   -1    0    0    0  501 -0.00000000000E+00 -0.00000000000E+00 -0.17847247274E+03  0.17847247281E+03  0.50400000000E-02 0.  1.
         24    2    1    2    0    0 -0.71054273576E-14 -0.22204460493E-15 -0.17082013384E+03  0.18612481213E+03  0.73911619972E+02 0.  0.
         66    2    3    3    0    0 -0.34811750501E+02 -0.19194517483E+01 -0.11612686682E+03  0.12126413923E+03  0.19999996068E+01 0.  0.
        -13    1    3    3    0    0  0.34811750501E+02  0.19194517483E+01 -0.54693267020E+02  0.64860672902E+02  0.10566000000E+00 0.  1.
         13    1    4    4    0    0 -0.21083297067E+02 -0.10691552348E+01 -0.72908103186E+02  0.75902906284E+02  0.10566000000E+00 0. -1.
        -13    1    4    4    0    0 -0.12154743747E+02 -0.92838209559E+00 -0.38793884342E+02  0.40664189593E+02  0.10566000000E+00 0.  1.
        -14    1    4    4    0    0 -0.15737096868E+01  0.78085582166E-01 -0.44248792923E+01  0.46970433560E+01  0.00000000000E+00 0.  1.
<mgrwt>
<rscale>  0 0.73911620E+02</rscale>
<asrwt>0</asrwt>
<pdfrwt beam="1">  1        2 0.11772831E-02 0.73911620E+02</pdfrwt>
<pdfrwt beam="2">  1       -1 0.27457300E-01 0.73911620E+02</pdfrwt>
<totfact> 0.12584346E+05</totfact>
</mgrwt>
</event>
<event>
 8    1  0.2561077E-020  0.8148777E+02  0.7818608E-02  0.1324882E+00
          2   -1    0    0  501    0  0.00000000000E+00  0.00000000000E+00  0.57482809885E+03  0.57482809886E+03  0.25500000000E-02 0. -1.
         -1   -1    0    0    0  501 -0.00000000000E+00 -0.00000000000E+00 -0.28879290971E+01  0.28879334950E+01  0.50400000000E-02 0.  1.
         24    2    1    2    0    0  0.00000000000E+00  0.00000000000E+00  0.57194016975E+03  0.57771603235E+03  0.81487767535E+02 0.  0.
         66    2    3    3    0    0 -0.38322824975E+02 -0.11744197684E+01  0.38336020150E+03  0.38527790264E+03  0.19999983665E+01 0.  0.
        -13    1    3    3    0    0  0.38322824975E+02  0.11744197684E+01  0.18857996825E+03  0.19243812971E+03  0.10566000000E+00 0.  1.
         13    1    4    4    0    0 -0.31376842954E+02 -0.88428932100E+00  0.31044776564E+03  0.31203063086E+03  0.10566000000E+00 0. -1.
        -13    1    4    4    0    0 -0.47365674565E+01 -0.54161549542E+00  0.48649519614E+02  0.48882669131E+02  0.10566000000E+00 0.  1.
         14    1    4    4    0    0 -0.22094145637E+01  0.25148504806E+00  0.24262916250E+02  0.24364602653E+02  0.00000000000E+00 0. -1.
<mgrwt>
<rscale>  0 0.81487768E+02</rscale>
<asrwt>0</asrwt>
<pdfrwt beam="1">  1        2 0.88435004E-01 0.81487768E+02</pdfrwt>
<pdfrwt beam="2">  1       -1 0.44429757E-03 0.81487768E+02</pdfrwt>
<totfact> 0.30284959E+05</totfact>
</mgrwt>
</event>
<event>
 8    1  0.2561077E-020  0.7855592E+02  0.7818608E-02  0.1333200E+00
         -1   -1    0    0    0  501 -0.00000000000E+00  0.00000000000E+00  0.23381774005E+03  0.23381774010E+03  0.50400000000E-02 0.  1.
          2   -1    0    0  501    0  0.00000000000E+00 -0.00000000000E+00 -0.65981227084E+01  0.65981232011E+01  0.25500000000E-02 0. -1.
         24    2    1    2    0    0  0.71054273576E-14 -0.71054273576E-14  0.22721961734E+03  0.24041586330E+03  0.78555921635E+02 0.  0.
         66    2    3    3    0    0  0.25875556538E+02 -0.20805567192E+02  0.49608281019E+02  0.59727695440E+02  0.20000011335E+01 0.  0.
        -13    1    3    3    0    0 -0.25875556538E+02  0.20805567192E+02  0.17761133632E+03  0.18068816786E+03  0.10566000000E+00 0.  1.
         13    1    4    4    0    0  0.27486589577E+01 -0.24185376410E+01  0.56517374698E+01  0.67348163189E+01  0.10566000000E+00 0.  1.
        -13    1    4    4    0    0  0.25951661074E+00 -0.27243742851E+00  0.93078106103E+00  0.10094991049E+01  0.10566000000E+00 0.  1.
         14    1    4    4    0    0  0.22867380970E+02 -0.18114592122E+02  0.43025762488E+02  0.51983380016E+02  0.00000000000E+00 0. -1.
<mgrwt>
<rscale>  0 0.78555922E+02</rscale>
<asrwt>0</asrwt>
<pdfrwt beam="1">  1        2 0.10150957E-02 0.78555922E+02</pdfrwt>
<pdfrwt beam="2">  1       -1 0.35971967E-01 0.78555922E+02</pdfrwt>
<totfact> 0.99274882E+04</totfact>
</mgrwt>
</event>
<event>
 8    1  0.2561077E-020  0.7727283E+02  0.7818608E-02  0.1336974E+00
          2   -1    0    0  501    0  0.00000000000E+00  0.00000000000E+00  0.72223330183E+01  0.72223334685E+01  0.25500000000E-02 0. -1.
         -1   -1    0    0    0  501 -0.00000000000E+00 -0.00000000000E+00 -0.20668840569E+03  0.20668840575E+03  0.50400000000E-02 0.  1.
         24    2    1    2    0    0  0.35527136788E-14 -0.35527136788E-14 -0.19946607267E+03  0.21391073922E+03  0.77272829678E+02 0.  0.
         66    2    3    3    0    0 -0.21962499820E+02  0.31543170093E+02 -0.10995000153E+03  0.11649174141E+03  0.20000005290E+01 0.  0.
        -13    1    3    3    0    0  0.21962499820E+02 -0.31543170093E+02 -0.89516071144E+02  0.97418997813E+02  0.10566000000E+00 0.  1.
         13    1    4    4    0    0 -0.63041670488E+01  0.98970150585E+01 -0.32529279243E+02  0.34581188547E+02  0.10566000000E+00 0. -1.
        -13    1    4    4    0    0 -0.10948321139E+02  0.14226817765E+02 -0.51144238358E+02  0.54203434953E+02  0.10566000000E+00 0.  1.
         14    1    4    4    0    0 -0.47100116321E+01  0.74193372699E+01 -0.26276483927E+02  0.27707117906E+02  0.00000000000E+00 0. -1.
<mgrwt>
<rscale>  0 0.77272830E+02</rscale>
<asrwt>0</asrwt>
<pdfrwt beam="1">  1        2 0.11111283E-02 0.77272830E+02</pdfrwt>
<pdfrwt beam="2">  1       -1 0.31798212E-01 0.77272830E+02</pdfrwt>
<totfact> 0.10770834E+05</totfact>
</mgrwt>
</event>
<event>
 8    1  0.2561077E-020  0.7778053E+02  0.7818608E-02  0.1335471E+00
          2   -1    0    0  501    0  0.00000000000E+00  0.00000000000E+00  0.61569108344E+02  0.61569108397E+02  0.25500000000E-02 0. -1.
         -1   -1    0    0    0  501 -0.00000000000E+00 -0.00000000000E+00 -0.24565120792E+02  0.24565121309E+02  0.50400000000E-02 0.  1.
         24    2    1    2    0    0  0.00000000000E+00  0.00000000000E+00  0.37003987553E+02  0.86134229705E+02  0.77780527333E+02 0.  0.
         66    2    3    3    0    0 -0.19216884014E+02 -0.32031353919E+02  0.30397560515E+02  0.48200704858E+02  0.19999996157E+01 0.  0.
        -13    1    3    3    0    0  0.19216884014E+02  0.32031353919E+02  0.66064270373E+01  0.37933524847E+02  0.10566000000E+00 0.  1.
         13    1    4    4    0    0 -0.10294160220E+02 -0.17362345741E+02  0.16597846751E+02  0.26132746987E+02  0.10566000000E+00 0. -1.
        -13    1    4    4    0    0 -0.43994156226E+01 -0.59779287958E+01  0.60052893467E+01  0.95480445475E+01  0.10566000000E+00 0.  1.
         14    1    4    4    0    0 -0.45233081712E+01 -0.86910793819E+01  0.77944244177E+01  0.12519913324E+02  0.00000000000E+00 0. -1.
<mgrwt>
<rscale>  0 0.77780527E+02</rscale>
<asrwt>0</asrwt>
<pdfrwt beam="1">  1        2 0.94721705E-02 0.77780527E+02</pdfrwt>
<pdfrwt beam="2">  1       -1 0.37792494E-02 0.77780527E+02</pdfrwt>
<totfact> 0.16901911E+05</totfact>
</mgrwt>
</event>
<event>
 8    1  0.2561077E-020  0.8135579E+02  0.7818608E-02  0.1325247E+00
         -1   -1    0    0    0  501 -0.00000000000E+00  0.00000000000E+00  0.28159594844E+01  0.28159639947E+01  0.50400000000E-02 0.  1.
          2   -1    0    0  501    0  0.00000000000E+00 -0.00000000000E+00 -0.58761143002E+03  0.58761143002E+03  0.25500000000E-02 0. -1.
         24    2    1    2    0    0  0.00000000000E+00 -0.88817841970E-15 -0.58479547053E+03  0.59042739402E+03  0.81355794204E+02 0.  0.
         66    2    3    3    0    0 -0.33354782438E+02 -0.63864800710E+01 -0.45474894122E+03  0.45601965767E+03  0.20000007801E+01 0.  0.
        -13    1    3    3    0    0  0.33354782438E+02  0.63864800710E+01 -0.13004652931E+03  0.13440773634E+03  0.10566000000E+00 0.  1.
         13    1    4    4    0    0 -0.33881571066E+01 -0.11440257331E+01 -0.50096203820E+02  0.50223791222E+02  0.10566000000E+00 0.  1.
        -13    1    4    4    0    0 -0.17655846035E+02 -0.34727417050E+01 -0.23535647891E+03  0.23604336924E+03  0.10566000000E+00 0. -1.
         14    1    4    4    0    0 -0.12310779296E+02 -0.17697126329E+01 -0.16929625849E+03  0.16975249721E+03  0.00000000000E+00 0. -1.
<mgrwt>
<rscale>  0 0.81355794E+02</rscale>
<asrwt>0</asrwt>
<pdfrwt beam="1">  1        2 0.90401661E-01 0.81355794E+02</pdfrwt>
<pdfrwt beam="2">  1       -1 0.43322535E-03 0.81355794E+02</pdfrwt>
<totfact> 0.30605923E+05</totfact>
</mgrwt>
</event>
<event>
 8    1  0.2561077E-020  0.7757208E+02  0.7818608E-02  0.1336086E+00
         -1   -1    0    0    0  501 -0.00000000000E+00  0.00000000000E+00  0.51416460070E+02  0.51416460317E+02  0.50400000000E-02 0.  1.
          2   -1    0    0  501    0  0.00000000000E+00 -0.00000000000E+00 -0.29258272967E+02  0.29258273078E+02  0.25500000000E-02 0. -1.
         24    2    1    2    0    0 -0.17763568394E-14  0.35527136788E-14  0.22158187103E+02  0.80674733395E+02  0.77572078435E+02 0.  0.
         66    2    3    3    0    0  0.13085282878E+02 -0.30238084183E+02 -0.10145441781E+02  0.34532540490E+02  0.20000001788E+01 0.  0.
        -13    1    3    3    0    0 -0.13085282878E+02  0.30238084183E+02  0.32303628883E+02  0.46142192905E+02  0.10566000000E+00 0.  1.
         13    1    4    4    0    0  0.39857101587E+01 -0.79930038550E+01 -0.28338799686E+01  0.93710210653E+01  0.10566000000E+00 0. -1.
        -13    1    4    4    0    0  0.60851538615E+01 -0.16113414530E+02 -0.47848857656E+01  0.17876731277E+02  0.10566000000E+00 0.  1.
        -14    1    4    4    0    0  0.30144188583E+01 -0.61316657977E+01 -0.25266760464E+01  0.72847881473E+01  0.00000000000E+00 0.  1.
<mgrwt>
<rscale>  0 0.77572078E+02</rscale>
<asrwt>0</asrwt>
<pdfrwt beam="1">  1        2 0.45012728E-02 0.77572078E+02</pdfrwt>
<pdfrwt beam="2">  1       -1 0.79102247E-02 0.77572078E+02</pdfrwt>
<totfact> 0.14595251E+05</totfact>
</mgrwt>
</event>
<event>
 8    1  0.2561077E-020  0.7804558E+02  0.7818608E-02  0.1334691E+00
         -1   -1    0    0    0  501 -0.00000000000E+00  0.00000000000E+00  0.50807537372E+01  0.50807562369E+01  0.50400000000E-02 0.  1.
          2   -1    0    0  501    0  0.00000000000E+00 -0.00000000000E+00 -0.29971494624E+03  0.29971494625E+03  0.25500000000E-02 0. -1.
         24    2    1    2    0    0  0.00000000000E+00  0.00000000000E+00 -0.29463419250E+03  0.30479570248E+03  0.78045581958E+02 0.  0.
         66    2    3    3    0    0 -0.66113448902E+01 -0.37798167232E+02 -0.17457248655E+03  0.17875112415E+03  0.19999995701E+01 0.  0.
        -13    1    3    3    0    0  0.66113448902E+01  0.37798167232E+02 -0.12006170595E+03  0.12604457834E+03  0.10566000000E+00 0.  1.
         13    1    4    4    0    0 -0.27704108507E+01 -0.18915844688E+02 -0.85184322670E+02  0.87303289453E+02  0.10566000000E+00 0. -1.
        -13    1    4    4    0    0 -0.12449646337E+01 -0.54367100912E+01 -0.23735188104E+02  0.24381921006E+02  0.10566000000E+00 0.  1.
        -14    1    4    4    0    0 -0.25959694058E+01 -0.13445612452E+02 -0.65652975771E+02  0.67065913689E+02  0.00000000000E+00 0.  1.
<mgrwt>
<rscale>  0 0.78045582E+02</rscale>
<asrwt>0</asrwt>
<pdfrwt beam="1">  1        2 0.46109978E-01 0.78045582E+02</pdfrwt>
<pdfrwt beam="2">  1       -1 0.78165485E-03 0.78045582E+02</pdfrwt>
<totfact> 0.27190983E+05</totfact>
</mgrwt>
</event>
<event>
 8    1  0.2561077E-020  0.8032037E+02  0.7818608E-02  0.1328145E+00
         -1   -1    0    0    0  501 -0.00000000000E+00  0.00000000000E+00  0.29195807396E+01  0.29195850898E+01  0.50400000000E-02 0.  1.
          2   -1    0    0  501    0  0.00000000000E+00 -0.00000000000E+00 -0.55242149621E+03  0.55242149621E+03  0.25500000000E-02 0. -1.
         24    2    1    2    0    0 -0.35527136788E-14  0.00000000000E+00 -0.54950191547E+03  0.55534108130E+03  0.80320367779E+02 0.  0.
         66    2    3    3    0    0  0.28787504746E+02  0.18844267660E+02 -0.41779456765E+03  0.41921370167E+03  0.20000137591E+01 0.  0.
        -13    1    3    3    0    0 -0.28787504746E+02 -0.18844267660E+02 -0.13170734782E+03  0.13612737963E+03  0.10566000000E+00 0.  1.
         13    1    4    4    0    0  0.36854769985E+01  0.25742975044E+01 -0.58850371261E+02  0.59021920589E+02  0.10566000000E+00 0. -1.
        -13    1    4    4    0    0  0.11279730935E+02  0.80140655712E+01 -0.17171679326E+03  0.17227340429E+03  0.10566000000E+00 0.  1.
         14    1    4    4    0    0  0.13822296812E+02  0.82559045844E+01 -0.18722740314E+03  0.18791837679E+03  0.00000000000E+00 0. -1.
<mgrwt>
<rscale>  0 0.80320368E+02</rscale>
<asrwt>0</asrwt>
<pdfrwt beam="1">  1        2 0.84987840E-01 0.80320368E+02</pdfrwt>
<pdfrwt beam="2">  1       -1 0.44916704E-03 0.80320368E+02</pdfrwt>
<totfact> 0.31079221E+05</totfact>
</mgrwt>
</event>
<event>
 8    1  0.2561077E-020  0.8144471E+02  0.7818608E-02  0.1325001E+00
          2   -1    0    0  501    0  0.00000000000E+00  0.00000000000E+00  0.90146637001E+02  0.90146637038E+02  0.25500000000E-02 0. -1.
         -1   -1    0    0    0  501 -0.00000000000E+00 -0.00000000000E+00 -0.18395698128E+02  0.18395698819E+02  0.50400000000E-02 0.  1.
         24    2    1    2    0    0  0.00000000000E+00  0.00000000000E+00  0.71750938873E+02  0.10854233586E+03  0.81444714034E+02 0.  0.
         66    2    3    3    0    0 -0.20067672962E+02 -0.33560899827E+02  0.50931301619E+02  0.64242065488E+02  0.19999995596E+01 0.  0.
        -13    1    3    3    0    0  0.20067672962E+02  0.33560899827E+02  0.20819637254E+02  0.44300270369E+02  0.10566000000E+00 0.  1.
         13    1    4    4    0    0 -0.11245267832E+02 -0.19310662089E+02  0.29348254159E+02  0.36887516928E+02  0.10566000000E+00 0. -1.
        -13    1    4    4    0    0 -0.43145554793E+01 -0.69629253316E+01  0.11552090888E+02  0.14161909690E+02  0.10566000000E+00 0.  1.
         14    1    4    4    0    0 -0.45078496505E+01 -0.72873124063E+01  0.10030956572E+02  0.13192638869E+02  0.00000000000E+00 0. -1.
<mgrwt>
<rscale>  0 0.81444714E+02</rscale>
<asrwt>0</asrwt>
<pdfrwt beam="1">  1        2 0.13868713E-01 0.81444714E+02</pdfrwt>
<pdfrwt beam="2">  1       -1 0.28301075E-02 0.81444714E+02</pdfrwt>
<totfact> 0.16418687E+05</totfact>
</mgrwt>
</event>
<event>
 8    1  0.2561077E-020  0.8882734E+02  0.7818608E-02  0.1305717E+00
         -1   -1    0    0    0  501 -0.00000000000E+00  0.00000000000E+00  0.13401053820E+02  0.13401054768E+02  0.50400000000E-02 0.  1.
          2   -1    0    0  501    0  0.00000000000E+00 -0.00000000000E+00 -0.14719545368E+03  0.14719545370E+03  0.25500000000E-02 0. -1.
         24    2    1    2    0    0 -0.35527136788E-14  0.35527136788E-14 -0.13379439986E+03  0.16059650847E+03  0.88827344320E+02 0.  0.
         66    2    3    3    0    0  0.19874417522E+02 -0.18199194438E+02 -0.13070793247E+03  0.13347196986E+03  0.19999940296E+01 0.  0.
        -13    1    3    3    0    0 -0.19874417522E+02  0.18199194438E+02 -0.30864673867E+01  0.27124538613E+02  0.10566000000E+00 0.  1.
         13    1    4    4    0    0  0.11832922843E+02 -0.10244681488E+02 -0.77459024477E+02  0.79024573386E+02  0.10566000000E+00 0. -1.
        -13    1    4    4    0    0  0.24271173374E+01 -0.31016260346E+01 -0.18324309410E+02  0.18743064371E+02  0.10566000000E+00 0.  1.
        -14    1    4    4    0    0  0.56143773417E+01 -0.48528869147E+01 -0.34924598586E+02  0.35704332100E+02  0.00000000000E+00 0.  1.
<mgrwt>
<rscale>  0 0.88827344E+02</rscale>
<asrwt>0</asrwt>
<pdfrwt beam="1">  1        2 0.22645453E-01 0.88827344E+02</pdfrwt>
<pdfrwt beam="2">  1       -1 0.20617008E-02 0.88827344E+02</pdfrwt>
<totfact> 0.15055203E+05</totfact>
</mgrwt>
</event>
<event>
 8    1  0.2561077E-020  0.7931631E+02  0.7818608E-02  0.1331003E+00
          2   -1    0    0  501    0  0.00000000000E+00  0.00000000000E+00  0.17281069904E+02  0.17281070092E+02  0.25500000000E-02 0. -1.
         -1   -1    0    0    0  501 -0.00000000000E+00 -0.00000000000E+00 -0.91011102668E+02  0.91011102808E+02  0.50400000000E-02 0.  1.
         24    2    1    2    0    0  0.35527136788E-14  0.88817841970E-15 -0.73730032764E+02  0.10829217290E+03  0.79316309673E+02 0.  0.
         66    2    3    3    0    0 -0.21594225294E+02 -0.71011040416E+01  0.74378248842E+01  0.24001197559E+02  0.20000001521E+01 0.  0.
        -13    1    3    3    0    0  0.21594225294E+02  0.71011040416E+01 -0.81167857648E+02  0.84290975341E+02  0.10566000000E+00 0.  1.
         13    1    4    4    0    0 -0.83772967022E+01 -0.23565133892E+01  0.33447239366E+01  0.93236579537E+01  0.10566000000E+00 0. -1.
        -13    1    4    4    0    0 -0.35946913967E+00 -0.28315937250E+00  0.13890909361E-01  0.46984495908E+00  0.10566000000E+00 0. -1.
        -14    1    4    4    0    0 -0.12857459452E+02 -0.44614312799E+01  0.40792100382E+01  0.14207694647E+02  0.00000000000E+00 0.  1.
<mgrwt>
<rscale>  0 0.79316310E+02</rscale>
<asrwt>0</asrwt>
<pdfrwt beam="1">  1        2 0.26586262E-02 0.79316310E+02</pdfrwt>
<pdfrwt beam="2">  1       -1 0.14001708E-01 0.79316310E+02</pdfrwt>
<totfact> 0.12351706E+05</totfact>
</mgrwt>
</event>
<event>
 8    1  0.2561077E-020  0.8080098E+02  0.7818608E-02  0.1326794E+00
         -1   -1    0    0    0  501 -0.00000000000E+00  0.00000000000E+00  0.76242458917E+02  0.76242459084E+02  0.50400000000E-02 0.  1.
          2   -1    0    0  501    0  0.00000000000E+00 -0.00000000000E+00 -0.21408013608E+02  0.21408013760E+02  0.25500000000E-02 0. -1.
         24    2    1    2    0    0  0.44408920985E-15  0.00000000000E+00  0.54834445309E+02  0.97650472844E+02  0.80800980528E+02 0.  0.
         66    2    3    3    0    0 -0.25615015310E+01  0.34840745452E+02  0.29703795068E+01  0.35117830813E+02  0.20000132217E+01 0.  0.
        -13    1    3    3    0    0  0.25615015310E+01 -0.34840745452E+02  0.51864065802E+02  0.62532642030E+02  0.10566000000E+00 0.  1.
         13    1    4    4    0    0  0.12347630994E+00  0.67843795438E+01  0.66297730586E+00  0.68186329375E+01  0.10566000000E+00 0. -1.
        -13    1    4    4    0    0 -0.68203220120E+00  0.35379260187E+01  0.25577523745E+00  0.36136786582E+01  0.10566000000E+00 0.  1.
         14    1    4    4    0    0 -0.20029456397E+01  0.24518439889E+02  0.20516269635E+01  0.24685519218E+02  0.00000000000E+00 0. -1.
<mgrwt>
<rscale>  0 0.80800981E+02</rscale>
<asrwt>0</asrwt>
<pdfrwt beam="1">  1        2 0.32935406E-02 0.80800981E+02</pdfrwt>
<pdfrwt beam="2">  1       -1 0.11729609E-01 0.80800981E+02</pdfrwt>
<totfact> 0.12233019E+05</totfact>
</mgrwt>
</event>
<event>
 8    1  0.2561077E-020  0.7957180E+02  0.7818608E-02  0.1330271E+00
         -1   -1    0    0    0  501 -0.00000000000E+00  0.00000000000E+00  0.42124878399E+02  0.42124878700E+02  0.50400000000E-02 0.  1.
          2   -1    0    0  501    0  0.00000000000E+00 -0.00000000000E+00 -0.37576791139E+02  0.37576791225E+02  0.25500000000E-02 0. -1.
         24    2    1    2    0    0  0.00000000000E+00 -0.35527136788E-14  0.45480872597E+01  0.79701669926E+02  0.79571798341E+02 0.  0.
         66    2    3    3    0    0  0.12179483298E+02 -0.30768599125E+02  0.24353827624E+02  0.41135816882E+02  0.20000012738E+01 0.  0.
        -13    1    3    3    0    0 -0.12179483298E+02  0.30768599125E+02 -0.19805740365E+02  0.38565853043E+02  0.10566000000E+00 0.  1.
         13    1    4    4    0    0  0.36863168125E+01 -0.95194205212E+01  0.69047586612E+01  0.12324575242E+02  0.10566000000E+00 0. -1.
        -13    1    4    4    0    0  0.48730718946E+01 -0.10431343087E+02  0.84664332076E+01  0.14291655033E+02  0.10566000000E+00 0. -1.
         14    1    4    4    0    0  0.36200945906E+01 -0.10817835517E+02  0.89826357554E+01  0.14519586607E+02  0.00000000000E+00 0. -1.
<mgrwt>
<rscale>  0 0.79571798E+02</rscale>
<asrwt>0</asrwt>
<pdfrwt beam="1">  1        2 0.57810448E-02 0.79571798E+02</pdfrwt>
<pdfrwt beam="2">  1       -1 0.64807506E-02 0.79571798E+02</pdfrwt>
<totfact> 0.14285276E+05</totfact>
</mgrwt>
</event>
<event>
 8    1  0.2561077E-020  0.7984242E+02  0.7818608E-02  0.1329499E+00
         -1   -1    0    0    0  501 -0.00000000000E+00  0.00000000000E+00  0.32636115018E+01  0.32636153934E+01  0.50400000000E-02 0.  1.
          2   -1    0    0  501    0  0.00000000000E+00 -0.00000000000E+00 -0.48832474144E+03  0.48832474145E+03  0.25500000000E-02 0. -1.
         24    2    1    2    0    0  0.00000000000E+00 -0.88817841970E-15 -0.48506112994E+03  0.49158835684E+03  0.79842424837E+02 0.  0.
         66    2    3    3    0    0 -0.12508105252E+02  0.68834300830E+01 -0.47205480348E+03  0.47227489007E+03  0.19999992563E+01 0.  0.
        -13    1    3    3    0    0  0.12508105252E+02 -0.68834300830E+01 -0.13006326463E+02  0.19313466773E+02  0.10566000000E+00 0.  1.
         13    1    4    4    0    0 -0.68840700105E+01  0.40678220744E+01 -0.28288558499E+03  0.28299859179E+03  0.10566000000E+00 0. -1.
        -13    1    4    4    0    0 -0.47269075239E+01  0.19708299089E+01 -0.14784848465E+03  0.14793719412E+03  0.10566000000E+00 0.  1.
         14    1    4    4    0    0 -0.89712771754E+00  0.84477809963E+00 -0.41320733830E+02  0.41339104156E+02  0.00000000000E+00 0. -1.
<mgrwt>
<rscale>  0 0.79842425E+02</rscale>
<asrwt>0</asrwt>
<pdfrwt beam="1">  1        2 0.75126826E-01 0.79842425E+02</pdfrwt>
<pdfrwt beam="2">  1       -1 0.50209477E-03 0.79842425E+02</pdfrwt>
<totfact> 0.30377133E+05</totfact>
</mgrwt>
</event>
<event>
 8    1  0.2561077E-020  0.7950131E+02  0.7818608E-02  0.1330473E+00
         -1   -1    0    0    0  501 -0.00000000000E+00  0.00000000000E+00  0.12750038042E+01  0.12750137655E+01  0.50400000000E-02 0.  1.
          2   -1    0    0  501    0  0.00000000000E+00 -0.00000000000E+00 -0.12392970799E+04  0.12392970799E+04  0.25500000000E-02 0. -1.
         24    2    1    2    0    0  0.00000000000E+00  0.00000000000E+00 -0.12380220761E+04  0.12405720937E+04  0.79501312489E+02 0.  0.
         66    2    3    3    0    0 -0.15207935325E+01 -0.10850228143E+02 -0.12152515191E+04  0.12153025529E+04  0.19999973301E+01 0.  0.
        -13    1    3    3    0    0  0.15207935325E+01  0.10850228143E+02 -0.22770556946E+02  0.25269540783E+02  0.10566000000E+00 0.  1.
         13    1    4    4    0    0 -0.56866187725E+00 -0.32301771645E+01 -0.33868460954E+03  0.33870050683E+03  0.10566000000E+00 0. -1.
        -13    1    4    4    0    0 -0.85479781254E+00 -0.69622245069E+01 -0.83834939544E+03  0.83837874690E+03  0.10566000000E+00 0.  1.
        -14    1    4    4    0    0 -0.97333842759E-01 -0.65782647150E+00 -0.38217514156E+02  0.38223299149E+02  0.00000000000E+00 0.  1.
<mgrwt>
<rscale>  0 0.79501312E+02</rscale>
<asrwt>0</asrwt>
<pdfrwt beam="1">  1        2 0.19066013E+00 0.79501312E+02</pdfrwt>
<pdfrwt beam="2">  1       -1 0.19615619E-03 0.79501312E+02</pdfrwt>
<totfact> 0.35466844E+05</totfact>
</mgrwt>
</event>
<event>
 8    1  0.2561077E-020  0.7786147E+02  0.7818608E-02  0.1335232E+00
         -1   -1    0    0    0  501 -0.00000000000E+00  0.00000000000E+00  0.27216595124E+02  0.27216595590E+02  0.50400000000E-02 0.  1.
          2   -1    0    0  501    0  0.00000000000E+00 -0.00000000000E+00 -0.55686691336E+02  0.55686691394E+02  0.25500000000E-02 0. -1.
         24    2    1    2    0    0  0.00000000000E+00 -0.44408920985E-15 -0.28470096212E+02  0.82903286984E+02  0.77861470668E+02 0.  0.
         66    2    3    3    0    0 -0.37171950136E+02  0.29846233135E+01 -0.26050001161E+02  0.45533113352E+02  0.19999994419E+01 0.  0.
        -13    1    3    3    0    0  0.37171950136E+02 -0.29846233135E+01 -0.24200950503E+01  0.37370173633E+02  0.10566000000E+00 0.  1.
         13    1    4    4    0    0 -0.18161325613E+02  0.17487298272E+01 -0.11939874399E+02  0.21805127120E+02  0.10566000000E+00 0. -1.
        -13    1    4    4    0    0 -0.15663148108E+02  0.63958884496E+00 -0.11596739828E+02  0.19499713362E+02  0.10566000000E+00 0.  1.
        -14    1    4    4    0    0 -0.33474764153E+01  0.59630464138E+00 -0.25133869338E+01  0.42282728691E+01  0.00000000000E+00 0.  1.
<mgrwt>
<rscale>  0 0.77861471E+02</rscale>
<asrwt>0</asrwt>
<pdfrwt beam="1">  1        2 0.85671833E-02 0.77861471E+02</pdfrwt>
<pdfrwt beam="2">  1       -1 0.41871685E-02 0.77861471E+02</pdfrwt>
<totfact> 0.16475457E+05</totfact>
</mgrwt>
</event>
<event>
 8    1  0.2561077E-020  0.7972554E+02  0.7818608E-02  0.1329832E+00
          2   -1    0    0  501    0  0.00000000000E+00  0.00000000000E+00  0.55597842514E+03  0.55597842514E+03  0.25500000000E-02 0. -1.
         -1   -1    0    0    0  501 -0.00000000000E+00 -0.00000000000E+00 -0.28580950165E+01  0.28580994603E+01  0.50400000000E-02 0.  1.
         24    2    1    2    0    0  0.00000000000E+00  0.00000000000E+00  0.55312033012E+03  0.55883652461E+03  0.79725539433E+02 0.  0.
         66    2    3    3    0    0  0.11335525412E+02  0.21675620306E+02  0.49713875930E+03  0.49774418394E+03  0.19999992872E+01 0.  0.
        -13    1    3    3    0    0 -0.11335525412E+02 -0.21675620306E+02  0.55981570825E+02  0.61092340666E+02  0.10566000000E+00 0.  1.
         13    1    4    4    0    0  0.10443348218E+02  0.20016417790E+02  0.45694056695E+03  0.45749799277E+03  0.10566000000E+00 0. -1.
        -13    1    4    4    0    0  0.94239778522E+00  0.14044616764E+01  0.36131061414E+02  0.36170780875E+02  0.10566000000E+00 0.  1.
         14    1    4    4    0    0 -0.50220591866E-01  0.25474083922E+00  0.40671309332E+01  0.40754102898E+01  0.00000000000E+00 0. -1.
<mgrwt>
<rscale>  0 0.79725539E+02</rscale>
<asrwt>0</asrwt>
<pdfrwt beam="1">  1        2 0.85535133E-01 0.79725539E+02</pdfrwt>
<pdfrwt beam="2">  1       -1 0.43970732E-03 0.79725539E+02</pdfrwt>
<totfact> 0.31747399E+05</totfact>
</mgrwt>
</event>
<event>
 8    1  0.2561077E-020  0.8278010E+02  0.7818608E-02  0.1321342E+00
          2   -1    0    0  501    0  0.00000000000E+00  0.00000000000E+00  0.24727904723E+03  0.24727904724E+03  0.25500000000E-02 0. -1.
         -1   -1    0    0    0  501 -0.00000000000E+00 -0.00000000000E+00 -0.69279459475E+01  0.69279477807E+01  0.50400000000E-02 0.  1.
         24    2    1    2    0    0  0.00000000000E+00  0.17763568394E-14  0.24035110128E+03  0.25420699502E+03  0.82780096830E+02 0.  0.
         66    2    3    3    0    0  0.31361338028E+02 -0.14304790505E+02  0.19047186832E+03  0.19357606563E+03  0.20000021579E+01 0.  0.
        -13    1    3    3    0    0 -0.31361338028E+02  0.14304790505E+02  0.49879232958E+02  0.60630929391E+02  0.10566000000E+00 0.  1.
         13    1    4    4    0    0  0.66720734018E+01 -0.30888428910E+01  0.39035184695E+02  0.39721710967E+02  0.10566000000E+00 0. -1.
        -13    1    4    4    0    0  0.91808980155E+01 -0.45680265877E+01  0.53273450397E+02  0.54251520131E+02  0.10566000000E+00 0. -1.
        -14    1    4    4    0    0  0.15508366610E+02 -0.66479210264E+01  0.98163233227E+02  0.99602834531E+02  0.00000000000E+00 0.  1.
<mgrwt>
<rscale>  0 0.82780097E+02</rscale>
<asrwt>0</asrwt>
<pdfrwt beam="1">  1        2 0.38042928E-01 0.82780097E+02</pdfrwt>
<pdfrwt beam="2">  1       -1 0.10658380E-02 0.82780097E+02</pdfrwt>
<totfact> 0.21729192E+05</totfact>
</mgrwt>
</event>
<event>
 8    1  0.2561077E-020  0.8166936E+02  0.7818608E-02  0.1324380E+00
          2   -1    0    0  501    0  0.00000000000E+00  0.00000000000E+00  0.13672806196E+03  0.13672806198E+03  0.25500000000E-02 0. -1.
         -1   -1    0    0    0  501 -0.00000000000E+00 -0.00000000000E+00 -0.12195528223E+02  0.12195529264E+02  0.50400000000E-02 0.  1.
         24    2    1    2    0    0 -0.71054273576E-14  0.17763568394E-14  0.12453253374E+03  0.14892359125E+03  0.81669358213E+02 0.  0.
         66    2    3    3    0    0  0.29026471169E+02 -0.13083578059E+02  0.10885620438E+03  0.11343451533E+03  0.19999980164E+01 0.  0.
        -13    1    3    3    0    0 -0.29026471169E+02  0.13083578059E+02  0.15676329353E+02  0.35489075916E+02  0.10566000000E+00 0.  1.
         13    1    4    4    0    0  0.34095467091E+01 -0.16329340930E+01  0.11768305036E+02  0.12361053756E+02  0.10566000000E+00 0. -1.
        -13    1    4    4    0    0  0.17548104306E+01 -0.12083574834E+01  0.77345121435E+01  0.80232991710E+01  0.10566000000E+00 0.  1.
        -14    1    4    4    0    0  0.23862114030E+02 -0.10242286483E+02  0.89353387203E+02  0.93050162402E+02  0.00000000000E+00 0.  1.
<mgrwt>
<rscale>  0 0.81669358E+02</rscale>
<asrwt>0</asrwt>
<pdfrwt beam="1">  1        2 0.21035086E-01 0.81669358E+02</pdfrwt>
<pdfrwt beam="2">  1       -1 0.18762353E-02 0.81669358E+02</pdfrwt>
<totfact> 0.18408749E+05</totfact>
</mgrwt>
</event>
<event>
 8    1  0.2561077E-020  0.8591998E+02  0.7818608E-02  0.1313044E+00
          2   -1    0    0  501    0  0.00000000000E+00  0.00000000000E+00  0.78915935710E+03  0.78915935710E+03  0.25500000000E-02 0. -1.
         -1   -1    0    0    0  501 -0.00000000000E+00 -0.00000000000E+00 -0.23386386415E+01  0.23386440724E+01  0.50400000000E-02 0.  1.
         24    2    1    2    0    0  0.00000000000E+00  0.00000000000E+00  0.78682071846E+03  0.79149800118E+03  0.85919979462E+02 0.  0.
         66    2    3    3    0    0 -0.16027933776E+02 -0.10308051374E+02  0.74806555379E+03  0.74831091356E+03  0.20000005351E+01 0.  0.
        -13    1    3    3    0    0  0.16027933776E+02  0.10308051374E+02  0.38755164672E+02  0.43187087619E+02  0.10566000000E+00 0.  1.
         13    1    4    4    0    0 -0.96174680664E+01 -0.66297266282E+01  0.43787355311E+03  0.43802934679E+03  0.10566000000E+00 0. -1.
        -13    1    4    4    0    0 -0.13247895835E+01 -0.12280355954E+01  0.75898286046E+02  0.75919853317E+02  0.10566000000E+00 0. -1.
         14    1    4    4    0    0 -0.50856761266E+01 -0.24502891504E+01  0.23429371463E+03  0.23436171346E+03  0.00000000000E+00 0. -1.
<mgrwt>
<rscale>  0 0.85919979E+02</rscale>
<asrwt>0</asrwt>
<pdfrwt beam="1">  1        2 0.12140907E+00 0.85919979E+02</pdfrwt>
<pdfrwt beam="2">  1       -1 0.35979117E-03 0.85919979E+02</pdfrwt>
<totfact> 0.28461020E+05</totfact>
</mgrwt>
</event>
<event>
 8    1  0.2561077E-020  0.8138296E+02  0.7818608E-02  0.1325172E+00
         -1   -1    0    0    0  501 -0.00000000000E+00  0.00000000000E+00  0.48618465079E+02  0.48618465340E+02  0.50400000000E-02 0.  1.
          2   -1    0    0  501    0  0.00000000000E+00 -0.00000000000E+00 -0.34056945641E+02  0.34056945736E+02  0.25500000000E-02 0. -1.
         24    2    1    2    0    0  0.00000000000E+00  0.00000000000E+00  0.14561519438E+02  0.82675411076E+02  0.81382957357E+02 0.  0.
         66    2    3    3    0    0 -0.12734233208E+02 -0.17104614632E+02 -0.27892267087E+02  0.35166846675E+02  0.20000011707E+01 0.  0.
        -13    1    3    3    0    0  0.12734233208E+02  0.17104614632E+02  0.42453786525E+02  0.47508564401E+02  0.10566000000E+00 0.  1.
         13    1    4    4    0    0 -0.66401627594E+01 -0.80022317816E+01 -0.14625709579E+02  0.17945752135E+02  0.10566000000E+00 0. -1.
        -13    1    4    4    0    0 -0.10059429046E+01 -0.14264842608E+01 -0.17326787635E+01  0.24617307340E+01  0.10566000000E+00 0.  1.
         14    1    4    4    0    0 -0.50881275435E+01 -0.76758985897E+01 -0.11533878744E+02  0.14759363806E+02  0.00000000000E+00 0. -1.
<mgrwt>
<rscale>  0 0.81382957E+02</rscale>
<asrwt>0</asrwt>
<pdfrwt beam="1">  1        2 0.52395302E-02 0.81382957E+02</pdfrwt>
<pdfrwt beam="2">  1       -1 0.74797639E-02 0.81382957E+02</pdfrwt>
<totfact> 0.13154237E+05</totfact>
</mgrwt>
</event>
<event>
 8    1  0.2561077E-020  0.8011106E+02  0.7818608E-02  0.1328737E+00
         -1   -1    0    0    0  501 -0.00000000000E+00  0.00000000000E+00  0.13815271672E+03  0.13815271681E+03  0.50400000000E-02 0.  1.
          2   -1    0    0  501    0  0.00000000000E+00 -0.00000000000E+00 -0.11613564919E+02  0.11613565199E+02  0.25500000000E-02 0. -1.
         24    2    1    2    0    0  0.44408920985E-15  0.00000000000E+00  0.12653915180E+03  0.14976628201E+03  0.80111062215E+02 0.  0.
         66    2    3    3    0    0  0.27768878015E+01 -0.32986885084E+02  0.21231202367E+02  0.39377781382E+02  0.20000047968E+01 0.  0.
        -13    1    3    3    0    0 -0.27768878015E+01  0.32986885084E+02  0.10530794943E+03  0.11038850063E+03  0.10566000000E+00 0.  1.
         13    1    4    4    0    0  0.37149321120E+00 -0.31485813878E+01  0.18652507669E+01  0.36799315783E+01  0.10566000000E+00 0. -1.
        -13    1    4    4    0    0  0.22595723117E+00 -0.42798747734E+01  0.20735395576E+01  0.47622594510E+01  0.10566000000E+00 0.  1.
        -14    1    4    4    0    0  0.21794373591E+01 -0.25558428923E+02  0.17292412043E+02  0.30935590352E+02  0.00000000000E+00 0.  1.
<mgrwt>
<rscale>  0 0.80111062E+02</rscale>
<asrwt>0</asrwt>
<pdfrwt beam="1">  1        2 0.17867023E-02 0.80111062E+02</pdfrwt>
<pdfrwt beam="2">  1       -1 0.21254265E-01 0.80111062E+02</pdfrwt>
<totfact> 0.10972665E+05</totfact>
</mgrwt>
</event>
<event>
 8    1  0.2561077E-020  0.8119907E+02  0.7818608E-02  0.1325683E+00
          2   -1    0    0  501    0  0.00000000000E+00  0.00000000000E+00  0.17943892579E+03  0.17943892581E+03  0.25500000000E-02 0. -1.
         -1   -1    0    0    0  501 -0.00000000000E+00 -0.00000000000E+00 -0.91859790131E+01  0.91859803958E+01  0.50400000000E-02 0.  1.
         24    2    1    2    0    0  0.00000000000E+00 -0.71054273576E-14  0.17025294678E+03  0.18862490620E+03  0.81199072372E+02 0.  0.
         66    2    3    3    0    0  0.11295770801E+02 -0.38952018782E+02  0.87987888399E+02  0.96905741363E+02  0.19999997373E+01 0.  0.
        -13    1    3    3    0    0 -0.11295770801E+02  0.38952018782E+02  0.82265058376E+02  0.91719164839E+02  0.10566000000E+00 0.  1.
         13    1    4    4    0    0  0.32659609506E+01 -0.10282950879E+02  0.22359121268E+02  0.24826337781E+02  0.10566000000E+00 0.  1.
        -13    1    4    4    0    0  0.63032513146E+01 -0.23335249015E+02  0.52051505327E+02  0.57390201207E+02  0.10566000000E+00 0. -1.
         14    1    4    4    0    0  0.17265585361E+01 -0.53338188877E+01  0.13577261804E+02  0.14689202374E+02  0.00000000000E+00 0. -1.
<mgrwt>
<rscale>  0 0.81199072E+02</rscale>
<asrwt>0</asrwt>
<pdfrwt beam="1">  1        2 0.27605991E-01 0.81199072E+02</pdfrwt>
<pdfrwt beam="2">  1       -1 0.14132276E-02 0.81199072E+02</pdfrwt>
<totfact> 0.20431537E+05</totfact>
</mgrwt>
</event>
<event>
 8    1  0.2561077E-020  0.8042045E+02  0.7818608E-02  0.1327862E+00
         -1   -1    0    0    0  501 -0.00000000000E+00  0.00000000000E+00  0.28654617877E+02  0.28654618320E+02  0.50400000000E-02 0.  1.
          2   -1    0    0  501    0  0.00000000000E+00 -0.00000000000E+00 -0.56425888959E+02  0.56425889017E+02  0.25500000000E-02 0. -1.
         24    2    1    2    0    0  0.00000000000E+00  0.00000000000E+00 -0.27771271082E+02  0.85080507337E+02  0.80420452816E+02 0.  0.
         66    2    3    3    0    0 -0.15978730096E+02 -0.32019767818E+01 -0.52755325758E+02  0.55251215980E+02  0.20000001400E+01 0.  0.
        -13    1    3    3    0    0  0.15978730096E+02  0.32019767818E+01  0.24984054676E+02  0.29829291357E+02  0.10566000000E+00 0.  1.
         13    1    4    4    0    0 -0.13254136263E+01  0.40203944566E-01 -0.31102159065E+01  0.33827421804E+01  0.10566000000E+00 0. -1.
        -13    1    4    4    0    0 -0.97352806089E+01 -0.24411782078E+01 -0.32660816430E+02  0.34168335246E+02  0.10566000000E+00 0.  1.
         14    1    4    4    0    0 -0.49180358606E+01 -0.80100251857E+00 -0.16984293422E+02  0.17700138553E+02  0.00000000000E+00 0. -1.
<mgrwt>
<rscale>  0 0.80420453E+02</rscale>
<asrwt>0</asrwt>
<pdfrwt beam="1">  1        2 0.86809060E-02 0.80420453E+02</pdfrwt>
<pdfrwt beam="2">  1       -1 0.44084028E-02 0.80420453E+02</pdfrwt>
<totfact> 0.15131276E+05</totfact>
</mgrwt>
</event>
<event>
 8    1  0.2561077E-020  0.8142755E+02  0.7818608E-02  0.1325048E+00
          2   -1    0    0  501    0  0.00000000000E+00  0.00000000000E+00  0.21973369215E+03  0.21973369217E+03  0.25500000000E-02 0. -1.
         -1   -1    0    0    0  501 -0.00000000000E+00 -0.00000000000E+00 -0.75437277663E+01  0.75437294499E+01  0.50400000000E-02 0.  1.
         24    2    1    2    0    0  0.00000000000E+00  0.00000000000E+00  0.21218996438E+03  0.22727742162E+03  0.81427546879E+02 0.  0.
         66    2    3    3    0    0  0.31665803724E+02  0.18819705269E+02  0.57919179279E+02  0.68669758708E+02  0.20000001972E+01 0.  0.
        -13    1    3    3    0    0 -0.31665803724E+02 -0.18819705269E+02  0.15427078511E+03  0.15860766291E+03  0.10566000000E+00 0.  1.
         13    1    4    4    0    0  0.28220970219E+02  0.16878568520E+02  0.51159036827E+02  0.60815848662E+02  0.10566000000E+00 0. -1.
        -13    1    4    4    0    0  0.33660536568E+01  0.17657472037E+01  0.63620151576E+01  0.74117866476E+01  0.10566000000E+00 0.  1.
         14    1    4    4    0    0  0.78779848549E-01  0.17538954528E+00  0.39812729463E+00  0.44212339891E+00  0.00000000000E+00 0. -1.
<mgrwt>
<rscale>  0 0.81427547E+02</rscale>
<asrwt>0</asrwt>
<pdfrwt beam="1">  1        2 0.33805177E-01 0.81427547E+02</pdfrwt>
<pdfrwt beam="2">  1       -1 0.11605739E-02 0.81427547E+02</pdfrwt>
<totfact> 0.21758667E+05</totfact>
</mgrwt>
</event>
<event>
 8    1  0.2561077E-020  0.8050671E+02  0.7818608E-02  0.1327620E+00
          2   -1    0    0  501    0  0.00000000000E+00  0.00000000000E+00  0.18752858800E+03  0.18752858801E+03  0.25500000000E-02 0. -1.
         -1   -1    0    0    0  501 -0.00000000000E+00 -0.00000000000E+00 -0.86404553252E+01  0.86404567951E+01  0.50400000000E-02 0.  1.
         24    2    1    2    0    0  0.00000000000E+00  0.00000000000E+00  0.17888813267E+03  0.19616904481E+03  0.80506708606E+02 0.  0.
         66    2    3    3    0    0  0.35959907080E+01  0.20278784273E+02  0.17370277886E+03  0.17493088813E+03  0.19999998677E+01 0.  0.
        -13    1    3    3    0    0 -0.35959907080E+01 -0.20278784273E+02  0.51853538130E+01  0.21238156675E+02  0.10566000000E+00 0.  1.
         13    1    4    4    0    0  0.70885059545E+00  0.76366706277E+01  0.67034543840E+02  0.67471938162E+02  0.10566000000E+00 0. -1.
        -13    1    4    4    0    0  0.15506687533E+01  0.65527938829E+01  0.51006977350E+02  0.51449650957E+02  0.10566000000E+00 0.  1.
         14    1    4    4    0    0  0.13364713592E+01  0.60893197621E+01  0.55661257669E+02  0.56009299015E+02  0.00000000000E+00 0. -1.
<mgrwt>
<rscale>  0 0.80506709E+02</rscale>
<asrwt>0</asrwt>
<pdfrwt beam="1">  1        2 0.28850551E-01 0.80506709E+02</pdfrwt>
<pdfrwt beam="2">  1       -1 0.13293010E-02 0.80506709E+02</pdfrwt>
<totfact> 0.21216932E+05</totfact>
</mgrwt>
</event>
<event>
 8    1  0.2561077E-020  0.8029771E+02  0.7818608E-02  0.1328209E+00
          2   -1    0    0  501    0  0.00000000000E+00  0.00000000000E+00  0.53798732677E+03  0.53798732677E+03  0.25500000000E-02 0. -1.
         -1   -1    0    0    0  501 -0.00000000000E+00 -0.00000000000E+00 -0.29962216540E+01  0.29962258929E+01  0.50400000000E-02 0.  1.
         24    2    1    2    0    0  0.00000000000E+00  0.00000000000E+00  0.53499110511E+03  0.54098355267E+03  0.80297706724E+02 0.  0.
         66    2    3    3    0    0  0.76651571290E+01  0.37840451434E+02  0.34123911981E+03  0.34342217645E+03  0.19999979836E+01 0.  0.
        -13    1    3    3    0    0 -0.76651571290E+01 -0.37840451434E+02  0.19375198531E+03  0.19756137622E+03  0.10566000000E+00 0.  1.
         13    1    4    4    0    0  0.59004406528E+01  0.27791804485E+02  0.25410087319E+03  0.25568430636E+03  0.10566000000E+00 0. -1.
        -13    1    4    4    0    0  0.76461034026E+00  0.27129623678E+01  0.26287862031E+02  0.26438752769E+02  0.10566000000E+00 0.  1.
         14    1    4    4    0    0  0.10001061359E+01  0.73356845818E+01  0.60850384585E+02  0.61299117324E+02  0.00000000000E+00 0. -1.
<mgrwt>
<rscale>  0 0.80297707E+02</rscale>
<asrwt>0</asrwt>
<pdfrwt beam="1">  1        2 0.82767358E-01 0.80297707E+02</pdfrwt>
<pdfrwt beam="2">  1       -1 0.46095708E-03 0.80297707E+02</pdfrwt>
<totfact> 0.30854172E+05</totfact>
</mgrwt>
</event>
<event>
 8    1  0.2561077E-020  0.8113509E+02  0.7818608E-02  0.1325861E+00
          2   -1    0    0  501    0  0.00000000000E+00  0.00000000000E+00  0.33545438248E+03  0.33545438249E+03  0.25500000000E-02 0. -1.
         -1   -1    0    0    0  501 -0.00000000000E+00 -0.00000000000E+00 -0.49059590332E+01  0.49059616221E+01  0.50400000000E-02 0.  1.
         24    2    1    2    0    0  0.00000000000E+00  0.00000000000E+00  0.33054842345E+03  0.34036034411E+03  0.81135094754E+02 0.  0.
         66    2    3    3    0    0 -0.33725204247E+02  0.18903622794E+02  0.21657799724E+03  0.22001082990E+03  0.20000076427E+01 0.  0.
        -13    1    3    3    0    0  0.33725204247E+02 -0.18903622794E+02  0.11397042621E+03  0.12034951421E+03  0.10566000000E+00 0.  1.
         13    1    4    4    0    0 -0.28172970380E+02  0.15740526603E+02  0.17783289777E+03  0.18073746466E+03  0.10566000000E+00 0. -1.
        -13    1    4    4    0    0 -0.51539948920E+01  0.30871101762E+01  0.35863235163E+02  0.36363122982E+02  0.10566000000E+00 0. -1.
         14    1    4    4    0    0 -0.39823897442E+00  0.75986015165E-01  0.28818642977E+01  0.29102422555E+01  0.00000000000E+00 0. -1.
<mgrwt>
<rscale>  0 0.81135095E+02</rscale>
<asrwt>0</asrwt>
<pdfrwt beam="1">  1        2 0.51608362E-01 0.81135095E+02</pdfrwt>
<pdfrwt beam="2">  1       -1 0.75476319E-03 0.81135095E+02</pdfrwt>
<totfact> 0.25581219E+05</totfact>
</mgrwt>
</event>
<event>
 8    1  0.2561077E-020  0.8031690E+02  0.7818608E-02  0.1328155E+00
          2   -1    0    0  501    0  0.00000000000E+00  0.00000000000E+00  0.98865193474E+01  0.98865196762E+01  0.25500000000E-02 0. -1.
         -1   -1    0    0    0  501 -0.00000000000E+00 -0.00000000000E+00 -0.16312120314E+03  0.16312120322E+03  0.50400000000E-02 0.  1.
         24    2    1    2    0    0  0.00000000000E+00  0.00000000000E+00 -0.15323468380E+03  0.17300772290E+03  0.80316896505E+02 0.  0.
         66    2    3    3    0    0 -0.13506963811E+01 -0.28607926561E+02 -0.16103024156E+02  0.32917248266E+02  0.20000008983E+01 0.  0.
        -13    1    3    3    0    0  0.13506963811E+01  0.28607926561E+02 -0.13713165964E+03  0.14009047463E+03  0.10566000000E+00 0.  1.
         13    1    4    4    0    0 -0.86248863975E+00 -0.12990559287E+02 -0.72501811105E+01  0.14902174587E+02  0.10566000000E+00 0. -1.
        -13    1    4    4    0    0  0.23535532688E+00 -0.41137188561E+01 -0.29210599998E+01  0.50519135498E+01  0.10566000000E+00 0.  1.
        -14    1    4    4    0    0 -0.72356306827E+00 -0.11503648418E+02 -0.59317830459E+01  0.12963160129E+02  0.00000000000E+00 0.  1.
<mgrwt>
<rscale>  0 0.80316897E+02</rscale>
<asrwt>0</asrwt>
<pdfrwt beam="1">  1        2 0.15210031E-02 0.80316897E+02</pdfrwt>
<pdfrwt beam="2">  1       -1 0.25095568E-01 0.80316897E+02</pdfrwt>
<totfact> 0.10448784E+05</totfact>
</mgrwt>
</event>
<event>
 8    1  0.2561077E-020  0.8019914E+02  0.7818608E-02  0.1328487E+00
          2   -1    0    0  501    0  0.00000000000E+00  0.00000000000E+00  0.12204003609E+02  0.12204003875E+02  0.25500000000E-02 0. -1.
         -1   -1    0    0    0  501 -0.00000000000E+00 -0.00000000000E+00 -0.13175804096E+03  0.13175804105E+03  0.50400000000E-02 0.  1.
         24    2    1    2    0    0  0.00000000000E+00  0.35527136788E-14 -0.11955403735E+03  0.14396204493E+03  0.80199142973E+02 0.  0.
         66    2    3    3    0    0  0.25812014054E+02 -0.30652457016E+02 -0.60479670235E+02  0.72578396910E+02  0.19999988822E+01 0.  0.
        -13    1    3    3    0    0 -0.25812014054E+02  0.30652457016E+02 -0.59074367111E+02  0.71383648017E+02  0.10566000000E+00 0.  1.
         13    1    4    4    0    0  0.40589697305E+01 -0.46556081753E+01 -0.83509476437E+01  0.10387464240E+02  0.10566000000E+00 0. -1.
        -13    1    4    4    0    0  0.20627679220E+01 -0.29355385077E+01 -0.57779919900E+01  0.68021138849E+01  0.10566000000E+00 0.  1.
         14    1    4    4    0    0  0.19690276402E+02 -0.23061310333E+02 -0.46350730602E+02  0.55388818785E+02  0.00000000000E+00 0. -1.
<mgrwt>
<rscale>  0 0.80199143E+02</rscale>
<asrwt>0</asrwt>
<pdfrwt beam="1">  1        2 0.18775391E-02 0.80199143E+02</pdfrwt>
<pdfrwt beam="2">  1       -1 0.20270467E-01 0.80199143E+02</pdfrwt>
<totfact> 0.11068535E+05</totfact>
</mgrwt>
</event>
<event>
 8    1  0.2561077E-020  0.8007923E+02  0.7818608E-02  0.1328827E+00
         -1   -1    0    0    0  501 -0.00000000000E+00  0.00000000000E+00  0.10987846824E+01  0.10987962413E+01  0.50400000000E-02 0.  1.
          2   -1    0    0  501    0  0.00000000000E+00 -0.00000000000E+00 -0.14590321657E+04  0.14590321657E+04  0.25500000000E-02 0. -1.
         24    2    1    2    0    0  0.44408920985E-15  0.00000000000E+00 -0.14579333810E+04  0.14601309619E+04  0.80079226649E+02 0.  0.
         66    2    3    3    0    0 -0.21112147665E+01 -0.10787364036E+02 -0.14309607997E+04  0.14310044146E+04  0.20000014376E+01 0.  0.
        -13    1    3    3    0    0  0.21112147665E+01  0.10787364036E+02 -0.26972581336E+02  0.29126547317E+02  0.10566000000E+00 0.  1.
         13    1    4    4    0    0 -0.11603361361E+01 -0.24612025176E+01 -0.29632846490E+03  0.29634097619E+03  0.10566000000E+00 0. -1.
        -13    1    4    4    0    0 -0.56495862931E+00 -0.27497705935E+01 -0.39258488638E+03  0.39259493705E+03  0.10566000000E+00 0.  1.
         14    1    4    4    0    0 -0.38592000110E+00 -0.55763909244E+01 -0.74204744839E+03  0.74206850137E+03  0.00000000000E+00 0. -1.
<mgrwt>
<rscale>  0 0.80079227E+02</rscale>
<asrwt>0</asrwt>
<pdfrwt beam="1">  1        2 0.22446494E+00 0.80079227E+02</pdfrwt>
<pdfrwt beam="2">  1       -1 0.16904585E-03 0.80079227E+02</pdfrwt>
<totfact> 0.33495490E+05</totfact>
</mgrwt>
</event>
<event>
 8    1  0.2561077E-020  0.8044903E+02  0.7818608E-02  0.1327782E+00
         -1   -1    0    0    0  501 -0.00000000000E+00  0.00000000000E+00  0.71878770969E+01  0.71878788639E+01  0.50400000000E-02 0.  1.
          2   -1    0    0  501    0  0.00000000000E+00 -0.00000000000E+00 -0.22510281745E+03  0.22510281746E+03  0.25500000000E-02 0. -1.
         24    2    1    2    0    0  0.00000000000E+00  0.00000000000E+00 -0.21791494035E+03  0.23229069632E+03  0.80449029649E+02 0.  0.
         66    2    3    3    0    0 -0.22113943979E+02 -0.22554836206E+02 -0.18081998538E+03  0.18356909944E+03  0.20000005554E+01 0.  0.
        -13    1    3    3    0    0  0.22113943979E+02  0.22554836206E+02 -0.37094954966E+02  0.48721596881E+02  0.10566000000E+00 0.  1.
         13    1    4    4    0    0 -0.14266145445E+02 -0.15523714474E+02 -0.11844329101E+03  0.12030516600E+03  0.10566000000E+00 0. -1.
        -13    1    4    4    0    0 -0.70416252334E+01 -0.64739269551E+01 -0.57404807925E+02  0.58196386082E+02  0.10566000000E+00 0.  1.
        -14    1    4    4    0    0 -0.80617329997E+00 -0.55719477748E+00 -0.49718864441E+01  0.50675473577E+01  0.00000000000E+00 0.  1.
<mgrwt>
<rscale>  0 0.80449030E+02</rscale>
<asrwt>0</asrwt>
<pdfrwt beam="1">  1        2 0.34631197E-01 0.80449030E+02</pdfrwt>
<pdfrwt beam="2">  1       -1 0.11058276E-02 0.80449030E+02</pdfrwt>
<totfact> 0.22656300E+05</totfact>
</mgrwt>
</event>
<event>
 8    1  0.2561077E-020  0.7738968E+02  0.7818608E-02  0.1336627E+00
         -1   -1    0    0    0  501 -0.00000000000E+00  0.00000000000E+00  0.48477043514E+01  0.48477069713E+01  0.50400000000E-02 0.  1.
          2   -1    0    0  501    0  0.00000000000E+00 -0.00000000000E+00 -0.30886584073E+03  0.30886584074E+03  0.25500000000E-02 0. -1.
         24    2    1    2    0    0 -0.44408920985E-15 -0.17763568394E-14 -0.30401813638E+03  0.31371354772E+03  0.77389681295E+02 0.  0.
         66    2    3    3    0    0  0.19378474044E+01  0.15789842706E+02 -0.29498258558E+03  0.29541800925E+03  0.20000028742E+01 0.  0.
        -13    1    3    3    0    0 -0.19378474044E+01 -0.15789842706E+02 -0.90355508033E+01  0.18295538462E+02  0.10566000000E+00 0.  1.
         13    1    4    4    0    0  0.20803339791E+00  0.32182819844E+01 -0.52719364466E+02  0.52818019373E+02  0.10566000000E+00 0. -1.
        -13    1    4    4    0    0  0.12768136583E+01  0.41338790903E+01 -0.80876599374E+02  0.80992312597E+02  0.10566000000E+00 0.  1.
         14    1    4    4    0    0  0.45300034812E+00  0.84376816313E+01 -0.16138662174E+03  0.16160767728E+03  0.00000000000E+00 0. -1.
<mgrwt>
<rscale>  0 0.77389681E+02</rscale>
<asrwt>0</asrwt>
<pdfrwt beam="1">  1        2 0.47517807E-01 0.77389681E+02</pdfrwt>
<pdfrwt beam="2">  1       -1 0.74580111E-03 0.77389681E+02</pdfrwt>
<totfact> 0.28100738E+05</totfact>
</mgrwt>
</event>
<event>
 8    1  0.2561077E-020  0.7920137E+02  0.7818608E-02  0.1331333E+00
         -1   -1    0    0    0  501 -0.00000000000E+00  0.00000000000E+00  0.34361555884E+01  0.34361592846E+01  0.50400000000E-02 0.  1.
          2   -1    0    0  501    0  0.00000000000E+00 -0.00000000000E+00 -0.45638602050E+03  0.45638602050E+03  0.25500000000E-02 0. -1.
         24    2    1    2    0    0 -0.55511151231E-16  0.35527136788E-14 -0.45294986491E+03  0.45982217979E+03  0.79201369337E+02 0.  0.
         66    2    3    3    0    0 -0.45576377885E+00  0.29167976915E+02 -0.38188634993E+03  0.38300412903E+03  0.19999973822E+01 0.  0.
        -13    1    3    3    0    0  0.45576377885E+00 -0.29167976915E+02 -0.71063514976E+02  0.76818050761E+02  0.10566000000E+00 0.  1.
         13    1    4    4    0    0 -0.33970600736E+00  0.14557349827E+02 -0.18497169115E+03  0.18554398273E+03  0.10566000000E+00 0. -1.
        -13    1    4    4    0    0 -0.33572668666E+00  0.38806400048E+01 -0.59007118865E+02  0.59135634942E+02  0.10566000000E+00 0.  1.
        -14    1    4    4    0    0  0.21966891516E+00  0.10729987083E+02 -0.13790753991E+03  0.13832451136E+03  0.00000000000E+00 0.  1.
<mgrwt>
<rscale>  0 0.79201369E+02</rscale>
<asrwt>0</asrwt>
<pdfrwt beam="1">  1        2 0.70213186E-01 0.79201369E+02</pdfrwt>
<pdfrwt beam="2">  1       -1 0.52863997E-03 0.79201369E+02</pdfrwt>
<totfact> 0.30340926E+05</totfact>
</mgrwt>
</event>
<event>
 8    1  0.2561077E-020  0.7234553E+02  0.7818608E-02  0.1352294E+00
         -1   -1    0    0    0  501 -0.00000000000E+00  0.00000000000E+00  0.54662238214E+02  0.54662238446E+02  0.50400000000E-02 0.  1.
          2   -1    0    0  501    0  0.00000000000E+00 -0.00000000000E+00 -0.23937346347E+02  0.23937346483E+02  0.25500000000E-02 0. -1.
         24    2    1    2    0    0  0.00000000000E+00  0.00000000000E+00  0.30724891866E+02  0.78599584930E+02  0.72345530414E+02 0.  0.
         66    2    3    3    0    0 -0.21338871740E+01  0.10277467336E+02 -0.22203161437E+02  0.24640620893E+02  0.20000027152E+01 0.  0.
        -13    1    3    3    0    0  0.21338871740E+01 -0.10277467336E+02  0.52928053304E+02  0.53958964036E+02  0.10566000000E+00 0.  1.
         13    1    4    4    0    0 -0.55675618224E+00  0.10554972986E+01 -0.18470082752E+01  0.22015121163E+01  0.10566000000E+00 0.  1.
        -13    1    4    4    0    0 -0.56732473701E+00  0.66854098295E+01 -0.14321072263E+02  0.15815209032E+02  0.10566000000E+00 0. -1.
         14    1    4    4    0    0 -0.10098062547E+01  0.25365602081E+01 -0.60350808995E+01  0.66238997445E+01  0.00000000000E+00 0. -1.
<mgrwt>
<rscale>  0 0.72345530E+02</rscale>
<asrwt>0</asrwt>
<pdfrwt beam="1">  1        2 0.36826687E-02 0.72345530E+02</pdfrwt>
<pdfrwt beam="2">  1       -1 0.84095751E-02 0.72345530E+02</pdfrwt>
<totfact> 0.17073061E+05</totfact>
</mgrwt>
</event>
<event>
 8    1  0.2561077E-020  0.7953191E+02  0.7818608E-02  0.1330385E+00
         -1   -1    0    0    0  501 -0.00000000000E+00  0.00000000000E+00  0.83950572802E+00  0.83952085679E+00  0.50400000000E-02 0.  1.
          2   -1    0    0  501    0  0.00000000000E+00 -0.00000000000E+00 -0.18836286527E+04  0.18836286527E+04  0.25500000000E-02 0. -1.
         24    2    1    2    0    0  0.17763568394E-14  0.00000000000E+00 -0.18827891469E+04  0.18844681735E+04  0.79531913088E+02 0.  0.
         66    2    3    3    0    0  0.13322312566E+02 -0.72534027853E+01 -0.18123312483E+04  0.18123958313E+04  0.20000037432E+01 0.  0.
        -13    1    3    3    0    0 -0.13322312566E+02  0.72534027853E+01 -0.70457898651E+02  0.72072342202E+02  0.10566000000E+00 0.  1.
         13    1    4    4    0    0  0.19361839409E+01 -0.40437235964E+00 -0.25219713339E+03  0.25220491188E+03  0.10566000000E+00 0.  1.
        -13    1    4    4    0    0  0.16666399570E+01 -0.77510544687E+00 -0.23887799049E+03  0.23888508531E+03  0.10566000000E+00 0. -1.
        -14    1    4    4    0    0  0.97194886685E+01 -0.60739249788E+01 -0.13212561244E+04  0.13213058341E+04  0.00000000000E+00 0.  1.
<mgrwt>
<rscale>  0 0.79531913E+02</rscale>
<asrwt>0</asrwt>
<pdfrwt beam="1">  1        2 0.28978564E+00 0.79531913E+02</pdfrwt>
<pdfrwt beam="2">  1       -1 0.12915740E-03 0.79531913E+02</pdfrwt>
<totfact> 0.29673265E+05</totfact>
</mgrwt>
</event>
<event>
 8    1  0.2561077E-020  0.7991081E+02  0.7818608E-02  0.1329305E+00
          2   -1    0    0  501    0  0.00000000000E+00  0.00000000000E+00  0.17080987301E+03  0.17080987303E+03  0.25500000000E-02 0. -1.
         -1   -1    0    0    0  501 -0.00000000000E+00 -0.00000000000E+00 -0.93462648536E+01  0.93462662126E+01  0.50400000000E-02 0.  1.
         24    2    1    2    0    0  0.00000000000E+00 -0.35527136788E-14  0.16146360816E+03  0.18015613924E+03  0.79910811206E+02 0.  0.
         66    2    3    3    0    0 -0.35185482636E+02  0.17020540935E+02  0.99196187203E+02  0.10663770701E+03  0.19999995024E+01 0.  0.
        -13    1    3    3    0    0  0.35185482636E+02 -0.17020540935E+02  0.62267420957E+02  0.73518432238E+02  0.10566000000E+00 0.  1.
         13    1    4    4    0    0 -0.28644255571E+01  0.17998781719E+01  0.75376885232E+01  0.82627118741E+01  0.10566000000E+00 0. -1.
        -13    1    4    4    0    0 -0.14574782626E+02  0.67958448234E+01  0.41254006567E+02  0.44277669511E+02  0.10566000000E+00 0.  1.
         14    1    4    4    0    0 -0.17746274453E+02  0.84248179401E+01  0.50404492113E+02  0.54097325622E+02  0.00000000000E+00 0. -1.
<mgrwt>
<rscale>  0 0.79910811E+02</rscale>
<asrwt>0</asrwt>
<pdfrwt beam="1">  1        2 0.26278442E-01 0.79910811E+02</pdfrwt>
<pdfrwt beam="2">  1       -1 0.14378870E-02 0.79910811E+02</pdfrwt>
<totfact> 0.20964253E+05</totfact>
</mgrwt>
</event>
<event>
 8    1  0.2561077E-020  0.8004069E+02  0.7818608E-02  0.1328936E+00
         -1   -1    0    0    0  501 -0.00000000000E+00  0.00000000000E+00  0.21597617337E+03  0.21597617343E+03  0.50400000000E-02 0.  1.
          2   -1    0    0  501    0  0.00000000000E+00 -0.00000000000E+00 -0.74157625984E+01  0.74157630368E+01  0.25500000000E-02 0. -1.
         24    2    1    2    0    0  0.00000000000E+00  0.35527136788E-14  0.20856041077E+03  0.22339193646E+03  0.80040691755E+02 0.  0.
         66    2    3    3    0    0 -0.31611537504E+02 -0.22773612617E+02  0.79118568236E+02  0.88213800297E+02  0.19999970164E+01 0.  0.
        -13    1    3    3    0    0  0.31611537504E+02  0.22773612617E+02  0.12944184253E+03  0.13517813617E+03  0.10566000000E+00 0.  1.
         13    1    4    4    0    0 -0.76763094244E+00 -0.34761498485E+00  0.18250912812E+01  0.20130115901E+01  0.10566000000E+00 0. -1.
        -13    1    4    4    0    0 -0.22649773003E+02 -0.17219848323E+02  0.57866452015E+02  0.64483120475E+02  0.10566000000E+00 0.  1.
         14    1    4    4    0    0 -0.81941335588E+01 -0.52061493095E+01  0.19427024940E+02  0.21717668232E+02  0.00000000000E+00 0. -1.
<mgrwt>
<rscale>  0 0.80040692E+02</rscale>
<asrwt>0</asrwt>
<pdfrwt beam="1">  1        2 0.11408867E-02 0.80040692E+02</pdfrwt>
<pdfrwt beam="2">  1       -1 0.33227100E-01 0.80040692E+02</pdfrwt>
<totfact> 0.97130706E+04</totfact>
</mgrwt>
</event>
<event>
 8    1  0.2561077E-020  0.7799391E+02  0.7818608E-02  0.1334843E+00
          2   -1    0    0  501    0  0.00000000000E+00  0.00000000000E+00  0.59591607064E+02  0.59591607119E+02  0.25500000000E-02 0. -1.
         -1   -1    0    0    0  501 -0.00000000000E+00 -0.00000000000E+00 -0.25519743481E+02  0.25519743979E+02  0.50400000000E-02 0.  1.
         24    2    1    2    0    0  0.00000000000E+00  0.00000000000E+00  0.34071863583E+02  0.85111351098E+02  0.77993911286E+02 0.  0.
         66    2    3    3    0    0 -0.26770643605E+02  0.16025508989E+02  0.42529126126E+02  0.52784570386E+02  0.20000011154E+01 0.  0.
        -13    1    3    3    0    0  0.26770643605E+02 -0.16025508989E+02 -0.84572625431E+01  0.32326780711E+02  0.10566000000E+00 0.  1.
         13    1    4    4    0    0 -0.20208589966E+02  0.11192440977E+02  0.31562532002E+02  0.39113455918E+02  0.10566000000E+00 0. -1.
        -13    1    4    4    0    0 -0.14711133452E+01  0.11672466752E+01  0.22716916804E+01  0.29493026975E+01  0.10566000000E+00 0.  1.
         14    1    4    4    0    0 -0.50909402938E+01  0.36658213362E+01  0.86949024436E+01  0.10721811771E+02  0.00000000000E+00 0. -1.
<mgrwt>
<rscale>  0 0.77993911E+02</rscale>
<asrwt>0</asrwt>
<pdfrwt beam="1">  1        2 0.91679395E-02 0.77993911E+02</pdfrwt>
<pdfrwt beam="2">  1       -1 0.39261145E-02 0.77993911E+02</pdfrwt>
<totfact> 0.16651790E+05</totfact>
</mgrwt>
</event>
<event>
 8    1  0.2561077E-020  0.7843648E+02  0.7818608E-02  0.1333548E+00
         -1   -1    0    0    0  501 -0.00000000000E+00  0.00000000000E+00  0.11071906397E+02  0.11071907544E+02  0.50400000000E-02 0.  1.
          2   -1    0    0  501    0  0.00000000000E+00 -0.00000000000E+00 -0.13891648871E+03  0.13891648873E+03  0.25500000000E-02 0. -1.
         24    2    1    2    0    0  0.00000000000E+00  0.35527136788E-14 -0.12784458231E+03  0.14998839628E+03  0.78436482526E+02 0.  0.
         66    2    3    3    0    0  0.23251794051E+02 -0.31550176564E+02 -0.64111141203E+02  0.75168464123E+02  0.20000011177E+01 0.  0.
        -13    1    3    3    0    0 -0.23251794051E+02  0.31550176564E+02 -0.63733441109E+02  0.74819932153E+02  0.10566000000E+00 0.  1.
         13    1    4    4    0    0  0.17438705019E+02 -0.22617190259E+02 -0.45960768226E+02  0.54111450802E+02  0.10566000000E+00 0. -1.
        -13    1    4    4    0    0  0.21109098561E+00 -0.32953387923E+00 -0.79639955741E+00  0.89362647253E+00  0.10566000000E+00 0. -1.
         14    1    4    4    0    0  0.56019980464E+01 -0.86034524256E+01 -0.17353973419E+02  0.20163386848E+02  0.00000000000E+00 0. -1.
<mgrwt>
<rscale>  0 0.78436483E+02</rscale>
<asrwt>0</asrwt>
<pdfrwt beam="1">  1        2 0.21371766E-01 0.78436483E+02</pdfrwt>
<pdfrwt beam="2">  1       -1 0.17033704E-02 0.78436483E+02</pdfrwt>
<totfact> 0.20597759E+05</totfact>
</mgrwt>
</event>
<event>
 8    1  0.2561077E-020  0.7931273E+02  0.7818608E-02  0.1331013E+00
         -1   -1    0    0    0  501 -0.00000000000E+00  0.00000000000E+00  0.16645488614E+02  0.16645489377E+02  0.50400000000E-02 0.  1.
          2   -1    0    0  501    0  0.00000000000E+00 -0.00000000000E+00 -0.94477693612E+02  0.94477693646E+02  0.25500000000E-02 0. -1.
         24    2    1    2    0    0  0.00000000000E+00  0.00000000000E+00 -0.77832204998E+02  0.11112318302E+03  0.79312733343E+02 0.  0.
         66    2    3    3    0    0  0.13105426230E+02  0.29683546944E+02 -0.70821261147E+02  0.77926351043E+02  0.20000001207E+01 0.  0.
        -13    1    3    3    0    0 -0.13105426230E+02 -0.29683546944E+02 -0.70109438503E+01  0.33196831981E+02  0.10566000000E+00 0.  1.
         13    1    4    4    0    0  0.55393909725E+01  0.11285006776E+02 -0.28511408047E+02  0.31160035031E+02  0.10566000000E+00 0. -1.
        -13    1    4    4    0    0  0.64896717703E+01  0.16600938579E+02 -0.38144058084E+02  0.42103293607E+02  0.10566000000E+00 0.  1.
        -14    1    4    4    0    0  0.10763634875E+01  0.17976015885E+01 -0.41657950165E+01  0.46630224048E+01  0.00000000000E+00 0.  1.
<mgrwt>
<rscale>  0 0.79312733E+02</rscale>
<asrwt>0</asrwt>
<pdfrwt beam="1">  1        2 0.14535029E-01 0.79312733E+02</pdfrwt>
<pdfrwt beam="2">  1       -1 0.25608445E-02 0.79312733E+02</pdfrwt>
<totfact> 0.17857587E+05</totfact>
</mgrwt>
</event>
<event>
 8    1  0.2561077E-020  0.7952471E+02  0.7818608E-02  0.1330406E+00
         -1   -1    0    0    0  501 -0.00000000000E+00  0.00000000000E+00  0.12204185434E+02  0.12204186475E+02  0.50400000000E-02 0.  1.
          2   -1    0    0  501    0  0.00000000000E+00 -0.00000000000E+00 -0.12954938244E+03  0.12954938246E+03  0.25500000000E-02 0. -1.
         24    2    1    2    0    0  0.71054273576E-14  0.00000000000E+00 -0.11734519700E+03  0.14175356894E+03  0.79524707146E+02 0.  0.
         66    2    3    3    0    0  0.34912075174E+02  0.18573336385E+02 -0.65663218898E+02  0.76677768194E+02  0.20000004424E+01 0.  0.
        -13    1    3    3    0    0 -0.34912075174E+02 -0.18573336385E+02 -0.51681978105E+02  0.65075800742E+02  0.10566000000E+00 0.  1.
         13    1    4    4    0    0  0.13427455177E+02  0.61504022462E+01 -0.24898944474E+02  0.28949829020E+02  0.10566000000E+00 0. -1.
        -13    1    4    4    0    0  0.19904293332E+02  0.11573723804E+02 -0.37559733474E+02  0.44055382400E+02  0.10566000000E+00 0.  1.
         14    1    4    4    0    0  0.15803266641E+01  0.84921033508E+00 -0.32045409496E+01  0.36725567737E+01  0.00000000000E+00 0. -1.
<mgrwt>
<rscale>  0 0.79524707E+02</rscale>
<asrwt>0</asrwt>
<pdfrwt beam="1">  1        2 0.19930673E-01 0.79524707E+02</pdfrwt>
<pdfrwt beam="2">  1       -1 0.18775672E-02 0.79524707E+02</pdfrwt>
<totfact> 0.19431762E+05</totfact>
</mgrwt>
</event>
<event>
 8    1  0.2561077E-020  0.7987009E+02  0.7818608E-02  0.1329420E+00
         -1   -1    0    0    0  501 -0.00000000000E+00  0.00000000000E+00  0.10895769583E+03  0.10895769594E+03  0.50400000000E-02 0.  1.
          2   -1    0    0  501    0  0.00000000000E+00 -0.00000000000E+00 -0.14636946513E+02  0.14636946735E+02  0.25500000000E-02 0. -1.
         24    2    1    2    0    0  0.00000000000E+00  0.00000000000E+00  0.94320749315E+02  0.12359464268E+03  0.79870094201E+02 0.  0.
         66    2    3    3    0    0  0.32258637967E+01  0.27824677058E+02  0.31981759553E+01  0.28263884839E+02  0.20000015311E+01 0.  0.
        -13    1    3    3    0    0 -0.32258637967E+01 -0.27824677058E+02  0.91122573359E+02  0.95330757840E+02  0.10566000000E+00 0.  1.
         13    1    4    4    0    0  0.19811275698E+01  0.13947136842E+02  0.14714060272E+01  0.14164169311E+02  0.10566000000E+00 0.  1.
        -13    1    4    4    0    0  0.13629465340E+01  0.13316055942E+02  0.18487361005E+01  0.13513103208E+02  0.10566000000E+00 0. -1.
        -14    1    4    4    0    0 -0.11821030706E+00  0.56148427443E+00 -0.12196617235E+00  0.58661232030E+00  0.00000000000E+00 0.  1.
<mgrwt>
<rscale>  0 0.79870094E+02</rscale>
<asrwt>0</asrwt>
<pdfrwt beam="1">  1        2 0.22518379E-02 0.79870094E+02</pdfrwt>
<pdfrwt beam="2">  1       -1 0.16762723E-01 0.79870094E+02</pdfrwt>
<totfact> 0.11681434E+05</totfact>
</mgrwt>
</event>
<event>
 8    1  0.2561077E-020  0.8217495E+02  0.7818608E-02  0.1322990E+00
         -1   -1    0    0    0  501 -0.00000000000E+00  0.00000000000E+00  0.52376492370E+02  0.52376492612E+02  0.50400000000E-02 0.  1.
          2   -1    0    0  501    0  0.00000000000E+00 -0.00000000000E+00 -0.32231646383E+02  0.32231646484E+02  0.25500000000E-02 0. -1.
         24    2    1    2    0    0  0.00000000000E+00 -0.35527136788E-14  0.20144845987E+02  0.84608139097E+02  0.82174949842E+02 0.  0.
         66    2    3    3    0    0 -0.49514804572E+01  0.21795309197E+02 -0.25389003765E+02  0.33884423745E+02  0.19999996571E+01 0.  0.
        -13    1    3    3    0    0  0.49514804572E+01 -0.21795309197E+02  0.45533849752E+02  0.50723715351E+02  0.10566000000E+00 0.  1.
         13    1    4    4    0    0 -0.94577163965E-01  0.48309007359E+00 -0.71943508636E+00  0.87810690593E+00  0.10566000000E+00 0. -1.
        -13    1    4    4    0    0 -0.14043099415E+01  0.83354717797E+01 -0.10583231049E+02  0.13545040409E+02  0.10566000000E+00 0.  1.
        -14    1    4    4    0    0 -0.34525933517E+01  0.12976747344E+02 -0.14086337630E+02  0.19461276431E+02  0.00000000000E+00 0.  1.
<mgrwt>
<rscale>  0 0.82174950E+02</rscale>
<asrwt>0</asrwt>
<pdfrwt beam="1">  1        2 0.49587149E-02 0.82174950E+02</pdfrwt>
<pdfrwt beam="2">  1       -1 0.80579219E-02 0.82174950E+02</pdfrwt>
<totfact> 0.12660583E+05</totfact>
</mgrwt>
</event>
<event>
 8    1  0.2561077E-020  0.8858534E+02  0.7818608E-02  0.1306314E+00
          2   -1    0    0  501    0  0.00000000000E+00  0.00000000000E+00  0.29080195715E+03  0.29080195716E+03  0.25500000000E-02 0. -1.
         -1   -1    0    0    0  501 -0.00000000000E+00 -0.00000000000E+00 -0.67463101448E+01  0.67463120274E+01  0.50400000000E-02 0.  1.
         24    2    1    2    0    0  0.00000000000E+00  0.00000000000E+00  0.28405564700E+03  0.29754826918E+03  0.88585336831E+02 0.  0.
         66    2    3    3    0    0 -0.43355041222E+02 -0.87346563185E+01  0.14871760527E+03  0.15516726440E+03  0.20000007991E+01 0.  0.
        -13    1    3    3    0    0  0.43355041222E+02  0.87346563185E+01  0.13533804173E+03  0.14238100479E+03  0.10566000000E+00 0.  1.
         13    1    4    4    0    0 -0.12484835025E+02 -0.28933224508E+01  0.42881982879E+02  0.44756206721E+02  0.10566000000E+00 0. -1.
        -13    1    4    4    0    0 -0.25076473508E+02 -0.43574194466E+01  0.87269755121E+02  0.90905654119E+02  0.10566000000E+00 0.  1.
        -14    1    4    4    0    0 -0.57937326884E+01 -0.14839144211E+01  0.18565867268E+02  0.19505403556E+02  0.00000000000E+00 0.  1.
<mgrwt>
<rscale>  0 0.88585337E+02</rscale>
<asrwt>0</asrwt>
<pdfrwt beam="1">  1        2 0.44738759E-01 0.88585337E+02</pdfrwt>
<pdfrwt beam="2">  1       -1 0.10378941E-02 0.88585337E+02</pdfrwt>
<totfact> 0.19267826E+05</totfact>
</mgrwt>
</event>
<event>
 8    1  0.2561077E-020  0.7970259E+02  0.7818608E-02  0.1329898E+00
          2   -1    0    0  501    0  0.00000000000E+00  0.00000000000E+00  0.82366020869E+02  0.82366020908E+02  0.25500000000E-02 0. -1.
         -1   -1    0    0    0  501 -0.00000000000E+00 -0.00000000000E+00 -0.19281321587E+02  0.19281322246E+02  0.50400000000E-02 0.  1.
         24    2    1    2    0    0  0.00000000000E+00  0.00000000000E+00  0.63084699282E+02  0.10164734315E+03  0.79702591468E+02 0.  0.
         66    2    3    3    0    0  0.13769045446E+02  0.74230241341E+01  0.78271962139E+02  0.79844774110E+02  0.19999989469E+01 0.  0.
        -13    1    3    3    0    0 -0.13769045446E+02 -0.74230241341E+01 -0.15187262857E+02  0.21802569044E+02  0.10566000000E+00 0.  1.
         13    1    4    4    0    0  0.44000835454E+01  0.18980034211E+01  0.25380959561E+02  0.25829584287E+02  0.10566000000E+00 0. -1.
        -13    1    4    4    0    0  0.16567466486E+01  0.43777437264E+00  0.76114844575E+01  0.78027120632E+01  0.10566000000E+00 0.  1.
         14    1    4    4    0    0  0.77122152518E+01  0.50872463403E+01  0.45279518121E+02  0.46212477760E+02  0.00000000000E+00 0. -1.
<mgrwt>
<rscale>  0 0.79702591E+02</rscale>
<asrwt>0</asrwt>
<pdfrwt beam="1">  1        2 0.12671696E-01 0.79702591E+02</pdfrwt>
<pdfrwt beam="2">  1       -1 0.29663572E-02 0.79702591E+02</pdfrwt>
<totfact> 0.16991398E+05</totfact>
</mgrwt>
</event>
<event>
 8    1  0.2561077E-020  0.7958608E+02  0.7818608E-02  0.1330230E+00
          2   -1    0    0  501    0  0.00000000000E+00  0.00000000000E+00  0.16194206566E+02  0.16194206767E+02  0.25500000000E-02 0. -1.
         -1   -1    0    0    0  501 -0.00000000000E+00 -0.00000000000E+00 -0.97781015431E+02  0.97781015561E+02  0.50400000000E-02 0.  1.
         24    2    1    2    0    0 -0.71054273576E-14  0.00000000000E+00 -0.81586808865E+02  0.11397522233E+03  0.79586078706E+02 0.  0.
         66    2    3    3    0    0 -0.33707694537E+02  0.16685897937E+02 -0.22320421731E+02  0.43781606743E+02  0.20000004366E+01 0.  0.
        -13    1    3    3    0    0  0.33707694537E+02 -0.16685897937E+02 -0.59266387134E+02  0.70193615585E+02  0.10566000000E+00 0.  1.
         13    1    4    4    0    0 -0.12871952213E+02  0.54178402035E+01 -0.85737619826E+01  0.16387821845E+02  0.10566000000E+00 0. -1.
        -13    1    4    4    0    0 -0.46480650433E+01  0.27321837746E+01 -0.29821448258E+01  0.61622794989E+01  0.10566000000E+00 0.  1.
         14    1    4    4    0    0 -0.16187677281E+02  0.85358739588E+01 -0.10764514923E+02  0.21231505399E+02  0.00000000000E+00 0. -1.
<mgrwt>
<rscale>  0 0.79586079E+02</rscale>
<asrwt>0</asrwt>
<pdfrwt beam="1">  1        2 0.24914165E-02 0.79586079E+02</pdfrwt>
<pdfrwt beam="2">  1       -1 0.15043233E-01 0.79586079E+02</pdfrwt>
<totfact> 0.12064786E+05</totfact>
</mgrwt>
</event>
<event>
 8    1  0.2561077E-020  0.8340738E+02  0.7818608E-02  0.1319651E+00
         -1   -1    0    0    0  501 -0.00000000000E+00  0.00000000000E+00  0.22556532445E+01  0.22556588751E+01  0.50400000000E-02 0.  1.
          2   -1    0    0  501    0  0.00000000000E+00 -0.00000000000E+00 -0.77103845459E+03  0.77103845460E+03  0.25500000000E-02 0. -1.
         24    2    1    2    0    0 -0.88817841970E-15  0.00000000000E+00 -0.76878280135E+03  0.77329411347E+03  0.83407375463E+02 0.  0.
         66    2    3    3    0    0 -0.59359841870E+01  0.31157595839E+02 -0.63530740525E+03  0.63610182428E+03  0.19999993691E+01 0.  0.
        -13    1    3    3    0    0  0.59359841870E+01 -0.31157595839E+02 -0.13347539610E+03  0.13719228919E+03  0.10566000000E+00 0.  1.
         13    1    4    4    0    0 -0.61843549550E+00  0.51074886838E+01 -0.11178002031E+03  0.11189840485E+03  0.10566000000E+00 0.  1.
        -13    1    4    4    0    0 -0.33159823808E+01  0.17788470159E+02 -0.36508168910E+03  0.36552985691E+03  0.10566000000E+00 0. -1.
         14    1    4    4    0    0 -0.20015663106E+01  0.82616369956E+01 -0.15844569584E+03  0.15867356252E+03  0.00000000000E+00 0. -1.
<mgrwt>
<rscale>  0 0.83407375E+02</rscale>
<asrwt>0</asrwt>
<pdfrwt beam="1">  1        2 0.11862109E+00 0.83407375E+02</pdfrwt>
<pdfrwt beam="2">  1       -1 0.34702463E-03 0.83407375E+02</pdfrwt>
<totfact> 0.30624017E+05</totfact>
</mgrwt>
</event>
<event>
 8    1  0.2561077E-020  0.7996416E+02  0.7818608E-02  0.1329153E+00
         -1   -1    0    0    0  501 -0.00000000000E+00  0.00000000000E+00  0.51934646098E+02  0.51934646343E+02  0.50400000000E-02 0.  1.
          2   -1    0    0  501    0  0.00000000000E+00 -0.00000000000E+00 -0.30780352363E+02  0.30780352468E+02  0.25500000000E-02 0. -1.
         24    2    1    2    0    0 -0.44408920985E-15  0.71054273576E-14  0.21154293736E+02  0.82714998811E+02  0.79964160003E+02 0.  0.
         66    2    3    3    0    0  0.36617158932E+01 -0.37778210037E+02 -0.23342800357E+01  0.38079524369E+02  0.19999990032E+01 0.  0.
        -13    1    3    3    0    0 -0.36617158932E+01  0.37778210037E+02  0.23488573771E+02  0.44635474443E+02  0.10566000000E+00 0.  1.
         13    1    4    4    0    0  0.20684772329E+01 -0.22895556042E+02 -0.20761106796E+01  0.23082601329E+02  0.10566000000E+00 0. -1.
        -13    1    4    4    0    0  0.16033532650E+01 -0.13666782110E+02 -0.36483939046E-01  0.13760965448E+02  0.10566000000E+00 0.  1.
         14    1    4    4    0    0 -0.10114604747E-01 -0.12158718850E+01 -0.22168541715E+00  0.12359575924E+01  0.00000000000E+00 0. -1.
<mgrwt>
<rscale>  0 0.79964160E+02</rscale>
<asrwt>0</asrwt>
<pdfrwt beam="1">  1        2 0.47354388E-02 0.79964160E+02</pdfrwt>
<pdfrwt beam="2">  1       -1 0.79899456E-02 0.79964160E+02</pdfrwt>
<totfact> 0.13540634E+05</totfact>
</mgrwt>
</event>
<event>
 8    1  0.2561077E-020  0.7756978E+02  0.7818608E-02  0.1336093E+00
         -1   -1    0    0    0  501 -0.00000000000E+00  0.00000000000E+00  0.15144026023E+01  0.15144109890E+01  0.50400000000E-02 0.  1.
          2   -1    0    0  501    0  0.00000000000E+00 -0.00000000000E+00 -0.99330492812E+03  0.99330492812E+03  0.25500000000E-02 0. -1.
         24    2    1    2    0    0 -0.35527136788E-14  0.00000000000E+00 -0.99179052552E+03  0.99481933911E+03  0.77569781263E+02 0.  0.
         66    2    3    3    0    0 -0.16318573528E+02 -0.17332830589E+02 -0.88849195009E+03  0.88881306710E+03  0.20000000501E+01 0.  0.
        -13    1    3    3    0    0  0.16318573528E+02  0.17332830589E+02 -0.10329857542E+03  0.10600627202E+03  0.10566000000E+00 0.  1.
         13    1    4    4    0    0 -0.31399458814E+01 -0.38588516642E+01 -0.19639498288E+03  0.19645801195E+03  0.10566000000E+00 0. -1.
        -13    1    4    4    0    0 -0.54920943896E+01 -0.61360546023E+01 -0.27996167618E+03  0.28008278341E+03  0.10566000000E+00 0.  1.
        -14    1    4    4    0    0 -0.76865332574E+01 -0.73379243227E+01 -0.41213529103E+03  0.41227227174E+03  0.00000000000E+00 0.  1.
<mgrwt>
<rscale>  0 0.77569781E+02</rscale>
<asrwt>0</asrwt>
<pdfrwt beam="1">  1        2 0.15281562E+00 0.77569781E+02</pdfrwt>
<pdfrwt beam="2">  1       -1 0.23298646E-03 0.77569781E+02</pdfrwt>
<totfact> 0.38152695E+05</totfact>
</mgrwt>
</event>
<event>
 8    1  0.2561077E-020  0.8081414E+02  0.7818608E-02  0.1326757E+00
          2   -1    0    0  501    0  0.00000000000E+00  0.00000000000E+00  0.23679973156E+03  0.23679973157E+03  0.25500000000E-02 0. -1.
         -1   -1    0    0    0  501 -0.00000000000E+00 -0.00000000000E+00 -0.68949863073E+01  0.68949881493E+01  0.50400000000E-02 0.  1.
         24    2    1    2    0    0  0.00000000000E+00  0.00000000000E+00  0.22990474525E+03  0.24369471972E+03  0.80814135713E+02 0.  0.
         66    2    3    3    0    0  0.17779502059E+02  0.12737672160E+02  0.21738822577E+03  0.21849485049E+03  0.19999998476E+01 0.  0.
        -13    1    3    3    0    0 -0.17779502059E+02 -0.12737672160E+02  0.12516519479E+02  0.25199869234E+02  0.10566000000E+00 0.  1.
         13    1    4    4    0    0  0.91270025529E+01  0.59391722386E+01  0.10544520676E+03  0.10600603160E+03  0.10566000000E+00 0. -1.
        -13    1    4    4    0    0  0.52184295853E+01  0.34525660834E+01  0.66272033166E+02  0.66566851840E+02  0.10566000000E+00 0.  1.
        -14    1    4    4    0    0  0.34340699208E+01  0.33459338382E+01  0.45670985848E+02  0.45921967051E+02  0.00000000000E+00 0.  1.
<mgrwt>
<rscale>  0 0.80814136E+02</rscale>
<asrwt>0</asrwt>
<pdfrwt beam="1">  1        2 0.36430735E-01 0.80814136E+02</pdfrwt>
<pdfrwt beam="2">  1       -1 0.10607671E-02 0.80814136E+02</pdfrwt>
<totfact> 0.22794479E+05</totfact>
</mgrwt>
</event>
<event>
 8    1  0.2561077E-020  0.7770070E+02  0.7818608E-02  0.1335706E+00
          2   -1    0    0  501    0  0.00000000000E+00  0.00000000000E+00  0.47011418941E+02  0.47011419010E+02  0.25500000000E-02 0. -1.
         -1   -1    0    0    0  501 -0.00000000000E+00 -0.00000000000E+00 -0.32106018735E+02  0.32106019130E+02  0.50400000000E-02 0.  1.
         24    2    1    2    0    0  0.17763568394E-14  0.71054273576E-14  0.14905400206E+02  0.79117438140E+02  0.77700695380E+02 0.  0.
         66    2    3    3    0    0  0.11532080824E+02  0.36567747713E+02  0.12509487677E+01  0.38415542987E+02  0.20000023231E+01 0.  0.
        -13    1    3    3    0    0 -0.11532080824E+02 -0.36567747713E+02  0.13654451439E+02  0.40701895153E+02  0.10566000000E+00 0.  1.
         13    1    4    4    0    0  0.84658094586E+01  0.24676894351E+02  0.25837177067E+00  0.26090169885E+02  0.10566000000E+00 0. -1.
        -13    1    4    4    0    0  0.11660512437E+01  0.39220272337E+01  0.34303313691E+00  0.41074090243E+01  0.10566000000E+00 0.  1.
         14    1    4    4    0    0  0.19002201213E+01  0.79688261277E+01  0.64954386015E+00  0.82179640781E+01  0.00000000000E+00 0. -1.
<mgrwt>
<rscale>  0 0.77700695E+02</rscale>
<asrwt>0</asrwt>
<pdfrwt beam="1">  1        2 0.72325260E-02 0.77700695E+02</pdfrwt>
<pdfrwt beam="2">  1       -1 0.49393876E-02 0.77700695E+02</pdfrwt>
<totfact> 0.15972267E+05</totfact>
</mgrwt>
</event>
<event>
 8    1  0.2561077E-020  0.7789561E+02  0.7818608E-02  0.1335132E+00
         -1   -1    0    0    0  501 -0.00000000000E+00  0.00000000000E+00  0.22543868759E+01  0.22543925097E+01  0.50400000000E-02 0.  1.
          2   -1    0    0  501    0  0.00000000000E+00 -0.00000000000E+00 -0.67287898981E+03  0.67287898982E+03  0.25500000000E-02 0. -1.
         24    2    1    2    0    0 -0.35527136788E-14  0.00000000000E+00 -0.67062460294E+03  0.67513338233E+03  0.77895608788E+02 0.  0.
         66    2    3    3    0    0  0.18601641358E+02  0.22836420233E+02 -0.55606090985E+03  0.55684401642E+03  0.20000008390E+01 0.  0.
        -13    1    3    3    0    0 -0.18601641358E+02 -0.22836420233E+02 -0.11456369309E+03  0.11828936591E+03  0.10566000000E+00 0.  1.
         13    1    4    4    0    0  0.88019046142E+01  0.11840017173E+02 -0.26570626571E+03  0.26611555824E+03  0.10566000000E+00 0. -1.
        -13    1    4    4    0    0  0.80045773325E+01  0.86838717743E+01 -0.23268998123E+03  0.23298953071E+03  0.10566000000E+00 0.  1.
         14    1    4    4    0    0  0.17951594114E+01  0.23125312852E+01 -0.57664662903E+02  0.57738927475E+02  0.00000000000E+00 0. -1.
<mgrwt>
<rscale>  0 0.77895609E+02</rscale>
<asrwt>0</asrwt>
<pdfrwt beam="1">  1        2 0.10351968E+00 0.77895609E+02</pdfrwt>
<pdfrwt beam="2">  1       -1 0.34682972E-03 0.77895609E+02</pdfrwt>
<totfact> 0.35516517E+05</totfact>
</mgrwt>
</event>
<event>
 8    1  0.2561077E-020  0.8014371E+02  0.7818608E-02  0.1328644E+00
         -1   -1    0    0    0  501 -0.00000000000E+00  0.00000000000E+00  0.12822876385E+02  0.12822877375E+02  0.50400000000E-02 0.  1.
          2   -1    0    0  501    0  0.00000000000E+00 -0.00000000000E+00 -0.12522568766E+03  0.12522568768E+03  0.25500000000E-02 0. -1.
         24    2    1    2    0    0  0.00000000000E+00  0.00000000000E+00 -0.11240281127E+03  0.13804856506E+03  0.80143710500E+02 0.  0.
         66    2    3    3    0    0 -0.39344544959E+02 -0.73498662814E+01 -0.53967509681E+02  0.67219832269E+02  0.19999991744E+01 0.  0.
        -13    1    3    3    0    0  0.39344544959E+02  0.73498662814E+01 -0.58435301591E+02  0.70828732789E+02  0.10566000000E+00 0.  1.
         13    1    4    4    0    0 -0.11029474687E+01  0.70526468465E-01 -0.13548056044E+01  0.17516076509E+01  0.10566000000E+00 0. -1.
        -13    1    4    4    0    0 -0.19979165852E+02 -0.40900300157E+01 -0.28011268349E+02  0.34648776778E+02  0.10566000000E+00 0.  1.
         14    1    4    4    0    0 -0.18262431639E+02 -0.33303627342E+01 -0.24601435728E+02  0.30819447840E+02  0.00000000000E+00 0. -1.
<mgrwt>
<rscale>  0 0.80143711E+02</rscale>
<asrwt>0</asrwt>
<pdfrwt beam="1">  1        2 0.19265490E-01 0.80143711E+02</pdfrwt>
<pdfrwt beam="2">  1       -1 0.19727504E-02 0.80143711E+02</pdfrwt>
<totfact> 0.18838180E+05</totfact>
</mgrwt>
</event>
<event>
 8    1  0.2561077E-020  0.8224248E+02  0.7818608E-02  0.1322805E+00
         -1   -1    0    0    0  501 -0.00000000000E+00  0.00000000000E+00  0.33086441693E+01  0.33086480080E+01  0.50400000000E-02 0.  1.
          2   -1    0    0  501    0  0.00000000000E+00 -0.00000000000E+00 -0.51107200854E+03  0.51107200855E+03  0.25500000000E-02 0. -1.
         24    2    1    2    0    0  0.00000000000E+00 -0.35527136788E-14 -0.50776336437E+03  0.51438065655E+03  0.82242480752E+02 0.  0.
         66    2    3    3    0    0  0.25505770630E+02  0.27537335846E+02 -0.35870730255E+03  0.36067128817E+03  0.20000008655E+01 0.  0.
        -13    1    3    3    0    0 -0.25505770630E+02 -0.27537335846E+02 -0.14905606182E+03  0.15370936839E+03  0.10566000000E+00 0.  1.
         13    1    4    4    0    0  0.11812009462E+02  0.12538546235E+02 -0.17094987603E+03  0.17181562789E+03  0.10566000000E+00 0. -1.
        -13    1    4    4    0    0  0.18227687788E+01  0.20112236272E+01 -0.22051632522E+02  0.22218307033E+02  0.10566000000E+00 0.  1.
        -14    1    4    4    0    0  0.11870992388E+02  0.12987565984E+02 -0.16570579400E+03  0.16663735325E+03  0.00000000000E+00 0.  1.
<mgrwt>
<rscale>  0 0.82242481E+02</rscale>
<asrwt>0</asrwt>
<pdfrwt beam="1">  1        2 0.78626400E-01 0.82242481E+02</pdfrwt>
<pdfrwt beam="2">  1       -1 0.50902288E-03 0.82242481E+02</pdfrwt>
<totfact> 0.28529289E+05</totfact>
</mgrwt>
</event>
<event>
 8    1  0.2561077E-020  0.8365689E+02  0.7818608E-02  0.1318983E+00
          2   -1    0    0  501    0  0.00000000000E+00  0.00000000000E+00  0.13298323464E+03  0.13298323466E+03  0.25500000000E-02 0. -1.
         -1   -1    0    0    0  501 -0.00000000000E+00 -0.00000000000E+00 -0.13156687992E+02  0.13156688957E+02  0.50400000000E-02 0.  1.
         24    2    1    2    0    0 -0.35527136788E-14 -0.35527136788E-14  0.11982654665E+03  0.14613992362E+03  0.83656894481E+02 0.  0.
         66    2    3    3    0    0  0.31378707956E+02  0.20091574763E+02  0.93061098203E+02  0.10026296771E+03  0.20000012669E+01 0.  0.
        -13    1    3    3    0    0 -0.31378707956E+02 -0.20091574763E+02  0.26765448444E+02  0.45876955913E+02  0.10566000000E+00 0.  1.
         13    1    4    4    0    0  0.19347020248E+02  0.12781979735E+02  0.57627726437E+02  0.62118050651E+02  0.10566000000E+00 0. -1.
        -13    1    4    4    0    0  0.12479589091E+01  0.11581198056E+01  0.39876691754E+01  0.43372009881E+01  0.10566000000E+00 0.  1.
        -14    1    4    4    0    0  0.10783728799E+02  0.61514752224E+01  0.31445702591E+02  0.33807716067E+02  0.00000000000E+00 0.  1.
<mgrwt>
<rscale>  0 0.83656894E+02</rscale>
<asrwt>0</asrwt>
<pdfrwt beam="1">  1        2 0.20458959E-01 0.83656894E+02</pdfrwt>
<pdfrwt beam="2">  1       -1 0.20241060E-02 0.83656894E+02</pdfrwt>
<totfact> 0.17114614E+05</totfact>
</mgrwt>
</event>
<event>
 8    1  0.2561077E-020  0.7987814E+02  0.7818608E-02  0.1329398E+00
         -1   -1    0    0    0  501 -0.00000000000E+00  0.00000000000E+00  0.47700105630E+01  0.47700132256E+01  0.50400000000E-02 0.  1.
          2   -1    0    0  501    0  0.00000000000E+00 -0.00000000000E+00 -0.33440781803E+03  0.33440781804E+03  0.25500000000E-02 0. -1.
         24    2    1    2    0    0  0.00000000000E+00  0.00000000000E+00 -0.32963780746E+03  0.33917783126E+03  0.79878139125E+02 0.  0.
         66    2    3    3    0    0 -0.23251022009E+02  0.92422132951E+01 -0.29697068307E+03  0.29802955412E+03  0.19999996777E+01 0.  0.
        -13    1    3    3    0    0  0.23251022009E+02 -0.92422132951E+01 -0.32667124396E+02  0.41148277137E+02  0.10566000000E+00 0.  1.
         13    1    4    4    0    0 -0.48280166806E+01  0.14658566909E+01 -0.59214877931E+02  0.59429550001E+02  0.10566000000E+00 0. -1.
        -13    1    4    4    0    0 -0.16489324676E+02  0.73707706242E+01 -0.21135422816E+03  0.21212460257E+03  0.10566000000E+00 0.  1.
        -14    1    4    4    0    0 -0.19336806527E+01  0.40558597992E+00 -0.26401576975E+02  0.26475401557E+02  0.00000000000E+00 0.  1.
<mgrwt>
<rscale>  0 0.79878139E+02</rscale>
<asrwt>0</asrwt>
<pdfrwt beam="1">  1        2 0.51447338E-01 0.79878139E+02</pdfrwt>
<pdfrwt beam="2">  1       -1 0.73384825E-03 0.79878139E+02</pdfrwt>
<totfact> 0.26619289E+05</totfact>
</mgrwt>
</event>
<event>
 8    1  0.2561077E-020  0.8855093E+02  0.7818608E-02  0.1306399E+00
         -1   -1    0    0    0  501 -0.00000000000E+00  0.00000000000E+00  0.12351544249E+02  0.12351545278E+02  0.50400000000E-02 0.  1.
          2   -1    0    0  501    0  0.00000000000E+00 -0.00000000000E+00 -0.15871026070E+03  0.15871026072E+03  0.25500000000E-02 0. -1.
         24    2    1    2    0    0  0.00000000000E+00  0.35527136788E-14 -0.14635871645E+03  0.17106180600E+03  0.88550932181E+02 0.  0.
         66    2    3    3    0    0  0.38036900302E+02  0.21707499434E+02 -0.85478584821E+02  0.96065653379E+02  0.19999949965E+01 0.  0.
        -13    1    3    3    0    0 -0.38036900302E+02 -0.21707499434E+02 -0.60880131627E+02  0.74996152616E+02  0.10566000000E+00 0.  1.
         13    1    4    4    0    0  0.19489465639E+02  0.11111755529E+02 -0.44056881702E+02  0.49440169611E+02  0.10566000000E+00 0. -1.
        -13    1    4    4    0    0  0.59177244996E+01  0.28874633633E+01 -0.11767265295E+02  0.13484680362E+02  0.10566000000E+00 0. -1.
        -14    1    4    4    0    0  0.12629710163E+02  0.77082805418E+01 -0.29654437825E+02  0.33140803406E+02  0.00000000000E+00 0.  1.
<mgrwt>
<rscale>  0 0.88550932E+02</rscale>
<asrwt>0</asrwt>
<pdfrwt beam="1">  1        2 0.24416962E-01 0.88550932E+02</pdfrwt>
<pdfrwt beam="2">  1       -1 0.19002378E-02 0.88550932E+02</pdfrwt>
<totfact> 0.15563585E+05</totfact>
</mgrwt>
</event>
<event>
 8    1  0.2561077E-020  0.8004681E+02  0.7818608E-02  0.1328919E+00
          2   -1    0    0  501    0  0.00000000000E+00  0.00000000000E+00  0.12039830903E+03  0.12039830906E+03  0.25500000000E-02 0. -1.
         -1   -1    0    0    0  501 -0.00000000000E+00 -0.00000000000E+00 -0.13304779433E+02  0.13304780388E+02  0.50400000000E-02 0.  1.
         24    2    1    2    0    0  0.88817841970E-15  0.00000000000E+00  0.10709352960E+03  0.13370308945E+03  0.80046811589E+02 0.  0.
         66    2    3    3    0    0 -0.66548271605E+01  0.33276837331E+02  0.88943133470E+02  0.95218252550E+02  0.19999999938E+01 0.  0.
        -13    1    3    3    0    0  0.66548271605E+01 -0.33276837331E+02  0.18150396128E+02  0.38484836896E+02  0.10566000000E+00 0.  1.
         13    1    4    4    0    0 -0.24988009766E+01  0.11446571653E+02  0.28308114863E+02  0.30637045224E+02  0.10566000000E+00 0. -1.
        -13    1    4    4    0    0 -0.18562717974E+01  0.10907885361E+02  0.29764852392E+02  0.31755083215E+02  0.10566000000E+00 0.  1.
         14    1    4    4    0    0 -0.22997543865E+01  0.10922380317E+02  0.30870166215E+02  0.32826124111E+02  0.00000000000E+00 0. -1.
<mgrwt>
<rscale>  0 0.80046812E+02</rscale>
<asrwt>0</asrwt>
<pdfrwt beam="1">  1        2 0.18522816E-01 0.80046812E+02</pdfrwt>
<pdfrwt beam="2">  1       -1 0.20468893E-02 0.80046812E+02</pdfrwt>
<totfact> 0.18675935E+05</totfact>
</mgrwt>
</event>
<event>
 8    1  0.2561077E-020  0.7901261E+02  0.7818608E-02  0.1331877E+00
         -1   -1    0    0    0  501 -0.00000000000E+00  0.00000000000E+00  0.35110426560E+02  0.35110426922E+02  0.50400000000E-02 0.  1.
          2   -1    0    0  501    0  0.00000000000E+00 -0.00000000000E+00 -0.44452557530E+02  0.44452557603E+02  0.25500000000E-02 0. -1.
         24    2    1    2    0    0  0.00000000000E+00 -0.17763568394E-14 -0.93421309700E+01  0.79562984525E+02  0.79012613522E+02 0.  0.
         66    2    3    3    0    0  0.11275984957E+02  0.15740454189E+02 -0.39320597797E+02  0.43875040172E+02  0.20000010431E+01 0.  0.
        -13    1    3    3    0    0 -0.11275984957E+02 -0.15740454189E+02  0.29978466827E+02  0.35687944353E+02  0.10566000000E+00 0.  1.
         13    1    4    4    0    0  0.74157899242E+01  0.96900851336E+01 -0.24187965525E+02  0.27091705933E+02  0.10566000000E+00 0. -1.
        -13    1    4    4    0    0  0.27297999135E+01  0.33013671672E+01 -0.90665046390E+01  0.10028135577E+02  0.10566000000E+00 0.  1.
        -14    1    4    4    0    0  0.11303951194E+01  0.27490018886E+01 -0.60661276328E+01  0.67551986623E+01  0.00000000000E+00 0.  1.
<mgrwt>
<rscale>  0 0.79012614E+02</rscale>
<asrwt>0</asrwt>
<pdfrwt beam="1">  1        2 0.68388550E-02 0.79012614E+02</pdfrwt>
<pdfrwt beam="2">  1       -1 0.54016041E-02 0.79012614E+02</pdfrwt>
<totfact> 0.15077718E+05</totfact>
</mgrwt>
</event>
<event>
 8    1  0.2561077E-020  0.7523142E+02  0.7818608E-02  0.1343156E+00
          2   -1    0    0  501    0  0.00000000000E+00  0.00000000000E+00  0.77871422535E+02  0.77871422576E+02  0.25500000000E-02 0. -1.
         -1   -1    0    0    0  501 -0.00000000000E+00 -0.00000000000E+00 -0.18170227099E+02  0.18170227798E+02  0.50400000000E-02 0.  1.
         24    2    1    2    0    0  0.00000000000E+00  0.35527136788E-14  0.59701195436E+02  0.96041650374E+02  0.75231415447E+02 0.  0.
         66    2    3    3    0    0 -0.37118729506E+01 -0.24494656672E+02  0.65961069574E+02  0.70488501947E+02  0.20000002909E+01 0.  0.
        -13    1    3    3    0    0  0.37118729506E+01  0.24494656672E+02 -0.62598741382E+01  0.25553148427E+02  0.10566000000E+00 0.  1.
         13    1    4    4    0    0 -0.20283140587E+01 -0.10678687298E+02  0.28619200465E+02  0.30614019984E+02  0.10566000000E+00 0.  1.
        -13    1    4    4    0    0 -0.62285374817E+00 -0.24088030072E+01  0.78533316678E+01  0.82387050584E+01  0.10566000000E+00 0. -1.
        -14    1    4    4    0    0 -0.10607051437E+01 -0.11407166367E+02  0.29488537442E+02  0.31635776905E+02  0.00000000000E+00 0.  1.
<mgrwt>
<rscale>  0 0.75231415E+02</rscale>
<asrwt>0</asrwt>
<pdfrwt beam="1">  1        2 0.11980219E-01 0.75231415E+02</pdfrwt>
<pdfrwt beam="2">  1       -1 0.27954197E-02 0.75231415E+02</pdfrwt>
<totfact> 0.19558476E+05</totfact>
</mgrwt>
</event>
<event>
 8    1  0.2561077E-020  0.7968317E+02  0.7818608E-02  0.1329953E+00
          2   -1    0    0  501    0  0.00000000000E+00  0.00000000000E+00  0.14804280224E+02  0.14804280444E+02  0.25500000000E-02 0. -1.
         -1   -1    0    0    0  501 -0.00000000000E+00 -0.00000000000E+00 -0.10722250199E+03  0.10722250211E+03  0.50400000000E-02 0.  1.
         24    2    1    2    0    0 -0.35527136788E-14 -0.35527136788E-14 -0.92418221771E+02  0.12202678256E+03  0.79683172288E+02 0.  0.
         66    2    3    3    0    0 -0.29134386033E+02 -0.25028729567E+02 -0.30169585244E+02  0.48882037929E+02  0.20000012436E+01 0.  0.
        -13    1    3    3    0    0  0.29134386033E+02  0.25028729567E+02 -0.62248636526E+02  0.73144744628E+02  0.10566000000E+00 0.  1.
         13    1    4    4    0    0 -0.24433315477E+02 -0.20618577311E+02 -0.25165270349E+02  0.40686786937E+02  0.10566000000E+00 0. -1.
        -13    1    4    4    0    0 -0.28851204089E+01 -0.23369659383E+01 -0.31845022442E+01  0.48926013684E+01  0.10566000000E+00 0.  1.
         14    1    4    4    0    0 -0.18159501470E+01 -0.20731863179E+01 -0.18198126514E+01  0.33026496229E+01  0.00000000000E+00 0. -1.
<mgrwt>
<rscale>  0 0.79683172E+02</rscale>
<asrwt>0</asrwt>
<pdfrwt beam="1">  1        2 0.22775817E-02 0.79683172E+02</pdfrwt>
<pdfrwt beam="2">  1       -1 0.16495769E-01 0.79683172E+02</pdfrwt>
<totfact> 0.11791579E+05</totfact>
</mgrwt>
</event>
<event>
 8    1  0.2561077E-020  0.8703782E+02  0.7818608E-02  0.1310188E+00
         -1   -1    0    0    0  501 -0.00000000000E+00  0.00000000000E+00  0.18304026632E+02  0.18304027326E+02  0.50400000000E-02 0.  1.
          2   -1    0    0  501    0  0.00000000000E+00 -0.00000000000E+00 -0.10346878793E+03  0.10346878796E+03  0.25500000000E-02 0. -1.
         24    2    1    2    0    0  0.00000000000E+00  0.71054273576E-14 -0.85164761294E+02  0.12177281528E+03  0.87037819227E+02 0.  0.
         66    2    3    3    0    0  0.10562766001E+02 -0.42159863045E+02 -0.40236942254E+02  0.59262446821E+02  0.20000009237E+01 0.  0.
        -13    1    3    3    0    0 -0.10562766001E+02  0.42159863045E+02 -0.44927819041E+02  0.62510368463E+02  0.10566000000E+00 0.  1.
         13    1    4    4    0    0  0.39202039965E+00 -0.15269145589E+01 -0.11387936292E+01  0.19476044336E+01  0.10566000000E+00 0.  1.
        -13    1    4    4    0    0  0.82651204949E+00 -0.40767171708E+01 -0.34220428498E+01  0.53874192671E+01  0.10566000000E+00 0. -1.
        -14    1    4    4    0    0  0.93442335520E+01 -0.36556231315E+02 -0.35676105775E+02  0.51927423120E+02  0.00000000000E+00 0.  1.
<mgrwt>
<rscale>  0 0.87037819E+02</rscale>
<asrwt>0</asrwt>
<pdfrwt beam="1">  1        2 0.15918275E-01 0.87037819E+02</pdfrwt>
<pdfrwt beam="2">  1       -1 0.28160042E-02 0.87037819E+02</pdfrwt>
<totfact> 0.14265262E+05</totfact>
</mgrwt>
</event>
<event>
 8    1  0.2561077E-020  0.7966247E+02  0.7818608E-02  0.1330012E+00
         -1   -1    0    0    0  501 -0.00000000000E+00  0.00000000000E+00  0.83016796139E+00  0.83018326032E+00  0.50400000000E-02 0.  1.
          2   -1    0    0  501    0  0.00000000000E+00 -0.00000000000E+00 -0.19110742816E+04  0.19110742816E+04  0.25500000000E-02 0. -1.
         24    2    1    2    0    0 -0.17763568394E-14  0.00000000000E+00 -0.19102441136E+04  0.19119044648E+04  0.79662469634E+02 0.  0.
         66    2    3    3    0    0 -0.11021374318E+02 -0.10646600342E+02 -0.18374436115E+04  0.18375085976E+04  0.19999998928E+01 0.  0.
        -13    1    3    3    0    0  0.11021374318E+02  0.10646600342E+02 -0.72800502092E+02  0.74395867221E+02  0.10566000000E+00 0.  1.
         13    1    4    4    0    0 -0.95002355844E+00 -0.65586499883E+00 -0.17045333515E+03  0.17045727715E+03  0.10566000000E+00 0. -1.
        -13    1    4    4    0    0 -0.23510786123E+01 -0.22373174464E+01 -0.45940418070E+03  0.45941565665E+03  0.10566000000E+00 0.  1.
         14    1    4    4    0    0 -0.77202721477E+01 -0.77534178972E+01 -0.12075860957E+04  0.12076356638E+04  0.00000000000E+00 0. -1.
<mgrwt>
<rscale>  0 0.79662470E+02</rscale>
<asrwt>0</asrwt>
<pdfrwt beam="1">  1        2 0.29400791E+00 0.79662470E+02</pdfrwt>
<pdfrwt beam="2">  1       -1 0.12772085E-03 0.79662470E+02</pdfrwt>
<totfact> 0.29205663E+05</totfact>
</mgrwt>
</event>
<event>
 8    1  0.2561077E-020  0.8519078E+02  0.7818608E-02  0.1314934E+00
          2   -1    0    0  501    0  0.00000000000E+00  0.00000000000E+00  0.26171990415E+02  0.26171990539E+02  0.25500000000E-02 0. -1.
         -1   -1    0    0    0  501 -0.00000000000E+00 -0.00000000000E+00 -0.69324771164E+02  0.69324771347E+02  0.50400000000E-02 0.  1.
         24    2    1    2    0    0  0.35527136788E-14 -0.35527136788E-14 -0.43152780749E+02  0.95496761887E+02  0.85190780279E+02 0.  0.
         66    2    3    3    0    0 -0.22752433912E+02  0.25488301552E+02  0.68817758188E+01  0.34909677621E+02  0.19999970674E+01 0.  0.
        -13    1    3    3    0    0  0.22752433912E+02 -0.25488301552E+02 -0.50034556568E+02  0.60587084266E+02  0.10566000000E+00 0.  1.
         13    1    4    4    0    0 -0.12908576307E+02  0.13383110904E+02  0.43939354394E+01  0.19106460489E+02  0.10566000000E+00 0. -1.
        -13    1    4    4    0    0 -0.17271051710E+01  0.21471962893E+01  0.35304205000E+00  0.27801343315E+01  0.10566000000E+00 0.  1.
         14    1    4    4    0    0 -0.81167524337E+01  0.99579943584E+01  0.21347983294E+01  0.13023082800E+02  0.00000000000E+00 0. -1.
<mgrwt>
<rscale>  0 0.85190780E+02</rscale>
<asrwt>0</asrwt>
<pdfrwt beam="1">  1        2 0.40264601E-02 0.85190780E+02</pdfrwt>
<pdfrwt beam="2">  1       -1 0.10665349E-01 0.85190780E+02</pdfrwt>
<totfact> 0.10956129E+05</totfact>
</mgrwt>
</event>
<event>
 8    1  0.2561077E-020  0.8118714E+02  0.7818608E-02  0.1325716E+00
          2   -1    0    0  501    0  0.00000000000E+00  0.00000000000E+00  0.70596782347E+02  0.70596782393E+02  0.25500000000E-02 0. -1.
         -1   -1    0    0    0  501 -0.00000000000E+00 -0.00000000000E+00 -0.23341542582E+02  0.23341543126E+02  0.50400000000E-02 0.  1.
         24    2    1    2    0    0  0.00000000000E+00  0.00000000000E+00  0.47255239765E+02  0.93938325518E+02  0.81187137626E+02 0.  0.
         66    2    3    3    0    0  0.10226178808E+02  0.23709481158E+02  0.59847309201E+02  0.65210540945E+02  0.20000004655E+01 0.  0.
        -13    1    3    3    0    0 -0.10226178808E+02 -0.23709481158E+02 -0.12592069436E+02  0.28727784574E+02  0.10566000000E+00 0.  1.
         13    1    4    4    0    0  0.54004355393E+01  0.14448567952E+02  0.34903236984E+02  0.38159834065E+02  0.10566000000E+00 0. -1.
        -13    1    4    4    0    0  0.86909691857E+00  0.21466018685E+01  0.51264688412E+01  0.56262843735E+01  0.10566000000E+00 0. -1.
         14    1    4    4    0    0  0.39566463505E+01  0.71143113375E+01  0.19817603376E+02  0.21424422506E+02  0.00000000000E+00 0. -1.
<mgrwt>
<rscale>  0 0.81187138E+02</rscale>
<asrwt>0</asrwt>
<pdfrwt beam="1">  1        2 0.10861043E-01 0.81187138E+02</pdfrwt>
<pdfrwt beam="2">  1       -1 0.35910066E-02 0.81187138E+02</pdfrwt>
<totfact> 0.15547189E+05</totfact>
</mgrwt>
</event>
<event>
 8    1  0.2561077E-020  0.7995064E+02  0.7818608E-02  0.1329192E+00
         -1   -1    0    0    0  501 -0.00000000000E+00  0.00000000000E+00  0.64167627936E+01  0.64167647729E+01  0.50400000000E-02 0.  1.
          2   -1    0    0  501    0  0.00000000000E+00 -0.00000000000E+00 -0.24903929020E+03  0.24903929021E+03  0.25500000000E-02 0. -1.
         24    2    1    2    0    0  0.00000000000E+00  0.00000000000E+00 -0.24262252740E+03  0.25545605498E+03  0.79950642423E+02 0.  0.
         66    2    3    3    0    0 -0.38925750758E+02 -0.18951145011E+01 -0.14946374967E+03  0.15447400429E+03  0.20000005774E+01 0.  0.
        -13    1    3    3    0    0  0.38925750758E+02  0.18951145011E+01 -0.93158777728E+02  0.10098205070E+03  0.10566000000E+00 0.  1.
         13    1    4    4    0    0 -0.16645645425E+02 -0.74830799746E+00 -0.64945311623E+02  0.67048804183E+02  0.10566000000E+00 0. -1.
        -13    1    4    4    0    0 -0.98069001175E+01 -0.26360859477E+00 -0.39795884973E+02  0.40987417633E+02  0.10566000000E+00 0.  1.
        -14    1    4    4    0    0 -0.12473205215E+02 -0.88319790892E+00 -0.44722553078E+02  0.46437782470E+02  0.00000000000E+00 0.  1.
<mgrwt>
<rscale>  0 0.79950642E+02</rscale>
<asrwt>0</asrwt>
<pdfrwt beam="1">  1        2 0.38313729E-01 0.79950642E+02</pdfrwt>
<pdfrwt beam="2">  1       -1 0.98719463E-03 0.79950642E+02</pdfrwt>
<totfact> 0.23874183E+05</totfact>
</mgrwt>
</event>
<event>
 8    1  0.2561077E-020  0.7998622E+02  0.7818608E-02  0.1329091E+00
          2   -1    0    0  501    0  0.00000000000E+00  0.00000000000E+00  0.23755046920E+03  0.23755046922E+03  0.25500000000E-02 0. -1.
         -1   -1    0    0    0  501 -0.00000000000E+00 -0.00000000000E+00 -0.67330900178E+01  0.67330919041E+01  0.50400000000E-02 0.  1.
         24    2    1    2    0    0  0.00000000000E+00 -0.17763568394E-14  0.23081737919E+03  0.24428356112E+03  0.79986221938E+02 0.  0.
         66    2    3    3    0    0 -0.28100162585E+02  0.15471658264E+02  0.18829653912E+03  0.19101983659E+03  0.19999951168E+01 0.  0.
        -13    1    3    3    0    0  0.28100162585E+02 -0.15471658264E+02  0.42520840066E+02  0.53263724529E+02  0.10566000000E+00 0.  1.
         13    1    4    4    0    0 -0.28959816094E+01  0.16598398762E+01  0.21359334544E+02  0.21618837020E+02  0.10566000000E+00 0. -1.
        -13    1    4    4    0    0 -0.10736320389E+02  0.63787046849E+01  0.68553578515E+02  0.69681853737E+02  0.10566000000E+00 0.  1.
        -14    1    4    4    0    0 -0.14467860587E+02  0.74331137025E+01  0.98383626062E+02  0.99719145837E+02  0.00000000000E+00 0.  1.
<mgrwt>
<rscale>  0 0.79986222E+02</rscale>
<asrwt>0</asrwt>
<pdfrwt beam="1">  1        2 0.36546227E-01 0.79986222E+02</pdfrwt>
<pdfrwt beam="2">  1       -1 0.10358601E-02 0.79986222E+02</pdfrwt>
<totfact> 0.23447291E+05</totfact>
</mgrwt>
</event>
<event>
 8    1  0.2561077E-020  0.8028316E+02  0.7818608E-02  0.1328250E+00
          2   -1    0    0  501    0  0.00000000000E+00  0.00000000000E+00  0.29825374175E+03  0.29825374177E+03  0.25500000000E-02 0. -1.
         -1   -1    0    0    0  501 -0.00000000000E+00 -0.00000000000E+00 -0.54026020473E+01  0.54026043982E+01  0.50400000000E-02 0.  1.
         24    2    1    2    0    0  0.00000000000E+00  0.00000000000E+00  0.29285113971E+03  0.30365634616E+03  0.80283164721E+02 0.  0.
         66    2    3    3    0    0 -0.36818916352E+02 -0.12651062998E+02  0.10991171100E+03  0.11662017924E+03  0.19999989037E+01 0.  0.
        -13    1    3    3    0    0  0.36818916352E+02  0.12651062998E+02  0.18293942871E+03  0.18703616692E+03  0.10566000000E+00 0.  1.
         13    1    4    4    0    0 -0.78346514166E+01 -0.25085147453E+01  0.22359609598E+02  0.23825148781E+02  0.10566000000E+00 0. -1.
        -13    1    4    4    0    0 -0.62407951062E+01 -0.21010637523E+01  0.16882723087E+02  0.18121796139E+02  0.10566000000E+00 0.  1.
         14    1    4    4    0    0 -0.22743469829E+02 -0.80414845008E+01  0.70669378315E+02  0.74673234323E+02  0.00000000000E+00 0. -1.
<mgrwt>
<rscale>  0 0.80283165E+02</rscale>
<asrwt>0</asrwt>
<pdfrwt beam="1">  1        2 0.45885178E-01 0.80283165E+02</pdfrwt>
<pdfrwt beam="2">  1       -1 0.83116996E-03 0.80283165E+02</pdfrwt>
<totfact> 0.25206010E+05</totfact>
</mgrwt>
</event>
<event>
 8    1  0.2561077E-020  0.8068449E+02  0.7818608E-02  0.1327120E+00
         -1   -1    0    0    0  501 -0.00000000000E+00  0.00000000000E+00  0.53233567014E+02  0.53233567252E+02  0.50400000000E-02 0.  1.
          2   -1    0    0  501    0  0.00000000000E+00 -0.00000000000E+00 -0.30572754682E+02  0.30572754788E+02  0.25500000000E-02 0. -1.
         24    2    1    2    0    0  0.00000000000E+00 -0.17763568394E-14  0.22660812332E+02  0.83806322040E+02  0.80684491685E+02 0.  0.
         66    2    3    3    0    0 -0.89519243783E+01  0.10712040535E+02 -0.27949473192E+02  0.31305875116E+02  0.20000006505E+01 0.  0.
        -13    1    3    3    0    0  0.89519243783E+01 -0.10712040535E+02  0.50610285523E+02  0.52500446924E+02  0.10566000000E+00 0.  1.
         13    1    4    4    0    0 -0.30552253425E+01  0.46179086021E+01 -0.11516584587E+02  0.12778981428E+02  0.10566000000E+00 0. -1.
        -13    1    4    4    0    0 -0.25678278140E+01  0.24792647502E+01 -0.81132053795E+01  0.88642968672E+01  0.10566000000E+00 0.  1.
        -14    1    4    4    0    0 -0.33288712218E+01  0.36148671825E+01 -0.83196832253E+01  0.96625968211E+01  0.00000000000E+00 0.  1.
<mgrwt>
<rscale>  0 0.80684492E+02</rscale>
<asrwt>0</asrwt>
<pdfrwt beam="1">  1        2 0.47035008E-02 0.80684492E+02</pdfrwt>
<pdfrwt beam="2">  1       -1 0.81897795E-02 0.80684492E+02</pdfrwt>
<totfact> 0.13186973E+05</totfact>
</mgrwt>
</event>
<event>
 8    1  0.2561077E-020  0.8014186E+02  0.7818608E-02  0.1328649E+00
         -1   -1    0    0    0  501 -0.00000000000E+00  0.00000000000E+00  0.91071726096E+02  0.91071726235E+02  0.50400000000E-02 0.  1.
          2   -1    0    0  501    0  0.00000000000E+00 -0.00000000000E+00 -0.17630932974E+02  0.17630933158E+02  0.25500000000E-02 0. -1.
         24    2    1    2    0    0  0.00000000000E+00  0.00000000000E+00  0.73440793122E+02  0.10870265939E+03  0.80141862124E+02 0.  0.
         66    2    3    3    0    0 -0.39359813457E+02 -0.44868890869E+01  0.28793916391E+02  0.49014454068E+02  0.19999993455E+01 0.  0.
        -13    1    3    3    0    0  0.39359813457E+02  0.44868890869E+01  0.44646876731E+02  0.59688205325E+02  0.10566000000E+00 0.  1.
         13    1    4    4    0    0 -0.14425276798E+02 -0.14716282307E+01  0.10500674479E+02  0.17903341278E+02  0.10566000000E+00 0. -1.
        -13    1    4    4    0    0 -0.12910456750E+02 -0.23139447332E+01  0.92767487130E+01  0.16065598789E+02  0.10566000000E+00 0.  1.
        -14    1    4    4    0    0 -0.12024079908E+02 -0.70131612296E+00  0.90164931988E+01  0.15045514001E+02  0.00000000000E+00 0.  1.
<mgrwt>
<rscale>  0 0.80141862E+02</rscale>
<asrwt>0</asrwt>
<pdfrwt beam="1">  1        2 0.27124513E-02 0.80141862E+02</pdfrwt>
<pdfrwt beam="2">  1       -1 0.14011034E-01 0.80141862E+02</pdfrwt>
<totfact> 0.12036572E+05</totfact>
</mgrwt>
</event>
<event>
 8    1  0.2561077E-020  0.7973749E+02  0.7818608E-02  0.1329798E+00
         -1   -1    0    0    0  501 -0.00000000000E+00  0.00000000000E+00  0.89447290046E+00  0.89448709955E+00  0.50400000000E-02 0.  1.
          2   -1    0    0  501    0  0.00000000000E+00 -0.00000000000E+00 -0.17770288504E+04  0.17770288504E+04  0.25500000000E-02 0. -1.
         24    2    1    2    0    0 -0.17763568394E-14 -0.88817841970E-15 -0.17761343775E+04  0.17779233375E+04  0.79737488652E+02 0.  0.
         66    2    3    3    0    0 -0.99643669209E+01 -0.67391786387E+01 -0.17355680472E+04  0.17356108871E+04  0.19999999878E+01 0.  0.
        -13    1    3    3    0    0  0.99643669209E+01  0.67391786387E+01 -0.40566330369E+02  0.42312450420E+02  0.10566000000E+00 0.  1.
         13    1    4    4    0    0 -0.98865908732E+00 -0.27581445881E+00 -0.12836679253E+03  0.12837093951E+03  0.10566000000E+00 0. -1.
        -13    1    4    4    0    0 -0.87233279569E+01 -0.60670719100E+01 -0.15650615602E+04  0.15650976341E+04  0.10566000000E+00 0.  1.
        -14    1    4    4    0    0 -0.25237987670E+00 -0.39629226988E+00 -0.42139694388E+02  0.42142313490E+02  0.00000000000E+00 0.  1.
<mgrwt>
<rscale>  0 0.79737489E+02</rscale>
<asrwt>0</asrwt>
<pdfrwt beam="1">  1        2 0.27338623E+00 0.79737489E+02</pdfrwt>
<pdfrwt beam="2">  1       -1 0.13761373E-03 0.79737489E+02</pdfrwt>
<totfact> 0.30744982E+05</totfact>
</mgrwt>
</event>
<event>
 8    1  0.2561077E-020  0.8111490E+02  0.7818608E-02  0.1325917E+00
          2   -1    0    0  501    0  0.00000000000E+00  0.00000000000E+00  0.26570313379E+03  0.26570313380E+03  0.25500000000E-02 0. -1.
         -1   -1    0    0    0  501 -0.00000000000E+00 -0.00000000000E+00 -0.61907674703E+01  0.61907695219E+01  0.50400000000E-02 0.  1.
         24    2    1    2    0    0  0.00000000000E+00  0.00000000000E+00  0.25951236632E+03  0.27189390333E+03  0.81114896240E+02 0.  0.
         66    2    3    3    0    0 -0.52723489065E+01 -0.33558745299E+02  0.20395142179E+03  0.20677081395E+03  0.20000001825E+01 0.  0.
        -13    1    3    3    0    0  0.52723489065E+01  0.33558745299E+02  0.55560944529E+02  0.65123089377E+02  0.10566000000E+00 0.  1.
         13    1    4    4    0    0 -0.71380687134E+00 -0.71913647264E+01  0.45657316610E+02  0.46225825801E+02  0.10566000000E+00 0. -1.
        -13    1    4    4    0    0 -0.26549388275E+01 -0.12073158766E+02  0.71256966396E+02  0.72321340466E+02  0.10566000000E+00 0.  1.
        -14    1    4    4    0    0 -0.19036032077E+01 -0.14294221807E+02  0.87037138787E+02  0.88223647683E+02  0.00000000000E+00 0.  1.
<mgrwt>
<rscale>  0 0.81114896E+02</rscale>
<asrwt>0</asrwt>
<pdfrwt beam="1">  1        2 0.40877390E-01 0.81114896E+02</pdfrwt>
<pdfrwt beam="2">  1       -1 0.95242629E-03 0.81114896E+02</pdfrwt>
<totfact> 0.23526343E+05</totfact>
</mgrwt>
</event>
<event>
 8    1  0.2561077E-020  0.7973007E+02  0.7818608E-02  0.1329819E+00
          2   -1    0    0  501    0  0.00000000000E+00  0.00000000000E+00  0.25115494710E+02  0.25115494840E+02  0.25500000000E-02 0. -1.
         -1   -1    0    0    0  501 -0.00000000000E+00 -0.00000000000E+00 -0.63276519155E+02  0.63276519356E+02  0.50400000000E-02 0.  1.
         24    2    1    2    0    0 -0.35527136788E-14 -0.35527136788E-14 -0.38161024445E+02  0.88392014196E+02  0.79730072036E+02 0.  0.
         66    2    3    3    0    0  0.10694817789E+02  0.19583248820E+02  0.17498262365E+02  0.28426606383E+02  0.20000006921E+01 0.  0.
        -13    1    3    3    0    0 -0.10694817789E+02 -0.19583248820E+02 -0.55659286810E+02  0.59965407813E+02  0.10566000000E+00 0.  1.
         13    1    4    4    0    0  0.24519364942E+01  0.47994468909E+01  0.47145001881E+01  0.71613098724E+01  0.10566000000E+00 0. -1.
        -13    1    4    4    0    0  0.14157064682E+01  0.37836478448E+01  0.32838976204E+01  0.52072414419E+01  0.10566000000E+00 0.  1.
        -14    1    4    4    0    0  0.68271748270E+01  0.11000154084E+02  0.94998645564E+01  0.16058055069E+02  0.00000000000E+00 0.  1.
<mgrwt>
<rscale>  0 0.79730072E+02</rscale>
<asrwt>0</asrwt>
<pdfrwt beam="1">  1        2 0.38639223E-02 0.79730072E+02</pdfrwt>
<pdfrwt beam="2">  1       -1 0.97348491E-02 0.79730072E+02</pdfrwt>
<totfact> 0.13117059E+05</totfact>
</mgrwt>
</event>
<event>
 8    1  0.2561077E-020  0.7945414E+02  0.7818608E-02  0.1330608E+00
         -1   -1    0    0    0  501 -0.00000000000E+00  0.00000000000E+00  0.42341167071E+01  0.42341197067E+01  0.50400000000E-02 0.  1.
          2   -1    0    0  501    0  0.00000000000E+00 -0.00000000000E+00 -0.37274352892E+03  0.37274352892E+03  0.25500000000E-02 0. -1.
         24    2    1    2    0    0  0.00000000000E+00  0.00000000000E+00 -0.36850941221E+03  0.37697764863E+03  0.79454142001E+02 0.  0.
         66    2    3    3    0    0  0.10676099400E+02  0.28183276466E+02 -0.30699470348E+03  0.30847694261E+03  0.19999973315E+01 0.  0.
        -13    1    3    3    0    0 -0.10676099400E+02 -0.28183276466E+02 -0.61514708730E+02  0.68500706018E+02  0.10566000000E+00 0.  1.
         13    1    4    4    0    0  0.72946820298E+01  0.19201585515E+02 -0.20764815371E+03  0.20866164040E+03  0.10566000000E+00 0. -1.
        -13    1    4    4    0    0  0.23949725879E+01  0.67975178083E+01 -0.69536956985E+02  0.69909525051E+02  0.10566000000E+00 0.  1.
        -14    1    4    4    0    0  0.98644478224E+00  0.21841731435E+01 -0.29809592785E+02  0.29905777161E+02  0.00000000000E+00 0.  1.
<mgrwt>
<rscale>  0 0.79454142E+02</rscale>
<asrwt>0</asrwt>
<pdfrwt beam="1">  1        2 0.57345133E-01 0.79454142E+02</pdfrwt>
<pdfrwt beam="2">  1       -1 0.65140310E-03 0.79454142E+02</pdfrwt>
<totfact> 0.28056769E+05</totfact>
</mgrwt>
</event>
<event>
 8    1  0.2561077E-020  0.7861589E+02  0.7818608E-02  0.1333026E+00
          2   -1    0    0  501    0  0.00000000000E+00  0.00000000000E+00  0.23489238843E+02  0.23489238982E+02  0.25500000000E-02 0. -1.
         -1   -1    0    0    0  501 -0.00000000000E+00 -0.00000000000E+00 -0.65779678982E+02  0.65779679175E+02  0.50400000000E-02 0.  1.
         24    2    1    2    0    0 -0.17763568394E-14  0.00000000000E+00 -0.42290440139E+02  0.89268918157E+02  0.78615891662E+02 0.  0.
         66    2    3    3    0    0 -0.12460030831E+02 -0.36161903498E+02 -0.10991539971E+02  0.39846575551E+02  0.19999998187E+01 0.  0.
        -13    1    3    3    0    0  0.12460030831E+02  0.36161903498E+02 -0.31298900167E+02  0.49422342606E+02  0.10566000000E+00 0.  1.
         13    1    4    4    0    0 -0.70328108317E+01 -0.21596799768E+02 -0.62536663617E+01  0.23558473962E+02  0.10566000000E+00 0. -1.
        -13    1    4    4    0    0 -0.16420095746E+01 -0.46129056459E+01 -0.20287202905E+01  0.53011285585E+01  0.10566000000E+00 0.  1.
        -14    1    4    4    0    0 -0.37852104245E+01 -0.99521980846E+01 -0.27091533188E+01  0.10986973031E+02  0.00000000000E+00 0.  1.
<mgrwt>
<rscale>  0 0.78615892E+02</rscale>
<asrwt>0</asrwt>
<pdfrwt beam="1">  1        2 0.36137291E-02 0.78615892E+02</pdfrwt>
<pdfrwt beam="2">  1       -1 0.10119951E-01 0.78615892E+02</pdfrwt>
<totfact> 0.13472375E+05</totfact>
</mgrwt>
</event>
<event>
 8    1  0.2561077E-020  0.7186264E+02  0.7818608E-02  0.1353871E+00
         -1   -1    0    0    0  501 -0.00000000000E+00  0.00000000000E+00  0.63606179086E+01  0.63606199054E+01  0.50400000000E-02 0.  1.
          2   -1    0    0  501    0  0.00000000000E+00 -0.00000000000E+00 -0.20297704730E+03  0.20297704732E+03  0.25500000000E-02 0. -1.
         24    2    1    2    0    0  0.00000000000E+00  0.00000000000E+00 -0.19661642939E+03  0.20933766722E+03  0.71862637101E+02 0.  0.
         66    2    3    3    0    0 -0.92420742779E+01 -0.16420722387E+02 -0.18741025504E+03  0.18836576052E+03  0.19999951464E+01 0.  0.
        -13    1    3    3    0    0  0.92420742779E+01  0.16420722387E+02 -0.92061743552E+01  0.20971906707E+02  0.10566000000E+00 0.  1.
         13    1    4    4    0    0 -0.35975448314E+01 -0.71948373928E+01 -0.81011264357E+02  0.81409729951E+02  0.10566000000E+00 0. -1.
        -13    1    4    4    0    0 -0.21038582880E+01 -0.28774664013E+01 -0.29690133831E+02  0.29903532292E+02  0.10566000000E+00 0.  1.
        -14    1    4    4    0    0 -0.35406711585E+01 -0.63484185924E+01 -0.76708856851E+02  0.77052498274E+02  0.00000000000E+00 0.  1.
<mgrwt>
<rscale>  0 0.71862637E+02</rscale>
<asrwt>0</asrwt>
<pdfrwt beam="1">  1        2 0.31227233E-01 0.71862637E+02</pdfrwt>
<pdfrwt beam="2">  1       -1 0.97855692E-03 0.71862637E+02</pdfrwt>
<totfact> 0.29372083E+05</totfact>
</mgrwt>
</event>
<event>
 8    1  0.2561077E-020  0.7964390E+02  0.7818608E-02  0.1330065E+00
          2   -1    0    0  501    0  0.00000000000E+00  0.00000000000E+00  0.28782471138E+02  0.28782471251E+02  0.25500000000E-02 0. -1.
         -1   -1    0    0    0  501 -0.00000000000E+00 -0.00000000000E+00 -0.55095603115E+02  0.55095603346E+02  0.50400000000E-02 0.  1.
         24    2    1    2    0    0  0.00000000000E+00  0.00000000000E+00 -0.26313131977E+02  0.83878074597E+02  0.79643897968E+02 0.  0.
         66    2    3    3    0    0  0.17957710799E+02  0.40587864015E+01  0.23993037182E+02  0.30308727544E+02  0.20000019774E+01 0.  0.
        -13    1    3    3    0    0 -0.17957710799E+02 -0.40587864015E+01 -0.50306169159E+02  0.53569347053E+02  0.10566000000E+00 0.  1.
         13    1    4    4    0    0  0.11626534344E+02  0.24061421223E+01  0.14508853722E+02  0.18747901779E+02  0.10566000000E+00 0. -1.
        -13    1    4    4    0    0  0.12753670891E+01  0.63435743061E+00  0.24933335720E+01  0.28734729681E+01  0.10566000000E+00 0.  1.
        -14    1    4    4    0    0  0.50558093657E+01  0.10182868486E+01  0.69908498881E+01  0.86873527962E+01  0.00000000000E+00 0.  1.
<mgrwt>
<rscale>  0 0.79643898E+02</rscale>
<asrwt>0</asrwt>
<pdfrwt beam="1">  1        2 0.44280725E-02 0.79643898E+02</pdfrwt>
<pdfrwt beam="2">  1       -1 0.84762467E-02 0.79643898E+02</pdfrwt>
<totfact> 0.13513988E+05</totfact>
</mgrwt>
</event>
<event>
 8    1  0.2561077E-020  0.8128973E+02  0.7818608E-02  0.1325431E+00
         -1   -1    0    0    0  501 -0.00000000000E+00  0.00000000000E+00  0.32826382199E+01  0.32826420890E+01  0.50400000000E-02 0.  1.
          2   -1    0    0  501    0  0.00000000000E+00 -0.00000000000E+00 -0.50325502304E+03  0.50325502305E+03  0.25500000000E-02 0. -1.
         24    2    1    2    0    0  0.00000000000E+00  0.35527136788E-14 -0.49997238482E+03  0.50653766514E+03  0.81289732551E+02 0.  0.
         66    2    3    3    0    0 -0.15178647716E+02  0.23365717194E+02 -0.43431829755E+03  0.43521573004E+03  0.20000003239E+01 0.  0.
        -13    1    3    3    0    0  0.15178647716E+02 -0.23365717194E+02 -0.65654087274E+02  0.71321935100E+02  0.10566000000E+00 0.  1.
         13    1    4    4    0    0 -0.50816942636E+01  0.86688069449E+01 -0.16372702296E+03  0.16403512136E+03  0.10566000000E+00 0. -1.
        -13    1    4    4    0    0 -0.48399634146E+01  0.64189698914E+01 -0.12871236312E+03  0.12896321958E+03  0.10566000000E+00 0.  1.
         14    1    4    4    0    0 -0.52569900374E+01  0.82779403579E+01 -0.14187891147E+03  0.14221738909E+03  0.00000000000E+00 0. -1.
<mgrwt>
<rscale>  0 0.81289733E+02</rscale>
<asrwt>0</asrwt>
<pdfrwt beam="1">  1        2 0.77423788E-01 0.81289733E+02</pdfrwt>
<pdfrwt beam="2">  1       -1 0.50502196E-03 0.81289733E+02</pdfrwt>
<totfact> 0.29267620E+05</totfact>
</mgrwt>
</event>
<event>
 8    1  0.2561077E-020  0.8538160E+02  0.7818608E-02  0.1314438E+00
         -1   -1    0    0    0  501 -0.00000000000E+00  0.00000000000E+00  0.14503954307E+02  0.14503955183E+02  0.50400000000E-02 0.  1.
          2   -1    0    0  501    0  0.00000000000E+00 -0.00000000000E+00 -0.12565567758E+03  0.12565567761E+03  0.25500000000E-02 0. -1.
         24    2    1    2    0    0  0.00000000000E+00  0.00000000000E+00 -0.11115172327E+03  0.14015963279E+03  0.85381596829E+02 0.  0.
         66    2    3    3    0    0  0.29189610729E+01  0.11636407594E+02 -0.12282184308E+03  0.12342257284E+03  0.20000078993E+01 0.  0.
        -13    1    3    3    0    0 -0.29189610729E+01 -0.11636407594E+02  0.11670119811E+02  0.16737059953E+02  0.10566000000E+00 0.  1.
         13    1    4    4    0    0  0.96600178364E+00  0.18425721313E+01 -0.17461716801E+02  0.17585532383E+02  0.10566000000E+00 0. -1.
        -13    1    4    4    0    0  0.58615503181E+00  0.13454391706E+01 -0.16848749331E+02  0.16912873863E+02  0.10566000000E+00 0.  1.
         14    1    4    4    0    0  0.13668042575E+01  0.84483962921E+01 -0.88511376952E+02  0.88924166590E+02  0.00000000000E+00 0. -1.
<mgrwt>
<rscale>  0 0.85381597E+02</rscale>
<asrwt>0</asrwt>
<pdfrwt beam="1">  1        2 0.19331642E-01 0.85381597E+02</pdfrwt>
<pdfrwt beam="2">  1       -1 0.22313777E-02 0.85381597E+02</pdfrwt>
<totfact> 0.15920962E+05</totfact>
</mgrwt>
</event>
<event>
 8    1  0.2561077E-020  0.7293547E+02  0.7818608E-02  0.1350386E+00
          2   -1    0    0  501    0  0.00000000000E+00  0.00000000000E+00  0.68328881782E+03  0.68328881783E+03  0.25500000000E-02 0. -1.
         -1   -1    0    0    0  501 -0.00000000000E+00 -0.00000000000E+00 -0.19463122865E+01  0.19463188120E+01  0.50400000000E-02 0.  1.
         24    2    1    2    0    0  0.00000000000E+00 -0.17763568394E-14  0.68134250554E+03  0.68523513664E+03  0.72935468978E+02 0.  0.
         66    2    3    3    0    0 -0.23421200317E+02  0.13084823211E+02  0.57261147276E+03  0.57324311070E+03  0.19999997320E+01 0.  0.
        -13    1    3    3    0    0  0.23421200317E+02 -0.13084823211E+02  0.10873103278E+03  0.11199202594E+03  0.10566000000E+00 0.  1.
         13    1    4    4    0    0 -0.12161842893E+02  0.66319133449E+01  0.30595563794E+03  0.30626909123E+03  0.10566000000E+00 0. -1.
        -13    1    4    4    0    0 -0.85396873171E+01  0.54180431149E+01  0.20347127196E+03  0.20372248557E+03  0.10566000000E+00 0.  1.
         14    1    4    4    0    0 -0.27196701071E+01  0.10348667515E+01  0.63184562865E+02  0.63251533887E+02  0.00000000000E+00 0. -1.
<mgrwt>
<rscale>  0 0.72935469E+02</rscale>
<asrwt>0</asrwt>
<pdfrwt beam="1">  1        2 0.10512142E+00 0.72935469E+02</pdfrwt>
<pdfrwt beam="2">  1       -1 0.29943298E-03 0.72935469E+02</pdfrwt>
<totfact> 0.42252984E+05</totfact>
</mgrwt>
</event>
<event>
 8    1  0.2561077E-020  0.7860588E+02  0.7818608E-02  0.1333055E+00
         -1   -1    0    0    0  501 -0.00000000000E+00  0.00000000000E+00  0.19907939507E+01  0.19908003305E+01  0.50400000000E-02 0.  1.
          2   -1    0    0  501    0  0.00000000000E+00 -0.00000000000E+00 -0.77593097818E+03  0.77593097818E+03  0.25500000000E-02 0. -1.
         24    2    1    2    0    0  0.71054273576E-14  0.00000000000E+00 -0.77394018422E+03  0.77792177851E+03  0.78605882239E+02 0.  0.
         66    2    3    3    0    0 -0.28621299223E+02  0.27782678398E+01 -0.65199821317E+03  0.65263509522E+03  0.19999982473E+01 0.  0.
        -13    1    3    3    0    0  0.28621299223E+02 -0.27782678398E+01 -0.12194197105E+03  0.12528668329E+03  0.10566000000E+00 0.  1.
         13    1    4    4    0    0 -0.69069660475E+01  0.78922596026E+00 -0.17446971778E+03  0.17460819753E+03  0.10566000000E+00 0.  1.
        -13    1    4    4    0    0 -0.21680662544E+02  0.19462521016E+01 -0.47614212045E+03  0.47663945394E+03  0.10566000000E+00 0. -1.
         14    1    4    4    0    0 -0.33670630903E-01  0.42789777954E-01 -0.13863749469E+01  0.13874437538E+01  0.00000000000E+00 0. -1.
<mgrwt>
<rscale>  0 0.78605882E+02</rscale>
<asrwt>0</asrwt>
<pdfrwt beam="1">  1        2 0.11937376E+00 0.78605882E+02</pdfrwt>
<pdfrwt beam="2">  1       -1 0.30627710E-03 0.78605882E+02</pdfrwt>
<totfact> 0.35773389E+05</totfact>
</mgrwt>
</event>
<event>
 8    1  0.2561077E-020  0.8113622E+02  0.7818608E-02  0.1325858E+00
         -1   -1    0    0    0  501 -0.00000000000E+00  0.00000000000E+00  0.15365008473E+02  0.15365009299E+02  0.50400000000E-02 0.  1.
          2   -1    0    0  501    0  0.00000000000E+00 -0.00000000000E+00 -0.10711164608E+03  0.10711164611E+03  0.25500000000E-02 0. -1.
         24    2    1    2    0    0  0.00000000000E+00  0.00000000000E+00 -0.91746637610E+02  0.12247665541E+03  0.81136216379E+02 0.  0.
         66    2    3    3    0    0  0.93883130505E+01  0.33502488389E+02 -0.77319757854E+02  0.84810979078E+02  0.20000168549E+01 0.  0.
        -13    1    3    3    0    0 -0.93883130505E+01 -0.33502488389E+02 -0.14426879756E+02  0.37665676334E+02  0.10566000000E+00 0.  1.
         13    1    4    4    0    0  0.37594103598E+01  0.12076561414E+02 -0.28869414442E+02  0.31518736588E+02  0.10566000000E+00 0. -1.
        -13    1    4    4    0    0  0.29668833655E+01  0.11014584879E+02 -0.26569344041E+02  0.28914783136E+02  0.10566000000E+00 0.  1.
        -14    1    4    4    0    0  0.26620193253E+01  0.10411342096E+02 -0.21880999370E+02  0.24377459354E+02  0.00000000000E+00 0.  1.
<mgrwt>
<rscale>  0 0.81136216E+02</rscale>
<asrwt>0</asrwt>
<pdfrwt beam="1">  1        2 0.16478714E-01 0.81136216E+02</pdfrwt>
<pdfrwt beam="2">  1       -1 0.23638476E-02 0.81136216E+02</pdfrwt>
<totfact> 0.17404981E+05</totfact>
</mgrwt>
</event>
<event>
 8    1  0.2561077E-020  0.7849968E+02  0.7818608E-02  0.1333364E+00
          2   -1    0    0  501    0  0.00000000000E+00  0.00000000000E+00  0.68482256875E+02  0.68482256922E+02  0.25500000000E-02 0. -1.
         -1   -1    0    0    0  501 -0.00000000000E+00 -0.00000000000E+00 -0.22495609386E+02  0.22495609951E+02  0.50400000000E-02 0.  1.
         24    2    1    2    0    0  0.00000000000E+00  0.00000000000E+00  0.45986647488E+02  0.90977866873E+02  0.78499684799E+02 0.  0.
         66    2    3    3    0    0 -0.37920119285E+02  0.90372005019E+01  0.17964573306E+02  0.42968969312E+02  0.19999975616E+01 0.  0.
        -13    1    3    3    0    0  0.37920119285E+02 -0.90372005019E+01  0.28022074183E+02  0.48008897561E+02  0.10566000000E+00 0.  1.
         13    1    4    4    0    0 -0.26755096007E+02  0.69680561270E+01  0.12170646077E+02  0.30208024737E+02  0.10566000000E+00 0. -1.
        -13    1    4    4    0    0 -0.49525837050E+01  0.69247520208E+00  0.23668499068E+01  0.55336018810E+01  0.10566000000E+00 0. -1.
         14    1    4    4    0    0 -0.62124395726E+01  0.13766691729E+01  0.34270773223E+01  0.72273426947E+01  0.00000000000E+00 0. -1.
<mgrwt>
<rscale>  0 0.78499685E+02</rscale>
<asrwt>0</asrwt>
<pdfrwt beam="1">  1        2 0.10535732E-01 0.78499685E+02</pdfrwt>
<pdfrwt beam="2">  1       -1 0.34608631E-02 0.78499685E+02</pdfrwt>
<totfact> 0.16904695E+05</totfact>
</mgrwt>
</event>
<event>
 8    1  0.2561077E-020  0.7980444E+02  0.7818608E-02  0.1329607E+00
         -1   -1    0    0    0  501 -0.00000000000E+00  0.00000000000E+00  0.74942665090E+02  0.74942665259E+02  0.50400000000E-02 0.  1.
          2   -1    0    0  501    0  0.00000000000E+00 -0.00000000000E+00 -0.21245403207E+02  0.21245403360E+02  0.25500000000E-02 0. -1.
         24    2    1    2    0    0  0.17763568394E-14  0.71054273576E-14  0.53697261883E+02  0.96188068619E+02  0.79804439794E+02 0.  0.
         66    2    3    3    0    0 -0.13720720817E+02 -0.23330639762E+02 -0.84315595066E+01  0.28419502582E+02  0.19999999560E+01 0.  0.
        -13    1    3    3    0    0  0.13720720817E+02  0.23330639762E+02  0.62128821390E+02  0.67768566037E+02  0.10566000000E+00 0.  1.
         13    1    4    4    0    0 -0.93714870872E+01 -0.16129106285E+02 -0.53445844842E+01  0.19404859884E+02  0.10566000000E+00 0. -1.
        -13    1    4    4    0    0 -0.38494435348E+01 -0.59299447734E+01 -0.28715736972E+01  0.76314847885E+01  0.10566000000E+00 0.  1.
        -14    1    4    4    0    0 -0.49979019535E+00 -0.12715887031E+01 -0.21540132512E+00  0.13831579086E+01  0.00000000000E+00 0.  1.
<mgrwt>
<rscale>  0 0.79804440E+02</rscale>
<asrwt>0</asrwt>
<pdfrwt beam="1">  1        2 0.32685236E-02 0.79804440E+02</pdfrwt>
<pdfrwt beam="2">  1       -1 0.11529641E-01 0.79804440E+02</pdfrwt>
<totfact> 0.12655897E+05</totfact>
</mgrwt>
</event>
<event>
 8    1  0.2561077E-020  0.8166885E+02  0.7818608E-02  0.1324381E+00
          2   -1    0    0  501    0  0.00000000000E+00  0.00000000000E+00  0.13569035931E+04  0.13569035931E+04  0.25500000000E-02 0. -1.
         -1   -1    0    0    0  501 -0.00000000000E+00 -0.00000000000E+00 -0.12288589459E+01  0.12288692813E+01  0.50400000000E-02 0.  1.
         24    2    1    2    0    0  0.00000000000E+00  0.17763568394E-14  0.13556747341E+04  0.13581324624E+04  0.81668846916E+02 0.  0.
         66    2    3    3    0    0  0.19904103747E+02 -0.11008048451E+02  0.12417176211E+04  0.12419275345E+04  0.20000025462E+01 0.  0.
        -13    1    3    3    0    0 -0.19904103747E+02  0.11008048451E+02  0.11395711308E+03  0.11620492788E+03  0.10566000000E+00 0.  1.
         13    1    4    4    0    0  0.23015714632E+01 -0.97387600944E+00  0.14334748284E+03  0.14336930518E+03  0.10566000000E+00 0. -1.
        -13    1    4    4    0    0  0.67691655590E+01 -0.40632319058E+01  0.47058496546E+03  0.47065120029E+03  0.10566000000E+00 0.  1.
        -14    1    4    4    0    0  0.10833366725E+02 -0.59709405361E+01  0.62778517275E+03  0.62790702902E+03  0.00000000000E+00 0.  1.
<mgrwt>
<rscale>  0 0.81668847E+02</rscale>
<asrwt>0</asrwt>
<pdfrwt beam="1">  1        2 0.20875392E+00 0.81668847E+02</pdfrwt>
<pdfrwt beam="2">  1       -1 0.18905645E-03 0.81668847E+02</pdfrwt>
<totfact> 0.32501908E+05</totfact>
</mgrwt>
</event>
<event>
 8    1  0.2561077E-020  0.7991134E+02  0.7818608E-02  0.1329303E+00
          2   -1    0    0  501    0  0.00000000000E+00  0.00000000000E+00  0.88524407227E+01  0.88524410899E+01  0.25500000000E-02 0. -1.
         -1   -1    0    0    0  501 -0.00000000000E+00 -0.00000000000E+00 -0.18034069748E+03  0.18034069755E+03  0.50400000000E-02 0.  1.
         24    2    1    2    0    0  0.00000000000E+00  0.00000000000E+00 -0.17148825676E+03  0.18919313864E+03  0.79911335260E+02 0.  0.
         66    2    3    3    0    0  0.37465541286E+02  0.18900101691E+01 -0.53403786505E+02  0.65293210468E+02  0.19999994544E+01 0.  0.
        -13    1    3    3    0    0 -0.37465541286E+02 -0.18900101691E+01 -0.11808447025E+03  0.12389992817E+03  0.10566000000E+00 0.  1.
         13    1    4    4    0    0  0.24445362615E+02  0.11049331905E+01 -0.34178030321E+02  0.42035051461E+02  0.10566000000E+00 0. -1.
        -13    1    4    4    0    0  0.11418525852E+02  0.34150817746E+00 -0.16934766964E+02  0.20427845130E+02  0.10566000000E+00 0.  1.
        -14    1    4    4    0    0  0.16016528195E+01  0.44356880112E+00 -0.22909892199E+01  0.28303138768E+01  0.00000000000E+00 0.  1.
<mgrwt>
<rscale>  0 0.79911335E+02</rscale>
<asrwt>0</asrwt>
<pdfrwt beam="1">  1        2 0.13619141E-02 0.79911335E+02</pdfrwt>
<pdfrwt beam="2">  1       -1 0.27744720E-01 0.79911335E+02</pdfrwt>
<totfact> 0.10295836E+05</totfact>
</mgrwt>
</event>
<event>
 8    1  0.2561077E-020  0.7726730E+02  0.7818608E-02  0.1336990E+00
          2   -1    0    0  501    0  0.00000000000E+00  0.00000000000E+00  0.35398160055E+02  0.35398160146E+02  0.25500000000E-02 0. -1.
         -1   -1    0    0    0  501 -0.00000000000E+00 -0.00000000000E+00 -0.42164869943E+02  0.42164870244E+02  0.50400000000E-02 0.  1.
         24    2    1    2    0    0  0.00000000000E+00  0.00000000000E+00 -0.67667098884E+01  0.77563030391E+02  0.77267297873E+02 0.  0.
         66    2    3    3    0    0 -0.22004826518E+02 -0.11581602028E+02  0.26260587868E+02  0.36221048620E+02  0.19999980893E+01 0.  0.
        -13    1    3    3    0    0  0.22004826518E+02  0.11581602028E+02 -0.33027297756E+02  0.41341981771E+02  0.10566000000E+00 0.  1.
         13    1    4    4    0    0 -0.13684029618E+02 -0.69965662721E+01  0.15678919151E+02  0.21955506734E+02  0.10566000000E+00 0. -1.
        -13    1    4    4    0    0 -0.24111406406E+01 -0.11345244952E+01  0.36961739499E+01  0.45578076881E+01  0.10566000000E+00 0.  1.
        -14    1    4    4    0    0 -0.59096562593E+01 -0.34505112608E+01  0.68854947668E+01  0.97077341974E+01  0.00000000000E+00 0.  1.
<mgrwt>
<rscale>  0 0.77267298E+02</rscale>
<asrwt>0</asrwt>
<pdfrwt beam="1">  1        2 0.54458708E-02 0.77267298E+02</pdfrwt>
<pdfrwt beam="2">  1       -1 0.64869031E-02 0.77267298E+02</pdfrwt>
<totfact> 0.15312113E+05</totfact>
</mgrwt>
</event>
<event>
 8    1  0.2561077E-020  0.7705937E+02  0.7818608E-02  0.1337610E+00
          2   -1    0    0  501    0  0.00000000000E+00  0.00000000000E+00  0.10511728719E+03  0.10511728722E+03  0.25500000000E-02 0. -1.
         -1   -1    0    0    0  501 -0.00000000000E+00 -0.00000000000E+00 -0.14122669486E+02  0.14122670385E+02  0.50400000000E-02 0.  1.
         24    2    1    2    0    0 -0.17763568394E-14  0.00000000000E+00  0.90994617700E+02  0.11923995760E+03  0.77059373464E+02 0.  0.
         66    2    3    3    0    0  0.11020172482E+02 -0.21808423826E+02  0.91573222159E+02  0.94798241245E+02  0.19999938112E+01 0.  0.
        -13    1    3    3    0    0 -0.11020172482E+02  0.21808423826E+02 -0.57860445935E+00  0.24441716357E+02  0.10566000000E+00 0.  1.
         13    1    4    4    0    0  0.21547396384E+01 -0.52173737928E+01  0.20523589703E+02  0.21285976382E+02  0.10566000000E+00 0.  1.
        -13    1    4    4    0    0  0.62719155681E+01 -0.11886470565E+02  0.48115885385E+02  0.49957729110E+02  0.10566000000E+00 0. -1.
        -14    1    4    4    0    0  0.25935172758E+01 -0.47045794683E+01  0.22933747071E+02  0.23554535753E+02  0.00000000000E+00 0.  1.
<mgrwt>
<rscale>  0 0.77059373E+02</rscale>
<asrwt>0</asrwt>
<pdfrwt beam="1">  1        2 0.16171891E-01 0.77059373E+02</pdfrwt>
<pdfrwt beam="2">  1       -1 0.21727184E-02 0.77059373E+02</pdfrwt>
<totfact> 0.19867838E+05</totfact>
</mgrwt>
</event>
<event>
 8    1  0.2561077E-020  0.8139693E+02  0.7818608E-02  0.1325133E+00
         -1   -1    0    0    0  501 -0.00000000000E+00  0.00000000000E+00  0.71213632779E+02  0.71213632958E+02  0.50400000000E-02 0.  1.
          2   -1    0    0  501    0  0.00000000000E+00 -0.00000000000E+00 -0.23259102527E+02  0.23259102667E+02  0.25500000000E-02 0. -1.
         24    2    1    2    0    0  0.00000000000E+00  0.00000000000E+00  0.47954530252E+02  0.94472735625E+02  0.81396933632E+02 0.  0.
         66    2    3    3    0    0  0.35790726264E+02 -0.32681914744E+01  0.18875386390E+01  0.36044694049E+02  0.20000012382E+01 0.  0.
        -13    1    3    3    0    0 -0.35790726264E+02  0.32681914744E+01  0.46066991613E+02  0.58428041575E+02  0.10566000000E+00 0.  1.
         13    1    4    4    0    0  0.33619850616E+01 -0.43588363316E+00  0.38558098003E+00  0.34136160921E+01  0.10566000000E+00 0. -1.
        -13    1    4    4    0    0  0.21566718879E+02 -0.20140731403E+01  0.17883461872E+01  0.21734516326E+02  0.10566000000E+00 0.  1.
         14    1    4    4    0    0  0.10862022324E+02 -0.81823470100E+00 -0.28638852815E+00  0.10896561631E+02  0.00000000000E+00 0. -1.
<mgrwt>
<rscale>  0 0.81396934E+02</rscale>
<asrwt>0</asrwt>
<pdfrwt beam="1">  1        2 0.35783235E-02 0.81396934E+02</pdfrwt>
<pdfrwt beam="2">  1       -1 0.10955944E-01 0.81396934E+02</pdfrwt>
<totfact> 0.12180669E+05</totfact>
</mgrwt>
</event>
<event>
 8    1  0.2561077E-020  0.8110678E+02  0.7818608E-02  0.1325940E+00
         -1   -1    0    0    0  501 -0.00000000000E+00  0.00000000000E+00  0.29749441907E+02  0.29749442334E+02  0.50400000000E-02 0.  1.
          2   -1    0    0  501    0  0.00000000000E+00 -0.00000000000E+00 -0.55280945816E+02  0.55280945875E+02  0.25500000000E-02 0. -1.
         24    2    1    2    0    0  0.00000000000E+00  0.00000000000E+00 -0.25531503909E+02  0.85030388209E+02  0.81106776703E+02 0.  0.
         66    2    3    3    0    0 -0.37136106411E+02  0.15597714036E+02 -0.80624163362E+01  0.41126410403E+02  0.19999982475E+01 0.  0.
        -13    1    3    3    0    0  0.37136106411E+02 -0.15597714036E+02 -0.17469087573E+02  0.43903977806E+02  0.10566000000E+00 0.  1.
         13    1    4    4    0    0 -0.24002874997E+02  0.97168201642E+01 -0.47693800082E+01  0.26330832723E+02  0.10566000000E+00 0. -1.
        -13    1    4    4    0    0 -0.62334021221E+00  0.11557176425E+00 -0.51137904476E-01  0.64473946190E+00  0.10566000000E+00 0. -1.
         14    1    4    4    0    0 -0.12509891202E+02  0.57653221075E+01 -0.32418984235E+01  0.14150838218E+02  0.00000000000E+00 0. -1.
<mgrwt>
<rscale>  0 0.81106777E+02</rscale>
<asrwt>0</asrwt>
<pdfrwt beam="1">  1        2 0.85047609E-02 0.81106777E+02</pdfrwt>
<pdfrwt beam="2">  1       -1 0.45768373E-02 0.81106777E+02</pdfrwt>
<totfact> 0.14715624E+05</totfact>
</mgrwt>
</event>
<event>
 8    1  0.2561077E-020  0.8218973E+02  0.7818608E-02  0.1322950E+00
         -1   -1    0    0    0  501 -0.00000000000E+00  0.00000000000E+00  0.15406922537E+02  0.15406923362E+02  0.50400000000E-02 0.  1.
          2   -1    0    0  501    0  0.00000000000E+00 -0.00000000000E+00 -0.10961226496E+03  0.10961226499E+03  0.25500000000E-02 0. -1.
         24    2    1    2    0    0  0.00000000000E+00  0.00000000000E+00 -0.94205342422E+02  0.12501918835E+03  0.82189725118E+02 0.  0.
         66    2    3    3    0    0 -0.23504891152E+02 -0.15033308814E+02 -0.92973628365E+02  0.97090554916E+02  0.20000001470E+01 0.  0.
        -13    1    3    3    0    0  0.23504891152E+02  0.15033308814E+02 -0.12317140565E+01  0.27928633434E+02  0.10566000000E+00 0.  1.
         13    1    4    4    0    0 -0.11795068649E+02 -0.71240028091E+01 -0.43892692711E+02  0.46004942103E+02  0.10566000000E+00 0. -1.
        -13    1    4    4    0    0 -0.11214266462E+02 -0.73613775795E+01 -0.47021619082E+02  0.48897786016E+02  0.10566000000E+00 0.  1.
        -14    1    4    4    0    0 -0.49555604057E+00 -0.54792842485E+00 -0.20593165721E+01  0.21878267967E+01  0.00000000000E+00 0.  1.
<mgrwt>
<rscale>  0 0.82189725E+02</rscale>
<asrwt>0</asrwt>
<pdfrwt beam="1">  1        2 0.16863425E-01 0.82189725E+02</pdfrwt>
<pdfrwt beam="2">  1       -1 0.23702959E-02 0.82189725E+02</pdfrwt>
<totfact> 0.16926321E+05</totfact>
</mgrwt>
</event>
<event>
 8    1  0.2561077E-020  0.7922881E+02  0.7818608E-02  0.1331254E+00
          2   -1    0    0  501    0  0.00000000000E+00  0.00000000000E+00  0.31623060802E+03  0.31623060803E+03  0.25500000000E-02 0. -1.
         -1   -1    0    0    0  501 -0.00000000000E+00 -0.00000000000E+00 -0.49625195999E+01  0.49625221592E+01  0.50400000000E-02 0.  1.
         24    2    1    2    0    0  0.00000000000E+00  0.35527136788E-14  0.31126808842E+03  0.32119313019E+03  0.79228807969E+02 0.  0.
         66    2    3    3    0    0 -0.13674877211E+02  0.27016595422E+02  0.25912150733E+03  0.26089241893E+03  0.19999998173E+01 0.  0.
        -13    1    3    3    0    0  0.13674877211E+02 -0.27016595422E+02  0.52146581085E+02  0.60300711255E+02  0.10566000000E+00 0.  1.
         13    1    4    4    0    0 -0.82404530906E+00  0.17575846334E+01  0.17348894231E+02  0.17457475461E+02  0.10566000000E+00 0.  1.
        -13    1    4    4    0    0 -0.12687486401E+01  0.29546369154E+01  0.23144712404E+02  0.23367252272E+02  0.10566000000E+00 0. -1.
         14    1    4    4    0    0 -0.11582083262E+02  0.22304373873E+02  0.21862790070E+03  0.22006769120E+03  0.00000000000E+00 0. -1.
<mgrwt>
<rscale>  0 0.79228808E+02</rscale>
<asrwt>0</asrwt>
<pdfrwt beam="1">  1        2 0.48650881E-01 0.79228808E+02</pdfrwt>
<pdfrwt beam="2">  1       -1 0.76346447E-03 0.79228808E+02</pdfrwt>
<totfact> 0.26652458E+05</totfact>
</mgrwt>
</event>
<event>
 8    1  0.2561077E-020  0.7461788E+02  0.7818608E-02  0.1345058E+00
         -1   -1    0    0    0  501 -0.00000000000E+00  0.00000000000E+00  0.16609214105E+01  0.16609290573E+01  0.50400000000E-02 0.  1.
          2   -1    0    0  501    0  0.00000000000E+00 -0.00000000000E+00 -0.83806111651E+03  0.83806111652E+03  0.25500000000E-02 0. -1.
         24    2    1    2    0    0  0.00000000000E+00  0.00000000000E+00 -0.83640019510E+03  0.83972204558E+03  0.74617876249E+02 0.  0.
         66    2    3    3    0    0 -0.87130155041E+01 -0.18987036769E+02 -0.76600333196E+03  0.76629075995E+03  0.20000007158E+01 0.  0.
        -13    1    3    3    0    0  0.87130155041E+01  0.18987036769E+02 -0.70396863142E+02  0.73431285626E+02  0.10566000000E+00 0.  1.
         13    1    4    4    0    0 -0.17320173091E+01 -0.45612147952E+01 -0.18135741576E+03  0.18142306353E+03  0.10566000000E+00 0. -1.
        -13    1    4    4    0    0 -0.52896897706E+01 -0.93912476116E+01 -0.40335652511E+03  0.40350052523E+03  0.10566000000E+00 0.  1.
        -14    1    4    4    0    0 -0.16913084244E+01 -0.50345743619E+01 -0.18128939110E+03  0.18136717119E+03  0.00000000000E+00 0.  1.
<mgrwt>
<rscale>  0 0.74617876E+02</rscale>
<asrwt>0</asrwt>
<pdfrwt beam="1">  1        2 0.12893214E+00 0.74617876E+02</pdfrwt>
<pdfrwt beam="2">  1       -1 0.25552763E-03 0.74617876E+02</pdfrwt>
<totfact> 0.41462249E+05</totfact>
</mgrwt>
</event>
<event>
 8    1  0.2561077E-020  0.7753050E+02  0.7818608E-02  0.1336209E+00
          2   -1    0    0  501    0  0.00000000000E+00  0.00000000000E+00  0.17995375769E+03  0.17995375770E+03  0.25500000000E-02 0. -1.
         -1   -1    0    0    0  501 -0.00000000000E+00 -0.00000000000E+00 -0.83507263905E+01  0.83507279114E+01  0.50400000000E-02 0.  1.
         24    2    1    2    0    0  0.00000000000E+00  0.00000000000E+00  0.17160303130E+03  0.18830448562E+03  0.77530503372E+02 0.  0.
         66    2    3    3    0    0  0.93011935829E+01 -0.37599379766E+02  0.84116731276E+02  0.92627479935E+02  0.19999994222E+01 0.  0.
        -13    1    3    3    0    0 -0.93011935829E+01  0.37599379766E+02  0.87486300020E+02  0.95677005681E+02  0.10566000000E+00 0.  1.
         13    1    4    4    0    0  0.23391038732E+01 -0.78227184361E+01  0.18506361611E+02  0.20227775824E+02  0.10566000000E+00 0. -1.
        -13    1    4    4    0    0  0.19074950185E+00 -0.17437378136E+01  0.32855891131E+01  0.37260256025E+01  0.10566000000E+00 0.  1.
        -14    1    4    4    0    0  0.67713402078E+01 -0.28032923516E+02  0.62324780551E+02  0.68673678508E+02  0.00000000000E+00 0.  1.
<mgrwt>
<rscale>  0 0.77530503E+02</rscale>
<asrwt>0</asrwt>
<pdfrwt beam="1">  1        2 0.27685193E-01 0.77530503E+02</pdfrwt>
<pdfrwt beam="2">  1       -1 0.12847273E-02 0.77530503E+02</pdfrwt>
<totfact> 0.23107937E+05</totfact>
</mgrwt>
</event>
<event>
 8    1  0.2561077E-020  0.7883601E+02  0.7818608E-02  0.1332387E+00
          2   -1    0    0  501    0  0.00000000000E+00  0.00000000000E+00  0.69058551166E+03  0.69058551167E+03  0.25500000000E-02 0. -1.
         -1   -1    0    0    0  501 -0.00000000000E+00 -0.00000000000E+00 -0.22499417772E+01  0.22499474222E+01  0.50400000000E-02 0.  1.
         24    2    1    2    0    0  0.00000000000E+00  0.00000000000E+00  0.68833556988E+03  0.69283545909E+03  0.78836010822E+02 0.  0.
         66    2    3    3    0    0 -0.17465395658E+02  0.17449497446E+02  0.61415538033E+03  0.61465466418E+03  0.19999999538E+01 0.  0.
        -13    1    3    3    0    0  0.17465395658E+02 -0.17449497446E+02  0.74180189556E+02  0.78180794913E+02  0.10566000000E+00 0.  1.
         13    1    4    4    0    0 -0.14111092518E+01  0.15641961943E+01  0.64040087592E+02  0.64074815036E+02  0.10566000000E+00 0. -1.
        -13    1    4    4    0    0 -0.30730321226E+00  0.40968221640E+00  0.10364376006E+02  0.10377558904E+02  0.10566000000E+00 0.  1.
         14    1    4    4    0    0 -0.15746983194E+02  0.15475619035E+02  0.53975091673E+03  0.54020229023E+03  0.00000000000E+00 0. -1.
<mgrwt>
<rscale>  0 0.78836011E+02</rscale>
<asrwt>0</asrwt>
<pdfrwt beam="1">  1        2 0.10624396E+00 0.78836011E+02</pdfrwt>
<pdfrwt beam="2">  1       -1 0.34614521E-03 0.78836011E+02</pdfrwt>
<totfact> 0.34641286E+05</totfact>
</mgrwt>
</event>
<event>
 8    1  0.2561077E-020  0.8059874E+02  0.7818608E-02  0.1327361E+00
         -1   -1    0    0    0  501 -0.00000000000E+00  0.00000000000E+00  0.27666491248E+01  0.27666537154E+01  0.50400000000E-02 0.  1.
          2   -1    0    0  501    0  0.00000000000E+00 -0.00000000000E+00 -0.58700540103E+03  0.58700540103E+03  0.25500000000E-02 0. -1.
         24    2    1    2    0    0  0.00000000000E+00  0.00000000000E+00 -0.58423875190E+03  0.58977205475E+03  0.80598742778E+02 0.  0.
         66    2    3    3    0    0  0.13036617201E+02  0.36811452708E+02 -0.36436586250E+03  0.36645807154E+03  0.20000005818E+01 0.  0.
        -13    1    3    3    0    0 -0.13036617201E+02 -0.36811452708E+02 -0.21987288940E+03  0.22331398321E+03  0.10566000000E+00 0.  1.
         13    1    4    4    0    0  0.40128511622E+00  0.12852098004E+01 -0.11062875591E+02  0.11145006701E+02  0.10566000000E+00 0. -1.
        -13    1    4    4    0    0  0.67939986686E+01  0.21061103984E+02 -0.21138628828E+03  0.21254153137E+03  0.10566000000E+00 0.  1.
         14    1    4    4    0    0  0.58413334162E+01  0.14465138923E+02 -0.14191669862E+03  0.14277153347E+03  0.00000000000E+00 0. -1.
<mgrwt>
<rscale>  0 0.80598743E+02</rscale>
<asrwt>0</asrwt>
<pdfrwt beam="1">  1        2 0.90308424E-01 0.80598743E+02</pdfrwt>
<pdfrwt beam="2">  1       -1 0.42563915E-03 0.80598743E+02</pdfrwt>
<totfact> 0.31351458E+05</totfact>
</mgrwt>
</event>
<event>
 8    1  0.2561077E-020  0.8293865E+02  0.7818608E-02  0.1320913E+00
          2   -1    0    0  501    0  0.00000000000E+00  0.00000000000E+00  0.65137524789E+03  0.65137524790E+03  0.25500000000E-02 0. -1.
         -1   -1    0    0    0  501 -0.00000000000E+00 -0.00000000000E+00 -0.26401118667E+01  0.26401166774E+01  0.50400000000E-02 0.  1.
         24    2    1    2    0    0  0.00000000000E+00  0.00000000000E+00  0.64873513603E+03  0.65401536458E+03  0.82938654352E+02 0.  0.
         66    2    3    3    0    0  0.20109581086E+02  0.27573960820E+02  0.50998833937E+03  0.51113288380E+03  0.20000097991E+01 0.  0.
        -13    1    3    3    0    0 -0.20109581086E+02 -0.27573960820E+02  0.13874679666E+03  0.14288248078E+03  0.10566000000E+00 0.  1.
         13    1    4    4    0    0  0.14354331802E+02  0.19762227786E+02  0.37479077359E+03  0.37558584587E+03  0.10566000000E+00 0. -1.
        -13    1    4    4    0    0  0.53158026107E+01  0.68796992375E+01  0.12001646270E+03  0.12033100391E+03  0.10566000000E+00 0.  1.
        -14    1    4    4    0    0  0.43944667388E+00  0.93203379679E+00  0.15181103085E+02  0.15216034019E+02  0.00000000000E+00 0.  1.
<mgrwt>
<rscale>  0 0.82938654E+02</rscale>
<asrwt>0</asrwt>
<pdfrwt beam="1">  1        2 0.10021142E+00 0.82938654E+02</pdfrwt>
<pdfrwt beam="2">  1       -1 0.40617205E-03 0.82938654E+02</pdfrwt>
<totfact> 0.29925952E+05</totfact>
</mgrwt>
</event>
<event>
 8    1  0.2561077E-020  0.8038467E+02  0.7818608E-02  0.1327963E+00
         -1   -1    0    0    0  501 -0.00000000000E+00  0.00000000000E+00  0.53496728480E+01  0.53496752221E+01  0.50400000000E-02 0.  1.
          2   -1    0    0  501    0  0.00000000000E+00 -0.00000000000E+00 -0.30196676453E+03  0.30196676454E+03  0.25500000000E-02 0. -1.
         24    2    1    2    0    0  0.00000000000E+00 -0.35527136788E-14 -0.29661709168E+03  0.30731643976E+03  0.80384669376E+02 0.  0.
         66    2    3    3    0    0 -0.66622940977E+00  0.23003726440E+02 -0.27426013004E+03  0.27523123773E+03  0.20000001823E+01 0.  0.
        -13    1    3    3    0    0  0.66622940977E+00 -0.23003726440E+02 -0.22356961647E+02  0.32085202039E+02  0.10566000000E+00 0.  1.
         13    1    4    4    0    0 -0.40522951049E+00  0.11827030860E+02 -0.13971081111E+03  0.14021114355E+03  0.10566000000E+00 0.  1.
        -13    1    4    4    0    0 -0.64322469461E+00  0.53447651750E+01 -0.69959607337E+02  0.70166502517E+02  0.10566000000E+00 0. -1.
        -14    1    4    4    0    0  0.38222479533E+00  0.58319304042E+01 -0.64589711590E+02  0.64853591661E+02  0.00000000000E+00 0.  1.
<mgrwt>
<rscale>  0 0.80384669E+02</rscale>
<asrwt>0</asrwt>
<pdfrwt beam="1">  1        2 0.46456412E-01 0.80384669E+02</pdfrwt>
<pdfrwt beam="2">  1       -1 0.82302701E-03 0.80384669E+02</pdfrwt>
<totfact> 0.25235445E+05</totfact>
</mgrwt>
</event>
<event>
 8    1  0.2561077E-020  0.7998951E+02  0.7818608E-02  0.1329081E+00
          2   -1    0    0  501    0  0.00000000000E+00  0.00000000000E+00  0.10781291692E+04  0.10781291692E+04  0.25500000000E-02 0. -1.
         -1   -1    0    0    0  501 -0.00000000000E+00 -0.00000000000E+00 -0.14836586646E+01  0.14836672250E+01  0.50400000000E-02 0.  1.
         24    2    1    2    0    0  0.00000000000E+00  0.00000000000E+00  0.10766455106E+04  0.10796128365E+04  0.79989506964E+02 0.  0.
         66    2    3    3    0    0 -0.21725544741E+02  0.84355091603E+01  0.97692808372E+03  0.97720808320E+03  0.20000006934E+01 0.  0.
        -13    1    3    3    0    0  0.21725544741E+02 -0.84355091603E+01  0.99717426858E+02  0.10240475327E+03  0.10566000000E+00 0.  1.
         13    1    4    4    0    0 -0.77123692473E+01  0.29955964172E+01  0.34279721964E+03  0.34289706793E+03  0.10566000000E+00 0. -1.
        -13    1    4    4    0    0 -0.81632178748E+01  0.32043070852E+01  0.40225408032E+03  0.40234967628E+03  0.10566000000E+00 0.  1.
        -14    1    4    4    0    0 -0.58499576186E+01  0.22356056579E+01  0.23187678376E+03  0.23196133899E+03  0.00000000000E+00 0.  1.
<mgrwt>
<rscale>  0 0.79989507E+02</rscale>
<asrwt>0</asrwt>
<pdfrwt beam="1">  1        2 0.16586576E+00 0.79989507E+02</pdfrwt>
<pdfrwt beam="2">  1       -1 0.22825621E-03 0.79989507E+02</pdfrwt>
<totfact> 0.35280414E+05</totfact>
</mgrwt>
</event>
<event>
 8    1  0.2561077E-020  0.8075770E+02  0.7818608E-02  0.1326915E+00
         -1   -1    0    0    0  501 -0.00000000000E+00  0.00000000000E+00  0.21876275843E+01  0.21876333900E+01  0.50400000000E-02 0.  1.
          2   -1    0    0  501    0  0.00000000000E+00 -0.00000000000E+00 -0.74530484608E+03  0.74530484608E+03  0.25500000000E-02 0. -1.
         24    2    1    2    0    0  0.35527136788E-14 -0.17763568394E-14 -0.74311721849E+03  0.74749247947E+03  0.80757702085E+02 0.  0.
         66    2    3    3    0    0  0.31821338303E+02 -0.82409079425E+01 -0.58845047615E+03  0.58937125229E+03  0.20000017491E+01 0.  0.
        -13    1    3    3    0    0 -0.31821338303E+02  0.82409079425E+01 -0.15466674234E+03  0.15812122718E+03  0.10566000000E+00 0.  1.
         13    1    4    4    0    0  0.11525000574E+02 -0.26520506679E+01 -0.21317447201E+03  0.21350228498E+03  0.10566000000E+00 0. -1.
        -13    1    4    4    0    0  0.76810023958E+01 -0.17563683827E+01 -0.15174879447E+03  0.15195325076E+03  0.10566000000E+00 0.  1.
         14    1    4    4    0    0  0.12615335333E+02 -0.38324888919E+01 -0.22352720967E+03  0.22391571656E+03  0.00000000000E+00 0. -1.
<mgrwt>
<rscale>  0 0.80757702E+02</rscale>
<asrwt>0</asrwt>
<pdfrwt beam="1">  1        2 0.11466208E+00 0.80757702E+02</pdfrwt>
<pdfrwt beam="2">  1       -1 0.33655913E-03 0.80757702E+02</pdfrwt>
<totfact> 0.33088567E+05</totfact>
</mgrwt>
</event>
<event>
 8    1  0.2561077E-020  0.8430956E+02  0.7818608E-02  0.1317248E+00
         -1   -1    0    0    0  501 -0.00000000000E+00  0.00000000000E+00  0.18288464635E+02  0.18288465330E+02  0.50400000000E-02 0.  1.
          2   -1    0    0  501    0  0.00000000000E+00 -0.00000000000E+00 -0.97166471334E+02  0.97166471368E+02  0.25500000000E-02 0. -1.
         24    2    1    2    0    0  0.35527136788E-14  0.00000000000E+00 -0.78878006699E+02  0.11545493670E+03  0.84309563318E+02 0.  0.
         66    2    3    3    0    0 -0.31414679428E+02 -0.27550039386E+02 -0.32069601920E+02  0.52710019168E+02  0.19999999161E+01 0.  0.
        -13    1    3    3    0    0  0.31414679428E+02  0.27550039386E+02 -0.46808404779E+02  0.62744917529E+02  0.10566000000E+00 0.  1.
         13    1    4    4    0    0 -0.12389977158E+02 -0.10369378023E+02 -0.11464097904E+02  0.19810912128E+02  0.10566000000E+00 0. -1.
        -13    1    4    4    0    0 -0.18812420086E+01 -0.14256050430E+01 -0.18286023635E+01  0.29877034446E+01  0.10566000000E+00 0.  1.
        -14    1    4    4    0    0 -0.17143460262E+02 -0.15755056319E+02 -0.18776901653E+02  0.29911403596E+02  0.00000000000E+00 0.  1.
<mgrwt>
<rscale>  0 0.84309563E+02</rscale>
<asrwt>0</asrwt>
<pdfrwt beam="1">  1        2 0.14948688E-01 0.84309563E+02</pdfrwt>
<pdfrwt beam="2">  1       -1 0.28136101E-02 0.84309563E+02</pdfrwt>
<totfact> 0.15270423E+05</totfact>
</mgrwt>
</event>
<event>
 8    1  0.2561077E-020  0.7958742E+02  0.7818608E-02  0.1330226E+00
          2   -1    0    0  501    0  0.00000000000E+00  0.00000000000E+00  0.44442135662E+03  0.44442135663E+03  0.25500000000E-02 0. -1.
         -1   -1    0    0    0  501 -0.00000000000E+00 -0.00000000000E+00 -0.35631471496E+01  0.35631507141E+01  0.50400000000E-02 0.  1.
         24    2    1    2    0    0  0.00000000000E+00  0.00000000000E+00  0.44085820947E+03  0.44798450735E+03  0.79587423382E+02 0.  0.
         66    2    3    3    0    0  0.35161610496E+02  0.14298819447E+02  0.28734484947E+03  0.28984799052E+03  0.20000001003E+01 0.  0.
        -13    1    3    3    0    0 -0.35161610496E+02 -0.14298819447E+02  0.15351336000E+03  0.15813651682E+03  0.10566000000E+00 0.  1.
         13    1    4    4    0    0  0.27608228777E+02  0.10541006587E+02  0.22244958756E+03  0.22440400461E+03  0.10566000000E+00 0. -1.
        -13    1    4    4    0    0  0.11141408709E+01  0.59765913415E+00  0.84250104539E+01  0.85200041963E+01  0.10566000000E+00 0.  1.
         14    1    4    4    0    0  0.64392408482E+01  0.31601537261E+01  0.56470251459E+02  0.56923981714E+02  0.00000000000E+00 0. -1.
<mgrwt>
<rscale>  0 0.79587423E+02</rscale>
<asrwt>0</asrwt>
<pdfrwt beam="1">  1        2 0.68372560E-01 0.79587423E+02</pdfrwt>
<pdfrwt beam="2">  1       -1 0.54817641E-03 0.79587423E+02</pdfrwt>
<totfact> 0.29693079E+05</totfact>
</mgrwt>
</event>
<event>
 8    1  0.2561077E-020  0.7949828E+02  0.7818608E-02  0.1330481E+00
         -1   -1    0    0    0  501 -0.00000000000E+00  0.00000000000E+00  0.32277896566E+01  0.32277935915E+01  0.50400000000E-02 0.  1.
          2   -1    0    0  501    0  0.00000000000E+00 -0.00000000000E+00 -0.48949688025E+03  0.48949688025E+03  0.25500000000E-02 0. -1.
         24    2    1    2    0    0  0.14210854715E-13 -0.35527136788E-14 -0.48626909059E+03  0.49272467384E+03  0.79498275152E+02 0.  0.
         66    2    3    3    0    0 -0.35876433911E+02  0.15223383369E+02 -0.29094321084E+03  0.29354867033E+03  0.20000020112E+01 0.  0.
        -13    1    3    3    0    0  0.35876433911E+02 -0.15223383369E+02 -0.19532587975E+03  0.19917600351E+03  0.10566000000E+00 0.  1.
         13    1    4    4    0    0 -0.49763306143E+01  0.19392254400E+01 -0.37357199034E+02  0.37737195781E+02  0.10566000000E+00 0. -1.
        -13    1    4    4    0    0 -0.19078796042E+02  0.89700842961E+01 -0.15708939626E+03  0.15849779952E+03  0.10566000000E+00 0.  1.
        -14    1    4    4    0    0 -0.11821307254E+02  0.43140736331E+01 -0.96496615547E+02  0.97313675034E+02  0.00000000000E+00 0.  1.
<mgrwt>
<rscale>  0 0.79498275E+02</rscale>
<asrwt>0</asrwt>
<pdfrwt beam="1">  1        2 0.75307154E-01 0.79498275E+02</pdfrwt>
<pdfrwt beam="2">  1       -1 0.49658372E-03 0.79498275E+02</pdfrwt>
<totfact> 0.30744749E+05</totfact>
</mgrwt>
</event>
<event>
 8    1  0.2561077E-020  0.7741546E+02  0.7818608E-02  0.1336550E+00
          2   -1    0    0  501    0  0.00000000000E+00  0.00000000000E+00  0.15919996691E+03  0.15919996693E+03  0.25500000000E-02 0. -1.
         -1   -1    0    0    0  501 -0.00000000000E+00 -0.00000000000E+00 -0.94113593886E+01  0.94113607381E+01  0.50400000000E-02 0.  1.
         24    2    1    2    0    0  0.17763568394E-14  0.00000000000E+00  0.14978860752E+03  0.16861132766E+03  0.77415456304E+02 0.  0.
         66    2    3    3    0    0 -0.61211865637E+01 -0.38123424759E+02  0.80014225453E+02  0.88865857594E+02  0.19999826625E+01 0.  0.
        -13    1    3    3    0    0  0.61211865637E+01  0.38123424759E+02  0.69774382064E+02  0.79745470070E+02  0.10566000000E+00 0.  1.
         13    1    4    4    0    0 -0.22919557847E+00 -0.27221825762E+01  0.64650398329E+01  0.70193099852E+01  0.10566000000E+00 0. -1.
        -13    1    4    4    0    0 -0.27824345312E+01 -0.14334214447E+02  0.28952838430E+02  0.32426681343E+02  0.10566000000E+00 0.  1.
         14    1    4    4    0    0 -0.31095564540E+01 -0.21067027736E+02  0.44596347190E+02  0.49419866265E+02  0.00000000000E+00 0. -1.
<mgrwt>
<rscale>  0 0.77415456E+02</rscale>
<asrwt>0</asrwt>
<pdfrwt beam="1">  1        2 0.24492300E-01 0.77415456E+02</pdfrwt>
<pdfrwt beam="2">  1       -1 0.14479017E-02 0.77415456E+02</pdfrwt>
<totfact> 0.22274871E+05</totfact>
</mgrwt>
</event>
<event>
 8    1  0.2561077E-020  0.8249186E+02  0.7818608E-02  0.1322125E+00
          2   -1    0    0  501    0  0.00000000000E+00  0.00000000000E+00  0.71090491725E+02  0.71090491770E+02  0.25500000000E-02 0. -1.
         -1   -1    0    0    0  501 -0.00000000000E+00 -0.00000000000E+00 -0.23930440751E+02  0.23930441282E+02  0.50400000000E-02 0.  1.
         24    2    1    2    0    0  0.00000000000E+00  0.00000000000E+00  0.47160050973E+02  0.95020933053E+02  0.82491862086E+02 0.  0.
         66    2    3    3    0    0  0.15799445694E+02  0.37731984965E+02  0.29455634250E+02  0.50447592262E+02  0.20000005934E+01 0.  0.
        -13    1    3    3    0    0 -0.15799445694E+02 -0.37731984965E+02  0.17704416724E+02  0.44573340790E+02  0.10566000000E+00 0.  1.
         13    1    4    4    0    0  0.32284370733E+01  0.96450695124E+01  0.70901076525E+01  0.12398829073E+02  0.10566000000E+00 0. -1.
        -13    1    4    4    0    0  0.66459661069E+01  0.14058351492E+02  0.11536888148E+02  0.19362775223E+02  0.10566000000E+00 0.  1.
         14    1    4    4    0    0  0.59250425142E+01  0.14028563961E+02  0.10828638449E+02  0.18685987966E+02  0.00000000000E+00 0. -1.
<mgrwt>
<rscale>  0 0.82491862E+02</rscale>
<asrwt>0</asrwt>
<pdfrwt beam="1">  1        2 0.10936999E-01 0.82491862E+02</pdfrwt>
<pdfrwt beam="2">  1       -1 0.36816064E-02 0.82491862E+02</pdfrwt>
<totfact> 0.14914545E+05</totfact>
</mgrwt>
</event>
<event>
 8    1  0.2561077E-020  0.7929874E+02  0.7818608E-02  0.1331053E+00
         -1   -1    0    0    0  501 -0.00000000000E+00  0.00000000000E+00  0.19919072951E+02  0.19919073588E+02  0.50400000000E-02 0.  1.
          2   -1    0    0  501    0  0.00000000000E+00 -0.00000000000E+00 -0.78922965945E+02  0.78922965987E+02  0.25500000000E-02 0. -1.
         24    2    1    2    0    0  0.00000000000E+00  0.00000000000E+00 -0.59003892995E+02  0.98842039575E+02  0.79298735165E+02 0.  0.
         66    2    3    3    0    0 -0.16298247473E+02  0.13082713730E+02 -0.71481435329E+02  0.74500911910E+02  0.20000023596E+01 0.  0.
        -13    1    3    3    0    0  0.16298247473E+02 -0.13082713730E+02  0.12477542334E+02  0.24341127665E+02  0.10566000000E+00 0.  1.
         13    1    4    4    0    0 -0.97130388142E+01  0.82744474851E+01 -0.43597035374E+02  0.45426008647E+02  0.10566000000E+00 0.  1.
        -13    1    4    4    0    0 -0.37990672877E+01  0.32781967409E+01 -0.18386573987E+02  0.19059295715E+02  0.10566000000E+00 0. -1.
         14    1    4    4    0    0 -0.27861413715E+01  0.15300695044E+01 -0.94978259678E+01  0.10015607547E+02  0.00000000000E+00 0. -1.
<mgrwt>
<rscale>  0 0.79298735E+02</rscale>
<asrwt>0</asrwt>
<pdfrwt beam="1">  1        2 0.12141995E-01 0.79298735E+02</pdfrwt>
<pdfrwt beam="2">  1       -1 0.30644729E-02 0.79298735E+02</pdfrwt>
<totfact> 0.17037343E+05</totfact>
</mgrwt>
</event>
<event>
 8    1  0.2561077E-020  0.7957148E+02  0.7818608E-02  0.1330272E+00
          2   -1    0    0  501    0  0.00000000000E+00  0.00000000000E+00  0.54499193281E+02  0.54499193340E+02  0.25500000000E-02 0. -1.
         -1   -1    0    0    0  501 -0.00000000000E+00 -0.00000000000E+00 -0.29044556963E+02  0.29044557400E+02  0.50400000000E-02 0.  1.
         24    2    1    2    0    0  0.00000000000E+00  0.88817841970E-15  0.25454636318E+02  0.83543750740E+02  0.79571475905E+02 0.  0.
         66    2    3    3    0    0  0.89673556724E+01 -0.58297190162E+01  0.52941970409E+02  0.54048602139E+02  0.20000176919E+01 0.  0.
        -13    1    3    3    0    0 -0.89673556724E+01  0.58297190162E+01 -0.27487334091E+02  0.29495148602E+02  0.10566000000E+00 0.  1.
         13    1    4    4    0    0  0.15926468666E+01 -0.14688665761E+01  0.13650939031E+02  0.13822206536E+02  0.10566000000E+00 0.  1.
        -13    1    4    4    0    0  0.52850771542E+01 -0.27788980560E+01  0.25674255362E+02  0.26359682611E+02  0.10566000000E+00 0. -1.
         14    1    4    4    0    0  0.20896316516E+01 -0.15819543842E+01  0.13616776016E+02  0.13866712992E+02  0.00000000000E+00 0. -1.
<mgrwt>
<rscale>  0 0.79571476E+02</rscale>
<asrwt>0</asrwt>
<pdfrwt beam="1">  1        2 0.83844912E-02 0.79571476E+02</pdfrwt>
<pdfrwt beam="2">  1       -1 0.44683935E-02 0.79571476E+02</pdfrwt>
<totfact> 0.15454648E+05</totfact>
</mgrwt>
</event>
<event>
 8    1  0.2561077E-020  0.8034873E+02  0.7818608E-02  0.1328065E+00
         -1   -1    0    0    0  501 -0.00000000000E+00  0.00000000000E+00  0.43539546954E+02  0.43539547245E+02  0.50400000000E-02 0.  1.
          2   -1    0    0  501    0  0.00000000000E+00 -0.00000000000E+00 -0.37069281935E+02  0.37069282022E+02  0.25500000000E-02 0. -1.
         24    2    1    2    0    0  0.00000000000E+00  0.00000000000E+00  0.64702650191E+01  0.80608829268E+02  0.80348733820E+02 0.  0.
         66    2    3    3    0    0  0.26878610599E+02 -0.16522350005E+02 -0.21673207757E+02  0.38329827608E+02  0.19999981218E+01 0.  0.
        -13    1    3    3    0    0 -0.26878610599E+02  0.16522350005E+02  0.28143472776E+02  0.42279001660E+02  0.10566000000E+00 0.  1.
         13    1    4    4    0    0  0.52153425579E+01 -0.27299951487E+01 -0.38642043732E+01  0.70424364379E+01  0.10566000000E+00 0. -1.
        -13    1    4    4    0    0  0.16912154702E+02 -0.11002147097E+02 -0.14674460036E+02  0.24948329780E+02  0.10566000000E+00 0.  1.
        -14    1    4    4    0    0  0.47511133395E+01 -0.27902077594E+01 -0.31345433480E+01  0.63390613900E+01  0.00000000000E+00 0.  1.
<mgrwt>
<rscale>  0 0.80348734E+02</rscale>
<asrwt>0</asrwt>
<pdfrwt beam="1">  1        2 0.57029665E-02 0.80348734E+02</pdfrwt>
<pdfrwt beam="2">  1       -1 0.66983919E-02 0.80348734E+02</pdfrwt>
<totfact> 0.13867218E+05</totfact>
</mgrwt>
</event>
<event>
 8    1  0.2561077E-020  0.7809152E+02  0.7818608E-02  0.1334556E+00
         -1   -1    0    0    0  501 -0.00000000000E+00  0.00000000000E+00  0.14434260238E+02  0.14434261118E+02  0.50400000000E-02 0.  1.
          2   -1    0    0  501    0  0.00000000000E+00 -0.00000000000E+00 -0.10562171040E+03  0.10562171044E+03  0.25500000000E-02 0. -1.
         24    2    1    2    0    0 -0.17763568394E-14  0.00000000000E+00 -0.91187450166E+02  0.12005597155E+03  0.78091518348E+02 0.  0.
         66    2    3    3    0    0  0.13495866913E+02 -0.33923926094E+02 -0.66792217077E+02  0.76145725062E+02  0.19999994609E+01 0.  0.
        -13    1    3    3    0    0 -0.13495866913E+02  0.33923926094E+02 -0.24395233089E+02  0.43910246491E+02  0.10566000000E+00 0.  1.
         13    1    4    4    0    0  0.27188205342E+01 -0.63953997877E+01 -0.11850308648E+02  0.13738053087E+02  0.10566000000E+00 0. -1.
        -13    1    4    4    0    0  0.17191447864E+01 -0.41347618651E+01 -0.94370812850E+01  0.10446118020E+02  0.10566000000E+00 0.  1.
         14    1    4    4    0    0  0.90579015928E+01 -0.23393764442E+02 -0.45504827144E+02  0.51961553955E+02  0.00000000000E+00 0. -1.
<mgrwt>
<rscale>  0 0.78091518E+02</rscale>
<asrwt>0</asrwt>
<pdfrwt beam="1">  1        2 0.16249493E-01 0.78091518E+02</pdfrwt>
<pdfrwt beam="2">  1       -1 0.22206556E-02 0.78091518E+02</pdfrwt>
<totfact> 0.19201543E+05</totfact>
</mgrwt>
</event>
<event>
 8    1  0.2561077E-020  0.8061974E+02  0.7818608E-02  0.1327302E+00
         -1   -1    0    0    0  501 -0.00000000000E+00  0.00000000000E+00  0.33075568077E+01  0.33075606477E+01  0.50400000000E-02 0.  1.
          2   -1    0    0  501    0  0.00000000000E+00 -0.00000000000E+00 -0.49126429162E+03  0.49126429163E+03  0.25500000000E-02 0. -1.
         24    2    1    2    0    0  0.00000000000E+00  0.00000000000E+00 -0.48795673481E+03  0.49457185227E+03  0.80619737120E+02 0.  0.
         66    2    3    3    0    0 -0.10032951394E+02 -0.38957035679E+02 -0.25724213058E+03  0.26037631322E+03  0.19999995935E+01 0.  0.
        -13    1    3    3    0    0  0.10032951394E+02  0.38957035679E+02 -0.23071460423E+03  0.23419553905E+03  0.10566000000E+00 0.  1.
         13    1    4    4    0    0 -0.67066087536E+01 -0.23042727750E+02 -0.15483060469E+03  0.15667952392E+03  0.10566000000E+00 0. -1.
        -13    1    4    4    0    0 -0.64782660328E-01 -0.49793343199E+00 -0.28045044795E+01  0.28510601373E+01  0.10566000000E+00 0. -1.
         14    1    4    4    0    0 -0.32615599800E+01 -0.15416374497E+02 -0.99607021409E+02  0.10084572916E+03  0.00000000000E+00 0. -1.
<mgrwt>
<rscale>  0 0.80619737E+02</rscale>
<asrwt>0</asrwt>
<pdfrwt beam="1">  1        2 0.75579064E-01 0.80619737E+02</pdfrwt>
<pdfrwt beam="2">  1       -1 0.50885558E-03 0.80619737E+02</pdfrwt>
<totfact> 0.29676711E+05</totfact>
</mgrwt>
</event>
<event>
 8    1  0.2561077E-020  0.7999677E+02  0.7818608E-02  0.1329061E+00
          2   -1    0    0  501    0  0.00000000000E+00  0.00000000000E+00  0.83216752373E+03  0.83216752373E+03  0.25500000000E-02 0. -1.
         -1   -1    0    0    0  501 -0.00000000000E+00 -0.00000000000E+00 -0.19225312242E+01  0.19225378305E+01  0.50400000000E-02 0.  1.
         24    2    1    2    0    0  0.00000000000E+00  0.00000000000E+00  0.83024499250E+03  0.83409006156E+03  0.79996770057E+02 0.  0.
         66    2    3    3    0    0 -0.26398915896E+02  0.84278166885E+01  0.71575537848E+03  0.71629441760E+03  0.19999995338E+01 0.  0.
        -13    1    3    3    0    0  0.26398915896E+02 -0.84278166885E+01  0.11448961402E+03  0.11779564397E+03  0.10566000000E+00 0.  1.
         13    1    4    4    0    0 -0.14062981436E+02  0.50175224722E+01  0.39309892738E+03  0.39338241045E+03  0.10566000000E+00 0. -1.
        -13    1    4    4    0    0 -0.97139371911E+01  0.26979481198E+01  0.24242619135E+03  0.24263575358E+03  0.10566000000E+00 0.  1.
        -14    1    4    4    0    0 -0.26219972691E+01  0.71234609657E+00  0.80230259754E+02  0.80276253567E+02  0.00000000000E+00 0.  1.
<mgrwt>
<rscale>  0 0.79996770E+02</rscale>
<asrwt>0</asrwt>
<pdfrwt beam="1">  1        2 0.12802578E+00 0.79996770E+02</pdfrwt>
<pdfrwt beam="2">  1       -1 0.29577453E-03 0.79996770E+02</pdfrwt>
<totfact> 0.34590582E+05</totfact>
</mgrwt>
</event>
<event>
 8    1  0.2561077E-020  0.7466456E+02  0.7818608E-02  0.1344913E+00
          2   -1    0    0  501    0  0.00000000000E+00  0.00000000000E+00  0.45251958763E+02  0.45251958835E+02  0.25500000000E-02 0. -1.
         -1   -1    0    0    0  501 -0.00000000000E+00 -0.00000000000E+00 -0.30798643060E+02  0.30798643473E+02  0.50400000000E-02 0.  1.
         24    2    1    2    0    0  0.35527136788E-14  0.00000000000E+00  0.14453315703E+02  0.76050602308E+02  0.74664555022E+02 0.  0.
         66    2    3    3    0    0  0.23656311485E+02  0.90383818222E+01  0.35133421320E+02  0.43355169119E+02  0.19999941637E+01 0.  0.
        -13    1    3    3    0    0 -0.23656311485E+02 -0.90383818222E+01 -0.20680105617E+02  0.32695433189E+02  0.10566000000E+00 0.  1.
         13    1    4    4    0    0  0.24638423689E+01  0.99188854766E+00  0.45149960707E+01  0.52393430565E+01  0.10566000000E+00 0. -1.
        -13    1    4    4    0    0  0.91367974034E+01  0.40263198195E+01  0.12991137329E+02  0.16385149716E+02  0.10566000000E+00 0.  1.
        -14    1    4    4    0    0  0.12055671713E+02  0.40201734550E+01  0.17627287920E+02  0.21730676346E+02  0.00000000000E+00 0.  1.
<mgrwt>
<rscale>  0 0.74664555E+02</rscale>
<asrwt>0</asrwt>
<pdfrwt beam="1">  1        2 0.69618398E-02 0.74664555E+02</pdfrwt>
<pdfrwt beam="2">  1       -1 0.47382528E-02 0.74664555E+02</pdfrwt>
<totfact> 0.17665773E+05</totfact>
</mgrwt>
</event>
<event>
 8    1  0.2561077E-020  0.7671929E+02  0.7818608E-02  0.1338628E+00
          2   -1    0    0  501    0  0.00000000000E+00  0.00000000000E+00  0.14311348493E+03  0.14311348496E+03  0.25500000000E-02 0. -1.
         -1   -1    0    0    0  501 -0.00000000000E+00 -0.00000000000E+00 -0.10281785083E+02  0.10281786319E+02  0.50400000000E-02 0.  1.
         24    2    1    2    0    0  0.00000000000E+00 -0.35527136788E-14  0.13283169985E+03  0.15339527128E+03  0.76719285479E+02 0.  0.
         66    2    3    3    0    0  0.20571552052E+02  0.23136949776E+02  0.11165651234E+03  0.11588651324E+03  0.20000015050E+01 0.  0.
        -13    1    3    3    0    0 -0.20571552052E+02 -0.23136949776E+02  0.21175187516E+02  0.37508758033E+02  0.10566000000E+00 0.  1.
         13    1    4    4    0    0  0.24380924478E+01  0.29111229313E+01  0.13145809998E+02  0.13683655069E+02  0.10566000000E+00 0. -1.
        -13    1    4    4    0    0  0.43621884584E+00  0.63563457086E+00  0.39550947864E+01  0.40309126751E+01  0.10566000000E+00 0.  1.
         14    1    4    4    0    0  0.17697240758E+02  0.19590192274E+02  0.94555607551E+02  0.98171945499E+02  0.00000000000E+00 0. -1.
<mgrwt>
<rscale>  0 0.76719285E+02</rscale>
<asrwt>0</asrwt>
<pdfrwt beam="1">  1        2 0.22017459E-01 0.76719285E+02</pdfrwt>
<pdfrwt beam="2">  1       -1 0.15818132E-02 0.76719285E+02</pdfrwt>
<totfact> 0.22046626E+05</totfact>
</mgrwt>
</event>
<event>
 8    1  0.2561077E-020  0.8053157E+02  0.7818608E-02  0.1327550E+00
          2   -1    0    0  501    0  0.00000000000E+00  0.00000000000E+00  0.83577074843E+03  0.83577074843E+03  0.25500000000E-02 0. -1.
         -1   -1    0    0    0  501 -0.00000000000E+00 -0.00000000000E+00 -0.19399227673E+01  0.19399293144E+01  0.50400000000E-02 0.  1.
         24    2    1    2    0    0 -0.17763568394E-14 -0.88817841970E-15  0.83383082566E+03  0.83771067775E+03  0.80531570134E+02 0.  0.
         66    2    3    3    0    0 -0.95749542910E+01 -0.52044838344E+01  0.82012527868E+03  0.82020012140E+03  0.20000010178E+01 0.  0.
        -13    1    3    3    0    0  0.95749542910E+01  0.52044838344E+01  0.13705546979E+02  0.17510556350E+02  0.10566000000E+00 0.  1.
         13    1    4    4    0    0 -0.40400473302E+01 -0.31314095604E+01  0.36574783235E+03  0.36578356407E+03  0.10566000000E+00 0. -1.
        -13    1    4    4    0    0 -0.40011065321E+01 -0.13186390404E+01  0.29864851422E+03  0.29867824472E+03  0.10566000000E+00 0.  1.
        -14    1    4    4    0    0 -0.15338004286E+01 -0.75443523350E+00  0.15572893212E+03  0.15573831261E+03  0.00000000000E+00 0.  1.
<mgrwt>
<rscale>  0 0.80531570E+02</rscale>
<asrwt>0</asrwt>
<pdfrwt beam="1">  1        2 0.12858014E+00 0.80531570E+02</pdfrwt>
<pdfrwt beam="2">  1       -1 0.29845011E-03 0.80531570E+02</pdfrwt>
<totfact> 0.34019255E+05</totfact>
</mgrwt>
</event>
<event>
 8    1  0.2561077E-020  0.7872771E+02  0.7818608E-02  0.1332701E+00
         -1   -1    0    0    0  501 -0.00000000000E+00  0.00000000000E+00  0.19519006708E+03  0.19519006714E+03  0.50400000000E-02 0.  1.
          2   -1    0    0  501    0  0.00000000000E+00 -0.00000000000E+00 -0.79384825078E+01  0.79384829174E+01  0.25500000000E-02 0. -1.
         24    2    1    2    0    0  0.00000000000E+00  0.00000000000E+00  0.18725158457E+03  0.20312855006E+03  0.78727707484E+02 0.  0.
         66    2    3    3    0    0 -0.16407716684E+02 -0.32965361992E+02  0.57973715452E+02  0.68708659919E+02  0.20000016140E+01 0.  0.
        -13    1    3    3    0    0  0.16407716684E+02  0.32965361992E+02  0.12927786912E+03  0.13441989014E+03  0.10566000000E+00 0.  1.
         13    1    4    4    0    0 -0.10228083357E+02 -0.19286043846E+02  0.34908586142E+02  0.41172633227E+02  0.10566000000E+00 0. -1.
        -13    1    4    4    0    0 -0.15036658434E+00 -0.73223079859E+00  0.13016255914E+01  0.15047143476E+01  0.10566000000E+00 0.  1.
         14    1    4    4    0    0 -0.60292667429E+01 -0.12947087347E+02  0.21763503719E+02  0.26031312344E+02  0.00000000000E+00 0. -1.
<mgrwt>
<rscale>  0 0.78727707E+02</rscale>
<asrwt>0</asrwt>
<pdfrwt beam="1">  1        2 0.12213052E-02 0.78727707E+02</pdfrwt>
<pdfrwt beam="2">  1       -1 0.30029237E-01 0.78727707E+02</pdfrwt>
<totfact> 0.10450994E+05</totfact>
</mgrwt>
</event>
<event>
 8    1  0.2561077E-020  0.7882622E+02  0.7818608E-02  0.1332416E+00
         -1   -1    0    0    0  501 -0.00000000000E+00  0.00000000000E+00  0.59776347192E+01  0.59776368440E+01  0.50400000000E-02 0.  1.
          2   -1    0    0  501    0  0.00000000000E+00 -0.00000000000E+00 -0.25986751760E+03  0.25986751761E+03  0.25500000000E-02 0. -1.
         24    2    1    2    0    0 -0.35527136788E-14  0.00000000000E+00 -0.25388988288E+03  0.26584515446E+03  0.78826223548E+02 0.  0.
         66    2    3    3    0    0  0.26937064772E+02 -0.99712028332E+01 -0.21792005812E+03  0.21981397153E+03  0.20000008021E+01 0.  0.
        -13    1    3    3    0    0 -0.26937064772E+02  0.99712028332E+01 -0.35969824760E+02  0.46031182928E+02  0.10566000000E+00 0.  1.
         13    1    4    4    0    0  0.11019225547E+02 -0.36662854097E+01 -0.88702467465E+02  0.89459509717E+02  0.10566000000E+00 0. -1.
        -13    1    4    4    0    0  0.14770445528E+02 -0.55204281485E+01 -0.12033803211E+03  0.12136677604E+03  0.10566000000E+00 0.  1.
        -14    1    4    4    0    0  0.11473936978E+01 -0.78448927503E+00 -0.88795585423E+01  0.89876857770E+01  0.00000000000E+00 0.  1.
<mgrwt>
<rscale>  0 0.78826224E+02</rscale>
<asrwt>0</asrwt>
<pdfrwt beam="1">  1        2 0.39979609E-01 0.78826224E+02</pdfrwt>
<pdfrwt beam="2">  1       -1 0.91963648E-03 0.78826224E+02</pdfrwt>
<totfact> 0.25160416E+05</totfact>
</mgrwt>
</event>
<event>
 8    1  0.2561077E-020  0.7611502E+02  0.7818608E-02  0.1340453E+00
         -1   -1    0    0    0  501 -0.00000000000E+00  0.00000000000E+00  0.12438696338E+02  0.12438697359E+02  0.50400000000E-02 0.  1.
          2   -1    0    0  501    0  0.00000000000E+00 -0.00000000000E+00 -0.11644098953E+03  0.11644098956E+03  0.25500000000E-02 0. -1.
         24    2    1    2    0    0  0.71054273576E-14 -0.35527136788E-14 -0.10400229320E+03  0.12887968692E+03  0.76115022897E+02 0.  0.
         66    2    3    3    0    0 -0.29586089083E+02  0.20849771737E+02 -0.71806340691E+02  0.80437554737E+02  0.19999999946E+01 0.  0.
        -13    1    3    3    0    0  0.29586089083E+02 -0.20849771737E+02 -0.32195952505E+02  0.48442132183E+02  0.10566000000E+00 0.  1.
         13    1    4    4    0    0 -0.20753734144E+02  0.14956349288E+02 -0.51270538390E+02  0.57298247231E+02  0.10566000000E+00 0. -1.
        -13    1    4    4    0    0 -0.41602102061E+01  0.22805985175E+01 -0.96942666690E+01  0.10793444716E+02  0.10566000000E+00 0.  1.
        -14    1    4    4    0    0 -0.46721447323E+01  0.36128239311E+01 -0.10841535632E+02  0.12345862789E+02  0.00000000000E+00 0.  1.
<mgrwt>
<rscale>  0 0.76115023E+02</rscale>
<asrwt>0</asrwt>
<pdfrwt beam="1">  1        2 0.17913998E-01 0.76115023E+02</pdfrwt>
<pdfrwt beam="2">  1       -1 0.19136458E-02 0.76115023E+02</pdfrwt>
<totfact> 0.21143138E+05</totfact>
</mgrwt>
</event>
<event>
 8    1  0.2561077E-020  0.7990322E+02  0.7818608E-02  0.1329326E+00
         -1   -1    0    0    0  501 -0.00000000000E+00  0.00000000000E+00  0.17672525903E+02  0.17672526622E+02  0.50400000000E-02 0.  1.
          2   -1    0    0  501    0  0.00000000000E+00 -0.00000000000E+00 -0.90317092165E+02  0.90317092201E+02  0.25500000000E-02 0. -1.
         24    2    1    2    0    0  0.71054273576E-14 -0.44408920985E-15 -0.72644566262E+02  0.10798961882E+03  0.79903221249E+02 0.  0.
         66    2    3    3    0    0 -0.36340805448E+02  0.39837849603E+01 -0.58036595077E+02  0.68620485362E+02  0.19999900186E+01 0.  0.
        -13    1    3    3    0    0  0.36340805448E+02 -0.39837849603E+01 -0.14607971185E+02  0.39369133460E+02  0.10566000000E+00 0.  1.
         13    1    4    4    0    0 -0.87675267900E+01  0.60142733120E+00 -0.12905000995E+02  0.15613502348E+02  0.10566000000E+00 0. -1.
        -13    1    4    4    0    0 -0.10931377696E+02  0.82241196681E+00 -0.17679355090E+02  0.20802455149E+02  0.10566000000E+00 0.  1.
         14    1    4    4    0    0 -0.16641900962E+02  0.25599456623E+01 -0.27452238992E+02  0.32204527866E+02  0.00000000000E+00 0. -1.
<mgrwt>
<rscale>  0 0.79903221E+02</rscale>
<asrwt>0</asrwt>
<pdfrwt beam="1">  1        2 0.13894937E-01 0.79903221E+02</pdfrwt>
<pdfrwt beam="2">  1       -1 0.27188503E-02 0.79903221E+02</pdfrwt>
<totfact> 0.17293151E+05</totfact>
</mgrwt>
</event>
<event>
 8    1  0.2561077E-020  0.7763652E+02  0.7818608E-02  0.1335896E+00
         -1   -1    0    0    0  501 -0.00000000000E+00  0.00000000000E+00  0.46913986677E+01  0.46914013749E+01  0.50400000000E-02 0.  1.
          2   -1    0    0  501    0  0.00000000000E+00 -0.00000000000E+00 -0.32119562148E+03  0.32119562149E+03  0.25500000000E-02 0. -1.
         24    2    1    2    0    0  0.00000000000E+00  0.00000000000E+00 -0.31650422282E+03  0.32588702287E+03  0.77636515982E+02 0.  0.
         66    2    3    3    0    0 -0.86721550842E+01 -0.37802102408E+02 -0.15498041845E+03  0.15977213564E+03  0.20000004352E+01 0.  0.
        -13    1    3    3    0    0  0.86721550842E+01  0.37802102408E+02 -0.16152380436E+03  0.16611488723E+03  0.10566000000E+00 0.  1.
         13    1    4    4    0    0 -0.17475029821E+01 -0.65683937716E+01 -0.29159898214E+02  0.29941749971E+02  0.10566000000E+00 0. -1.
        -13    1    4    4    0    0 -0.35893134480E+01 -0.17075800413E+02 -0.71052759652E+02  0.73164007196E+02  0.10566000000E+00 0.  1.
         14    1    4    4    0    0 -0.33353386541E+01 -0.14157908223E+02 -0.54767760587E+02  0.56666378470E+02  0.00000000000E+00 0. -1.
<mgrwt>
<rscale>  0 0.77636516E+02</rscale>
<asrwt>0</asrwt>
<pdfrwt beam="1">  1        2 0.49414694E-01 0.77636516E+02</pdfrwt>
<pdfrwt beam="2">  1       -1 0.72175410E-03 0.77636516E+02</pdfrwt>
<totfact> 0.28263507E+05</totfact>
</mgrwt>
</event>
<event>
 8    1  0.2561077E-020  0.8283454E+02  0.7818608E-02  0.1321195E+00
          2   -1    0    0  501    0  0.00000000000E+00  0.00000000000E+00  0.12191435719E+04  0.12191435719E+04  0.25500000000E-02 0. -1.
         -1   -1    0    0    0  501 -0.00000000000E+00 -0.00000000000E+00 -0.14070407869E+01  0.14070498135E+01  0.50400000000E-02 0.  1.
         24    2    1    2    0    0  0.88817841970E-15  0.00000000000E+00  0.12177365311E+04  0.12205506217E+04  0.82834539681E+02 0.  0.
         66    2    3    3    0    0  0.74154557233E+01 -0.83679010447E+01  0.11964691891E+04  0.11965231010E+04  0.19999986836E+01 0.  0.
        -13    1    3    3    0    0 -0.74154557233E+01  0.83679010447E+01  0.21267341969E+02  0.24027520678E+02  0.10566000000E+00 0.  1.
         13    1    4    4    0    0  0.23458885732E+01 -0.23467902083E+01  0.42808335088E+03  0.42809622410E+03  0.10566000000E+00 0. -1.
        -13    1    4    4    0    0  0.36225216179E+01 -0.43793673596E+01  0.50657003773E+03  0.50660193033E+03  0.10566000000E+00 0.  1.
        -14    1    4    4    0    0  0.14470455323E+01 -0.16417434768E+01  0.26181580053E+03  0.26182494661E+03  0.00000000000E+00 0.  1.
<mgrwt>
<rscale>  0 0.82834540E+02</rscale>
<asrwt>0</asrwt>
<pdfrwt beam="1">  1        2 0.18756116E+00 0.82834540E+02</pdfrwt>
<pdfrwt beam="2">  1       -1 0.21646780E-03 0.82834540E+02</pdfrwt>
<totfact> 0.31944514E+05</totfact>
</mgrwt>
</event>
<event>
 8    1  0.2561077E-020  0.8038053E+02  0.7818608E-02  0.1327975E+00
          2   -1    0    0  501    0  0.00000000000E+00  0.00000000000E+00  0.39269186362E+03  0.39269186362E+03  0.25500000000E-02 0. -1.
         -1   -1    0    0    0  501 -0.00000000000E+00 -0.00000000000E+00 -0.41132936406E+01  0.41132967283E+01  0.50400000000E-02 0.  1.
         24    2    1    2    0    0  0.00000000000E+00  0.17763568394E-14  0.38857856998E+03  0.39680516035E+03  0.80380533952E+02 0.  0.
         66    2    3    3    0    0 -0.25004979553E+02  0.83416325945E+01  0.34401463309E+03  0.34502883882E+03  0.20000000052E+01 0.  0.
        -13    1    3    3    0    0  0.25004979553E+02 -0.83416325945E+01  0.44563936884E+02  0.51776321532E+02  0.10566000000E+00 0.  1.
         13    1    4    4    0    0 -0.15570726339E+02  0.59399202230E+01  0.21720167670E+03  0.21784010121E+03  0.10566000000E+00 0. -1.
        -13    1    4    4    0    0 -0.55362986079E+01  0.12261510937E+01  0.78423457456E+02  0.78628263952E+02  0.10566000000E+00 0.  1.
        -14    1    4    4    0    0 -0.38979546054E+01  0.11755612778E+01  0.48389498936E+02  0.48560473656E+02  0.00000000000E+00 0.  1.
<mgrwt>
<rscale>  0 0.80380534E+02</rscale>
<asrwt>0</asrwt>
<pdfrwt beam="1">  1        2 0.60414140E-01 0.80380534E+02</pdfrwt>
<pdfrwt beam="2">  1       -1 0.63281457E-03 0.80380534E+02</pdfrwt>
<totfact> 0.27725678E+05</totfact>
</mgrwt>
</event>
<event>
 8    1  0.2561077E-020  0.7995507E+02  0.7818608E-02  0.1329179E+00
         -1   -1    0    0    0  501 -0.00000000000E+00  0.00000000000E+00  0.59856241620E+03  0.59856241622E+03  0.50400000000E-02 0.  1.
          2   -1    0    0  501    0  0.00000000000E+00 -0.00000000000E+00 -0.26700689274E+01  0.26700701450E+01  0.25500000000E-02 0. -1.
         24    2    1    2    0    0  0.00000000000E+00  0.00000000000E+00  0.59589234727E+03  0.60123248636E+03  0.79955069408E+02 0.  0.
         66    2    3    3    0    0 -0.19800919827E+02 -0.22490099409E+02  0.49684350675E+03  0.49775028997E+03  0.19999928593E+01 0.  0.
        -13    1    3    3    0    0  0.19800919827E+02  0.22490099409E+02  0.99048840522E+02  0.10348219639E+03  0.10566000000E+00 0.  1.
         13    1    4    4    0    0 -0.14328833553E+02 -0.15572460569E+02  0.35579918696E+03  0.35642795850E+03  0.10566000000E+00 0. -1.
        -13    1    4    4    0    0 -0.18331516303E+01 -0.17262800470E+01  0.39785027403E+02  0.39864772133E+02  0.10566000000E+00 0.  1.
         14    1    4    4    0    0 -0.36389346429E+01 -0.51913587924E+01  0.10125929239E+03  0.10145755934E+03  0.00000000000E+00 0. -1.
<mgrwt>
<rscale>  0 0.79955069E+02</rscale>
<asrwt>0</asrwt>
<pdfrwt beam="1">  1        2 0.41077925E-03 0.79955069E+02</pdfrwt>
<pdfrwt beam="2">  1       -1 0.92086679E-01 0.79955069E+02</pdfrwt>
<totfact> 0.59204301E+04</totfact>
</mgrwt>
</event>
<event>
 8    1  0.2561077E-020  0.7994798E+02  0.7818608E-02  0.1329199E+00
          2   -1    0    0  501    0  0.00000000000E+00  0.00000000000E+00  0.18996429426E+02  0.18996429597E+02  0.25500000000E-02 0. -1.
         -1   -1    0    0    0  501 -0.00000000000E+00 -0.00000000000E+00 -0.84116862027E+02  0.84116862178E+02  0.50400000000E-02 0.  1.
         24    2    1    2    0    0  0.88817841970E-15  0.00000000000E+00 -0.65120432601E+02  0.10311329177E+03  0.79947984330E+02 0.  0.
         66    2    3    3    0    0 -0.61318247391E+01 -0.17399686621E+02  0.13120603611E+02  0.22726605808E+02  0.20000008197E+01 0.  0.
        -13    1    3    3    0    0  0.61318247391E+01  0.17399686621E+02 -0.78241036212E+02  0.80386685967E+02  0.10566000000E+00 0.  1.
         13    1    4    4    0    0 -0.33645750922E+01 -0.10007183354E+02  0.73331730031E+01  0.12854986369E+02  0.10566000000E+00 0. -1.
        -13    1    4    4    0    0 -0.28087559741E+01 -0.70635047862E+01  0.57619259045E+01  0.95390337116E+01  0.10566000000E+00 0.  1.
        -14    1    4    4    0    0  0.41506327157E-01 -0.32899848112E+00  0.25504703451E-01  0.33258572680E+00  0.00000000000E+00 0.  1.
<mgrwt>
<rscale>  0 0.79947984E+02</rscale>
<asrwt>0</asrwt>
<pdfrwt beam="1">  1        2 0.29225277E-02 0.79947984E+02</pdfrwt>
<pdfrwt beam="2">  1       -1 0.12941056E-01 0.79947984E+02</pdfrwt>
<totfact> 0.12309491E+05</totfact>
</mgrwt>
</event>
<event>
 8    1  0.2561077E-020  0.7786215E+02  0.7818608E-02  0.1335230E+00
          2   -1    0    0  501    0  0.00000000000E+00  0.00000000000E+00  0.21807049387E+02  0.21807049536E+02  0.25500000000E-02 0. -1.
         -1   -1    0    0    0  501 -0.00000000000E+00 -0.00000000000E+00 -0.69501764317E+02  0.69501764500E+02  0.50400000000E-02 0.  1.
         24    2    1    2    0    0  0.00000000000E+00  0.00000000000E+00 -0.47694714930E+02  0.91308814035E+02  0.77862145412E+02 0.  0.
         66    2    3    3    0    0 -0.28539016932E+02 -0.18711484571E+02 -0.19543436331E+01  0.34240540251E+02  0.19999988449E+01 0.  0.
        -13    1    3    3    0    0  0.28539016932E+02  0.18711484571E+02 -0.45740371297E+02  0.57068273784E+02  0.10566000000E+00 0.  1.
         13    1    4    4    0    0 -0.50261293333E+01 -0.41039540025E+01 -0.25153863046E+00  0.64945246361E+01  0.10566000000E+00 0. -1.
        -13    1    4    4    0    0 -0.15016002140E+02 -0.97164463963E+01 -0.87787314971E+00  0.17907302313E+02  0.10566000000E+00 0.  1.
        -14    1    4    4    0    0 -0.84968854585E+01 -0.48910841721E+01 -0.82493185294E+00  0.98387133018E+01  0.00000000000E+00 0.  1.
<mgrwt>
<rscale>  0 0.77862145E+02</rscale>
<asrwt>0</asrwt>
<pdfrwt beam="1">  1        2 0.33549307E-02 0.77862145E+02</pdfrwt>
<pdfrwt beam="2">  1       -1 0.10692579E-01 0.77862145E+02</pdfrwt>
<totfact> 0.13646589E+05</totfact>
</mgrwt>
</event>
<event>
 8    1  0.2561077E-020  0.7963719E+02  0.7818608E-02  0.1330084E+00
          2   -1    0    0  501    0  0.00000000000E+00  0.00000000000E+00  0.15685173102E+04  0.15685173102E+04  0.25500000000E-02 0. -1.
         -1   -1    0    0    0  501 -0.00000000000E+00 -0.00000000000E+00 -0.10108341229E+01  0.10108466875E+01  0.50400000000E-02 0.  1.
         24    2    1    2    0    0  0.00000000000E+00 -0.88817841970E-15  0.15675064761E+04  0.15695281569E+04  0.79637194361E+02 0.  0.
         66    2    3    3    0    0  0.12556753141E+02 -0.73522353295E+01  0.15142022220E+04  0.15142734550E+04  0.20000006320E+01 0.  0.
        -13    1    3    3    0    0 -0.12556753141E+02  0.73522353295E+01  0.53304254057E+02  0.55254701867E+02  0.10566000000E+00 0.  1.
         13    1    4    4    0    0  0.71844813677E+01 -0.50721534607E+01  0.90009339549E+03  0.90013636483E+03  0.10566000000E+00 0. -1.
        -13    1    4    4    0    0  0.24246192641E+01 -0.62581414515E+00  0.24845797866E+03  0.24847061948E+03  0.10566000000E+00 0.  1.
        -14    1    4    4    0    0  0.29476525090E+01 -0.16542677236E+01  0.36565084787E+03  0.36566647071E+03  0.00000000000E+00 0.  1.
<mgrwt>
<rscale>  0 0.79637194E+02</rscale>
<asrwt>0</asrwt>
<pdfrwt beam="1">  1        2 0.24131214E+00 0.79637194E+02</pdfrwt>
<pdfrwt beam="2">  1       -1 0.15551276E-03 0.79637194E+02</pdfrwt>
<totfact> 0.33036752E+05</totfact>
</mgrwt>
</event>
<event>
 8    1  0.2561077E-020  0.7682488E+02  0.7818608E-02  0.1338311E+00
         -1   -1    0    0    0  501 -0.00000000000E+00  0.00000000000E+00  0.39843086950E+01  0.39843118827E+01  0.50400000000E-02 0.  1.
          2   -1    0    0  501    0  0.00000000000E+00 -0.00000000000E+00 -0.37033152709E+03  0.37033152710E+03  0.25500000000E-02 0. -1.
         24    2    1    2    0    0  0.00000000000E+00  0.71054273576E-14 -0.36634721839E+03  0.37431583898E+03  0.76824884553E+02 0.  0.
         66    2    3    3    0    0 -0.12986438222E+02 -0.31667804414E+02 -0.26797127204E+03  0.27015569593E+03  0.19999983671E+01 0.  0.
        -13    1    3    3    0    0  0.12986438222E+02  0.31667804414E+02 -0.98375946356E+02  0.10416014305E+03  0.10566000000E+00 0.  1.
         13    1    4    4    0    0 -0.10637162437E+02 -0.24753824727E+02 -0.20891263005E+03  0.21064282381E+03  0.10566000000E+00 0. -1.
        -13    1    4    4    0    0 -0.47077026159E+00 -0.85796379083E+00 -0.92672016788E+01  0.93193303138E+01  0.10566000000E+00 0.  1.
         14    1    4    4    0    0 -0.18785055228E+01 -0.60560158965E+01 -0.49791440309E+02  0.50193541811E+02  0.00000000000E+00 0. -1.
<mgrwt>
<rscale>  0 0.76824885E+02</rscale>
<asrwt>0</asrwt>
<pdfrwt beam="1">  1        2 0.56974054E-01 0.76824885E+02</pdfrwt>
<pdfrwt beam="2">  1       -1 0.61297111E-03 0.76824885E+02</pdfrwt>
<totfact> 0.30560544E+05</totfact>
</mgrwt>
</event>
<event>
 8    1  0.2561077E-020  0.8054797E+02  0.7818608E-02  0.1327504E+00
          2   -1    0    0  501    0  0.00000000000E+00  0.00000000000E+00  0.15539347931E+03  0.15539347933E+03  0.25500000000E-02 0. -1.
         -1   -1    0    0    0  501 -0.00000000000E+00 -0.00000000000E+00 -0.10437978575E+02  0.10437979791E+02  0.50400000000E-02 0.  1.
         24    2    1    2    0    0  0.00000000000E+00  0.71054273576E-14  0.14495550073E+03  0.16583145912E+03  0.80547971055E+02 0.  0.
         66    2    3    3    0    0  0.92567067318E+01 -0.34264895609E+02  0.11159702107E+03  0.11712243511E+03  0.20000008519E+01 0.  0.
        -13    1    3    3    0    0 -0.92567067318E+01  0.34264895609E+02  0.33358479661E+02  0.48709024010E+02  0.10566000000E+00 0.  1.
         13    1    4    4    0    0  0.60119241799E+01 -0.24162230484E+02  0.76516242247E+02  0.80465539866E+02  0.10566000000E+00 0. -1.
        -13    1    4    4    0    0  0.45050683683E+00 -0.11825569913E+01  0.35840906438E+01  0.38024028228E+01  0.10566000000E+00 0. -1.
         14    1    4    4    0    0  0.27942757150E+01 -0.89201081340E+01  0.31496688181E+02  0.32854492422E+02  0.00000000000E+00 0. -1.
<mgrwt>
<rscale>  0 0.80547971E+02</rscale>
<asrwt>0</asrwt>
<pdfrwt beam="1">  1        2 0.23906688E-01 0.80547971E+02</pdfrwt>
<pdfrwt beam="2">  1       -1 0.16058430E-02 0.80547971E+02</pdfrwt>
<totfact> 0.19896931E+05</totfact>
</mgrwt>
</event>
<event>
 8    1  0.2561077E-020  0.7788470E+02  0.7818608E-02  0.1335164E+00
          2   -1    0    0  501    0  0.00000000000E+00  0.00000000000E+00  0.46663115237E+03  0.46663115237E+03  0.25500000000E-02 0. -1.
         -1   -1    0    0    0  501 -0.00000000000E+00 -0.00000000000E+00 -0.32499024971E+01  0.32499064051E+01  0.50400000000E-02 0.  1.
         24    2    1    2    0    0  0.00000000000E+00  0.00000000000E+00  0.46338124987E+03  0.46988105878E+03  0.77884701119E+02 0.  0.
         66    2    3    3    0    0  0.24835968965E+02 -0.61967419149E+01  0.40869185958E+03  0.40949757148E+03  0.19999978243E+01 0.  0.
        -13    1    3    3    0    0 -0.24835968965E+02  0.61967419149E+01  0.54689390286E+02  0.60383487301E+02  0.10566000000E+00 0.  1.
         13    1    4    4    0    0  0.63328789304E+01 -0.18491818160E+01  0.10679157846E+03  0.10699522056E+03  0.10566000000E+00 0. -1.
        -13    1    4    4    0    0  0.66993585966E+01 -0.22949274285E+01  0.11756170046E+03  0.11777483890E+03  0.10566000000E+00 0.  1.
        -14    1    4    4    0    0  0.11803731438E+02 -0.20526326703E+01  0.18433858066E+03  0.18472751201E+03  0.00000000000E+00 0.  1.
<mgrwt>
<rscale>  0 0.77884701E+02</rscale>
<asrwt>0</asrwt>
<pdfrwt beam="1">  1        2 0.71789414E-01 0.77884701E+02</pdfrwt>
<pdfrwt beam="2">  1       -1 0.49998526E-03 0.77884701E+02</pdfrwt>
<totfact> 0.31928597E+05</totfact>
</mgrwt>
</event>
<event>
 8    1  0.2561077E-020  0.8011955E+02  0.7818608E-02  0.1328713E+00
          2   -1    0    0  501    0  0.00000000000E+00  0.00000000000E+00  0.11282940841E+03  0.11282940844E+03  0.25500000000E-02 0. -1.
         -1   -1    0    0    0  501 -0.00000000000E+00 -0.00000000000E+00 -0.14223112225E+02  0.14223113118E+02  0.50400000000E-02 0.  1.
         24    2    1    2    0    0  0.00000000000E+00  0.35527136788E-14  0.98606296189E+02  0.12705252156E+03  0.80119545598E+02 0.  0.
         66    2    3    3    0    0 -0.28176960491E+02  0.22908690830E+02  0.76059408584E+02  0.84307667803E+02  0.19999995671E+01 0.  0.
        -13    1    3    3    0    0  0.28176960491E+02 -0.22908690830E+02  0.22546887606E+02  0.42744853758E+02  0.10566000000E+00 0.  1.
         13    1    4    4    0    0 -0.10573472803E+02  0.93041900792E+01  0.31012670377E+02  0.34061168038E+02  0.10566000000E+00 0. -1.
        -13    1    4    4    0    0 -0.59436273185E+01  0.43394311117E+01  0.14302433485E+02  0.16085028309E+02  0.10566000000E+00 0.  1.
         14    1    4    4    0    0 -0.11659860369E+02  0.92650696392E+01  0.30744304722E+02  0.34161471457E+02  0.00000000000E+00 0. -1.
<mgrwt>
<rscale>  0 0.80119546E+02</rscale>
<asrwt>0</asrwt>
<pdfrwt beam="1">  1        2 0.17358371E-01 0.80119546E+02</pdfrwt>
<pdfrwt beam="2">  1       -1 0.21881711E-02 0.80119546E+02</pdfrwt>
<totfact> 0.18275970E+05</totfact>
</mgrwt>
</event>
<event>
 8    1  0.2561077E-020  0.7993847E+02  0.7818608E-02  0.1329226E+00
          2   -1    0    0  501    0  0.00000000000E+00  0.00000000000E+00  0.61955061698E+02  0.61955061751E+02  0.25500000000E-02 0. -1.
         -1   -1    0    0    0  501 -0.00000000000E+00 -0.00000000000E+00 -0.25785459720E+02  0.25785460213E+02  0.50400000000E-02 0.  1.
         24    2    1    2    0    0  0.00000000000E+00  0.71054273576E-14  0.36169601978E+02  0.87740521963E+02  0.79938470633E+02 0.  0.
         66    2    3    3    0    0  0.21144546478E+02  0.33884147459E+02  0.18704758465E+02  0.44148559198E+02  0.19999988171E+01 0.  0.
        -13    1    3    3    0    0 -0.21144546478E+02 -0.33884147459E+02  0.17464843512E+02  0.43591962765E+02  0.10566000000E+00 0.  1.
         13    1    4    4    0    0  0.85276915454E+00  0.93512378398E+00  0.78347830498E+00  0.14922044137E+01  0.10566000000E+00 0. -1.
        -13    1    4    4    0    0  0.61211319786E+01  0.10780363623E+02  0.58753950678E+01  0.13719181017E+02  0.10566000000E+00 0.  1.
         14    1    4    4    0    0  0.14170645345E+02  0.22168660052E+02  0.12045885093E+02  0.28937173768E+02  0.00000000000E+00 0. -1.
<mgrwt>
<rscale>  0 0.79938471E+02</rscale>
<asrwt>0</asrwt>
<pdfrwt beam="1">  1        2 0.95315479E-02 0.79938471E+02</pdfrwt>
<pdfrwt beam="2">  1       -1 0.39669939E-02 0.79938471E+02</pdfrwt>
<totfact> 0.15715376E+05</totfact>
</mgrwt>
</event>
<event>
 8    1  0.2561077E-020  0.7941384E+02  0.7818608E-02  0.1330723E+00
         -1   -1    0    0    0  501 -0.00000000000E+00  0.00000000000E+00  0.16538341375E+01  0.16538418171E+01  0.50400000000E-02 0.  1.
          2   -1    0    0  501    0  0.00000000000E+00 -0.00000000000E+00 -0.95332160820E+03  0.95332160820E+03  0.25500000000E-02 0. -1.
         24    2    1    2    0    0  0.00000000000E+00  0.00000000000E+00 -0.95166777406E+03  0.95497545002E+03  0.79413839807E+02 0.  0.
         66    2    3    3    0    0  0.37115102503E+01 -0.12149674714E+02 -0.92820380267E+03  0.92829288977E+03  0.20000007215E+01 0.  0.
        -13    1    3    3    0    0 -0.37115102503E+01  0.12149674714E+02 -0.23463971397E+02  0.26682560255E+02  0.10566000000E+00 0.  1.
         13    1    4    4    0    0 -0.12899047843E+00 -0.54993439128E+00 -0.32430779757E+02  0.32435870669E+02  0.10566000000E+00 0.  1.
        -13    1    4    4    0    0  0.31629623887E+00 -0.38582456287E+00 -0.41271789899E+02  0.41274940453E+02  0.10566000000E+00 0. -1.
         14    1    4    4    0    0  0.35242044899E+01 -0.11213915760E+02 -0.85450123301E+03  0.85458207864E+03  0.00000000000E+00 0. -1.
<mgrwt>
<rscale>  0 0.79413840E+02</rscale>
<asrwt>0</asrwt>
<pdfrwt beam="1">  1        2 0.14666442E+00 0.79413840E+02</pdfrwt>
<pdfrwt beam="2">  1       -1 0.25443737E-03 0.79413840E+02</pdfrwt>
<totfact> 0.35810073E+05</totfact>
</mgrwt>
</event>
<event>
 8    1  0.2561077E-020  0.8074776E+02  0.7818608E-02  0.1326943E+00
         -1   -1    0    0    0  501 -0.00000000000E+00  0.00000000000E+00  0.10910159820E+03  0.10910159831E+03  0.50400000000E-02 0.  1.
          2   -1    0    0  501    0  0.00000000000E+00 -0.00000000000E+00 -0.14940662438E+02  0.14940662656E+02  0.25500000000E-02 0. -1.
         24    2    1    2    0    0  0.00000000000E+00  0.35527136788E-14  0.94160935757E+02  0.12404226097E+03  0.80747759618E+02 0.  0.
         66    2    3    3    0    0  0.83133119724E+01  0.21633949567E+02 -0.36286789106E+01  0.23543709582E+02  0.20000051105E+01 0.  0.
        -13    1    3    3    0    0 -0.83133119724E+01 -0.21633949567E+02  0.97789614668E+02  0.10049855139E+03  0.10566000000E+00 0.  1.
         13    1    4    4    0    0  0.33278294327E+01  0.97156277402E+01 -0.68836354579E+00  0.10293341514E+02  0.10566000000E+00 0. -1.
        -13    1    4    4    0    0  0.34025901473E+01  0.81720336693E+01 -0.20575531580E+01  0.90886986437E+01  0.10566000000E+00 0.  1.
         14    1    4    4    0    0  0.15828923924E+01  0.37462881572E+01 -0.88276220682E+00  0.41616694242E+01  0.00000000000E+00 0. -1.
<mgrwt>
<rscale>  0 0.80747760E+02</rscale>
<asrwt>0</asrwt>
<pdfrwt beam="1">  1        2 0.22985635E-02 0.80747760E+02</pdfrwt>
<pdfrwt beam="2">  1       -1 0.16784861E-01 0.80747760E+02</pdfrwt>
<totfact> 0.11363134E+05</totfact>
</mgrwt>
</event>
<event>
 8    1  0.2561077E-020  0.7873353E+02  0.7818608E-02  0.1332684E+00
          2   -1    0    0  501    0  0.00000000000E+00  0.00000000000E+00  0.38803908442E+02  0.38803908525E+02  0.25500000000E-02 0. -1.
         -1   -1    0    0    0  501 -0.00000000000E+00 -0.00000000000E+00 -0.39937782876E+02  0.39937783194E+02  0.50400000000E-02 0.  1.
         24    2    1    2    0    0  0.17763568394E-14  0.00000000000E+00 -0.11338744339E+01  0.78741691719E+02  0.78733527442E+02 0.  0.
         66    2    3    3    0    0 -0.10801817867E+02 -0.74762023361E+01  0.36519750764E+02  0.38862128968E+02  0.20000003716E+01 0.  0.
        -13    1    3    3    0    0  0.10801817867E+02  0.74762023361E+01 -0.37653625198E+02  0.39879562751E+02  0.10566000000E+00 0.  1.
         13    1    4    4    0    0 -0.45233138445E+01 -0.29677215747E+01  0.14134239869E+02  0.15134584242E+02  0.10566000000E+00 0. -1.
        -13    1    4    4    0    0 -0.46896993900E+01 -0.39979600073E+01  0.16649389834E+02  0.17753599930E+02  0.10566000000E+00 0.  1.
         14    1    4    4    0    0 -0.15888046327E+01 -0.51052075413E+00  0.57361210607E+01  0.59739447959E+01  0.00000000000E+00 0. -1.
<mgrwt>
<rscale>  0 0.78733527E+02</rscale>
<asrwt>0</asrwt>
<pdfrwt beam="1">  1        2 0.59698321E-02 0.78733527E+02</pdfrwt>
<pdfrwt beam="2">  1       -1 0.61442743E-02 0.78733527E+02</pdfrwt>
<totfact> 0.14805883E+05</totfact>
</mgrwt>
</event>
<event>
 8    1  0.2561077E-020  0.7985377E+02  0.7818608E-02  0.1329467E+00
         -1   -1    0    0    0  501 -0.00000000000E+00  0.00000000000E+00  0.18021863577E+02  0.18021864282E+02  0.50400000000E-02 0.  1.
          2   -1    0    0  501    0  0.00000000000E+00 -0.00000000000E+00 -0.88456775632E+02  0.88456775669E+02  0.25500000000E-02 0. -1.
         24    2    1    2    0    0  0.00000000000E+00 -0.17763568394E-14 -0.70434912055E+02  0.10647863995E+03  0.79853765907E+02 0.  0.
         66    2    3    3    0    0 -0.34440804530E+02  0.87304012373E+01 -0.59453537579E+02  0.69290057404E+02  0.20000005005E+01 0.  0.
        -13    1    3    3    0    0  0.34440804530E+02 -0.87304012373E+01 -0.10981374476E+02  0.37188582547E+02  0.10566000000E+00 0.  1.
         13    1    4    4    0    0 -0.13608789133E+02  0.40918811377E+01 -0.22422686527E+02  0.26546763796E+02  0.10566000000E+00 0. -1.
        -13    1    4    4    0    0 -0.10974109868E+02  0.22349230943E+01 -0.19258697573E+02  0.22278567388E+02  0.10566000000E+00 0.  1.
         14    1    4    4    0    0 -0.98579055277E+01  0.24035970052E+01 -0.17772153478E+02  0.20464726219E+02  0.00000000000E+00 0. -1.
<mgrwt>
<rscale>  0 0.79853766E+02</rscale>
<asrwt>0</asrwt>
<pdfrwt beam="1">  1        2 0.13608735E-01 0.79853766E+02</pdfrwt>
<pdfrwt beam="2">  1       -1 0.27725945E-02 0.79853766E+02</pdfrwt>
<totfact> 0.17225543E+05</totfact>
</mgrwt>
</event>
<event>
 8    1  0.2561077E-020  0.7859014E+02  0.7818608E-02  0.1333101E+00
          2   -1    0    0  501    0  0.00000000000E+00  0.00000000000E+00  0.16557253798E+03  0.16557253800E+03  0.25500000000E-02 0. -1.
         -1   -1    0    0    0  501 -0.00000000000E+00 -0.00000000000E+00 -0.93258358465E+01  0.93258372084E+01  0.50400000000E-02 0.  1.
         24    2    1    2    0    0  0.00000000000E+00 -0.88817841970E-15  0.15624670213E+03  0.17489837520E+03  0.78590137566E+02 0.  0.
         66    2    3    3    0    0 -0.16569306784E+02  0.60904567825E+01  0.15623798622E+03  0.15724485343E+03  0.19999997401E+01 0.  0.
        -13    1    3    3    0    0  0.16569306784E+02 -0.60904567825E+01  0.87159059674E-02  0.17653521777E+02  0.10566000000E+00 0.  1.
         13    1    4    4    0    0 -0.45598796890E+01  0.98883298424E+00  0.40495774930E+02  0.40763822744E+02  0.10566000000E+00 0. -1.
        -13    1    4    4    0    0 -0.86173986412E+00  0.47013504460E+00  0.11461476142E+02  0.11503922024E+02  0.10566000000E+00 0.  1.
         14    1    4    4    0    0 -0.11147687231E+02  0.46314887537E+01  0.10428073515E+03  0.10497710866E+03  0.00000000000E+00 0. -1.
<mgrwt>
<rscale>  0 0.78590138E+02</rscale>
<asrwt>0</asrwt>
<pdfrwt beam="1">  1        2 0.25472700E-01 0.78590138E+02</pdfrwt>
<pdfrwt beam="2">  1       -1 0.14347440E-02 0.78590138E+02</pdfrwt>
<totfact> 0.21683484E+05</totfact>
</mgrwt>
</event>
<event>
 8    1  0.2561077E-020  0.8284820E+02  0.7818608E-02  0.1321158E+00
         -1   -1    0    0    0  501 -0.00000000000E+00  0.00000000000E+00  0.19381088553E+01  0.19381154085E+01  0.50400000000E-02 0.  1.
          2   -1    0    0  501    0  0.00000000000E+00 -0.00000000000E+00 -0.88537493859E+03  0.88537493859E+03  0.25500000000E-02 0. -1.
         24    2    1    2    0    0  0.00000000000E+00  0.00000000000E+00 -0.88343682973E+03  0.88731305400E+03  0.82848196546E+02 0.  0.
         66    2    3    3    0    0 -0.11279321465E+02  0.29725546837E+02 -0.72596864102E+03  0.72666725465E+03  0.20000031936E+01 0.  0.
        -13    1    3    3    0    0  0.11279321465E+02 -0.29725546837E+02 -0.15746818871E+03  0.16064579935E+03  0.10566000000E+00 0.  1.
         13    1    4    4    0    0 -0.28095114796E+01  0.58078767380E+01 -0.14043597324E+03  0.14058413328E+03  0.10566000000E+00 0. -1.
        -13    1    4    4    0    0 -0.18547175900E+01  0.56473657230E+01 -0.12775614322E+03  0.12789439398E+03  0.10566000000E+00 0.  1.
         14    1    4    4    0    0 -0.66150923956E+01  0.18270304376E+02 -0.45777652457E+03  0.45818872740E+03  0.00000000000E+00 0. -1.
<mgrwt>
<rscale>  0 0.82848197E+02</rscale>
<asrwt>0</asrwt>
<pdfrwt beam="1">  1        2 0.13621121E+00 0.82848197E+02</pdfrwt>
<pdfrwt beam="2">  1       -1 0.29817181E-03 0.82848197E+02</pdfrwt>
<totfact> 0.31846782E+05</totfact>
</mgrwt>
</event>
<event>
 8    1  0.2561077E-020  0.8039884E+02  0.7818608E-02  0.1327923E+00
         -1   -1    0    0    0  501 -0.00000000000E+00  0.00000000000E+00  0.12825892179E+02  0.12825893169E+02  0.50400000000E-02 0.  1.
          2   -1    0    0  501    0  0.00000000000E+00 -0.00000000000E+00 -0.12599459767E+03  0.12599459770E+03  0.25500000000E-02 0. -1.
         24    2    1    2    0    0 -0.88817841970E-15 -0.17763568394E-14 -0.11316870549E+03  0.13882049087E+03  0.80398835698E+02 0.  0.
         66    2    3    3    0    0  0.42637584400E+01  0.14926571687E+02 -0.12059865237E+03  0.12161010293E+03  0.20000010434E+01 0.  0.
        -13    1    3    3    0    0 -0.42637584400E+01 -0.14926571687E+02  0.74299468718E+01  0.17210387936E+02  0.10566000000E+00 0.  1.
         13    1    4    4    0    0  0.73562221003E+00  0.26289262185E+01 -0.23999021722E+02  0.24154018315E+02  0.10566000000E+00 0. -1.
        -13    1    4    4    0    0  0.13580704718E+01  0.70420493647E+01 -0.50379599577E+02  0.50887621601E+02  0.10566000000E+00 0.  1.
        -14    1    4    4    0    0  0.21700657582E+01  0.52555961041E+01 -0.46220031067E+02  0.46568463016E+02  0.00000000000E+00 0.  1.
<mgrwt>
<rscale>  0 0.80398836E+02</rscale>
<asrwt>0</asrwt>
<pdfrwt beam="1">  1        2 0.19383783E-01 0.80398836E+02</pdfrwt>
<pdfrwt beam="2">  1       -1 0.19732144E-02 0.80398836E+02</pdfrwt>
<totfact> 0.18714185E+05</totfact>
</mgrwt>
</event>
<event>
 8    1  0.2561077E-020  0.7999518E+02  0.7818608E-02  0.1329065E+00
          2   -1    0    0  501    0  0.00000000000E+00  0.00000000000E+00  0.35335130537E+03  0.35335130538E+03  0.25500000000E-02 0. -1.
         -1   -1    0    0    0  501 -0.00000000000E+00 -0.00000000000E+00 -0.45275247383E+01  0.45275275435E+01  0.50400000000E-02 0.  1.
         24    2    1    2    0    0  0.00000000000E+00  0.00000000000E+00  0.34882378064E+03  0.35787883293E+03  0.79995181855E+02 0.  0.
         66    2    3    3    0    0  0.11452867619E+02  0.35872557560E+02  0.23450793029E+03  0.23752047897E+03  0.19999998110E+01 0.  0.
        -13    1    3    3    0    0 -0.11452867619E+02 -0.35872557560E+02  0.11431585035E+03  0.12035835395E+03  0.10566000000E+00 0.  1.
         13    1    4    4    0    0  0.34060436622E+01  0.95630944372E+01  0.60438943838E+02  0.61285650889E+02  0.10566000000E+00 0. -1.
        -13    1    4    4    0    0  0.29022671491E+01  0.91374224617E+01  0.64674242362E+02  0.65381070907E+02  0.10566000000E+00 0.  1.
        -14    1    4    4    0    0  0.51445568073E+01  0.17172040661E+02  0.10939474409E+03  0.11085375718E+03  0.00000000000E+00 0.  1.
<mgrwt>
<rscale>  0 0.79995182E+02</rscale>
<asrwt>0</asrwt>
<pdfrwt beam="1">  1        2 0.54361718E-01 0.79995182E+02</pdfrwt>
<pdfrwt beam="2">  1       -1 0.69654276E-03 0.79995182E+02</pdfrwt>
<totfact> 0.27045635E+05</totfact>
</mgrwt>
</event>
<event>
 8    1  0.2561077E-020  0.7892670E+02  0.7818608E-02  0.1332125E+00
         -1   -1    0    0    0  501 -0.00000000000E+00  0.00000000000E+00  0.44342887297E+01  0.44342915939E+01  0.50400000000E-02 0.  1.
          2   -1    0    0  501    0  0.00000000000E+00 -0.00000000000E+00 -0.35120749511E+03  0.35120749512E+03  0.25500000000E-02 0. -1.
         24    2    1    2    0    0  0.00000000000E+00 -0.35527136788E-14 -0.34677320638E+03  0.35564178671E+03  0.78926698862E+02 0.  0.
         66    2    3    3    0    0 -0.21200697208E+02  0.16551216024E+02 -0.30346504905E+03  0.30466120248E+03  0.19999960188E+01 0.  0.
        -13    1    3    3    0    0  0.21200697208E+02 -0.16551216024E+02 -0.43308157330E+02  0.50980584239E+02  0.10566000000E+00 0.  1.
         13    1    4    4    0    0 -0.14045937145E+02  0.10775939569E+02 -0.19327404149E+03  0.19408316646E+03  0.10566000000E+00 0. -1.
        -13    1    4    4    0    0 -0.16577636124E+00  0.28538241921E+00 -0.32734729325E+01  0.32917645728E+01  0.10566000000E+00 0. -1.
        -14    1    4    4    0    0 -0.69889837013E+01  0.54898940354E+01 -0.10691753463E+03  0.10728627145E+03  0.00000000000E+00 0.  1.
<mgrwt>
<rscale>  0 0.78926699E+02</rscale>
<asrwt>0</asrwt>
<pdfrwt beam="1">  1        2 0.54031900E-01 0.78926699E+02</pdfrwt>
<pdfrwt beam="2">  1       -1 0.68219877E-03 0.78926699E+02</pdfrwt>
<totfact> 0.27952688E+05</totfact>
</mgrwt>
</event>
<event>
 8    1  0.2561077E-020  0.8846771E+02  0.7818608E-02  0.1306605E+00
          2   -1    0    0  501    0  0.00000000000E+00  0.00000000000E+00  0.19865799932E+02  0.19865800096E+02  0.25500000000E-02 0. -1.
         -1   -1    0    0    0  501 -0.00000000000E+00 -0.00000000000E+00 -0.98492574201E+02  0.98492574330E+02  0.50400000000E-02 0.  1.
         24    2    1    2    0    0 -0.35527136788E-14  0.00000000000E+00 -0.78626774269E+02  0.11835837443E+03  0.88467706903E+02 0.  0.
         66    2    3    3    0    0  0.23777006267E+02 -0.25029278118E+02 -0.23825538251E+01  0.34662477840E+02  0.20000042834E+01 0.  0.
        -13    1    3    3    0    0 -0.23777006267E+02  0.25029278118E+02 -0.76244220444E+02  0.83695896586E+02  0.10566000000E+00 0.  1.
         13    1    4    4    0    0  0.13518176529E+02 -0.13919337343E+02 -0.89929999321E+00  0.19424442161E+02  0.10566000000E+00 0. -1.
        -13    1    4    4    0    0  0.70137341293E+01 -0.73747348103E+01 -0.15142982862E+01  0.10289968090E+02  0.10566000000E+00 0.  1.
        -14    1    4    4    0    0  0.32450956087E+01 -0.37352059648E+01  0.31044454327E-01  0.49480675893E+01  0.00000000000E+00 0.  1.
<mgrwt>
<rscale>  0 0.88467707E+02</rscale>
<asrwt>0</asrwt>
<pdfrwt beam="1">  1        2 0.30562770E-02 0.88467707E+02</pdfrwt>
<pdfrwt beam="2">  1       -1 0.15152704E-01 0.88467707E+02</pdfrwt>
<totfact> 0.92568005E+04</totfact>
</mgrwt>
</event>
<event>
 8    1  0.2561077E-020  0.7983820E+02  0.7818608E-02  0.1329511E+00
          2   -1    0    0  501    0  0.00000000000E+00  0.00000000000E+00  0.14965888080E+02  0.14965888297E+02  0.25500000000E-02 0. -1.
         -1   -1    0    0    0  501 -0.00000000000E+00 -0.00000000000E+00 -0.10647777279E+03  0.10647777291E+03  0.50400000000E-02 0.  1.
         24    2    1    2    0    0  0.00000000000E+00  0.00000000000E+00 -0.91511884708E+02  0.12144366120E+03  0.79838197649E+02 0.  0.
         66    2    3    3    0    0 -0.69107090426E+01  0.17866911792E+02  0.74448171567E+01  0.20649690926E+02  0.19999990963E+01 0.  0.
        -13    1    3    3    0    0  0.69107090426E+01 -0.17866911792E+02 -0.98956701864E+02  0.10079397028E+03  0.10566000000E+00 0.  1.
         13    1    4    4    0    0 -0.64043567592E+01  0.14902318995E+02  0.61742890498E+01  0.17355918479E+02  0.10566000000E+00 0. -1.
        -13    1    4    4    0    0 -0.45849331290E+00  0.16290889280E+01  0.60063753483E+00  0.17989097635E+01  0.10566000000E+00 0.  1.
        -14    1    4    4    0    0 -0.47858970481E-01  0.13355038690E+01  0.66989057201E+00  0.14948626839E+01  0.00000000000E+00 0.  1.
<mgrwt>
<rscale>  0 0.79838198E+02</rscale>
<asrwt>0</asrwt>
<pdfrwt beam="1">  1        2 0.23024444E-02 0.79838198E+02</pdfrwt>
<pdfrwt beam="2">  1       -1 0.16381195E-01 0.79838198E+02</pdfrwt>
<totfact> 0.11752343E+05</totfact>
</mgrwt>
</event>
<event>
 8    1  0.2561077E-020  0.8014762E+02  0.7818608E-02  0.1328633E+00
          2   -1    0    0  501    0  0.00000000000E+00  0.00000000000E+00  0.40796914287E+01  0.40796922256E+01  0.25500000000E-02 0. -1.
         -1   -1    0    0    0  501 -0.00000000000E+00 -0.00000000000E+00 -0.39363516311E+03  0.39363516314E+03  0.50400000000E-02 0.  1.
         24    2    1    2    0    0 -0.71054273576E-14 -0.88817841970E-15 -0.38955547168E+03  0.39771485536E+03  0.80147617952E+02 0.  0.
         66    2    3    3    0    0 -0.39562318924E+02 -0.45593848504E+01 -0.21591681518E+03  0.21956783950E+03  0.19999985252E+01 0.  0.
        -13    1    3    3    0    0  0.39562318924E+02  0.45593848504E+01 -0.17363865650E+03  0.17814701587E+03  0.10566000000E+00 0.  1.
         13    1    4    4    0    0 -0.46569782508E+01 -0.72885066948E+00 -0.23705484252E+02  0.24169812109E+02  0.10566000000E+00 0. -1.
        -13    1    4    4    0    0 -0.86574006071E+01 -0.13876648447E+01 -0.45515150664E+02  0.46352090600E+02  0.10566000000E+00 0.  1.
        -14    1    4    4    0    0 -0.26247940066E+02 -0.24428693363E+01 -0.14669618026E+03  0.14904593679E+03  0.00000000000E+00 0.  1.
<mgrwt>
<rscale>  0 0.80147618E+02</rscale>
<asrwt>0</asrwt>
<pdfrwt beam="1">  1        2 0.62764521E-03 0.80147618E+02</pdfrwt>
<pdfrwt beam="2">  1       -1 0.60559226E-01 0.80147618E+02</pdfrwt>
<totfact> 0.76060284E+04</totfact>
</mgrwt>
</event>
<event>
 8    1  0.2561077E-020  0.8020156E+02  0.7818608E-02  0.1328480E+00
          2   -1    0    0  501    0  0.00000000000E+00  0.00000000000E+00  0.20449838288E+03  0.20449838290E+03  0.25500000000E-02 0. -1.
         -1   -1    0    0    0  501 -0.00000000000E+00 -0.00000000000E+00 -0.78634972222E+01  0.78634988373E+01  0.50400000000E-02 0.  1.
         24    2    1    2    0    0 -0.44408920985E-15  0.00000000000E+00  0.19663488566E+03  0.21236188174E+03  0.80201562053E+02 0.  0.
         66    2    3    3    0    0  0.26561693399E+01 -0.17028109527E+02  0.19418002890E+03  0.19495357236E+03  0.20000009617E+01 0.  0.
        -13    1    3    3    0    0 -0.26561693399E+01  0.17028109527E+02  0.24548567661E+01  0.17408309379E+02  0.10566000000E+00 0.  1.
         13    1    4    4    0    0  0.21412525793E+01 -0.12545479205E+02  0.14024997369E+03  0.14082627700E+03  0.10566000000E+00 0. -1.
        -13    1    4    4    0    0  0.12621929552E+00 -0.34796062736E+01  0.44484369640E+02  0.44620554652E+02  0.10566000000E+00 0.  1.
         14    1    4    4    0    0  0.38869746510E+00 -0.10030240485E+01  0.94456855671E+01  0.95067407029E+01  0.00000000000E+00 0. -1.
<mgrwt>
<rscale>  0 0.80201562E+02</rscale>
<asrwt>0</asrwt>
<pdfrwt beam="1">  1        2 0.31461292E-01 0.80201562E+02</pdfrwt>
<pdfrwt beam="2">  1       -1 0.12097688E-02 0.80201562E+02</pdfrwt>
<totfact> 0.22082885E+05</totfact>
</mgrwt>
</event>
<event>
 8    1  0.2561077E-020  0.7858570E+02  0.7818608E-02  0.1333114E+00
          2   -1    0    0  501    0  0.00000000000E+00  0.00000000000E+00  0.79625360516E+01  0.79625364599E+01  0.25500000000E-02 0. -1.
         -1   -1    0    0    0  501 -0.00000000000E+00 -0.00000000000E+00 -0.19389904856E+03  0.19389904863E+03  0.50400000000E-02 0.  1.
         24    2    1    2    0    0  0.35527136788E-14  0.00000000000E+00 -0.18593651251E+03  0.20186158509E+03  0.78585703849E+02 0.  0.
         66    2    3    3    0    0 -0.16655956050E+02 -0.28070449203E+02 -0.36953801876E+02  0.49345257364E+02  0.19999901985E+01 0.  0.
        -13    1    3    3    0    0  0.16655956050E+02  0.28070449203E+02 -0.14898271064E+03  0.15251632773E+03  0.10566000000E+00 0.  1.
         13    1    4    4    0    0 -0.85193912491E+00 -0.15377825161E+01 -0.23022243541E+01  0.28986162823E+01  0.10566000000E+00 0. -1.
        -13    1    4    4    0    0 -0.23700532263E+01 -0.31272325008E+01 -0.39125480578E+01  0.55421955712E+01  0.10566000000E+00 0.  1.
         14    1    4    4    0    0 -0.13433963699E+02 -0.23405434186E+02 -0.30739029464E+02  0.40904445510E+02  0.00000000000E+00 0. -1.
<mgrwt>
<rscale>  0 0.78585704E+02</rscale>
<asrwt>0</asrwt>
<pdfrwt beam="1">  1        2 0.12250057E-02 0.78585704E+02</pdfrwt>
<pdfrwt beam="2">  1       -1 0.29830619E-01 0.78585704E+02</pdfrwt>
<totfact> 0.10519739E+05</totfact>
</mgrwt>
</event>
<event>
 8    1  0.2561077E-020  0.7893981E+02  0.7818608E-02  0.1332087E+00
          2   -1    0    0  501    0  0.00000000000E+00  0.00000000000E+00  0.35847993843E+03  0.35847993843E+03  0.25500000000E-02 0. -1.
         -1   -1    0    0    0  501 -0.00000000000E+00 -0.00000000000E+00 -0.43457747295E+01  0.43457776520E+01  0.50400000000E-02 0.  1.
         24    2    1    2    0    0  0.00000000000E+00  0.00000000000E+00  0.35413416370E+03  0.36282571609E+03  0.78939814777E+02 0.  0.
         66    2    3    3    0    0 -0.10994369259E+02  0.22733850261E+02  0.31645191235E+03  0.31746419789E+03  0.20000012236E+01 0.  0.
        -13    1    3    3    0    0  0.10994369259E+02 -0.22733850261E+02  0.37682251345E+02  0.45361518201E+02  0.10566000000E+00 0.  1.
         13    1    4    4    0    0 -0.80702598298E+01  0.16708919544E+02  0.22880112653E+03  0.22955235514E+03  0.10566000000E+00 0. -1.
        -13    1    4    4    0    0 -0.76646593224E+00  0.26450524201E+01  0.37228114549E+02  0.37329980568E+02  0.10566000000E+00 0.  1.
        -14    1    4    4    0    0 -0.21576434971E+01  0.33798782973E+01  0.50422671274E+02  0.50581862176E+02  0.00000000000E+00 0.  1.
<mgrwt>
<rscale>  0 0.78939815E+02</rscale>
<asrwt>0</asrwt>
<pdfrwt beam="1">  1        2 0.55150763E-01 0.78939815E+02</pdfrwt>
<pdfrwt beam="2">  1       -1 0.66858091E-03 0.78939815E+02</pdfrwt>
<totfact> 0.28145097E+05</totfact>
</mgrwt>
</event>
<event>
 8    1  0.2561077E-020  0.7895296E+02  0.7818608E-02  0.1332049E+00
         -1   -1    0    0    0  501 -0.00000000000E+00  0.00000000000E+00  0.18761822014E+01  0.18761889709E+01  0.50400000000E-02 0.  1.
          2   -1    0    0  501    0  0.00000000000E+00 -0.00000000000E+00 -0.83061749545E+03  0.83061749545E+03  0.25500000000E-02 0. -1.
         24    2    1    2    0    0  0.00000000000E+00  0.00000000000E+00 -0.82874131324E+03  0.83249368442E+03  0.78952962720E+02 0.  0.
         66    2    3    3    0    0 -0.10838065404E+02 -0.30815282642E+02 -0.64788433736E+03  0.64871038214E+03  0.19999994781E+01 0.  0.
        -13    1    3    3    0    0  0.10838065404E+02  0.30815282642E+02 -0.18085697589E+03  0.18378330228E+03  0.10566000000E+00 0.  1.
         13    1    4    4    0    0 -0.50967179518E+01 -0.15896508791E+02 -0.33124510787E+03  0.33166550646E+03  0.10566000000E+00 0. -1.
        -13    1    4    4    0    0 -0.48611406255E+01 -0.12499198726E+02 -0.25613038362E+03  0.25648127658E+03  0.10566000000E+00 0.  1.
         14    1    4    4    0    0 -0.88020682629E+00 -0.24195751247E+01 -0.60508845872E+02  0.60563599106E+02  0.00000000000E+00 0. -1.
<mgrwt>
<rscale>  0 0.78952963E+02</rscale>
<asrwt>0</asrwt>
<pdfrwt beam="1">  1        2 0.12778701E+00 0.78952963E+02</pdfrwt>
<pdfrwt beam="2">  1       -1 0.28864460E-03 0.78952963E+02</pdfrwt>
<totfact> 0.35779841E+05</totfact>
</mgrwt>
</event>
<event>
 8    1  0.2561077E-020  0.7991198E+02  0.7818608E-02  0.1329301E+00
         -1   -1    0    0    0  501 -0.00000000000E+00  0.00000000000E+00  0.11842492938E+02  0.11842494011E+02  0.50400000000E-02 0.  1.
          2   -1    0    0  501    0  0.00000000000E+00 -0.00000000000E+00 -0.13480955575E+03  0.13480955578E+03  0.25500000000E-02 0. -1.
         24    2    1    2    0    0 -0.35527136788E-14  0.00000000000E+00 -0.12296706282E+03  0.14665204979E+03  0.79911983894E+02 0.  0.
         66    2    3    3    0    0 -0.13165852501E+02  0.33361385920E+02 -0.29306757026E+02  0.46359548637E+02  0.19999999860E+01 0.  0.
        -13    1    3    3    0    0  0.13165852501E+02 -0.33361385920E+02 -0.93660305791E+02  0.10029250115E+03  0.10566000000E+00 0.  1.
         13    1    4    4    0    0 -0.60452858732E+00  0.25026282043E+01 -0.22245388238E+01  0.34041650600E+01  0.10566000000E+00 0. -1.
        -13    1    4    4    0    0 -0.98782743768E+00  0.27216529100E+01 -0.19410470074E+01  0.34874095156E+01  0.10566000000E+00 0.  1.
         14    1    4    4    0    0 -0.11573496476E+02  0.28137104805E+02 -0.25141171194E+02  0.39467974062E+02  0.00000000000E+00 0. -1.
<mgrwt>
<rscale>  0 0.79911984E+02</rscale>
<asrwt>0</asrwt>
<pdfrwt beam="1">  1        2 0.20739931E-01 0.79911984E+02</pdfrwt>
<pdfrwt beam="2">  1       -1 0.18219222E-02 0.79911984E+02</pdfrwt>
<totfact> 0.19420090E+05</totfact>
</mgrwt>
</event>
<event>
 8    1  0.2561077E-020  0.7908734E+02  0.7818608E-02  0.1331662E+00
          2   -1    0    0  501    0  0.00000000000E+00  0.00000000000E+00  0.14427815523E+04  0.14427815523E+04  0.25500000000E-02 0. -1.
         -1   -1    0    0    0  501 -0.00000000000E+00 -0.00000000000E+00 -0.10838047999E+01  0.10838165185E+01  0.50400000000E-02 0.  1.
         24    2    1    2    0    0 -0.17763568394E-14 -0.17763568394E-14  0.14416977475E+04  0.14438653689E+04  0.79087344962E+02 0.  0.
         66    2    3    3    0    0 -0.13461368599E+02 -0.10114414376E+02  0.13740135867E+04  0.13741182068E+04  0.20000010065E+01 0.  0.
        -13    1    3    3    0    0  0.13461368599E+02  0.10114414376E+02  0.67684160851E+02  0.69747162070E+02  0.10566000000E+00 0.  1.
         13    1    4    4    0    0 -0.54795936043E+01 -0.37094280138E+01  0.49829393121E+03  0.49833787619E+03  0.10566000000E+00 0. -1.
        -13    1    4    4    0    0 -0.11063124357E+01 -0.14794936928E+01  0.16133390368E+03  0.16134451484E+03  0.10566000000E+00 0.  1.
        -14    1    4    4    0    0 -0.68754625588E+01 -0.49254926692E+01  0.71438575179E+03  0.71443581575E+03  0.00000000000E+00 0.  1.
<mgrwt>
<rscale>  0 0.79087345E+02</rscale>
<asrwt>0</asrwt>
<pdfrwt beam="1">  1        2 0.22196543E+00 0.79087345E+02</pdfrwt>
<pdfrwt beam="2">  1       -1 0.16674082E-03 0.79087345E+02</pdfrwt>
<totfact> 0.34725423E+05</totfact>
</mgrwt>
</event>
<event>
 8    1  0.2561077E-020  0.8068116E+02  0.7818608E-02  0.1327129E+00
          2   -1    0    0  501    0  0.00000000000E+00  0.00000000000E+00  0.63457932565E+01  0.63457937688E+01  0.25500000000E-02 0. -1.
         -1   -1    0    0    0  501 -0.00000000000E+00 -0.00000000000E+00 -0.25644743944E+03  0.25644743949E+03  0.50400000000E-02 0.  1.
         24    2    1    2    0    0  0.00000000000E+00  0.00000000000E+00 -0.25010164618E+03  0.26279323325E+03  0.80681162749E+02 0.  0.
         66    2    3    3    0    0  0.18034921173E+02 -0.35721859555E+02 -0.14110023600E+03  0.14667851319E+03  0.19999997212E+01 0.  0.
        -13    1    3    3    0    0 -0.18034921173E+02  0.35721859555E+02 -0.10900141017E+03  0.11611472007E+03  0.10566000000E+00 0.  1.
         13    1    4    4    0    0  0.11858505254E+02 -0.23318047222E+02 -0.93267838898E+02  0.96867210189E+02  0.10566000000E+00 0. -1.
        -13    1    4    4    0    0  0.16848147893E+01 -0.44103153194E+01 -0.17133151345E+02  0.17772043246E+02  0.10566000000E+00 0.  1.
         14    1    4    4    0    0  0.44916011293E+01 -0.79934970136E+01 -0.30699245761E+02  0.32039259753E+02  0.00000000000E+00 0. -1.
<mgrwt>
<rscale>  0 0.80681163E+02</rscale>
<asrwt>0</asrwt>
<pdfrwt beam="1">  1        2 0.97627613E-03 0.80681163E+02</pdfrwt>
<pdfrwt beam="2">  1       -1 0.39453444E-01 0.80681163E+02</pdfrwt>
<totfact> 0.89803415E+04</totfact>
</mgrwt>
</event>
<event>
 8    1  0.2561077E-020  0.7954959E+02  0.7818608E-02  0.1330335E+00
         -1   -1    0    0    0  501 -0.00000000000E+00  0.00000000000E+00  0.34278223411E+02  0.34278223781E+02  0.50400000000E-02 0.  1.
          2   -1    0    0  501    0  0.00000000000E+00 -0.00000000000E+00 -0.46152750949E+02  0.46152751019E+02  0.25500000000E-02 0. -1.
         24    2    1    2    0    0  0.00000000000E+00  0.55511151231E-16 -0.11874527538E+02  0.80430974800E+02  0.79549590213E+02 0.  0.
         66    2    3    3    0    0  0.27922168943E+02  0.38146355925E+00 -0.34542882256E+02  0.44463510300E+02  0.20000001931E+01 0.  0.
        -13    1    3    3    0    0 -0.27922168943E+02 -0.38146355925E+00  0.22668354717E+02  0.35967464500E+02  0.10566000000E+00 0.  1.
         13    1    4    4    0    0  0.17416698137E+01 -0.37120340962E+00 -0.18591518875E+01  0.25765898952E+01  0.10566000000E+00 0. -1.
        -13    1    4    4    0    0  0.10956555103E+02  0.55707371226E+00 -0.13837122803E+02  0.17658809766E+02  0.10566000000E+00 0.  1.
         14    1    4    4    0    0  0.15223944027E+02  0.19559325661E+00 -0.18846607565E+02  0.24228110639E+02  0.00000000000E+00 0. -1.
<mgrwt>
<rscale>  0 0.79549590E+02</rscale>
<asrwt>0</asrwt>
<pdfrwt beam="1">  1        2 0.71004233E-02 0.79549590E+02</pdfrwt>
<pdfrwt beam="2">  1       -1 0.52735729E-02 0.79549590E+02</pdfrwt>
<totfact> 0.14917341E+05</totfact>
</mgrwt>
</event>
<event>
 8    1  0.2561077E-020  0.7956793E+02  0.7818608E-02  0.1330282E+00
          2   -1    0    0  501    0  0.00000000000E+00  0.00000000000E+00  0.89009019035E+03  0.89009019036E+03  0.25500000000E-02 0. -1.
         -1   -1    0    0    0  501 -0.00000000000E+00 -0.00000000000E+00 -0.17782025323E+01  0.17782096748E+01  0.50400000000E-02 0.  1.
         24    2    1    2    0    0  0.35527136788E-14  0.88817841970E-15  0.88831198782E+03  0.89186840003E+03  0.79567928644E+02 0.  0.
         66    2    3    3    0    0 -0.18133698977E+02 -0.73891261285E+01  0.83229084461E+03  0.83252356138E+03  0.20000032247E+01 0.  0.
        -13    1    3    3    0    0  0.18133698977E+02  0.73891261285E+01  0.56021143209E+02  0.59344838647E+02  0.10566000000E+00 0.  1.
         13    1    4    4    0    0 -0.28631259769E+01 -0.50362692302E+00  0.11258224210E+03  0.11261981855E+03  0.10566000000E+00 0. -1.
        -13    1    4    4    0    0 -0.17387434736E+01 -0.80232565016E+00  0.76109152975E+02  0.76133312590E+02  0.10566000000E+00 0.  1.
         14    1    4    4    0    0 -0.13531829526E+02 -0.60831735553E+01  0.64359944954E+03  0.64377043025E+03  0.00000000000E+00 0. -1.
<mgrwt>
<rscale>  0 0.79567929E+02</rscale>
<asrwt>0</asrwt>
<pdfrwt beam="1">  1        2 0.13693763E+00 0.79567929E+02</pdfrwt>
<pdfrwt beam="2">  1       -1 0.27356881E-03 0.79567929E+02</pdfrwt>
<totfact> 0.35396950E+05</totfact>
</mgrwt>
</event>
<event>
 8    1  0.2561077E-020  0.7975009E+02  0.7818608E-02  0.1329762E+00
          2   -1    0    0  501    0  0.00000000000E+00  0.00000000000E+00  0.28446112789E+02  0.28446112903E+02  0.25500000000E-02 0. -1.
         -1   -1    0    0    0  501 -0.00000000000E+00 -0.00000000000E+00 -0.55895838543E+02  0.55895838771E+02  0.50400000000E-02 0.  1.
         24    2    1    2    0    0  0.00000000000E+00 -0.35527136788E-14 -0.27449725755E+02  0.84341951674E+02  0.79750093217E+02 0.  0.
         66    2    3    3    0    0  0.29206345001E+01  0.31446783918E+02 -0.39434665477E+02  0.50562072028E+02  0.19999904493E+01 0.  0.
        -13    1    3    3    0    0 -0.29206345001E+01 -0.31446783918E+02  0.11984939723E+02  0.33779879645E+02  0.10566000000E+00 0.  1.
         13    1    4    4    0    0  0.22766934832E+01  0.22013742976E+02 -0.28220551935E+02  0.35863615665E+02  0.10566000000E+00 0. -1.
        -13    1    4    4    0    0  0.16601036546E+00  0.77343941992E+01 -0.90715109879E+01  0.11922746693E+02  0.10566000000E+00 0.  1.
        -14    1    4    4    0    0  0.47793065147E+00  0.16986467427E+01 -0.21426025545E+01  0.27757096697E+01  0.00000000000E+00 0.  1.
<mgrwt>
<rscale>  0 0.79750093E+02</rscale>
<asrwt>0</asrwt>
<pdfrwt beam="1">  1        2 0.43763251E-02 0.79750093E+02</pdfrwt>
<pdfrwt beam="2">  1       -1 0.85993598E-02 0.79750093E+02</pdfrwt>
<totfact> 0.13432478E+05</totfact>
</mgrwt>
</event>
<event>
 8    1  0.2561077E-020  0.8020855E+02  0.7818608E-02  0.1328461E+00
         -1   -1    0    0    0  501 -0.00000000000E+00  0.00000000000E+00  0.48548855024E+02  0.48548855285E+02  0.50400000000E-02 0.  1.
          2   -1    0    0  501    0  0.00000000000E+00 -0.00000000000E+00 -0.33128544401E+02  0.33128544500E+02  0.25500000000E-02 0. -1.
         24    2    1    2    0    0  0.00000000000E+00  0.00000000000E+00  0.15420310622E+02  0.81677399785E+02  0.80208551015E+02 0.  0.
         66    2    3    3    0    0 -0.20267744762E+02 -0.13002984960E+02 -0.24910652494E+02  0.34704462411E+02  0.20000019897E+01 0.  0.
        -13    1    3    3    0    0  0.20267744762E+02  0.13002984960E+02  0.40330963117E+02  0.46972937374E+02  0.10566000000E+00 0.  1.
         13    1    4    4    0    0 -0.10412638597E+02 -0.59164407844E+01 -0.12368128683E+02  0.17216535228E+02  0.10566000000E+00 0. -1.
        -13    1    4    4    0    0 -0.56972411282E+01 -0.41544636033E+01 -0.65213297081E+01  0.96050522904E+01  0.10566000000E+00 0.  1.
         14    1    4    4    0    0 -0.41578650366E+01 -0.29320805721E+01 -0.60211941028E+01  0.78828748923E+01  0.00000000000E+00 0. -1.
<mgrwt>
<rscale>  0 0.80208551E+02</rscale>
<asrwt>0</asrwt>
<pdfrwt beam="1">  1        2 0.50966992E-02 0.80208551E+02</pdfrwt>
<pdfrwt beam="2">  1       -1 0.74690547E-02 0.80208551E+02</pdfrwt>
<totfact> 0.13623110E+05</totfact>
</mgrwt>
</event>
<event>
 8    1  0.2561077E-020  0.7929601E+02  0.7818608E-02  0.1331061E+00
         -1   -1    0    0    0  501 -0.00000000000E+00  0.00000000000E+00  0.57871502034E+02  0.57871502254E+02  0.50400000000E-02 0.  1.
          2   -1    0    0  501    0  0.00000000000E+00 -0.00000000000E+00 -0.27163011940E+02  0.27163012060E+02  0.25500000000E-02 0. -1.
         24    2    1    2    0    0  0.00000000000E+00  0.00000000000E+00  0.30708490094E+02  0.85034514314E+02  0.79296010371E+02 0.  0.
         66    2    3    3    0    0  0.37564402223E+02 -0.89396882180E+01  0.58351616679E+01  0.39103087482E+02  0.19999997775E+01 0.  0.
        -13    1    3    3    0    0 -0.37564402223E+02  0.89396882180E+01  0.24873328426E+02  0.45931426832E+02  0.10566000000E+00 0.  1.
         13    1    4    4    0    0  0.25192530286E+02 -0.63113409745E+01  0.37014928504E+01  0.26233734398E+02  0.10566000000E+00 0. -1.
        -13    1    4    4    0    0  0.10565876812E+02 -0.24950554760E+01  0.15522162924E+01  0.10967387751E+02  0.10566000000E+00 0.  1.
        -14    1    4    4    0    0  0.18059951254E+01 -0.13329176748E+00  0.58145252502E+00  0.19019653328E+01  0.00000000000E+00 0.  1.
<mgrwt>
<rscale>  0 0.79296010E+02</rscale>
<asrwt>0</asrwt>
<pdfrwt beam="1">  1        2 0.41789249E-02 0.79296010E+02</pdfrwt>
<pdfrwt beam="2">  1       -1 0.89033081E-02 0.79296010E+02</pdfrwt>
<totfact> 0.13526990E+05</totfact>
</mgrwt>
</event>
<event>
 8    1  0.2561077E-020  0.8214265E+02  0.7818608E-02  0.1323079E+00
          2   -1    0    0  501    0  0.00000000000E+00  0.00000000000E+00  0.10824721219E+03  0.10824721222E+03  0.25500000000E-02 0. -1.
         -1   -1    0    0    0  501 -0.00000000000E+00 -0.00000000000E+00 -0.15583344879E+02  0.15583345694E+02  0.50400000000E-02 0.  1.
         24    2    1    2    0    0  0.00000000000E+00  0.00000000000E+00  0.92663867307E+02  0.12383055791E+03  0.82142648899E+02 0.  0.
         66    2    3    3    0    0 -0.33375402479E+02 -0.88702050224E+01  0.79805947116E+02  0.86980384188E+02  0.20000026426E+01 0.  0.
        -13    1    3    3    0    0  0.33375402479E+02  0.88702050224E+01  0.12857920191E+02  0.36850173723E+02  0.10566000000E+00 0.  1.
         13    1    4    4    0    0 -0.59327808934E+01 -0.13243991153E+01  0.14702028897E+02  0.15909517274E+02  0.10566000000E+00 0. -1.
        -13    1    4    4    0    0 -0.27369895292E+02 -0.74797285998E+01  0.64586537444E+02  0.70544237832E+02  0.10566000000E+00 0.  1.
        -14    1    4    4    0    0 -0.72726293649E-01 -0.66077307318E-01  0.51738077443E+00  0.52662908207E+00  0.00000000000E+00 0.  1.
<mgrwt>
<rscale>  0 0.82142649E+02</rscale>
<asrwt>0</asrwt>
<pdfrwt beam="1">  1        2 0.16653418E-01 0.82142649E+02</pdfrwt>
<pdfrwt beam="2">  1       -1 0.23974377E-02 0.82142649E+02</pdfrwt>
<totfact> 0.16890706E+05</totfact>
</mgrwt>
</event>
<event>
 8    1  0.2561077E-020  0.8024553E+02  0.7818608E-02  0.1328356E+00
         -1   -1    0    0    0  501 -0.00000000000E+00  0.00000000000E+00  0.14719482831E+03  0.14719482839E+03  0.50400000000E-02 0.  1.
          2   -1    0    0  501    0  0.00000000000E+00 -0.00000000000E+00 -0.10936771176E+02  0.10936771473E+02  0.25500000000E-02 0. -1.
         24    2    1    2    0    0  0.00000000000E+00  0.00000000000E+00  0.13625805713E+03  0.15813159987E+03  0.80245527871E+02 0.  0.
         66    2    3    3    0    0  0.11869263995E+01 -0.34205511452E+02  0.27004831263E+02  0.43642716849E+02  0.20000036108E+01 0.  0.
        -13    1    3    3    0    0 -0.11869263995E+01  0.34205511452E+02  0.10925322587E+03  0.11448888302E+03  0.10566000000E+00 0.  1.
         13    1    4    4    0    0  0.10092008763E+01 -0.14686463485E+02  0.11185910503E+02  0.18489090132E+02  0.10566000000E+00 0. -1.
        -13    1    4    4    0    0 -0.93694837866E-01 -0.11275347989E+02  0.84176519852E+01  0.14071612558E+02  0.10566000000E+00 0.  1.
        -14    1    4    4    0    0  0.27142036103E+00 -0.82436999775E+01  0.74012687748E+01  0.11082014158E+02  0.00000000000E+00 0.  1.
<mgrwt>
<rscale>  0 0.80245528E+02</rscale>
<asrwt>0</asrwt>
<pdfrwt beam="1">  1        2 0.16825802E-02 0.80245528E+02</pdfrwt>
<pdfrwt beam="2">  1       -1 0.22645358E-01 0.80245528E+02</pdfrwt>
<totfact> 0.10755459E+05</totfact>
</mgrwt>
</event>
<event>
 8    1  0.2561077E-020  0.8057977E+02  0.7818608E-02  0.1327414E+00
          2   -1    0    0  501    0  0.00000000000E+00  0.00000000000E+00  0.80880284567E+03  0.80880284568E+03  0.25500000000E-02 0. -1.
         -1   -1    0    0    0  501 -0.00000000000E+00 -0.00000000000E+00 -0.20070061655E+01  0.20070124937E+01  0.50400000000E-02 0.  1.
         24    2    1    2    0    0 -0.17763568394E-14  0.17763568394E-14  0.80679583951E+03  0.81080985817E+03  0.80579770788E+02 0.  0.
         66    2    3    3    0    0  0.15483943289E+02  0.15134905783E+02  0.74523516188E+03  0.74555232170E+03  0.20000025480E+01 0.  0.
        -13    1    3    3    0    0 -0.15483943289E+02 -0.15134905783E+02  0.61560677626E+02  0.65257536474E+02  0.10566000000E+00 0.  1.
         13    1    4    4    0    0  0.74390518845E+01  0.72353967070E+01  0.36136123380E+03  0.36151022519E+03  0.10566000000E+00 0. -1.
        -13    1    4    4    0    0  0.16198241137E+00  0.30192229588E-01  0.38548172411E+01  0.38597836559E+01  0.10566000000E+00 0. -1.
        -14    1    4    4    0    0  0.78829089929E+01  0.78693168466E+01  0.38001911084E+03  0.38018231285E+03  0.00000000000E+00 0.  1.
<mgrwt>
<rscale>  0 0.80579771E+02</rscale>
<asrwt>0</asrwt>
<pdfrwt beam="1">  1        2 0.12443115E+00 0.80579771E+02</pdfrwt>
<pdfrwt beam="2">  1       -1 0.30877081E-03 0.80579771E+02</pdfrwt>
<totfact> 0.33789571E+05</totfact>
</mgrwt>
</event>
<event>
 8    1  0.2561077E-020  0.8801395E+02  0.7818608E-02  0.1307734E+00
         -1   -1    0    0    0  501 -0.00000000000E+00  0.00000000000E+00  0.12385266398E+03  0.12385266408E+03  0.50400000000E-02 0.  1.
          2   -1    0    0  501    0  0.00000000000E+00 -0.00000000000E+00 -0.15636430996E+02  0.15636431204E+02  0.25500000000E-02 0. -1.
         24    2    1    2    0    0  0.00000000000E+00  0.17763568394E-14  0.10821623298E+03  0.13948909528E+03  0.88013945613E+02 0.  0.
         66    2    3    3    0    0 -0.33137537471E+02  0.92477736891E+01  0.10704351460E+02  0.36086020331E+02  0.20000038320E+01 0.  0.
        -13    1    3    3    0    0  0.33137537471E+02 -0.92477736891E+01  0.97511881521E+02  0.10340307495E+03  0.10566000000E+00 0.  1.
         13    1    4    4    0    0 -0.13360796356E+02  0.37050242067E+01  0.35932966323E+01  0.14323443314E+02  0.10566000000E+00 0. -1.
        -13    1    4    4    0    0 -0.72459095339E+01  0.15301443581E+01  0.27656287195E+01  0.79059732468E+01  0.10566000000E+00 0.  1.
         14    1    4    4    0    0 -0.12530831581E+02  0.40126051243E+01  0.43454261085E+01  0.13856603770E+02  0.00000000000E+00 0. -1.
<mgrwt>
<rscale>  0 0.88013946E+02</rscale>
<asrwt>0</asrwt>
<pdfrwt beam="1">  1        2 0.24056049E-02 0.88013946E+02</pdfrwt>
<pdfrwt beam="2">  1       -1 0.19054255E-01 0.88013946E+02</pdfrwt>
<totfact> 0.88907948E+04</totfact>
</mgrwt>
</event>
<event>
 8    1  0.2561077E-020  0.7974599E+02  0.7818608E-02  0.1329774E+00
         -1   -1    0    0    0  501 -0.00000000000E+00  0.00000000000E+00  0.13653255394E+02  0.13653256324E+02  0.50400000000E-02 0.  1.
          2   -1    0    0  501    0  0.00000000000E+00 -0.00000000000E+00 -0.11644516360E+03  0.11644516363E+03  0.25500000000E-02 0. -1.
         24    2    1    2    0    0  0.17763568394E-14  0.71054273576E-14 -0.10279190820E+03  0.13009841995E+03  0.79745987241E+02 0.  0.
         66    2    3    3    0    0 -0.13958593458E+02 -0.36746011600E+02 -0.40762839523E+02  0.56663222494E+02  0.19999993968E+01 0.  0.
        -13    1    3    3    0    0  0.13958593458E+02  0.36746011600E+02 -0.62029068681E+02  0.73435197455E+02  0.10566000000E+00 0.  1.
         13    1    4    4    0    0 -0.64893155859E+01 -0.17300365452E+02 -0.17905913711E+02  0.25730269556E+02  0.10566000000E+00 0. -1.
        -13    1    4    4    0    0 -0.64986646290E+01 -0.17489470707E+02 -0.20388903464E+02  0.27637524782E+02  0.10566000000E+00 0.  1.
         14    1    4    4    0    0 -0.97061324279E+00 -0.19561754411E+01 -0.24680223482E+01  0.32954281565E+01  0.00000000000E+00 0. -1.
<mgrwt>
<rscale>  0 0.79745987E+02</rscale>
<asrwt>0</asrwt>
<pdfrwt beam="1">  1        2 0.17914640E-01 0.79745987E+02</pdfrwt>
<pdfrwt beam="2">  1       -1 0.21005010E-02 0.79745987E+02</pdfrwt>
<totfact> 0.18677942E+05</totfact>
</mgrwt>
</event>
<event>
 8    1  0.2561077E-020  0.8256239E+02  0.7818608E-02  0.1321933E+00
         -1   -1    0    0    0  501 -0.00000000000E+00  0.00000000000E+00  0.14241321343E+01  0.14241410525E+01  0.50400000000E-02 0.  1.
          2   -1    0    0  501    0  0.00000000000E+00 -0.00000000000E+00 -0.11966105522E+04  0.11966105522E+04  0.25500000000E-02 0. -1.
         24    2    1    2    0    0  0.35527136788E-14  0.44408920985E-15 -0.11951864201E+04  0.11980346933E+04  0.82562385707E+02 0.  0.
         66    2    3    3    0    0 -0.23715754708E+02 -0.20638734856E+01 -0.10868972994E+04  0.10871598025E+04  0.19999995096E+01 0.  0.
        -13    1    3    3    0    0  0.23715754708E+02  0.20638734856E+01 -0.10828912065E+03  0.11087489080E+03  0.10566000000E+00 0.  1.
         13    1    4    4    0    0 -0.19666868925E+02 -0.10389753682E+01 -0.90208305205E+03  0.90229801572E+03  0.10566000000E+00 0. -1.
        -13    1    4    4    0    0 -0.38092023005E+01 -0.93955953015E+00 -0.17656955713E+03  0.17661317183E+03  0.10566000000E+00 0.  1.
         14    1    4    4    0    0 -0.23968348233E+00 -0.85338587251E-01 -0.82446902399E+01  0.82486149139E+01  0.00000000000E+00 0. -1.
<mgrwt>
<rscale>  0 0.82562386E+02</rscale>
<asrwt>0</asrwt>
<pdfrwt beam="1">  1        2 0.18409313E+00 0.82562386E+02</pdfrwt>
<pdfrwt beam="2">  1       -1 0.21909890E-03 0.82562386E+02</pdfrwt>
<totfact> 0.32289893E+05</totfact>
</mgrwt>
</event>
<event>
 8    1  0.2561077E-020  0.8457305E+02  0.7818608E-02  0.1316553E+00
         -1   -1    0    0    0  501 -0.00000000000E+00  0.00000000000E+00  0.16430348459E+02  0.16430349232E+02  0.50400000000E-02 0.  1.
          2   -1    0    0  501    0  0.00000000000E+00 -0.00000000000E+00 -0.10883215672E+03  0.10883215675E+03  0.25500000000E-02 0. -1.
         24    2    1    2    0    0  0.71054273576E-14 -0.44408920985E-15 -0.92401808259E+02  0.12526250598E+03  0.84573052652E+02 0.  0.
         66    2    3    3    0    0  0.33462375556E+02 -0.27697900922E+01 -0.84240977017E+02  0.90708017913E+02  0.19999974987E+01 0.  0.
        -13    1    3    3    0    0 -0.33462375556E+02  0.27697900922E+01 -0.81608312425E+01  0.34554488067E+02  0.10566000000E+00 0.  1.
         13    1    4    4    0    0  0.91831440393E+01 -0.11045888224E+01 -0.22550546117E+02  0.24373931672E+02  0.10566000000E+00 0. -1.
        -13    1    4    4    0    0  0.49920358780E+01 -0.88751971654E+00 -0.13542582750E+02  0.14461010512E+02  0.10566000000E+00 0.  1.
         14    1    4    4    0    0  0.19287195639E+02 -0.77768155324E+00 -0.48147848150E+02  0.51873075730E+02  0.00000000000E+00 0. -1.
<mgrwt>
<rscale>  0 0.84573053E+02</rscale>
<asrwt>0</asrwt>
<pdfrwt beam="1">  1        2 0.16743408E-01 0.84573053E+02</pdfrwt>
<pdfrwt beam="2">  1       -1 0.25277461E-02 0.84573053E+02</pdfrwt>
<totfact> 0.15642787E+05</totfact>
</mgrwt>
</event>
<event>
 8    1  0.2561077E-020  0.7998897E+02  0.7818608E-02  0.1329083E+00
         -1   -1    0    0    0  501 -0.00000000000E+00  0.00000000000E+00  0.74722942127E+01  0.74722959124E+01  0.50400000000E-02 0.  1.
          2   -1    0    0  501    0  0.00000000000E+00 -0.00000000000E+00 -0.21406524782E+03  0.21406524783E+03  0.25500000000E-02 0. -1.
         24    2    1    2    0    0 -0.35527136788E-14  0.00000000000E+00 -0.20659295360E+03  0.22153754374E+03  0.79988966798E+02 0.  0.
         66    2    3    3    0    0 -0.22260986740E+02  0.32378320317E+02 -0.12364649373E+03  0.12975500986E+03  0.20000034890E+01 0.  0.
        -13    1    3    3    0    0  0.22260986740E+02 -0.32378320317E+02 -0.82946459876E+02  0.91782533889E+02  0.10566000000E+00 0.  1.
         13    1    4    4    0    0 -0.18210315119E+02  0.26154585198E+02 -0.97802545797E+02  0.10286411926E+03  0.10566000000E+00 0. -1.
        -13    1    4    4    0    0 -0.21782633824E+01  0.31761090419E+01 -0.13593616134E+02  0.14129050345E+02  0.10566000000E+00 0.  1.
         14    1    4    4    0    0 -0.18724082391E+01  0.30476260771E+01 -0.12250331798E+02  0.12761840247E+02  0.00000000000E+00 0. -1.
<mgrwt>
<rscale>  0 0.79988967E+02</rscale>
<asrwt>0</asrwt>
<pdfrwt beam="1">  1        2 0.32933110E-01 0.79988967E+02</pdfrwt>
<pdfrwt beam="2">  1       -1 0.11495840E-02 0.79988967E+02</pdfrwt>
<totfact> 0.22596848E+05</totfact>
</mgrwt>
</event>
<event>
 8    1  0.2561077E-020  0.8022226E+02  0.7818608E-02  0.1328422E+00
         -1   -1    0    0    0  501 -0.00000000000E+00  0.00000000000E+00  0.13219508916E+01  0.13219604992E+01  0.50400000000E-02 0.  1.
          2   -1    0    0  501    0  0.00000000000E+00 -0.00000000000E+00 -0.12170625347E+04  0.12170625347E+04  0.25500000000E-02 0. -1.
         24    2    1    2    0    0  0.17763568394E-14  0.00000000000E+00 -0.12157405838E+04  0.12183844952E+04  0.80222260189E+02 0.  0.
         66    2    3    3    0    0 -0.12419709555E+02  0.11787594527E+02 -0.11587222721E+04  0.11588505082E+04  0.20000018013E+01 0.  0.
        -13    1    3    3    0    0  0.12419709555E+02 -0.11787594527E+02 -0.57018311744E+02  0.59533987002E+02  0.10566000000E+00 0.  1.
         13    1    4    4    0    0 -0.91220540035E+01  0.85447625668E+01 -0.80156203572E+03  0.80165948701E+03  0.10566000000E+00 0. -1.
        -13    1    4    4    0    0 -0.27515071747E+00  0.91144399685E-01 -0.17547025615E+02  0.17549737525E+02  0.10566000000E+00 0. -1.
         14    1    4    4    0    0 -0.30225048343E+01  0.31516875607E+01 -0.33961321076E+03  0.33964128370E+03  0.00000000000E+00 0. -1.
<mgrwt>
<rscale>  0 0.80222260E+02</rscale>
<asrwt>0</asrwt>
<pdfrwt beam="1">  1        2 0.18723949E+00 0.80222260E+02</pdfrwt>
<pdfrwt beam="2">  1       -1 0.20337877E-03 0.80222260E+02</pdfrwt>
<totfact> 0.34729054E+05</totfact>
</mgrwt>
</event>
<event>
 8    1  0.2561077E-020  0.8098238E+02  0.7818608E-02  0.1326286E+00
         -1   -1    0    0    0  501 -0.00000000000E+00  0.00000000000E+00  0.39460905036E+01  0.39460937222E+01  0.50400000000E-02 0.  1.
          2   -1    0    0  501    0  0.00000000000E+00 -0.00000000000E+00 -0.41548352639E+03  0.41548352640E+03  0.25500000000E-02 0. -1.
         24    2    1    2    0    0  0.00000000000E+00  0.00000000000E+00 -0.41153743589E+03  0.41942962012E+03  0.80982375231E+02 0.  0.
         66    2    3    3    0    0  0.21617120261E+02 -0.22279509377E+01 -0.38269353400E+03  0.38331528095E+03  0.19999975051E+01 0.  0.
        -13    1    3    3    0    0 -0.21617120261E+02  0.22279509377E+01 -0.28843901891E+02  0.36114339176E+02  0.10566000000E+00 0.  1.
         13    1    4    4    0    0  0.11731294946E+02 -0.91523004421E+00 -0.20424473959E+03  0.20458344445E+03  0.10566000000E+00 0. -1.
        -13    1    4    4    0    0  0.50476659774E+01 -0.10358343345E+01 -0.10124584232E+03  0.10137693838E+03  0.10566000000E+00 0.  1.
        -14    1    4    4    0    0  0.48381593373E+01 -0.27688655907E+00 -0.77202952085E+02  0.77354898116E+02  0.00000000000E+00 0.  1.
<mgrwt>
<rscale>  0 0.80982375E+02</rscale>
<asrwt>0</asrwt>
<pdfrwt beam="1">  1        2 0.63920508E-01 0.80982375E+02</pdfrwt>
<pdfrwt beam="2">  1       -1 0.60709143E-03 0.80982375E+02</pdfrwt>
<totfact> 0.27730587E+05</totfact>
</mgrwt>
</event>
<event>
 8    1  0.2561077E-020  0.7890492E+02  0.7818608E-02  0.1332188E+00
         -1   -1    0    0    0  501 -0.00000000000E+00  0.00000000000E+00  0.58720938486E+00  0.58723101354E+00  0.50400000000E-02 0.  1.
          2   -1    0    0  501    0  0.00000000000E+00 -0.00000000000E+00 -0.26506185103E+04  0.26506185103E+04  0.25500000000E-02 0. -1.
         24    2    1    2    0    0  0.00000000000E+00  0.17763568394E-14 -0.26500313009E+04  0.26512057413E+04  0.78904923487E+02 0.  0.
         66    2    3    3    0    0 -0.30520062158E+01 -0.11183847659E+02 -0.25920536803E+04  0.25920803758E+04  0.19999735349E+01 0.  0.
        -13    1    3    3    0    0  0.30520062158E+01  0.11183847659E+02 -0.57977620680E+02  0.59125365573E+02  0.10566000000E+00 0.  1.
         13    1    4    4    0    0 -0.19740687243E+01 -0.72177220958E+01 -0.15175470617E+04  0.15175655136E+04  0.10566000000E+00 0. -1.
        -13    1    4    4    0    0 -0.43494213433E-02 -0.62891258376E+00 -0.24604822986E+03  0.24604905635E+03  0.10566000000E+00 0.  1.
        -14    1    4    4    0    0 -0.10735880702E+01 -0.33372129795E+01 -0.82845838871E+03  0.82846580581E+03  0.00000000000E+00 0.  1.
<mgrwt>
<rscale>  0 0.78904923E+02</rscale>
<asrwt>0</asrwt>
<pdfrwt beam="1">  1        2 0.40777788E+00 0.78904923E+02</pdfrwt>
<pdfrwt beam="2">  1       -1 0.90343692E-04 0.78904923E+02</pdfrwt>
<totfact> 0.19636285E+05</totfact>
</mgrwt>
</event>
<event>
 8    1  0.2561077E-020  0.7995587E+02  0.7818608E-02  0.1329177E+00
         -1   -1    0    0    0  501 -0.00000000000E+00  0.00000000000E+00  0.18824544798E+01  0.18824612268E+01  0.50400000000E-02 0.  1.
          2   -1    0    0  501    0  0.00000000000E+00 -0.00000000000E+00 -0.84901513879E+03  0.84901513879E+03  0.25500000000E-02 0. -1.
         24    2    1    2    0    0 -0.88817841970E-15  0.00000000000E+00 -0.84713268431E+03  0.85089760002E+03  0.79955868416E+02 0.  0.
         66    2    3    3    0    0  0.55372534433E+01 -0.10955072816E+02 -0.82844781824E+03  0.82854116515E+03  0.20000004925E+01 0.  0.
        -13    1    3    3    0    0 -0.55372534433E+01  0.10955072816E+02 -0.18684866067E+02  0.22356434869E+02  0.10566000000E+00 0.  1.
         13    1    4    4    0    0  0.51449772481E+00 -0.32212156006E+00 -0.56358455773E+02  0.56361823705E+02  0.10566000000E+00 0. -1.
        -13    1    4    4    0    0  0.17860177712E+01 -0.29410285672E+01 -0.22700574246E+03  0.22703184310E+03  0.10566000000E+00 0.  1.
         14    1    4    4    0    0  0.32367379473E+01 -0.76919226885E+01 -0.54508362001E+03  0.54514749835E+03  0.00000000000E+00 0. -1.
<mgrwt>
<rscale>  0 0.79955868E+02</rscale>
<asrwt>0</asrwt>
<pdfrwt beam="1">  1        2 0.13061741E+00 0.79955868E+02</pdfrwt>
<pdfrwt beam="2">  1       -1 0.28960958E-03 0.79955868E+02</pdfrwt>
<totfact> 0.34739308E+05</totfact>
</mgrwt>
</event>
<event>
 8    1  0.2561077E-020  0.8070565E+02  0.7818608E-02  0.1327061E+00
         -1   -1    0    0    0  501 -0.00000000000E+00  0.00000000000E+00  0.17476235517E+01  0.17476308192E+01  0.50400000000E-02 0.  1.
          2   -1    0    0  501    0  0.00000000000E+00 -0.00000000000E+00 -0.93174943498E+03  0.93174943498E+03  0.25500000000E-02 0. -1.
         24    2    1    2    0    0  0.00000000000E+00  0.00000000000E+00 -0.93000181142E+03  0.93349706580E+03  0.80705654091E+02 0.  0.
         66    2    3    3    0    0 -0.11486706650E+02  0.10649055619E+02 -0.89512451495E+03  0.89526378463E+03  0.19999992530E+01 0.  0.
        -13    1    3    3    0    0  0.11486706650E+02 -0.10649055619E+02 -0.34877296473E+02  0.38233281164E+02  0.10566000000E+00 0.  1.
         13    1    4    4    0    0 -0.55166909688E+01  0.52276453209E+01 -0.41495709407E+03  0.41502670184E+03  0.10566000000E+00 0. -1.
        -13    1    4    4    0    0 -0.48978995182E+01  0.38289210977E+01 -0.38624495104E+03  0.38629499534E+03  0.10566000000E+00 0.  1.
        -14    1    4    4    0    0 -0.10721161627E+01  0.15924892006E+01 -0.93922469842E+02  0.93942087459E+02  0.00000000000E+00 0.  1.
<mgrwt>
<rscale>  0 0.80705654E+02</rscale>
<asrwt>0</asrwt>
<pdfrwt beam="1">  1        2 0.14334567E+00 0.80705654E+02</pdfrwt>
<pdfrwt beam="2">  1       -1 0.26886647E-03 0.80705654E+02</pdfrwt>
<totfact> 0.34276526E+05</totfact>
</mgrwt>
</event>
<event>
 8    1  0.2561077E-020  0.7953353E+02  0.7818608E-02  0.1330380E+00
          2   -1    0    0  501    0  0.00000000000E+00  0.00000000000E+00  0.40602756025E+02  0.40602756105E+02  0.25500000000E-02 0. -1.
         -1   -1    0    0    0  501 -0.00000000000E+00 -0.00000000000E+00 -0.38947981716E+02  0.38947982043E+02  0.50400000000E-02 0.  1.
         24    2    1    2    0    0  0.88817841970E-15  0.35527136788E-14  0.16547743089E+01  0.79550738148E+02  0.79533525396E+02 0.  0.
         66    2    3    3    0    0  0.60476120216E+01  0.26159874608E+02  0.30134042009E+02  0.40410062331E+02  0.19999997818E+01 0.  0.
        -13    1    3    3    0    0 -0.60476120216E+01 -0.26159874608E+02 -0.28479267700E+02  0.39140675817E+02  0.10566000000E+00 0.  1.
         13    1    4    4    0    0  0.40044089806E+01  0.16525851994E+02  0.20289422737E+02  0.26472833517E+02  0.10566000000E+00 0. -1.
        -13    1    4    4    0    0  0.17579598287E+00  0.17552830377E+01  0.16764393419E+01  0.24358849876E+01  0.10566000000E+00 0.  1.
         14    1    4    4    0    0  0.18674070581E+01  0.78787395760E+01  0.81681799302E+01  0.11501343826E+02  0.00000000000E+00 0. -1.
<mgrwt>
<rscale>  0 0.79533525E+02</rscale>
<asrwt>0</asrwt>
<pdfrwt beam="1">  1        2 0.62465778E-02 0.79533525E+02</pdfrwt>
<pdfrwt beam="2">  1       -1 0.59919973E-02 0.79533525E+02</pdfrwt>
<totfact> 0.14531975E+05</totfact>
</mgrwt>
</event>
<event>
 8    1  0.2561077E-020  0.8057207E+02  0.7818608E-02  0.1327436E+00
         -1   -1    0    0    0  501 -0.00000000000E+00  0.00000000000E+00  0.13853941198E+01  0.13854032874E+01  0.50400000000E-02 0.  1.
          2   -1    0    0  501    0  0.00000000000E+00 -0.00000000000E+00 -0.11714784049E+04  0.11714784049E+04  0.25500000000E-02 0. -1.
         24    2    1    2    0    0  0.00000000000E+00  0.00000000000E+00 -0.11700930107E+04  0.11728638081E+04  0.80572071374E+02 0.  0.
         66    2    3    3    0    0  0.81108635592E+01 -0.19340571856E+02 -0.10856815658E+04  0.10858859545E+04  0.20000003405E+01 0.  0.
        -13    1    3    3    0    0 -0.81108635592E+01  0.19340571856E+02 -0.84411444945E+02  0.86977853671E+02  0.10566000000E+00 0.  1.
         13    1    4    4    0    0  0.61820134201E+01 -0.14483481116E+02 -0.77226982742E+03  0.77243037616E+03  0.10566000000E+00 0. -1.
        -13    1    4    4    0    0  0.16124870494E+01 -0.37234664379E+01 -0.24920523140E+03  0.24923828526E+03  0.10566000000E+00 0.  1.
         14    1    4    4    0    0  0.31636308970E+00 -0.11336243017E+01 -0.64206506977E+02  0.64217293059E+02  0.00000000000E+00 0. -1.
<mgrwt>
<rscale>  0 0.80572071E+02</rscale>
<asrwt>0</asrwt>
<pdfrwt beam="1">  1        2 0.18022665E+00 0.80572071E+02</pdfrwt>
<pdfrwt beam="2">  1       -1 0.21313920E-03 0.80572071E+02</pdfrwt>
<totfact> 0.34477425E+05</totfact>
</mgrwt>
</event>
<event>
 8    1  0.2561077E-020  0.7798353E+02  0.7818608E-02  0.1334873E+00
         -1   -1    0    0    0  501 -0.00000000000E+00  0.00000000000E+00  0.41094215736E+01  0.41094246642E+01  0.50400000000E-02 0.  1.
          2   -1    0    0  501    0  0.00000000000E+00 -0.00000000000E+00 -0.36996861584E+03  0.36996861585E+03  0.25500000000E-02 0. -1.
         24    2    1    2    0    0  0.00000000000E+00  0.00000000000E+00 -0.36585919427E+03  0.37407804052E+03  0.77983526240E+02 0.  0.
         66    2    3    3    0    0  0.36761931613E+02  0.88986088575E+01 -0.13812045428E+03  0.14321970796E+03  0.20000003589E+01 0.  0.
        -13    1    3    3    0    0 -0.36761931613E+02 -0.88986088575E+01 -0.22773873999E+03  0.23085833256E+03  0.10566000000E+00 0.  1.
         13    1    4    4    0    0  0.35242637371E+01  0.42431369436E+00 -0.14090641341E+02  0.14531270228E+02  0.10566000000E+00 0. -1.
        -13    1    4    4    0    0  0.15605794693E+02  0.43263324699E+01 -0.57548823473E+02  0.59784080053E+02  0.10566000000E+00 0.  1.
         14    1    4    4    0    0  0.17631873183E+02  0.41479626932E+01 -0.66480989463E+02  0.68904357674E+02  0.00000000000E+00 0. -1.
<mgrwt>
<rscale>  0 0.77983526E+02</rscale>
<asrwt>0</asrwt>
<pdfrwt beam="1">  1        2 0.56918222E-01 0.77983526E+02</pdfrwt>
<pdfrwt beam="2">  1       -1 0.63221924E-03 0.77983526E+02</pdfrwt>
<totfact> 0.29381186E+05</totfact>
</mgrwt>
</event>
<event>
 8    1  0.2561077E-020  0.8013350E+02  0.7818608E-02  0.1328673E+00
          2   -1    0    0  501    0  0.00000000000E+00  0.00000000000E+00  0.12095492472E+03  0.12095492475E+03  0.25500000000E-02 0. -1.
         -1   -1    0    0    0  501 -0.00000000000E+00 -0.00000000000E+00 -0.13272252743E+02  0.13272253700E+02  0.50400000000E-02 0.  1.
         24    2    1    2    0    0  0.00000000000E+00 -0.55511151231E-16  0.10768267198E+03  0.13422717845E+03  0.80133498549E+02 0.  0.
         66    2    3    3    0    0  0.18375864627E+02 -0.14756405974E+00  0.11346601198E+03  0.11496186346E+03  0.19999996629E+01 0.  0.
        -13    1    3    3    0    0 -0.18375864627E+02  0.14756405974E+00 -0.57833400059E+01  0.19265314988E+02  0.10566000000E+00 0.  1.
         13    1    4    4    0    0  0.12077089000E+02 -0.32079196067E+00  0.77026235981E+02  0.77968013824E+02  0.10566000000E+00 0. -1.
        -13    1    4    4    0    0  0.29003423421E+01 -0.32451643399E+00  0.15170282506E+02  0.15448816523E+02  0.10566000000E+00 0.  1.
        -14    1    4    4    0    0  0.33984332851E+01  0.49774433491E+00  0.21269493495E+02  0.21545033111E+02  0.00000000000E+00 0.  1.
<mgrwt>
<rscale>  0 0.80133499E+02</rscale>
<asrwt>0</asrwt>
<pdfrwt beam="1">  1        2 0.18608450E-01 0.80133499E+02</pdfrwt>
<pdfrwt beam="2">  1       -1 0.20418851E-02 0.80133499E+02</pdfrwt>
<totfact> 0.18647869E+05</totfact>
</mgrwt>
</event>
<event>
 8    1  0.2561077E-020  0.7901459E+02  0.7818608E-02  0.1331871E+00
          2   -1    0    0  501    0  0.00000000000E+00  0.00000000000E+00  0.37429927355E+03  0.37429927356E+03  0.25500000000E-02 0. -1.
         -1   -1    0    0    0  501 -0.00000000000E+00 -0.00000000000E+00 -0.41699945635E+01  0.41699976092E+01  0.50400000000E-02 0.  1.
         24    2    1    2    0    0  0.00000000000E+00  0.00000000000E+00  0.37012927899E+03  0.37846927117E+03  0.79014593939E+02 0.  0.
         66    2    3    3    0    0 -0.35507459817E+01 -0.30914448540E+02  0.30157864116E+03  0.30318639107E+03  0.19999999267E+01 0.  0.
        -13    1    3    3    0    0  0.35507459817E+01  0.30914448540E+02  0.68550637825E+02  0.75282880098E+02  0.10566000000E+00 0.  1.
         13    1    4    4    0    0 -0.20054299750E+01 -0.17705266932E+02  0.17602608120E+03  0.17692566420E+03  0.10566000000E+00 0. -1.
        -13    1    4    4    0    0 -0.70448460786E+00 -0.95580622124E+01  0.86870962764E+02  0.87398101738E+02  0.10566000000E+00 0.  1.
         14    1    4    4    0    0 -0.84083139883E+00 -0.36511193955E+01  0.38681597201E+02  0.38862625134E+02  0.00000000000E+00 0. -1.
<mgrwt>
<rscale>  0 0.79014594E+02</rscale>
<asrwt>0</asrwt>
<pdfrwt beam="1">  1        2 0.57584503E-01 0.79014594E+02</pdfrwt>
<pdfrwt beam="2">  1       -1 0.64153787E-03 0.79014594E+02</pdfrwt>
<totfact> 0.28508354E+05</totfact>
</mgrwt>
</event>
<event>
 8    1  0.2561077E-020  0.8066448E+02  0.7818608E-02  0.1327176E+00
         -1   -1    0    0    0  501 -0.00000000000E+00  0.00000000000E+00  0.42699676572E+02  0.42699676869E+02  0.50400000000E-02 0.  1.
          2   -1    0    0  501    0  0.00000000000E+00 -0.00000000000E+00 -0.38096065828E+02  0.38096065913E+02  0.25500000000E-02 0. -1.
         24    2    1    2    0    0  0.00000000000E+00  0.00000000000E+00  0.46036107441E+01  0.80795742782E+02  0.80664483013E+02 0.  0.
         66    2    3    3    0    0  0.62626515311E+01 -0.36235328028E+02 -0.14230155363E+02  0.39480591671E+02  0.19999988780E+01 0.  0.
        -13    1    3    3    0    0 -0.62626515311E+01  0.36235328028E+02  0.18833766107E+02  0.41315151111E+02  0.10566000000E+00 0.  1.
         13    1    4    4    0    0  0.12772612614E+01 -0.10277363237E+02 -0.40570744237E+01  0.11123246304E+02  0.10566000000E+00 0. -1.
        -13    1    4    4    0    0  0.29274992323E+01 -0.11785065574E+02 -0.44065467933E+01  0.12918468989E+02  0.10566000000E+00 0.  1.
        -14    1    4    4    0    0  0.20578910373E+01 -0.14172899218E+02 -0.57665341463E+01  0.15438876378E+02  0.00000000000E+00 0.  1.
<mgrwt>
<rscale>  0 0.80664483E+02</rscale>
<asrwt>0</asrwt>
<pdfrwt beam="1">  1        2 0.58609333E-02 0.80664483E+02</pdfrwt>
<pdfrwt beam="2">  1       -1 0.65691810E-02 0.80664483E+02</pdfrwt>
<totfact> 0.13793733E+05</totfact>
</mgrwt>
</event>
<event>
 8    1  0.2561077E-020  0.7805786E+02  0.7818608E-02  0.1334655E+00
         -1   -1    0    0    0  501 -0.00000000000E+00  0.00000000000E+00  0.35890837062E+01  0.35890872449E+01  0.50400000000E-02 0.  1.
          2   -1    0    0  501    0  0.00000000000E+00 -0.00000000000E+00 -0.42441375622E+03  0.42441375622E+03  0.25500000000E-02 0. -1.
         24    2    1    2    0    0  0.00000000000E+00  0.00000000000E+00 -0.42082467251E+03  0.42800284347E+03  0.78057856902E+02 0.  0.
         66    2    3    3    0    0 -0.97714449054E+01  0.25140497763E+02 -0.36502767486E+03  0.36602831746E+03  0.20000011677E+01 0.  0.
        -13    1    3    3    0    0  0.97714449054E+01 -0.25140497763E+02 -0.55796997647E+02  0.61974526007E+02  0.10566000000E+00 0.  1.
         13    1    4    4    0    0 -0.50975199183E+01  0.13112548962E+02 -0.17947266202E+03  0.18002325190E+03  0.10566000000E+00 0. -1.
        -13    1    4    4    0    0 -0.42170275162E+01  0.11257016064E+02 -0.17031934751E+03  0.17074306730E+03  0.10566000000E+00 0.  1.
        -14    1    4    4    0    0 -0.45689747090E+00  0.77093273724E+00 -0.15235665336E+02  0.15261998257E+02  0.00000000000E+00 0.  1.
<mgrwt>
<rscale>  0 0.78057857E+02</rscale>
<asrwt>0</asrwt>
<pdfrwt beam="1">  1        2 0.65294384E-01 0.78057857E+02</pdfrwt>
<pdfrwt beam="2">  1       -1 0.55216734E-03 0.78057857E+02</pdfrwt>
<totfact> 0.30748063E+05</totfact>
</mgrwt>
</event>
<event>
 8    1  0.2561077E-020  0.8060432E+02  0.7818608E-02  0.1327345E+00
         -1   -1    0    0    0  501 -0.00000000000E+00  0.00000000000E+00  0.30396130503E+01  0.30396172287E+01  0.50400000000E-02 0.  1.
          2   -1    0    0  501    0  0.00000000000E+00 -0.00000000000E+00 -0.53436503839E+03  0.53436503839E+03  0.25500000000E-02 0. -1.
         24    2    1    2    0    0  0.17763568394E-14  0.00000000000E+00 -0.53132542534E+03  0.53740465562E+03  0.80604319207E+02 0.  0.
         66    2    3    3    0    0 -0.11807800314E+02  0.32302034325E+02 -0.40558482705E+03  0.40704532611E+03  0.20000008200E+01 0.  0.
        -13    1    3    3    0    0  0.11807800314E+02 -0.32302034325E+02 -0.12574059828E+03  0.13035932951E+03  0.10566000000E+00 0.  1.
         13    1    4    4    0    0 -0.10734201805E+02  0.29301776267E+02 -0.36220520317E+03  0.36354702247E+03  0.10566000000E+00 0. -1.
        -13    1    4    4    0    0 -0.46811369535E+00  0.11088040878E+01 -0.18620357276E+02  0.18659513553E+02  0.10566000000E+00 0.  1.
        -14    1    4    4    0    0 -0.60548481380E+00  0.18914539700E+01 -0.24759266604E+02  0.24838790083E+02  0.00000000000E+00 0.  1.
<mgrwt>
<rscale>  0 0.80604319E+02</rscale>
<asrwt>0</asrwt>
<pdfrwt beam="1">  1        2 0.82209931E-01 0.80604319E+02</pdfrwt>
<pdfrwt beam="2">  1       -1 0.46763353E-03 0.80604319E+02</pdfrwt>
<totfact> 0.30486338E+05</totfact>
</mgrwt>
</event>
<event>
 8    1  0.2561077E-020  0.8207645E+02  0.7818608E-02  0.1323260E+00
         -1   -1    0    0    0  501 -0.00000000000E+00  0.00000000000E+00  0.87488490577E+02  0.87488490722E+02  0.50400000000E-02 0.  1.
          2   -1    0    0  501    0  0.00000000000E+00 -0.00000000000E+00 -0.19249797320E+02  0.19249797488E+02  0.25500000000E-02 0. -1.
         24    2    1    2    0    0  0.00000000000E+00  0.00000000000E+00  0.68238693258E+02  0.10673828821E+03  0.82076445541E+02 0.  0.
         66    2    3    3    0    0 -0.19761845095E+02  0.19440628609E+02 -0.51696786514E+01  0.28270022060E+02  0.20000019195E+01 0.  0.
        -13    1    3    3    0    0  0.19761845095E+02 -0.19440628609E+02  0.73408371909E+02  0.78468266150E+02  0.10566000000E+00 0.  1.
         13    1    4    4    0    0 -0.47906639058E+01  0.56241923565E+01 -0.12857621598E+01  0.74997565752E+01  0.10566000000E+00 0. -1.
        -13    1    4    4    0    0 -0.21864022241E+01  0.18142696511E+01 -0.18818095876E+00  0.28492990649E+01  0.10566000000E+00 0.  1.
         14    1    4    4    0    0 -0.12784778965E+02  0.12002166601E+02 -0.36957355328E+01  0.17920966420E+02  0.00000000000E+00 0. -1.
<mgrwt>
<rscale>  0 0.82076446E+02</rscale>
<asrwt>0</asrwt>
<pdfrwt beam="1">  1        2 0.29615072E-02 0.82076446E+02</pdfrwt>
<pdfrwt beam="2">  1       -1 0.13459768E-01 0.82076446E+02</pdfrwt>
<totfact> 0.11440921E+05</totfact>
</mgrwt>
</event>
<event>
 8    1  0.2561077E-020  0.7920169E+02  0.7818608E-02  0.1331332E+00
         -1   -1    0    0    0  501 -0.00000000000E+00  0.00000000000E+00  0.27424990625E+01  0.27425036936E+01  0.50400000000E-02 0.  1.
          2   -1    0    0  501    0  0.00000000000E+00 -0.00000000000E+00 -0.57182354913E+03  0.57182354913E+03  0.25500000000E-02 0. -1.
         24    2    1    2    0    0  0.44408920985E-15  0.00000000000E+00 -0.56908105007E+03  0.57456605283E+03  0.79201688857E+02 0.  0.
         66    2    3    3    0    0  0.24916586826E+01 -0.35989261545E+02 -0.40276807489E+03  0.40438540709E+03  0.20000007071E+01 0.  0.
        -13    1    3    3    0    0 -0.24916586826E+01  0.35989261545E+02 -0.16631297517E+03  0.17018064574E+03  0.10566000000E+00 0.  1.
         13    1    4    4    0    0  0.15637342417E+01 -0.10996554361E+02 -0.12067555829E+03  0.12118568812E+03  0.10566000000E+00 0.  1.
        -13    1    4    4    0    0  0.22952542214E+00 -0.24807795031E+01 -0.29054633730E+02  0.29161444650E+02  0.10566000000E+00 0. -1.
         14    1    4    4    0    0  0.69839901871E+00 -0.22511927681E+02 -0.25303788287E+03  0.25403827432E+03  0.00000000000E+00 0. -1.
<mgrwt>
<rscale>  0 0.79201689E+02</rscale>
<asrwt>0</asrwt>
<pdfrwt beam="1">  1        2 0.87972759E-01 0.79201689E+02</pdfrwt>
<pdfrwt beam="2">  1       -1 0.42192374E-03 0.79201689E+02</pdfrwt>
<totfact> 0.32564764E+05</totfact>
</mgrwt>
</event>
<event>
 8    1  0.2561077E-020  0.7941520E+02  0.7818608E-02  0.1330719E+00
         -1   -1    0    0    0  501 -0.00000000000E+00  0.00000000000E+00  0.63944446893E+01  0.63944466756E+01  0.50400000000E-02 0.  1.
          2   -1    0    0  501    0  0.00000000000E+00 -0.00000000000E+00 -0.24657233319E+03  0.24657233320E+03  0.25500000000E-02 0. -1.
         24    2    1    2    0    0  0.00000000000E+00  0.00000000000E+00 -0.24017788850E+03  0.25296677988E+03  0.79415197523E+02 0.  0.
         66    2    3    3    0    0  0.35824152961E+02 -0.16971639004E+02 -0.12593559011E+03  0.13204233912E+03  0.19999998752E+01 0.  0.
        -13    1    3    3    0    0 -0.35824152961E+02  0.16971639004E+02 -0.11424229839E+03  0.12092444076E+03  0.10566000000E+00 0.  1.
         13    1    4    4    0    0  0.54029084627E+01 -0.21981016619E+01 -0.18156586933E+02  0.19070812355E+02  0.10566000000E+00 0. -1.
        -13    1    4    4    0    0  0.15728310005E+02 -0.82282030508E+01 -0.54573646325E+02  0.57387952553E+02  0.10566000000E+00 0.  1.
        -14    1    4    4    0    0  0.14692934494E+02 -0.65453342916E+01 -0.53205356851E+02  0.55583574216E+02  0.00000000000E+00 0.  1.
<mgrwt>
<rscale>  0 0.79415198E+02</rscale>
<asrwt>0</asrwt>
<pdfrwt beam="1">  1        2 0.37934198E-01 0.79415198E+02</pdfrwt>
<pdfrwt beam="2">  1       -1 0.98376107E-03 0.79415198E+02</pdfrwt>
<totfact> 0.24213191E+05</totfact>
</mgrwt>
</event>
<event>
 8    1  0.2561077E-020  0.8028118E+02  0.7818608E-02  0.1328255E+00
          2   -1    0    0  501    0  0.00000000000E+00  0.00000000000E+00  0.55278042570E+01  0.55278048452E+01  0.25500000000E-02 0. -1.
         -1   -1    0    0    0  501 -0.00000000000E+00 -0.00000000000E+00 -0.29148405461E+03  0.29148405465E+03  0.50400000000E-02 0.  1.
         24    2    1    2    0    0  0.00000000000E+00  0.35527136788E-14 -0.28595625035E+03  0.29701185950E+03  0.80281178161E+02 0.  0.
         66    2    3    3    0    0  0.23688199350E+02 -0.30865757827E+02 -0.10692425677E+03  0.11380080174E+03  0.19999990613E+01 0.  0.
        -13    1    3    3    0    0 -0.23688199350E+02  0.30865757827E+02 -0.17903199358E+03  0.18321105775E+03  0.10566000000E+00 0.  1.
         13    1    4    4    0    0  0.47919456889E+01 -0.58095116596E+01 -0.21052910177E+02  0.22359547405E+02  0.10566000000E+00 0. -1.
        -13    1    4    4    0    0  0.46187382129E+01 -0.53696684371E+01 -0.17916866532E+02  0.19266326899E+02  0.10566000000E+00 0.  1.
        -14    1    4    4    0    0  0.14277515448E+02 -0.19686577731E+02 -0.67954480065E+02  0.72174927440E+02  0.00000000000E+00 0.  1.
<mgrwt>
<rscale>  0 0.80281178E+02</rscale>
<asrwt>0</asrwt>
<pdfrwt beam="1">  1        2 0.85043170E-03 0.80281178E+02</pdfrwt>
<pdfrwt beam="2">  1       -1 0.44843689E-01 0.80281178E+02</pdfrwt>
<totfact> 0.86653569E+04</totfact>
</mgrwt>
</event>
<event>
 8    1  0.2561077E-020  0.7928365E+02  0.7818608E-02  0.1331097E+00
          2   -1    0    0  501    0  0.00000000000E+00  0.00000000000E+00  0.26010709429E+03  0.26010709431E+03  0.25500000000E-02 0. -1.
         -1   -1    0    0    0  501 -0.00000000000E+00 -0.00000000000E+00 -0.60416427138E+01  0.60416448160E+01  0.50400000000E-02 0.  1.
         24    2    1    2    0    0  0.00000000000E+00  0.35527136788E-14  0.25406545158E+03  0.26614873912E+03  0.79283653106E+02 0.  0.
         66    2    3    3    0    0  0.12704450271E+01  0.31063158303E+02  0.20954161640E+03  0.21184480835E+03  0.19999965416E+01 0.  0.
        -13    1    3    3    0    0 -0.12704450271E+01 -0.31063158303E+02  0.44523835179E+02  0.54303930773E+02  0.10566000000E+00 0.  1.
         13    1    4    4    0    0  0.10438100275E+01  0.27323040027E+02  0.18357655479E+03  0.18560172599E+03  0.10566000000E+00 0. -1.
        -13    1    4    4    0    0 -0.23237413562E+00  0.10320697338E+01  0.72259245848E+01  0.73037193139E+01  0.10566000000E+00 0.  1.
         14    1    4    4    0    0  0.45900913528E+00  0.27080485430E+01  0.18739137025E+02  0.18939363050E+02  0.00000000000E+00 0. -1.
<mgrwt>
<rscale>  0 0.79283653E+02</rscale>
<asrwt>0</asrwt>
<pdfrwt beam="1">  1        2 0.40016466E-01 0.79283653E+02</pdfrwt>
<pdfrwt beam="2">  1       -1 0.92948390E-03 0.79283653E+02</pdfrwt>
<totfact> 0.24789519E+05</totfact>
</mgrwt>
</event>
<event>
 8    1  0.2561077E-020  0.7629257E+02  0.7818608E-02  0.1339914E+00
         -1   -1    0    0    0  501 -0.00000000000E+00  0.00000000000E+00  0.72001704436E+02  0.72001704613E+02  0.50400000000E-02 0.  1.
          2   -1    0    0  501    0  0.00000000000E+00 -0.00000000000E+00 -0.20209783665E+02  0.20209783826E+02  0.25500000000E-02 0. -1.
         24    2    1    2    0    0  0.35527136788E-14  0.17763568394E-14  0.51791920772E+02  0.92211488438E+02  0.76292565449E+02 0.  0.
         66    2    3    3    0    0  0.20101391364E+02  0.11790745212E+02 -0.10547796850E+02  0.25658207794E+02  0.20000003544E+01 0.  0.
        -13    1    3    3    0    0 -0.20101391364E+02 -0.11790745212E+02  0.62339717621E+02  0.66553280644E+02  0.10566000000E+00 0.  1.
         13    1    4    4    0    0  0.60280532083E+01  0.29556765039E+01 -0.31474326058E+01  0.74155879822E+01  0.10566000000E+00 0. -1.
        -13    1    4    4    0    0  0.81402630721E+01  0.54373999294E+01 -0.36779727528E+01  0.10457908418E+02  0.10566000000E+00 0.  1.
        -14    1    4    4    0    0  0.59330750833E+01  0.33976687783E+01 -0.37223914911E+01  0.77847113937E+01  0.00000000000E+00 0.  1.
<mgrwt>
<rscale>  0 0.76292565E+02</rscale>
<asrwt>0</asrwt>
<pdfrwt beam="1">  1        2 0.31091975E-02 0.76292565E+02</pdfrwt>
<pdfrwt beam="2">  1       -1 0.11077185E-01 0.76292565E+02</pdfrwt>
<totfact> 0.14248043E+05</totfact>
</mgrwt>
</event>
<event>
 8    1  0.2561077E-020  0.7903482E+02  0.7818608E-02  0.1331813E+00
         -1   -1    0    0    0  501 -0.00000000000E+00  0.00000000000E+00  0.59015578323E+01  0.59015599844E+01  0.50400000000E-02 0.  1.
          2   -1    0    0  501    0  0.00000000000E+00 -0.00000000000E+00 -0.26461238651E+03  0.26461238652E+03  0.25500000000E-02 0. -1.
         24    2    1    2    0    0  0.00000000000E+00 -0.35527136788E-14 -0.25871082868E+03  0.27051394651E+03  0.79034817515E+02 0.  0.
         66    2    3    3    0    0  0.17160445751E+02 -0.17327568321E+02 -0.23575710969E+03  0.23702350158E+03  0.20000017072E+01 0.  0.
        -13    1    3    3    0    0 -0.17160445751E+02  0.17327568321E+02 -0.22953718984E+02  0.33490444929E+02  0.10566000000E+00 0.  1.
         13    1    4    4    0    0  0.81847313671E+01 -0.84715742233E+01 -0.10598461166E+03  0.10663726586E+03  0.10566000000E+00 0. -1.
        -13    1    4    4    0    0  0.61314930647E+01 -0.55110882639E+01 -0.85202483075E+02  0.85600476559E+02  0.10566000000E+00 0.  1.
         14    1    4    4    0    0  0.28442213192E+01 -0.33449058341E+01 -0.44570014961E+02  0.44785759160E+02  0.00000000000E+00 0. -1.
<mgrwt>
<rscale>  0 0.79034818E+02</rscale>
<asrwt>0</asrwt>
<pdfrwt beam="1">  1        2 0.40709589E-01 0.79034818E+02</pdfrwt>
<pdfrwt beam="2">  1       -1 0.90793235E-03 0.79034818E+02</pdfrwt>
<totfact> 0.25150268E+05</totfact>
</mgrwt>
</event>
<event>
 8    1  0.2561077E-020  0.8005607E+02  0.7818608E-02  0.1328892E+00
         -1   -1    0    0    0  501 -0.00000000000E+00  0.00000000000E+00  0.19593523845E+01  0.19593588666E+01  0.50400000000E-02 0.  1.
          2   -1    0    0  501    0  0.00000000000E+00 -0.00000000000E+00 -0.81773997657E+03  0.81773997658E+03  0.25500000000E-02 0. -1.
         24    2    1    2    0    0  0.00000000000E+00  0.00000000000E+00 -0.81578062419E+03  0.81969933544E+03  0.80056066136E+02 0.  0.
         66    2    3    3    0    0 -0.24396076433E+02  0.18293859685E+02 -0.67325584141E+03  0.67394900536E+03  0.19999985483E+01 0.  0.
        -13    1    3    3    0    0  0.24396076433E+02 -0.18293859685E+02 -0.14252478278E+03  0.14575033008E+03  0.10566000000E+00 0.  1.
         13    1    4    4    0    0 -0.10251064449E+02  0.67142824270E+01 -0.26860062101E+03  0.26888003028E+03  0.10566000000E+00 0. -1.
        -13    1    4    4    0    0 -0.13470000929E+02  0.11260205414E+02 -0.38841916576E+03  0.38881575668E+03  0.10566000000E+00 0.  1.
        -14    1    4    4    0    0 -0.67501105557E+00  0.31937184401E+00 -0.16236054640E+02  0.16253218407E+02  0.00000000000E+00 0.  1.
<mgrwt>
<rscale>  0 0.80056066E+02</rscale>
<asrwt>0</asrwt>
<pdfrwt beam="1">  1        2 0.12580588E+00 0.80056066E+02</pdfrwt>
<pdfrwt beam="2">  1       -1 0.30143998E-03 0.80056066E+02</pdfrwt>
<totfact> 0.34429143E+05</totfact>
</mgrwt>
</event>
<event>
 8    1  0.2561077E-020  0.7998737E+02  0.7818608E-02  0.1329087E+00
         -1   -1    0    0    0  501 -0.00000000000E+00  0.00000000000E+00  0.25921633744E+01  0.25921682740E+01  0.50400000000E-02 0.  1.
          2   -1    0    0  501    0  0.00000000000E+00 -0.00000000000E+00 -0.61704955244E+03  0.61704955244E+03  0.25500000000E-02 0. -1.
         24    2    1    2    0    0  0.00000000000E+00 -0.88817841970E-15 -0.61445738907E+03  0.61964172072E+03  0.79987368244E+02 0.  0.
         66    2    3    3    0    0  0.11837657148E+02  0.47134391554E+01 -0.60089236309E+03  0.60103076348E+03  0.19999999458E+01 0.  0.
        -13    1    3    3    0    0 -0.11837657148E+02 -0.47134391554E+01 -0.13565025976E+02  0.18610957234E+02  0.10566000000E+00 0.  1.
         13    1    4    4    0    0  0.66263887917E+01  0.28761159022E+01 -0.31419689418E+03  0.31427993978E+03  0.10566000000E+00 0. -1.
        -13    1    4    4    0    0  0.85738311097E+00  0.72211654402E+00 -0.65867381539E+02  0.65877004129E+02  0.10566000000E+00 0.  1.
         14    1    4    4    0    0  0.43538852455E+01  0.11152067092E+01 -0.22082808737E+03  0.22087381958E+03  0.00000000000E+00 0. -1.
<mgrwt>
<rscale>  0 0.79987368E+02</rscale>
<asrwt>0</asrwt>
<pdfrwt beam="1">  1        2 0.94930584E-01 0.79987368E+02</pdfrwt>
<pdfrwt beam="2">  1       -1 0.39879524E-03 0.79987368E+02</pdfrwt>
<totfact> 0.32425038E+05</totfact>
</mgrwt>
</event>
<event>
 8    1  0.2561077E-020  0.8075523E+02  0.7818608E-02  0.1326922E+00
         -1   -1    0    0    0  501 -0.00000000000E+00  0.00000000000E+00  0.16020803574E+02  0.16020804367E+02  0.50400000000E-02 0.  1.
          2   -1    0    0  501    0  0.00000000000E+00 -0.00000000000E+00 -0.10176466095E+03  0.10176466098E+03  0.25500000000E-02 0. -1.
         24    2    1    2    0    0  0.00000000000E+00  0.00000000000E+00 -0.85743857379E+02  0.11778546535E+03  0.80755227509E+02 0.  0.
         66    2    3    3    0    0 -0.64457955544E+01 -0.13974087271E+02 -0.97306594969E+02  0.98536271602E+02  0.20000003669E+01 0.  0.
        -13    1    3    3    0    0  0.64457955544E+01  0.13974087271E+02  0.11562737590E+02  0.19249193750E+02  0.10566000000E+00 0.  1.
         13    1    4    4    0    0 -0.10497114631E+01 -0.11771747746E+01 -0.99829770520E+01  0.10107355216E+02  0.10566000000E+00 0. -1.
        -13    1    4    4    0    0 -0.34922102565E+01 -0.96086205299E+01 -0.64204359029E+02  0.65013321737E+02  0.10566000000E+00 0.  1.
        -14    1    4    4    0    0 -0.19038738348E+01 -0.31882919670E+01 -0.23119258888E+02  0.23415594649E+02  0.00000000000E+00 0.  1.
<mgrwt>
<rscale>  0 0.80755228E+02</rscale>
<asrwt>0</asrwt>
<pdfrwt beam="1">  1        2 0.15656101E-01 0.80755228E+02</pdfrwt>
<pdfrwt beam="2">  1       -1 0.24647391E-02 0.80755228E+02</pdfrwt>
<totfact> 0.17370317E+05</totfact>
</mgrwt>
</event>
<event>
 8    1  0.2561077E-020  0.7882389E+02  0.7818608E-02  0.1332423E+00
          2   -1    0    0  501    0  0.00000000000E+00  0.00000000000E+00  0.18621227186E+02  0.18621227360E+02  0.25500000000E-02 0. -1.
         -1   -1    0    0    0  501 -0.00000000000E+00 -0.00000000000E+00 -0.83415620893E+02  0.83415621046E+02  0.50400000000E-02 0.  1.
         24    2    1    2    0    0  0.71054273576E-14  0.00000000000E+00 -0.64794393708E+02  0.10203684841E+03  0.78823885826E+02 0.  0.
         66    2    3    3    0    0  0.32377456026E+02  0.72194093432E+01 -0.49309460108E+01  0.33596633151E+02  0.20000001303E+01 0.  0.
        -13    1    3    3    0    0 -0.32377456026E+02 -0.72194093432E+01 -0.59863447697E+02  0.68440215255E+02  0.10566000000E+00 0.  1.
         13    1    4    4    0    0  0.83406139229E+00  0.11876698776E+00 -0.93281113401E-01  0.85418347280E+00  0.10566000000E+00 0.  1.
        -13    1    4    4    0    0  0.48620238759E+00  0.32136752594E+00 -0.14117016455E+00  0.60890302954E+00  0.10566000000E+00 0.  1.
         14    1    4    4    0    0  0.31057192246E+02  0.67792748295E+01 -0.46964947328E+01  0.32133546648E+02  0.00000000000E+00 0. -1.
<mgrwt>
<rscale>  0 0.78823886E+02</rscale>
<asrwt>0</asrwt>
<pdfrwt beam="1">  1        2 0.28648042E-02 0.78823886E+02</pdfrwt>
<pdfrwt beam="2">  1       -1 0.12833172E-01 0.78823886E+02</pdfrwt>
<totfact> 0.12769951E+05</totfact>
</mgrwt>
</event>
<event>
 8    1  0.2561077E-020  0.8056069E+02  0.7818608E-02  0.1327468E+00
         -1   -1    0    0    0  501 -0.00000000000E+00  0.00000000000E+00  0.29481443023E+01  0.29481486104E+01  0.50400000000E-02 0.  1.
          2   -1    0    0  501    0  0.00000000000E+00 -0.00000000000E+00 -0.55034795736E+03  0.55034795736E+03  0.25500000000E-02 0. -1.
         24    2    1    2    0    0  0.00000000000E+00  0.00000000000E+00 -0.54739981305E+03  0.55329610597E+03  0.80560694839E+02 0.  0.
         66    2    3    3    0    0 -0.12075711155E+02  0.29004130782E+02 -0.44672506461E+03  0.44783294396E+03  0.19999868657E+01 0.  0.
        -13    1    3    3    0    0  0.12075711155E+02 -0.29004130782E+02 -0.10067474845E+03  0.10546316201E+03  0.10566000000E+00 0.  1.
         13    1    4    4    0    0 -0.33661352964E+01  0.83414537795E+01 -0.13469218696E+03  0.13499224833E+03  0.10566000000E+00 0. -1.
        -13    1    4    4    0    0 -0.67744880730E+01  0.16893794387E+02 -0.24664551854E+03  0.24731622866E+03  0.10566000000E+00 0.  1.
        -14    1    4    4    0    0 -0.19350877856E+01  0.37688826152E+01 -0.65387359102E+02  0.65524466967E+02  0.00000000000E+00 0.  1.
<mgrwt>
<rscale>  0 0.80560695E+02</rscale>
<asrwt>0</asrwt>
<pdfrwt beam="1">  1        2 0.84668835E-01 0.80560695E+02</pdfrwt>
<pdfrwt beam="2">  1       -1 0.45356143E-03 0.80560695E+02</pdfrwt>
<totfact> 0.30803497E+05</totfact>
</mgrwt>
</event>
<event>
 8    1  0.2561077E-020  0.8010879E+02  0.7818608E-02  0.1328743E+00
          2   -1    0    0  501    0  0.00000000000E+00  0.00000000000E+00  0.43905738013E+03  0.43905738014E+03  0.25500000000E-02 0. -1.
         -1   -1    0    0    0  501 -0.00000000000E+00 -0.00000000000E+00 -0.36540872126E+01  0.36540906884E+01  0.50400000000E-02 0.  1.
         24    2    1    2    0    0 -0.35527136788E-14 -0.88817841970E-15  0.43540329292E+03  0.44271147083E+03  0.80108794258E+02 0.  0.
         66    2    3    3    0    0 -0.16478700343E+02  0.67669892886E+01  0.41594123502E+03  0.41632733600E+03  0.19999997879E+01 0.  0.
        -13    1    3    3    0    0  0.16478700343E+02 -0.67669892886E+01  0.19462057895E+02  0.26384134827E+02  0.10566000000E+00 0.  1.
         13    1    4    4    0    0 -0.52198965524E+01  0.17787786930E+01  0.13152524749E+03  0.13164084953E+03  0.10566000000E+00 0. -1.
        -13    1    4    4    0    0 -0.12683236192E+01  0.77950454903E-01  0.28667509282E+02  0.28695852898E+02  0.10566000000E+00 0.  1.
         14    1    4    4    0    0 -0.99904801709E+01  0.49102601407E+01  0.25574847825E+03  0.25599063357E+03  0.00000000000E+00 0. -1.
<mgrwt>
<rscale>  0 0.80108794E+02</rscale>
<asrwt>0</asrwt>
<pdfrwt beam="1">  1        2 0.67547327E-01 0.80108794E+02</pdfrwt>
<pdfrwt beam="2">  1       -1 0.56216722E-03 0.80108794E+02</pdfrwt>
<totfact> 0.29071930E+05</totfact>
</mgrwt>
</event>
<event>
 8    1  0.2561077E-020  0.7979003E+02  0.7818608E-02  0.1329648E+00
         -1   -1    0    0    0  501 -0.00000000000E+00  0.00000000000E+00  0.50391782425E+01  0.50391807629E+01  0.50400000000E-02 0.  1.
          2   -1    0    0  501    0  0.00000000000E+00 -0.00000000000E+00 -0.31584746933E+03  0.31584746934E+03  0.25500000000E-02 0. -1.
         24    2    1    2    0    0  0.27755575616E-16  0.00000000000E+00 -0.31080829108E+03  0.32088665010E+03  0.79790026981E+02 0.  0.
         66    2    3    3    0    0  0.10236421262E+00  0.24892960873E+02 -0.28075067702E+03  0.28185920710E+03  0.20000009387E+01 0.  0.
        -13    1    3    3    0    0 -0.10236421262E+00 -0.24892960873E+02 -0.30057614068E+02  0.39027442997E+02  0.10566000000E+00 0.  1.
         13    1    4    4    0    0 -0.61864532109E-01  0.18952801938E+02 -0.20639499316E+03  0.20726339979E+03  0.10566000000E+00 0.  1.
        -13    1    4    4    0    0 -0.12492108295E+00  0.29646310173E+01 -0.33866566406E+02  0.33996472265E+02  0.10566000000E+00 0. -1.
        -14    1    4    4    0    0  0.28914982768E+00  0.29755279176E+01 -0.40489117455E+02  0.40599335047E+02  0.00000000000E+00 0.  1.
<mgrwt>
<rscale>  0 0.79790027E+02</rscale>
<asrwt>0</asrwt>
<pdfrwt beam="1">  1        2 0.48591903E-01 0.79790027E+02</pdfrwt>
<pdfrwt beam="2">  1       -1 0.77525863E-03 0.79790027E+02</pdfrwt>
<totfact> 0.26152948E+05</totfact>
</mgrwt>
</event>
<event>
 8    1  0.2561077E-020  0.7975034E+02  0.7818608E-02  0.1329761E+00
         -1   -1    0    0    0  501 -0.00000000000E+00  0.00000000000E+00  0.34604554022E+01  0.34604590725E+01  0.50400000000E-02 0.  1.
          2   -1    0    0  501    0  0.00000000000E+00 -0.00000000000E+00 -0.45948525755E+03  0.45948525756E+03  0.25500000000E-02 0. -1.
         24    2    1    2    0    0  0.00000000000E+00 -0.71054273576E-14 -0.45602480215E+03  0.46294571663E+03  0.79750337753E+02 0.  0.
         66    2    3    3    0    0  0.17430628987E+02  0.33873959379E+02 -0.29603897313E+03  0.29848675944E+03  0.19999988378E+01 0.  0.
        -13    1    3    3    0    0 -0.17430628987E+02 -0.33873959379E+02 -0.15998582902E+03  0.16445895720E+03  0.10566000000E+00 0.  1.
         13    1    4    4    0    0  0.67803893534E+01  0.12962660670E+02 -0.11599220724E+03  0.11691110963E+03  0.10566000000E+00 0. -1.
        -13    1    4    4    0    0  0.48134264113E+01  0.11044034290E+02 -0.91354341966E+02  0.92145356515E+02  0.10566000000E+00 0.  1.
        -14    1    4    4    0    0  0.58368132225E+01  0.98672644196E+01 -0.88692423925E+02  0.89430293287E+02  0.00000000000E+00 0.  1.
<mgrwt>
<rscale>  0 0.79750338E+02</rscale>
<asrwt>0</asrwt>
<pdfrwt beam="1">  1        2 0.70689991E-01 0.79750338E+02</pdfrwt>
<pdfrwt beam="2">  1       -1 0.53237840E-03 0.79750338E+02</pdfrwt>
<totfact> 0.29866724E+05</totfact>
</mgrwt>
</event>
<event>
 8    1  0.2561077E-020  0.8067809E+02  0.7818608E-02  0.1327138E+00
          2   -1    0    0  501    0  0.00000000000E+00  0.00000000000E+00  0.61547633739E+01  0.61547639021E+01  0.25500000000E-02 0. -1.
         -1   -1    0    0    0  501 -0.00000000000E+00 -0.00000000000E+00 -0.26438684348E+03  0.26438684352E+03  0.50400000000E-02 0.  1.
         24    2    1    2    0    0 -0.22204460493E-15  0.00000000000E+00 -0.25823208010E+03  0.27054160743E+03  0.80678089683E+02 0.  0.
         66    2    3    3    0    0 -0.13463265228E+01  0.37769922686E+02 -0.82146155304E+02  0.90445400550E+02  0.19999986844E+01 0.  0.
        -13    1    3    3    0    0  0.13463265228E+01 -0.37769922686E+02 -0.17608592480E+03  0.18009620688E+03  0.10566000000E+00 0.  1.
         13    1    4    4    0    0 -0.76568590784E-01  0.24500573402E+01 -0.50152820214E+01  0.55832662044E+01  0.10566000000E+00 0. -1.
        -13    1    4    4    0    0  0.60210436407E-01  0.10197910617E+02 -0.20603739745E+02  0.22989699036E+02  0.10566000000E+00 0.  1.
        -14    1    4    4    0    0 -0.13299683684E+01  0.25121954729E+02 -0.56527133537E+02  0.61872435310E+02  0.00000000000E+00 0.  1.
<mgrwt>
<rscale>  0 0.80678090E+02</rscale>
<asrwt>0</asrwt>
<pdfrwt beam="1">  1        2 0.94688692E-03 0.80678090E+02</pdfrwt>
<pdfrwt beam="2">  1       -1 0.40674890E-01 0.80678090E+02</pdfrwt>
<totfact> 0.88819366E+04</totfact>
</mgrwt>
</event>
<event>
 8    1  0.3200304E-020  0.7700421E+02  0.7818608E-02  0.1337775E+00
          2   -1    0    0  501    0  0.00000000000E+00  0.00000000000E+00  0.17111853564E+04  0.17111853564E+04  0.25500000000E-02 0. -1.
         -1   -1    0    0    0  501 -0.00000000000E+00 -0.00000000000E+00 -0.86629983073E+00  0.86631449158E+00  0.50400000000E-02 0.  1.
         24    2    1    2    0    0  0.00000000000E+00  0.17763568394E-14  0.17103190565E+04  0.17120516708E+04  0.77004211216E+02 0.  0.
         66    2    3    3    0    0 -0.11527122692E+02  0.10530327213E+02  0.16375874026E+04  0.16376630494E+04  0.19999984988E+01 0.  0.
        -13    1    3    3    0    0  0.11527122692E+02 -0.10530327213E+02  0.72731653958E+02  0.74388621443E+02  0.10566000000E+00 0.  1.
         13    1    4    4    0    0 -0.34921752012E+01  0.26090058508E+01  0.42119929306E+03  0.42122186296E+03  0.10566000000E+00 0. -1.
        -13    1    4    4    0    0 -0.38443280140E-03  0.14119506093E+00  0.15754259424E+02  0.15755246435E+02  0.10566000000E+00 0.  1.
         14    1    4    4    0    0 -0.80345630580E+01  0.77801263008E+01  0.12006338501E+04  0.12006859400E+04  0.00000000000E+00 0. -1.
<mgrwt>
<rscale>  0 0.77004211E+02</rscale>
<asrwt>0</asrwt>
<pdfrwt beam="1">  1        2 0.26325790E+00 0.77004211E+02</pdfrwt>
<pdfrwt beam="2">  1       -1 0.13327873E-03 0.77004211E+02</pdfrwt>
<totfact> 0.34466857E+05</totfact>
</mgrwt>
</event>
<event>
 8    1  0.2561077E-020  0.8082840E+02  0.7818608E-02  0.1326717E+00
         -1   -1    0    0    0  501 -0.00000000000E+00  0.00000000000E+00  0.45892226213E+01  0.45892253888E+01  0.50400000000E-02 0.  1.
          2   -1    0    0  501    0  0.00000000000E+00 -0.00000000000E+00 -0.35590058126E+03  0.35590058127E+03  0.25500000000E-02 0. -1.
         24    2    1    2    0    0  0.00000000000E+00  0.00000000000E+00 -0.35131135864E+03  0.36048980666E+03  0.80828398448E+02 0.  0.
         66    2    3    3    0    0 -0.73780906435E+01  0.27036461599E+02 -0.30547712273E+03  0.30676648935E+03  0.19999997005E+01 0.  0.
        -13    1    3    3    0    0  0.73780906435E+01 -0.27036461599E+02 -0.45834235909E+02  0.53723317310E+02  0.10566000000E+00 0.  1.
         13    1    4    4    0    0 -0.51561420915E+01  0.18380255920E+02 -0.20888247335E+03  0.20975299389E+03  0.10566000000E+00 0. -1.
        -13    1    4    4    0    0 -0.10799171942E+01  0.33806892303E+01 -0.43778746192E+02  0.43922489262E+02  0.10566000000E+00 0.  1.
         14    1    4    4    0    0 -0.11420313578E+01  0.52755164483E+01 -0.52815903184E+02  0.53091006193E+02  0.00000000000E+00 0. -1.
<mgrwt>
<rscale>  0 0.80828398E+02</rscale>
<asrwt>0</asrwt>
<pdfrwt beam="1">  1        2 0.54753914E-01 0.80828398E+02</pdfrwt>
<pdfrwt beam="2">  1       -1 0.70603475E-03 0.80828398E+02</pdfrwt>
<totfact> 0.26389525E+05</totfact>
</mgrwt>
</event>
<event>
 8    1  0.2561077E-020  0.7922223E+02  0.7818608E-02  0.1331273E+00
          2   -1    0    0  501    0  0.00000000000E+00  0.00000000000E+00  0.64292327928E+03  0.64292327929E+03  0.25500000000E-02 0. -1.
         -1   -1    0    0    0  501 -0.00000000000E+00 -0.00000000000E+00 -0.24404756671E+01  0.24404808714E+01  0.50400000000E-02 0.  1.
         24    2    1    2    0    0  0.00000000000E+00  0.00000000000E+00  0.64048280362E+03  0.64536376016E+03  0.79222226676E+02 0.  0.
         66    2    3    3    0    0  0.10286735198E+02  0.27935586946E+02  0.53300130632E+03  0.53383574860E+03  0.19999993721E+01 0.  0.
        -13    1    3    3    0    0 -0.10286735198E+02 -0.27935586946E+02  0.10748149729E+03  0.11152801156E+03  0.10566000000E+00 0.  1.
         13    1    4    4    0    0  0.16035503735E+01  0.46279524523E+01  0.79674389737E+02  0.79824863681E+02  0.10566000000E+00 0. -1.
        -13    1    4    4    0    0  0.14812162052E+01  0.55780326835E+01  0.10795063465E+03  0.10810485251E+03  0.10566000000E+00 0.  1.
         14    1    4    4    0    0  0.72019686189E+01  0.17729601810E+02  0.34537628193E+03  0.34590603240E+03  0.00000000000E+00 0. -1.
<mgrwt>
<rscale>  0 0.79222227E+02</rscale>
<asrwt>0</asrwt>
<pdfrwt beam="1">  1        2 0.98911304E-01 0.79222227E+02</pdfrwt>
<pdfrwt beam="2">  1       -1 0.37545808E-03 0.79222227E+02</pdfrwt>
<totfact> 0.33608169E+05</totfact>
</mgrwt>
</event>
<event>
 8    1  0.2561077E-020  0.7687681E+02  0.7818608E-02  0.1338156E+00
         -1   -1    0    0    0  501 -0.00000000000E+00  0.00000000000E+00  0.37843443302E+02  0.37843443637E+02  0.50400000000E-02 0.  1.
          2   -1    0    0  501    0  0.00000000000E+00 -0.00000000000E+00 -0.39042722650E+02  0.39042722734E+02  0.25500000000E-02 0. -1.
         24    2    1    2    0    0  0.00000000000E+00  0.00000000000E+00 -0.11992793488E+01  0.76886166371E+02  0.76876812553E+02 0.  0.
         66    2    3    3    0    0  0.36716451280E+02 -0.56846599618E+01 -0.10352795550E+02  0.38621153939E+02  0.20000006037E+01 0.  0.
        -13    1    3    3    0    0 -0.36716451280E+02  0.56846599618E+01  0.91535162013E+01  0.38265012431E+02  0.10566000000E+00 0.  1.
         13    1    4    4    0    0  0.48973014291E+01 -0.11375920344E+01 -0.14906946842E+01  0.52450940508E+01  0.10566000000E+00 0. -1.
        -13    1    4    4    0    0  0.71219486350E+00 -0.16611477261E+00 -0.40961398900E+00  0.84484513188E+00  0.10566000000E+00 0.  1.
         14    1    4    4    0    0  0.31106954988E+02 -0.43809531548E+01 -0.84524868769E+01  0.32531214757E+02  0.00000000000E+00 0. -1.
<mgrwt>
<rscale>  0 0.76876813E+02</rscale>
<asrwt>0</asrwt>
<pdfrwt beam="1">  1        2 0.60065728E-02 0.76876813E+02</pdfrwt>
<pdfrwt beam="2">  1       -1 0.58220682E-02 0.76876813E+02</pdfrwt>
<totfact> 0.15831846E+05</totfact>
</mgrwt>
</event>
<event>
 8    1  0.2561077E-020  0.8119366E+02  0.7818608E-02  0.1325698E+00
         -1   -1    0    0    0  501 -0.00000000000E+00  0.00000000000E+00  0.23036059278E+02  0.23036059830E+02  0.50400000000E-02 0.  1.
          2   -1    0    0  501    0  0.00000000000E+00 -0.00000000000E+00 -0.71544470342E+02  0.71544470387E+02  0.25500000000E-02 0. -1.
         24    2    1    2    0    0  0.00000000000E+00  0.00000000000E+00 -0.48508411064E+02  0.94580530217E+02  0.81193662020E+02 0.  0.
         66    2    3    3    0    0  0.69972619420E+01 -0.35342866554E+02 -0.45999912972E+02  0.58464278783E+02  0.20000023249E+01 0.  0.
        -13    1    3    3    0    0 -0.69972619420E+01  0.35342866554E+02 -0.25084980921E+01  0.36116251434E+02  0.10566000000E+00 0.  1.
         13    1    4    4    0    0  0.28747361390E+01 -0.11561424248E+02 -0.15372923798E+02  0.19449128223E+02  0.10566000000E+00 0. -1.
        -13    1    4    4    0    0  0.35448456350E+00 -0.15383739605E+01 -0.24986801850E+01  0.29575024008E+01  0.10566000000E+00 0. -1.
        -14    1    4    4    0    0  0.37680412395E+01 -0.22243068346E+02 -0.28128308989E+02  0.36057648159E+02  0.00000000000E+00 0.  1.
<mgrwt>
<rscale>  0 0.81193662E+02</rscale>
<asrwt>0</asrwt>
<pdfrwt beam="1">  1        2 0.11006842E-01 0.81193662E+02</pdfrwt>
<pdfrwt beam="2">  1       -1 0.35440092E-02 0.81193662E+02</pdfrwt>
<totfact> 0.15595054E+05</totfact>
</mgrwt>
</event>
<event>
 8    1  0.2561077E-020  0.8066261E+02  0.7818608E-02  0.1327181E+00
         -1   -1    0    0    0  501 -0.00000000000E+00  0.00000000000E+00  0.32620966543E+01  0.32621005478E+01  0.50400000000E-02 0.  1.
          2   -1    0    0  501    0  0.00000000000E+00 -0.00000000000E+00 -0.49864041080E+03  0.49864041080E+03  0.25500000000E-02 0. -1.
         24    2    1    2    0    0  0.00000000000E+00  0.00000000000E+00 -0.49537831414E+03  0.50190251135E+03  0.80662610780E+02 0.  0.
         66    2    3    3    0    0 -0.50920441069E+01  0.20974250689E+02 -0.45964983012E+03  0.46016063981E+03  0.19999989384E+01 0.  0.
        -13    1    3    3    0    0  0.50920441069E+01 -0.20974250689E+02 -0.35728484020E+02  0.41741871538E+02  0.10566000000E+00 0.  1.
         13    1    4    4    0    0 -0.77090242896E+00  0.19892918886E+01 -0.37790872716E+02  0.37851192814E+02  0.10566000000E+00 0. -1.
        -13    1    4    4    0    0 -0.15872213141E+01  0.68328203571E+01 -0.14100944050E+03  0.14118385241E+03  0.10566000000E+00 0.  1.
         14    1    4    4    0    0 -0.27339203638E+01  0.12152138443E+02 -0.28084951690E+03  0.28112559459E+03  0.00000000000E+00 0. -1.
<mgrwt>
<rscale>  0 0.80662611E+02</rscale>
<asrwt>0</asrwt>
<pdfrwt beam="1">  1        2 0.76713849E-01 0.80662611E+02</pdfrwt>
<pdfrwt beam="2">  1       -1 0.50186172E-03 0.80662611E+02</pdfrwt>
<totfact> 0.29777548E+05</totfact>
</mgrwt>
</event>
<event>
 8    1  0.2561077E-020  0.7316832E+02  0.7818608E-02  0.1349639E+00
          2   -1    0    0  501    0  0.00000000000E+00  0.00000000000E+00  0.40843424608E+03  0.40843424609E+03  0.25500000000E-02 0. -1.
         -1   -1    0    0    0  501 -0.00000000000E+00 -0.00000000000E+00 -0.32769045111E+01  0.32769083869E+01  0.50400000000E-02 0.  1.
         24    2    1    2    0    0  0.00000000000E+00  0.00000000000E+00  0.40515734157E+03  0.41171115447E+03  0.73168321641E+02 0.  0.
         66    2    3    3    0    0 -0.22350057998E+02  0.30272932230E+01  0.36461501115E+03  0.36531739070E+03  0.20000000607E+01 0.  0.
        -13    1    3    3    0    0  0.22350057998E+02 -0.30272932230E+01  0.40542330423E+02  0.46393763772E+02  0.10566000000E+00 0.  1.
         13    1    4    4    0    0 -0.53908973246E+01  0.55229213505E+00  0.75079651380E+02  0.75275042451E+02  0.10566000000E+00 0. -1.
        -13    1    4    4    0    0 -0.10943795404E+02  0.14942504907E+01  0.18815538784E+03  0.18847933727E+03  0.10566000000E+00 0.  1.
         14    1    4    4    0    0 -0.60153652697E+01  0.98075059725E+00  0.10137997193E+03  0.10156301098E+03  0.00000000000E+00 0. -1.
<mgrwt>
<rscale>  0 0.73168322E+02</rscale>
<asrwt>0</asrwt>
<pdfrwt beam="1">  1        2 0.62836034E-01 0.73168322E+02</pdfrwt>
<pdfrwt beam="2">  1       -1 0.50413949E-03 0.73168322E+02</pdfrwt>
<totfact> 0.35891707E+05</totfact>
</mgrwt>
</event>
<event>
 8    1  0.2561077E-020  0.7945168E+02  0.7818608E-02  0.1330615E+00
         -1   -1    0    0    0  501 -0.00000000000E+00  0.00000000000E+00  0.29164802546E+01  0.29164846094E+01  0.50400000000E-02 0.  1.
          2   -1    0    0  501    0  0.00000000000E+00 -0.00000000000E+00 -0.54111154748E+03  0.54111154748E+03  0.25500000000E-02 0. -1.
         24    2    1    2    0    0  0.00000000000E+00  0.00000000000E+00 -0.53819506722E+03  0.54402803209E+03  0.79451679150E+02 0.  0.
         66    2    3    3    0    0  0.36711956254E+02  0.93450327276E+01 -0.35058607511E+03  0.35263251894E+03  0.19999964130E+01 0.  0.
        -13    1    3    3    0    0 -0.36711956254E+02 -0.93450327276E+01 -0.18760899212E+03  0.19139551316E+03  0.10566000000E+00 0.  1.
         13    1    4    4    0    0  0.50017382221E+01  0.16802546233E+01 -0.49149142555E+02  0.49431670200E+02  0.10566000000E+00 0. -1.
        -13    1    4    4    0    0  0.84347177556E+01  0.16137240956E+01 -0.84108333646E+02  0.84545677132E+02  0.10566000000E+00 0.  1.
         14    1    4    4    0    0  0.23275500276E+02  0.60510540087E+01 -0.21732859891E+03  0.21865517161E+03  0.00000000000E+00 0. -1.
<mgrwt>
<rscale>  0 0.79451679E+02</rscale>
<asrwt>0</asrwt>
<pdfrwt beam="1">  1        2 0.83247851E-01 0.79451679E+02</pdfrwt>
<pdfrwt beam="2">  1       -1 0.44869004E-03 0.79451679E+02</pdfrwt>
<totfact> 0.31772892E+05</totfact>
</mgrwt>
</event>
<event>
 8    1  0.2561077E-020  0.7981036E+02  0.7818608E-02  0.1329590E+00
          2   -1    0    0  501    0  0.00000000000E+00  0.00000000000E+00  0.30896338674E+03  0.30896338676E+03  0.25500000000E-02 0. -1.
         -1   -1    0    0    0  501 -0.00000000000E+00 -0.00000000000E+00 -0.51540837099E+01  0.51540861741E+01  0.50400000000E-02 0.  1.
         24    2    1    2    0    0  0.17763568394E-14 -0.35527136788E-14  0.30380930303E+03  0.31411747293E+03  0.79810363920E+02 0.  0.
         66    2    3    3    0    0  0.13831788864E+02 -0.21405333278E+02  0.27272757770E+03  0.27392305181E+03  0.19999985060E+01 0.  0.
        -13    1    3    3    0    0 -0.13831788864E+02  0.21405333278E+02  0.31081725330E+02  0.40194421124E+02  0.10566000000E+00 0.  1.
         13    1    4    4    0    0  0.29696492795E+01 -0.41810552781E+01  0.52892762228E+02  0.53140902328E+02  0.10566000000E+00 0. -1.
        -13    1    4    4    0    0  0.20153813121E+01 -0.37728014666E+01  0.40056915389E+02  0.40284779101E+02  0.10566000000E+00 0.  1.
         14    1    4    4    0    0  0.88467582724E+01 -0.13451476533E+02  0.17977790009E+03  0.18049737038E+03  0.00000000000E+00 0. -1.
<mgrwt>
<rscale>  0 0.79810364E+02</rscale>
<asrwt>0</asrwt>
<pdfrwt beam="1">  1        2 0.47532842E-01 0.79810364E+02</pdfrwt>
<pdfrwt beam="2">  1       -1 0.79293594E-03 0.79810364E+02</pdfrwt>
<totfact> 0.25928268E+05</totfact>
</mgrwt>
</event>
<event>
 8    1  0.2561077E-020  0.8035828E+02  0.7818608E-02  0.1328038E+00
         -1   -1    0    0    0  501 -0.00000000000E+00  0.00000000000E+00  0.91797727591E+01  0.91797741426E+01  0.50400000000E-02 0.  1.
          2   -1    0    0  501    0  0.00000000000E+00 -0.00000000000E+00 -0.17586089437E+03  0.17586089439E+03  0.25500000000E-02 0. -1.
         24    2    1    2    0    0  0.17763568394E-14  0.17763568394E-14 -0.16668112162E+03  0.18504066854E+03  0.80358277166E+02 0.  0.
         66    2    3    3    0    0 -0.15016026977E+02 -0.15387472470E+02 -0.16148374658E+03  0.16292101107E+03  0.20000153511E+01 0.  0.
        -13    1    3    3    0    0  0.15016026977E+02  0.15387472470E+02 -0.51973750301E+01  0.22119657466E+02  0.10566000000E+00 0.  1.
         13    1    4    4    0    0 -0.54080066743E+01 -0.58878490321E+01 -0.58846747696E+02  0.59387407594E+02  0.10566000000E+00 0. -1.
        -13    1    4    4    0    0 -0.79329935327E+01 -0.72641191271E+01 -0.77836003253E+02  0.78575787489E+02  0.10566000000E+00 0.  1.
        -14    1    4    4    0    0 -0.16750267705E+01 -0.22355043104E+01 -0.24800995636E+02  0.24957815985E+02  0.00000000000E+00 0.  1.
<mgrwt>
<rscale>  0 0.80358277E+02</rscale>
<asrwt>0</asrwt>
<pdfrwt beam="1">  1        2 0.27055520E-01 0.80358277E+02</pdfrwt>
<pdfrwt beam="2">  1       -1 0.14122730E-02 0.80358277E+02</pdfrwt>
<totfact> 0.20859551E+05</totfact>
</mgrwt>
</event>
<event>
 8    1  0.2561077E-020  0.7967055E+02  0.7818608E-02  0.1329989E+00
          2   -1    0    0  501    0  0.00000000000E+00  0.00000000000E+00  0.21992903081E+02  0.21992903229E+02  0.25500000000E-02 0. -1.
         -1   -1    0    0    0  501 -0.00000000000E+00 -0.00000000000E+00 -0.72152781266E+02  0.72152781442E+02  0.50400000000E-02 0.  1.
         24    2    1    2    0    0  0.17763568394E-14  0.00000000000E+00 -0.50159878185E+02  0.94145684671E+02  0.79670550159E+02 0.  0.
         66    2    3    3    0    0  0.96953326544E+01 -0.29274252705E+02  0.46552096753E+01  0.31251437177E+02  0.20000004466E+01 0.  0.
        -13    1    3    3    0    0 -0.96953326544E+01  0.29274252705E+02 -0.54815087861E+02  0.62894247494E+02  0.10566000000E+00 0.  1.
         13    1    4    4    0    0  0.83147922270E+01 -0.24838864376E+02  0.35939558253E+01  0.26439225325E+02  0.10566000000E+00 0. -1.
        -13    1    4    4    0    0  0.33749396398E+00 -0.45482128005E+00  0.18383752786E+00  0.60475188694E+00  0.10566000000E+00 0.  1.
        -14    1    4    4    0    0  0.10430464635E+01 -0.39805670486E+01  0.87741632209E+00  0.42074599648E+01  0.00000000000E+00 0.  1.
<mgrwt>
<rscale>  0 0.79670550E+02</rscale>
<asrwt>0</asrwt>
<pdfrwt beam="1">  1        2 0.33835236E-02 0.79670550E+02</pdfrwt>
<pdfrwt beam="2">  1       -1 0.11100428E-01 0.79670550E+02</pdfrwt>
<totfact> 0.12804653E+05</totfact>
</mgrwt>
</event>
<event>
 8    1  0.2561077E-020  0.7922980E+02  0.7818608E-02  0.1331251E+00
         -1   -1    0    0    0  501 -0.00000000000E+00  0.00000000000E+00  0.38125916739E+02  0.38125917072E+02  0.50400000000E-02 0.  1.
          2   -1    0    0  501    0  0.00000000000E+00 -0.00000000000E+00 -0.41162036871E+02  0.41162036950E+02  0.25500000000E-02 0. -1.
         24    2    1    2    0    0  0.71054273576E-14 -0.35527136788E-14 -0.30361201323E+01  0.79287954022E+02  0.79229802647E+02 0.  0.
         66    2    3    3    0    0 -0.24945031667E+02  0.16571158298E+02 -0.27431611006E+02  0.40661421286E+02  0.20000015941E+01 0.  0.
        -13    1    3    3    0    0  0.24945031667E+02 -0.16571158298E+02  0.24395490874E+02  0.38626532736E+02  0.10566000000E+00 0.  1.
         13    1    4    4    0    0 -0.15458015170E+02  0.10536056457E+02 -0.17375694526E+02  0.25532031704E+02  0.10566000000E+00 0. -1.
        -13    1    4    4    0    0 -0.83604690827E+01  0.48707876374E+01 -0.84181610518E+01  0.12825701346E+02  0.10566000000E+00 0.  1.
        -14    1    4    4    0    0 -0.11265474143E+01  0.11643142036E+01 -0.16377554287E+01  0.23036882353E+01  0.00000000000E+00 0.  1.
<mgrwt>
<rscale>  0 0.79229803E+02</rscale>
<asrwt>0</asrwt>
<pdfrwt beam="1">  1        2 0.63326211E-02 0.79229803E+02</pdfrwt>
<pdfrwt beam="2">  1       -1 0.58655257E-02 0.79229803E+02</pdfrwt>
<totfact> 0.14727504E+05</totfact>
</mgrwt>
</event>
<event>
 8    1  0.2561077E-020  0.7810004E+02  0.7818608E-02  0.1334531E+00
          2   -1    0    0  501    0  0.00000000000E+00  0.00000000000E+00  0.94276472824E+02  0.94276472858E+02  0.25500000000E-02 0. -1.
         -1   -1    0    0    0  501 -0.00000000000E+00 -0.00000000000E+00 -0.16174809173E+02  0.16174809958E+02  0.50400000000E-02 0.  1.
         24    2    1    2    0    0 -0.71054273576E-14 -0.35527136788E-14  0.78101663651E+02  0.11045128282E+03  0.78100038481E+02 0.  0.
         66    2    3    3    0    0 -0.33184500995E+02 -0.20449190873E+02  0.41729153169E+02  0.57137577295E+02  0.20000003023E+01 0.  0.
        -13    1    3    3    0    0  0.33184500995E+02  0.20449190873E+02  0.36372510482E+02  0.53313705522E+02  0.10566000000E+00 0.  1.
         13    1    4    4    0    0 -0.10917572816E+02 -0.69614608523E+01  0.15112866447E+02  0.19901387632E+02  0.10566000000E+00 0.  1.
        -13    1    4    4    0    0 -0.16743055270E+02 -0.10403225495E+02  0.20327685858E+02  0.28315772580E+02  0.10566000000E+00 0. -1.
        -14    1    4    4    0    0 -0.55238729090E+01 -0.30845045267E+01  0.62886008642E+01  0.89204170821E+01  0.00000000000E+00 0.  1.
<mgrwt>
<rscale>  0 0.78100038E+02</rscale>
<asrwt>0</asrwt>
<pdfrwt beam="1">  1        2 0.14504073E-01 0.78100038E+02</pdfrwt>
<pdfrwt beam="2">  1       -1 0.24884322E-02 0.78100038E+02</pdfrwt>
<totfact> 0.18598956E+05</totfact>
</mgrwt>
</event>
<event>
 8    1  0.2561077E-020  0.7818037E+02  0.7818608E-02  0.1334296E+00
          2   -1    0    0  501    0  0.00000000000E+00  0.00000000000E+00  0.13780136860E+02  0.13780137096E+02  0.25500000000E-02 0. -1.
         -1   -1    0    0    0  501 -0.00000000000E+00 -0.00000000000E+00 -0.11088733305E+03  0.11088733316E+03  0.50400000000E-02 0.  1.
         24    2    1    2    0    0  0.17763568394E-14  0.00000000000E+00 -0.97107196186E+02  0.12466747026E+03  0.78180372146E+02 0.  0.
         66    2    3    3    0    0  0.15225034479E+02  0.32339824273E+02 -0.23454470095E+02  0.42799276593E+02  0.20000001384E+01 0.  0.
        -13    1    3    3    0    0 -0.15225034479E+02 -0.32339824273E+02 -0.73652726091E+02  0.81868193663E+02  0.10566000000E+00 0.  1.
         13    1    4    4    0    0  0.70262184325E+01  0.14520048608E+02 -0.10934549178E+02  0.19487818934E+02  0.10566000000E+00 0. -1.
        -13    1    4    4    0    0  0.75551712434E+01  0.16338322484E+02 -0.11013898866E+02  0.21103045429E+02  0.10566000000E+00 0.  1.
        -14    1    4    4    0    0  0.64364480327E+00  0.14814531815E+01 -0.15060220519E+01  0.22084122311E+01  0.00000000000E+00 0.  1.
<mgrwt>
<rscale>  0 0.78180372E+02</rscale>
<asrwt>0</asrwt>
<pdfrwt beam="1">  1        2 0.21200211E-02 0.78180372E+02</pdfrwt>
<pdfrwt beam="2">  1       -1 0.17059589E-01 0.78180372E+02</pdfrwt>
<totfact> 0.12275846E+05</totfact>
</mgrwt>
</event>
<event>
 8    1  0.2561077E-020  0.7913764E+02  0.7818608E-02  0.1331517E+00
          2   -1    0    0  501    0  0.00000000000E+00  0.00000000000E+00  0.38138209360E+02  0.38138209445E+02  0.25500000000E-02 0. -1.
         -1   -1    0    0    0  501 -0.00000000000E+00 -0.00000000000E+00 -0.41053091716E+02  0.41053092026E+02  0.50400000000E-02 0.  1.
         24    2    1    2    0    0  0.00000000000E+00  0.11102230246E-15 -0.29148823565E+01  0.79191301471E+02  0.79137637629E+02 0.  0.
         66    2    3    3    0    0  0.39396601351E+02  0.98553372906E+00 -0.47198742770E+01  0.39740919538E+02  0.19999994478E+01 0.  0.
        -13    1    3    3    0    0 -0.39396601351E+02 -0.98553372906E+00  0.18049919205E+01  0.39450381933E+02  0.10566000000E+00 0.  1.
         13    1    4    4    0    0  0.20231757613E+02  0.68425742626E+00 -0.18927036247E+01  0.20331889125E+02  0.10566000000E+00 0. -1.
        -13    1    4    4    0    0  0.14942209726E+02  0.68140746541E+00 -0.23708317305E+01  0.15144832609E+02  0.10566000000E+00 0.  1.
         14    1    4    4    0    0  0.42226340126E+01 -0.38013116261E+00 -0.45633892187E+00  0.42641978046E+01  0.00000000000E+00 0. -1.
<mgrwt>
<rscale>  0 0.79137638E+02</rscale>
<asrwt>0</asrwt>
<pdfrwt beam="1">  1        2 0.58674169E-02 0.79137638E+02</pdfrwt>
<pdfrwt beam="2">  1       -1 0.63158603E-02 0.79137638E+02</pdfrwt>
<totfact> 0.14546847E+05</totfact>
</mgrwt>
</event>
<event>
 8    1  0.2561077E-020  0.8048957E+02  0.7818608E-02  0.1327668E+00
         -1   -1    0    0    0  501 -0.00000000000E+00  0.00000000000E+00  0.18493311510E+01  0.18493380188E+01  0.50400000000E-02 0.  1.
          2   -1    0    0  501    0  0.00000000000E+00 -0.00000000000E+00 -0.87579763209E+03  0.87579763209E+03  0.25500000000E-02 0. -1.
         24    2    1    2    0    0 -0.35527136788E-14  0.00000000000E+00 -0.87394830094E+03  0.87764697011E+03  0.80489573445E+02 0.  0.
         66    2    3    3    0    0  0.22895740169E+02  0.12345903538E+02 -0.77172725082E+03  0.77216810728E+03  0.19999992488E+01 0.  0.
        -13    1    3    3    0    0 -0.22895740169E+02 -0.12345903538E+02 -0.10222105012E+03  0.10547886283E+03  0.10566000000E+00 0.  1.
         13    1    4    4    0    0  0.89511714520E+01  0.43336325921E+01 -0.31531995275E+03  0.31547676239E+03  0.10566000000E+00 0. -1.
        -13    1    4    4    0    0  0.11608032956E+01  0.51890024636E+00 -0.31917698116E+02  0.31943189240E+02  0.10566000000E+00 0.  1.
         14    1    4    4    0    0  0.12783765421E+02  0.74933706996E+01 -0.42448959995E+03  0.42474815565E+03  0.00000000000E+00 0. -1.
<mgrwt>
<rscale>  0 0.80489573E+02</rscale>
<asrwt>0</asrwt>
<pdfrwt beam="1">  1        2 0.13473777E+00 0.80489573E+02</pdfrwt>
<pdfrwt beam="2">  1       -1 0.28451371E-03 0.80489573E+02</pdfrwt>
<totfact> 0.34286722E+05</totfact>
</mgrwt>
</event>
<event>
 8    1  0.2561077E-020  0.8108066E+02  0.7818608E-02  0.1326012E+00
         -1   -1    0    0    0  501 -0.00000000000E+00  0.00000000000E+00  0.39895465859E+02  0.39895466177E+02  0.50400000000E-02 0.  1.
          2   -1    0    0  501    0  0.00000000000E+00 -0.00000000000E+00 -0.41195615656E+02  0.41195615735E+02  0.25500000000E-02 0. -1.
         24    2    1    2    0    0  0.00000000000E+00 -0.88817841970E-15 -0.13001497968E+01  0.81091081912E+02  0.81080658459E+02 0.  0.
         66    2    3    3    0    0 -0.38720748822E+02  0.48067340494E+01  0.10264788944E+02  0.40395135508E+02  0.19999997786E+01 0.  0.
        -13    1    3    3    0    0  0.38720748822E+02 -0.48067340494E+01 -0.11564938740E+02  0.40695946404E+02  0.10566000000E+00 0.  1.
         13    1    4    4    0    0 -0.22417591916E+02  0.35610220349E+01  0.57803720933E+01  0.23423346704E+02  0.10566000000E+00 0. -1.
        -13    1    4    4    0    0 -0.60138728454E+01  0.30588731634E+00  0.13147580182E+01  0.61644128945E+01  0.10566000000E+00 0.  1.
         14    1    4    4    0    0 -0.10289284061E+02  0.93982469811E+00  0.31696588322E+01  0.10807375910E+02  0.00000000000E+00 0. -1.
<mgrwt>
<rscale>  0 0.81080658E+02</rscale>
<asrwt>0</asrwt>
<pdfrwt beam="1">  1        2 0.63377871E-02 0.81080658E+02</pdfrwt>
<pdfrwt beam="2">  1       -1 0.61377640E-02 0.81080658E+02</pdfrwt>
<totfact> 0.13819962E+05</totfact>
</mgrwt>
</event>
<event>
 8    1  0.2561077E-020  0.7951022E+02  0.7818608E-02  0.1330447E+00
          2   -1    0    0  501    0  0.00000000000E+00  0.00000000000E+00  0.11072850721E+03  0.11072850724E+03  0.25500000000E-02 0. -1.
         -1   -1    0    0    0  501 -0.00000000000E+00 -0.00000000000E+00 -0.14273368174E+02  0.14273369064E+02  0.50400000000E-02 0.  1.
         24    2    1    2    0    0  0.00000000000E+00  0.00000000000E+00  0.96455139038E+02  0.12500187630E+03  0.79510220933E+02 0.  0.
         66    2    3    3    0    0  0.19447640955E+02 -0.34473720053E+02  0.42853890314E+02  0.58370403697E+02  0.19999999189E+01 0.  0.
        -13    1    3    3    0    0 -0.19447640955E+02  0.34473720053E+02  0.53601248724E+02  0.66631472607E+02  0.10566000000E+00 0.  1.
         13    1    4    4    0    0  0.50113535052E+01 -0.85922307573E+01  0.11815030074E+02  0.15444940693E+02  0.10566000000E+00 0.  1.
        -13    1    4    4    0    0  0.13090180966E+02 -0.23245940127E+02  0.27543919060E+02  0.38345863027E+02  0.10566000000E+00 0. -1.
         14    1    4    4    0    0  0.13461064845E+01 -0.26355491696E+01  0.34949411801E+01  0.45795999766E+01  0.00000000000E+00 0. -1.
<mgrwt>
<rscale>  0 0.79510221E+02</rscale>
<asrwt>0</asrwt>
<pdfrwt beam="1">  1        2 0.17035156E-01 0.79510221E+02</pdfrwt>
<pdfrwt beam="2">  1       -1 0.21959028E-02 0.79510221E+02</pdfrwt>
<totfact> 0.18550516E+05</totfact>
</mgrwt>
</event>
<event>
 8    1  0.2561077E-020  0.8173847E+02  0.7818608E-02  0.1324189E+00
         -1   -1    0    0    0  501 -0.00000000000E+00  0.00000000000E+00  0.39193110746E+01  0.39193143152E+01  0.50400000000E-02 0.  1.
          2   -1    0    0  501    0  0.00000000000E+00 -0.00000000000E+00 -0.42617025105E+03  0.42617025105E+03  0.25500000000E-02 0. -1.
         24    2    1    2    0    0  0.00000000000E+00  0.00000000000E+00 -0.42225093997E+03  0.43008956537E+03  0.81738472780E+02 0.  0.
         66    2    3    3    0    0  0.10216604194E+02  0.30133194658E+02 -0.34600858699E+03  0.34747421586E+03  0.19999996077E+01 0.  0.
        -13    1    3    3    0    0 -0.10216604194E+02 -0.30133194658E+02 -0.76242352986E+02  0.82615349509E+02  0.10566000000E+00 0.  1.
         13    1    4    4    0    0  0.31860260874E+01  0.11390318420E+02 -0.12614410415E+03  0.12669742022E+03  0.10566000000E+00 0. -1.
        -13    1    4    4    0    0  0.48372063208E+01  0.14164243964E+02 -0.16194050743E+03  0.16263075811E+03  0.10566000000E+00 0.  1.
        -14    1    4    4    0    0  0.21933717853E+01  0.45786322738E+01 -0.57923975408E+02  0.58146037530E+02  0.00000000000E+00 0.  1.
<mgrwt>
<rscale>  0 0.81738473E+02</rscale>
<asrwt>0</asrwt>
<pdfrwt beam="1">  1        2 0.65564617E-01 0.81738473E+02</pdfrwt>
<pdfrwt beam="2">  1       -1 0.60297152E-03 0.81738473E+02</pdfrwt>
<totfact> 0.27302728E+05</totfact>
</mgrwt>
</event>
<event>
 8    1  0.2561077E-020  0.7513025E+02  0.7818608E-02  0.1343468E+00
         -1   -1    0    0    0  501 -0.00000000000E+00  0.00000000000E+00  0.16779506457E+02  0.16779507214E+02  0.50400000000E-02 0.  1.
          2   -1    0    0  501    0  0.00000000000E+00 -0.00000000000E+00 -0.84098939913E+02  0.84098939952E+02  0.25500000000E-02 0. -1.
         24    2    1    2    0    0  0.00000000000E+00  0.00000000000E+00 -0.67319433456E+02  0.10087844717E+03  0.75130253439E+02 0.  0.
         66    2    3    3    0    0 -0.20985942693E+02  0.16281835147E+02 -0.69300266472E+02  0.74243079515E+02  0.19999940553E+01 0.  0.
        -13    1    3    3    0    0  0.20985942693E+02 -0.16281835147E+02  0.19808330170E+01  0.26635367651E+02  0.10566000000E+00 0.  1.
         13    1    4    4    0    0 -0.51840911338E+01  0.44082759503E+01 -0.19907619967E+02  0.21038825882E+02  0.10566000000E+00 0. -1.
        -13    1    4    4    0    0 -0.62456406172E+01  0.48940938060E+01 -0.19178482682E+02  0.20755373833E+02  0.10566000000E+00 0.  1.
         14    1    4    4    0    0 -0.95562109417E+01  0.69794653904E+01 -0.30214163824E+02  0.32448879800E+02  0.00000000000E+00 0. -1.
<mgrwt>
<rscale>  0 0.75130253E+02</rscale>
<asrwt>0</asrwt>
<pdfrwt beam="1">  1        2 0.12938298E-01 0.75130253E+02</pdfrwt>
<pdfrwt beam="2">  1       -1 0.25814627E-02 0.75130253E+02</pdfrwt>
<totfact> 0.20014775E+05</totfact>
</mgrwt>
</event>
<event>
 8    1  0.2561077E-020  0.8056966E+02  0.7818608E-02  0.1327443E+00
         -1   -1    0    0    0  501 -0.00000000000E+00  0.00000000000E+00  0.27829716821E+02  0.27829717277E+02  0.50400000000E-02 0.  1.
          2   -1    0    0  501    0  0.00000000000E+00 -0.00000000000E+00 -0.58314192666E+02  0.58314192721E+02  0.25500000000E-02 0. -1.
         24    2    1    2    0    0  0.35527136788E-14  0.00000000000E+00 -0.30484475845E+02  0.86143909998E+02  0.80569659068E+02 0.  0.
         66    2    3    3    0    0  0.28565780178E+02  0.27556249411E+02 -0.22464592952E+02  0.45650943147E+02  0.19999987420E+01 0.  0.
        -13    1    3    3    0    0 -0.28565780178E+02 -0.27556249411E+02 -0.80198828930E+01  0.40492966851E+02  0.10566000000E+00 0.  1.
         13    1    4    4    0    0  0.21591504842E+02  0.20948553278E+02 -0.17570673933E+02  0.34839269687E+02  0.10566000000E+00 0. -1.
        -13    1    4    4    0    0  0.41944290151E+01  0.41092433916E+01 -0.25704858122E+01  0.64107470205E+01  0.10566000000E+00 0.  1.
         14    1    4    4    0    0  0.27798463201E+01  0.24984527410E+01 -0.23234332064E+01  0.44009264396E+01  0.00000000000E+00 0. -1.
<mgrwt>
<rscale>  0 0.80569659E+02</rscale>
<asrwt>0</asrwt>
<pdfrwt beam="1">  1        2 0.89714142E-02 0.80569659E+02</pdfrwt>
<pdfrwt beam="2">  1       -1 0.42814950E-02 0.80569659E+02</pdfrwt>
<totfact> 0.15168430E+05</totfact>
</mgrwt>
</event>
<event>
 8    1  0.2561077E-020  0.8062345E+02  0.7818608E-02  0.1327291E+00
          2   -1    0    0  501    0  0.00000000000E+00  0.00000000000E+00  0.14522733572E+04  0.14522733572E+04  0.25500000000E-02 0. -1.
         -1   -1    0    0    0  501 -0.00000000000E+00 -0.00000000000E+00 -0.11189539302E+01  0.11189652807E+01  0.50400000000E-02 0.  1.
         24    2    1    2    0    0 -0.17763568394E-14  0.00000000000E+00  0.14511544033E+04  0.14533923225E+04  0.80623451445E+02 0.  0.
         66    2    3    3    0    0 -0.99834196648E+01 -0.87570906070E+01  0.14116795229E+04  0.14117434012E+04  0.19999993449E+01 0.  0.
        -13    1    3    3    0    0  0.99834196648E+01  0.87570906070E+01  0.39474880310E+02  0.41648921278E+02  0.10566000000E+00 0.  1.
         13    1    4    4    0    0 -0.31025767944E+01 -0.30843579514E+01  0.47802885611E+03  0.47804888629E+03  0.10566000000E+00 0. -1.
        -13    1    4    4    0    0 -0.17502818609E+01 -0.23429587120E+01  0.31814096393E+03  0.31815442325E+03  0.10566000000E+00 0.  1.
        -14    1    4    4    0    0 -0.51305610095E+01 -0.33297739435E+01  0.61550970291E+03  0.61554009165E+03  0.00000000000E+00 0.  1.
<mgrwt>
<rscale>  0 0.80623451E+02</rscale>
<asrwt>0</asrwt>
<pdfrwt beam="1">  1        2 0.22342655E+00 0.80623451E+02</pdfrwt>
<pdfrwt beam="2">  1       -1 0.17214772E-03 0.80623451E+02</pdfrwt>
<totfact> 0.32961857E+05</totfact>
</mgrwt>
</event>
<event>
 8    1  0.2561077E-020  0.8030254E+02  0.7818608E-02  0.1328195E+00
          2   -1    0    0  501    0  0.00000000000E+00  0.00000000000E+00  0.25115072939E+03  0.25115072941E+03  0.25500000000E-02 0. -1.
         -1   -1    0    0    0  501 -0.00000000000E+00 -0.00000000000E+00 -0.64189505152E+01  0.64189524939E+01  0.50400000000E-02 0.  1.
         24    2    1    2    0    0 -0.35527136788E-14 -0.35527136788E-14  0.24473177888E+03  0.25756968190E+03  0.80302536955E+02 0.  0.
         66    2    3    3    0    0  0.29132143663E+02  0.19512713977E+02  0.18502396747E+03  0.18832763031E+03  0.19999997278E+01 0.  0.
        -13    1    3    3    0    0 -0.29132143663E+02 -0.19512713977E+02  0.59707811407E+02  0.69242051589E+02  0.10566000000E+00 0.  1.
         13    1    4    4    0    0  0.23485615377E+02  0.16048320715E+02  0.15046403503E+03  0.15312922559E+03  0.10566000000E+00 0. -1.
        -13    1    4    4    0    0  0.13157282237E+01  0.10331105279E+01  0.10272967018E+02  0.10408817105E+02  0.10566000000E+00 0.  1.
         14    1    4    4    0    0  0.43308000628E+01  0.24312827336E+01  0.24286965419E+02  0.24789587616E+02  0.00000000000E+00 0. -1.
<mgrwt>
<rscale>  0 0.80302537E+02</rscale>
<asrwt>0</asrwt>
<pdfrwt beam="1">  1        2 0.38638580E-01 0.80302537E+02</pdfrwt>
<pdfrwt beam="2">  1       -1 0.98753085E-03 0.80302537E+02</pdfrwt>
<totfact> 0.23671574E+05</totfact>
</mgrwt>
</event>
<event>
 8    1  0.2561077E-020  0.7909905E+02  0.7818608E-02  0.1331628E+00
         -1   -1    0    0    0  501 -0.00000000000E+00  0.00000000000E+00  0.34855751318E+01  0.34855787756E+01  0.50400000000E-02 0.  1.
          2   -1    0    0  501    0  0.00000000000E+00 -0.00000000000E+00 -0.44875349548E+03  0.44875349549E+03  0.25500000000E-02 0. -1.
         24    2    1    2    0    0 -0.71054273576E-14  0.35527136788E-14 -0.44526792035E+03  0.45223907426E+03  0.79099048028E+02 0.  0.
         66    2    3    3    0    0 -0.34808536370E+02  0.18700897518E+02 -0.22789648078E+03  0.23130534737E+03  0.20000001333E+01 0.  0.
        -13    1    3    3    0    0  0.34808536370E+02 -0.18700897518E+02 -0.21737143957E+03  0.22093372689E+03  0.10566000000E+00 0.  1.
         13    1    4    4    0    0 -0.26212671926E+01  0.17422830434E+01 -0.16622282743E+02  0.16917979771E+02  0.10566000000E+00 0. -1.
        -13    1    4    4    0    0 -0.23312619995E+02  0.11674171041E+02 -0.15215810783E+03  0.15437572822E+03  0.10566000000E+00 0.  1.
        -14    1    4    4    0    0 -0.88746491823E+01  0.52844434339E+01 -0.59116090199E+02  0.60011639379E+02  0.00000000000E+00 0.  1.
<mgrwt>
<rscale>  0 0.79099048E+02</rscale>
<asrwt>0</asrwt>
<pdfrwt beam="1">  1        2 0.69038954E-01 0.79099048E+02</pdfrwt>
<pdfrwt beam="2">  1       -1 0.53624297E-03 0.79099048E+02</pdfrwt>
<totfact> 0.30272031E+05</totfact>
</mgrwt>
</event>
<event>
 8    1  0.2561077E-020  0.7680398E+02  0.7818608E-02  0.1338374E+00
          2   -1    0    0  501    0  0.00000000000E+00  0.00000000000E+00  0.71901216216E+02  0.71901216261E+02  0.25500000000E-02 0. -1.
         -1   -1    0    0    0  501 -0.00000000000E+00 -0.00000000000E+00 -0.20510259788E+02  0.20510260408E+02  0.50400000000E-02 0.  1.
         24    2    1    2    0    0  0.00000000000E+00  0.00000000000E+00  0.51390956428E+02  0.92411476669E+02  0.76803975272E+02 0.  0.
         66    2    3    3    0    0 -0.13471488606E+02  0.24383817887E+02  0.57470729337E+02  0.63897859174E+02  0.20000241152E+01 0.  0.
        -13    1    3    3    0    0  0.13471488606E+02 -0.24383817887E+02 -0.60797729088E+01  0.28513617495E+02  0.10566000000E+00 0.  1.
         13    1    4    4    0    0 -0.75084478007E-01  0.13200735860E+00  0.21050687083E+00  0.28025131548E+00  0.10566000000E+00 0. -1.
        -13    1    4    4    0    0 -0.82058839301E+01  0.14340648497E+02  0.33282307005E+02  0.37157958152E+02  0.10566000000E+00 0. -1.
         14    1    4    4    0    0 -0.51905201979E+01  0.99111620312E+01  0.23977915461E+02  0.26459649706E+02  0.00000000000E+00 0. -1.
<mgrwt>
<rscale>  0 0.76803975E+02</rscale>
<asrwt>0</asrwt>
<pdfrwt beam="1">  1        2 0.11061726E-01 0.76803975E+02</pdfrwt>
<pdfrwt beam="2">  1       -1 0.31554246E-02 0.76803975E+02</pdfrwt>
<totfact> 0.18142560E+05</totfact>
</mgrwt>
</event>
<event>
 8    1  0.2561077E-020  0.8001132E+02  0.7818608E-02  0.1329019E+00
         -1   -1    0    0    0  501 -0.00000000000E+00  0.00000000000E+00  0.21805318012E+03  0.21805318017E+03  0.50400000000E-02 0.  1.
          2   -1    0    0  501    0  0.00000000000E+00 -0.00000000000E+00 -0.73397352404E+01  0.73397356834E+01  0.25500000000E-02 0. -1.
         24    2    1    2    0    0 -0.35527136788E-14 -0.71054273576E-14  0.21071344488E+03  0.22539291586E+03  0.80011315871E+02 0.  0.
         66    2    3    3    0    0 -0.22977252307E+02 -0.32601210006E+02  0.97628506764E+02  0.10548041689E+03  0.19999991122E+01 0.  0.
        -13    1    3    3    0    0  0.22977252307E+02  0.32601210006E+02  0.11308493811E+03  0.11991249897E+03  0.10566000000E+00 0.  1.
         13    1    4    4    0    0 -0.99266428308E+01 -0.13376449334E+02  0.39648350099E+02  0.43005470167E+02  0.10566000000E+00 0. -1.
        -13    1    4    4    0    0 -0.12118679058E+02 -0.17903202139E+02  0.54712705274E+02  0.58829230076E+02  0.10566000000E+00 0.  1.
        -14    1    4    4    0    0 -0.93193041767E+00 -0.13215585325E+01  0.32674513911E+01  0.36457166444E+01  0.00000000000E+00 0.  1.
<mgrwt>
<rscale>  0 0.80011316E+02</rscale>
<asrwt>0</asrwt>
<pdfrwt beam="1">  1        2 0.11291900E-02 0.80011316E+02</pdfrwt>
<pdfrwt beam="2">  1       -1 0.33546644E-01 0.80011316E+02</pdfrwt>
<totfact> 0.96925001E+04</totfact>
</mgrwt>
</event>
<event>
 8    1  0.2561077E-020  0.7786976E+02  0.7818608E-02  0.1335208E+00
         -1   -1    0    0    0  501 -0.00000000000E+00  0.00000000000E+00  0.16471905117E+03  0.16471905125E+03  0.50400000000E-02 0.  1.
          2   -1    0    0  501    0  0.00000000000E+00 -0.00000000000E+00 -0.92030936548E+01  0.92030940081E+01  0.25500000000E-02 0. -1.
         24    2    1    2    0    0 -0.71054273576E-14  0.44408920985E-15  0.15551595752E+03  0.17392214526E+03  0.77869760295E+02 0.  0.
         66    2    3    3    0    0 -0.38553851666E+02 -0.23990145930E+01  0.88229125368E+02  0.96335524671E+02  0.20000002728E+01 0.  0.
        -13    1    3    3    0    0  0.38553851666E+02  0.23990145930E+01  0.67286832149E+02  0.77586620586E+02  0.10566000000E+00 0.  1.
         13    1    4    4    0    0 -0.58602979201E+01 -0.19334482687E+00  0.13544639080E+02  0.14759704800E+02  0.10566000000E+00 0. -1.
        -13    1    4    4    0    0 -0.26853355460E+02 -0.20343581006E+01  0.59726927565E+02  0.65517618644E+02  0.10566000000E+00 0.  1.
         14    1    4    4    0    0 -0.58401982857E+01 -0.17131166551E+00  0.14957558723E+02  0.16058201227E+02  0.00000000000E+00 0. -1.
<mgrwt>
<rscale>  0 0.77869760E+02</rscale>
<asrwt>0</asrwt>
<pdfrwt beam="1">  1        2 0.14158606E-02 0.77869760E+02</pdfrwt>
<pdfrwt beam="2">  1       -1 0.25341392E-01 0.77869760E+02</pdfrwt>
<totfact> 0.11271251E+05</totfact>
</mgrwt>
</event>
<event>
 8    1  0.2561077E-020  0.8211492E+02  0.7818608E-02  0.1323155E+00
         -1   -1    0    0    0  501 -0.00000000000E+00  0.00000000000E+00  0.29685354200E+01  0.29685396985E+01  0.50400000000E-02 0.  1.
          2   -1    0    0  501    0  0.00000000000E+00 -0.00000000000E+00 -0.56786047622E+03  0.56786047623E+03  0.25500000000E-02 0. -1.
         24    2    1    2    0    0  0.00000000000E+00 -0.22204460493E-15 -0.56489194080E+03  0.57082901593E+03  0.82114923371E+02 0.  0.
         66    2    3    3    0    0  0.24464139576E+02 -0.19829435538E+01 -0.51120126840E+03  0.51179406308E+03  0.20000003561E+01 0.  0.
        -13    1    3    3    0    0 -0.24464139576E+02  0.19829435538E+01 -0.53690672402E+02  0.59034952844E+02  0.10566000000E+00 0.  1.
         13    1    4    4    0    0  0.31080156089E+01 -0.22021606539E+00 -0.66195653602E+02  0.66269027275E+02  0.10566000000E+00 0. -1.
        -13    1    4    4    0    0  0.10715363722E+02  0.22107050604E-01 -0.21878444515E+03  0.21904671673E+03  0.10566000000E+00 0.  1.
        -14    1    4    4    0    0  0.10640760246E+02 -0.17848345390E+01 -0.22622116965E+03  0.22647831908E+03  0.00000000000E+00 0.  1.
<mgrwt>
<rscale>  0 0.82114923E+02</rscale>
<asrwt>0</asrwt>
<pdfrwt beam="1">  1        2 0.87363064E-01 0.82114923E+02</pdfrwt>
<pdfrwt beam="2">  1       -1 0.45669854E-03 0.82114923E+02</pdfrwt>
<totfact> 0.29579832E+05</totfact>
</mgrwt>
</event>
<event>
 8    1  0.2561077E-020  0.8684756E+02  0.7818608E-02  0.1310670E+00
          2   -1    0    0  501    0  0.00000000000E+00  0.00000000000E+00  0.76546816198E+03  0.76546816199E+03  0.25500000000E-02 0. -1.
         -1   -1    0    0    0  501 -0.00000000000E+00 -0.00000000000E+00 -0.24633587213E+01  0.24633638772E+01  0.50400000000E-02 0.  1.
         24    2    1    2    0    0 -0.35527136788E-14  0.00000000000E+00  0.76300480326E+03  0.76793152586E+03  0.86847559643E+02 0.  0.
         66    2    3    3    0    0 -0.31740027685E+02  0.16059511476E+02  0.60157027015E+03  0.60262436658E+03  0.19999997136E+01 0.  0.
        -13    1    3    3    0    0  0.31740027685E+02 -0.16059511476E+02  0.16143453311E+03  0.16530715928E+03  0.10566000000E+00 0.  1.
         13    1    4    4    0    0 -0.22791147395E+02  0.11638730641E+02  0.42672254912E+03  0.42748922974E+03  0.10566000000E+00 0. -1.
        -13    1    4    4    0    0 -0.11417737294E+01  0.55223690333E+00  0.17372001629E+02  0.17418559570E+02  0.10566000000E+00 0.  1.
        -14    1    4    4    0    0 -0.78071065604E+01  0.38685439314E+01  0.15747571940E+03  0.15771657727E+03  0.00000000000E+00 0.  1.
<mgrwt>
<rscale>  0 0.86847560E+02</rscale>
<asrwt>0</asrwt>
<pdfrwt beam="1">  1        2 0.11776451E+00 0.86847560E+02</pdfrwt>
<pdfrwt beam="2">  1       -1 0.37897808E-03 0.86847560E+02</pdfrwt>
<totfact> 0.27515070E+05</totfact>
</mgrwt>
</event>
<event>
 8    1  0.2561077E-020  0.8008408E+02  0.7818608E-02  0.1328813E+00
         -1   -1    0    0    0  501 -0.00000000000E+00  0.00000000000E+00  0.34375123696E+02  0.34375124065E+02  0.50400000000E-02 0.  1.
          2   -1    0    0  501    0  0.00000000000E+00 -0.00000000000E+00 -0.46643174746E+02  0.46643174816E+02  0.25500000000E-02 0. -1.
         24    2    1    2    0    0  0.14210854715E-13  0.35527136788E-14 -0.12268051050E+02  0.81018298882E+02  0.80084078799E+02 0.  0.
         66    2    3    3    0    0  0.34308139878E+02  0.10343782663E+02  0.11883373476E+02  0.37805514056E+02  0.20000065540E+01 0.  0.
        -13    1    3    3    0    0 -0.34308139878E+02 -0.10343782663E+02 -0.24151424527E+02  0.43212784825E+02  0.10566000000E+00 0.  1.
         13    1    4    4    0    0  0.80516304828E+00  0.38085138968E+00  0.45882299176E+00  0.10074809620E+01  0.10566000000E+00 0. -1.
        -13    1    4    4    0    0  0.61933285780E+01  0.18751133815E+01  0.26688027182E+01  0.70005029143E+01  0.10566000000E+00 0.  1.
         14    1    4    4    0    0  0.27309648252E+02  0.80878178914E+01  0.87557477663E+01  0.29797530180E+02  0.00000000000E+00 0. -1.
<mgrwt>
<rscale>  0 0.80084079E+02</rscale>
<asrwt>0</asrwt>
<pdfrwt beam="1">  1        2 0.71758731E-02 0.80084079E+02</pdfrwt>
<pdfrwt beam="2">  1       -1 0.52884806E-02 0.80084079E+02</pdfrwt>
<totfact> 0.14678483E+05</totfact>
</mgrwt>
</event>
<event>
 8    1  0.2561077E-020  0.8044342E+02  0.7818608E-02  0.1327798E+00
          2   -1    0    0  501    0  0.00000000000E+00  0.00000000000E+00  0.10595491680E+04  0.10595491680E+04  0.25500000000E-02 0. -1.
         -1   -1    0    0    0  501 -0.00000000000E+00 -0.00000000000E+00 -0.15268584378E+01  0.15268667561E+01  0.50400000000E-02 0.  1.
         24    2    1    2    0    0  0.35527136788E-14  0.88817841970E-15  0.10580223096E+04  0.10610760348E+04  0.80443421168E+02 0.  0.
         66    2    3    3    0    0  0.17406185936E+02  0.72022488597E+01  0.99772122381E+03  0.99790104126E+03  0.20000000952E+01 0.  0.
        -13    1    3    3    0    0 -0.17406185936E+02 -0.72022488597E+01  0.60301085790E+02  0.63174993541E+02  0.10566000000E+00 0.  1.
         13    1    4    4    0    0  0.85509938525E+01  0.44744345420E+01  0.52766538158E+03  0.52775364152E+03  0.10566000000E+00 0. -1.
        -13    1    4    4    0    0  0.32536449079E+01  0.96025795045E+00  0.18291800168E+03  0.18294948703E+03  0.10566000000E+00 0. -1.
        -14    1    4    4    0    0  0.56015471757E+01  0.17675563673E+01  0.28713784055E+03  0.28719791271E+03  0.00000000000E+00 0.  1.
<mgrwt>
<rscale>  0 0.80443421E+02</rscale>
<asrwt>0</asrwt>
<pdfrwt beam="1">  1        2 0.16300836E+00 0.80443421E+02</pdfrwt>
<pdfrwt beam="2">  1       -1 0.23490079E-03 0.80443421E+02</pdfrwt>
<totfact> 0.34770681E+05</totfact>
</mgrwt>
</event>
<event>
 8    1  0.2561077E-020  0.7913380E+02  0.7818608E-02  0.1331528E+00
         -1   -1    0    0    0  501 -0.00000000000E+00  0.00000000000E+00  0.21435947036E+02  0.21435947628E+02  0.50400000000E-02 0.  1.
          2   -1    0    0  501    0  0.00000000000E+00 -0.00000000000E+00 -0.73033366594E+02  0.73033366638E+02  0.25500000000E-02 0. -1.
         24    2    1    2    0    0  0.00000000000E+00  0.00000000000E+00 -0.51597419558E+02  0.94469314267E+02  0.79133795770E+02 0.  0.
         66    2    3    3    0    0 -0.84831676265E+01  0.25899436910E+02 -0.60016604061E+02  0.65944959814E+02  0.19999991686E+01 0.  0.
        -13    1    3    3    0    0  0.84831676265E+01 -0.25899436910E+02  0.84191845028E+01  0.28524354453E+02  0.10566000000E+00 0.  1.
         13    1    4    4    0    0 -0.47848411696E+01  0.14778824384E+02 -0.36351449508E+02  0.39531600025E+02  0.10566000000E+00 0. -1.
        -13    1    4    4    0    0 -0.24037596360E+01  0.79679147064E+01 -0.16791393321E+02  0.18741071977E+02  0.10566000000E+00 0. -1.
         14    1    4    4    0    0 -0.12945668209E+01  0.31526978190E+01 -0.68737612317E+01  0.76722878115E+01  0.00000000000E+00 0. -1.
<mgrwt>
<rscale>  0 0.79133796E+02</rscale>
<asrwt>0</asrwt>
<pdfrwt beam="1">  1        2 0.11235902E-01 0.79133796E+02</pdfrwt>
<pdfrwt beam="2">  1       -1 0.32978381E-02 0.79133796E+02</pdfrwt>
<totfact> 0.16802963E+05</totfact>
</mgrwt>
</event>
<event>
 8    1  0.2561077E-020  0.7799260E+02  0.7818608E-02  0.1334847E+00
          2   -1    0    0  501    0  0.00000000000E+00  0.00000000000E+00  0.17452354617E+02  0.17452354804E+02  0.25500000000E-02 0. -1.
         -1   -1    0    0    0  501 -0.00000000000E+00 -0.00000000000E+00 -0.87135034336E+02  0.87135034482E+02  0.50400000000E-02 0.  1.
         24    2    1    2    0    0  0.88817841970E-15 -0.35527136788E-14 -0.69682679719E+02  0.10458738929E+03  0.77992603141E+02 0.  0.
         66    2    3    3    0    0 -0.52768438067E+01 -0.28484349996E+02  0.91810632767E-01  0.29038107733E+02  0.19999990648E+01 0.  0.
        -13    1    3    3    0    0  0.52768438067E+01  0.28484349996E+02 -0.69774490352E+02  0.75549281553E+02  0.10566000000E+00 0.  1.
         13    1    4    4    0    0 -0.90774138954E+00 -0.27540996532E+01  0.21503085167E+00  0.29097184800E+01  0.10566000000E+00 0. -1.
        -13    1    4    4    0    0 -0.22041415816E+01 -0.16411010886E+02  0.77161912092E-01  0.16558883912E+02  0.10566000000E+00 0.  1.
        -14    1    4    4    0    0 -0.21649608355E+01 -0.93192394572E+01 -0.20038213099E+00  0.95695053413E+01  0.00000000000E+00 0.  1.
<mgrwt>
<rscale>  0 0.77992603E+02</rscale>
<asrwt>0</asrwt>
<pdfrwt beam="1">  1        2 0.26849777E-02 0.77992603E+02</pdfrwt>
<pdfrwt beam="2">  1       -1 0.13405390E-01 0.77992603E+02</pdfrwt>
<totfact> 0.12993987E+05</totfact>
</mgrwt>
</event>
<event>
 8    1  0.2561077E-020  0.8001834E+02  0.7818608E-02  0.1328999E+00
          2   -1    0    0  501    0  0.00000000000E+00  0.00000000000E+00  0.26459851651E+03  0.26459851652E+03  0.25500000000E-02 0. -1.
         -1   -1    0    0    0  501 -0.00000000000E+00 -0.00000000000E+00 -0.60496682156E+01  0.60496703150E+01  0.50400000000E-02 0.  1.
         24    2    1    2    0    0  0.00000000000E+00 -0.22204460493E-15  0.25854884830E+03  0.27064818684E+03  0.80018335923E+02 0.  0.
         66    2    3    3    0    0 -0.38710896814E+02 -0.19179866995E+01  0.16258386609E+03  0.16715180439E+03  0.19999986720E+01 0.  0.
        -13    1    3    3    0    0  0.38710896814E+02  0.19179866995E+01  0.95964982207E+02  0.10349638244E+03  0.10566000000E+00 0.  1.
         13    1    4    4    0    0 -0.70842305861E+01 -0.89021758051E+00  0.31957364819E+02  0.32745429308E+02  0.10566000000E+00 0. -1.
        -13    1    4    4    0    0 -0.13138113328E+02 -0.35799879836E+00  0.55652103502E+02  0.57183091672E+02  0.10566000000E+00 0.  1.
         14    1    4    4    0    0 -0.18488552899E+02 -0.66977032068E+00  0.74974397768E+02  0.77223283414E+02  0.00000000000E+00 0. -1.
<mgrwt>
<rscale>  0 0.80018336E+02</rscale>
<asrwt>0</asrwt>
<pdfrwt beam="1">  1        2 0.40707464E-01 0.80018336E+02</pdfrwt>
<pdfrwt beam="2">  1       -1 0.93071836E-03 0.80018336E+02</pdfrwt>
<totfact> 0.24346457E+05</totfact>
</mgrwt>
</event>
<event>
 8    1  0.2561077E-020  0.7482616E+02  0.7818608E-02  0.1344410E+00
          2   -1    0    0  501    0  0.00000000000E+00  0.00000000000E+00  0.98291326750E+03  0.98291326750E+03  0.25500000000E-02 0. -1.
         -1   -1    0    0    0  501 -0.00000000000E+00 -0.00000000000E+00 -0.14240668718E+01  0.14240757904E+01  0.50400000000E-02 0.  1.
         24    2    1    2    0    0  0.00000000000E+00  0.00000000000E+00  0.98148920063E+03  0.98433734329E+03  0.74826161553E+02 0.  0.
         66    2    3    3    0    0  0.95387639706E+01 -0.12194133723E+02  0.93876003171E+03  0.93888981360E+03  0.20000046832E+01 0.  0.
        -13    1    3    3    0    0 -0.95387639706E+01  0.12194133723E+02  0.42729168917E+02  0.45447529699E+02  0.10566000000E+00 0.  1.
         13    1    4    4    0    0  0.13605568165E+01 -0.10648427965E+01  0.10648082109E+03  0.10649488921E+03  0.10566000000E+00 0. -1.
        -13    1    4    4    0    0  0.70227370027E+00 -0.71380060300E+00  0.44466059410E+02  0.44477458371E+02  0.10566000000E+00 0.  1.
         14    1    4    4    0    0  0.74759334538E+01 -0.10415490323E+02  0.78781315122E+03  0.78791746601E+03  0.00000000000E+00 0. -1.
<mgrwt>
<rscale>  0 0.74826162E+02</rscale>
<asrwt>0</asrwt>
<pdfrwt beam="1">  1        2 0.15121758E+00 0.74826162E+02</pdfrwt>
<pdfrwt beam="2">  1       -1 0.21908767E-03 0.74826162E+02</pdfrwt>
<totfact> 0.41849995E+05</totfact>
</mgrwt>
</event>
<event>
 8    1  0.2561077E-020  0.8028418E+02  0.7818608E-02  0.1328247E+00
         -1   -1    0    0    0  501 -0.00000000000E+00  0.00000000000E+00  0.30947678236E+02  0.30947678646E+02  0.50400000000E-02 0.  1.
          2   -1    0    0  501    0  0.00000000000E+00 -0.00000000000E+00 -0.52068115240E+02  0.52068115303E+02  0.25500000000E-02 0. -1.
         24    2    1    2    0    0  0.00000000000E+00  0.00000000000E+00 -0.21120437004E+02  0.83015793949E+02  0.80284177680E+02 0.  0.
         66    2    3    3    0    0  0.15441457329E+02 -0.29013375067E+02 -0.34353084923E+02  0.47585176226E+02  0.20000038737E+01 0.  0.
        -13    1    3    3    0    0 -0.15441457329E+02  0.29013375067E+02  0.13232647919E+02  0.35430617723E+02  0.10566000000E+00 0.  1.
         13    1    4    4    0    0  0.52795507253E+01 -0.10864704268E+02 -0.12859929839E+02  0.17643820850E+02  0.10566000000E+00 0. -1.
        -13    1    4    4    0    0  0.31655350318E+01 -0.44895765387E+01 -0.53995181709E+01  0.77034323550E+01  0.10566000000E+00 0.  1.
        -14    1    4    4    0    0  0.69963715716E+01 -0.13659094260E+02 -0.16093636913E+02  0.22237923021E+02  0.00000000000E+00 0.  1.
<mgrwt>
<rscale>  0 0.80284178E+02</rscale>
<asrwt>0</asrwt>
<pdfrwt beam="1">  1        2 0.80104793E-02 0.80284178E+02</pdfrwt>
<pdfrwt beam="2">  1       -1 0.47611813E-02 0.80284178E+02</pdfrwt>
<totfact> 0.14930691E+05</totfact>
</mgrwt>
</event>
<event>
 8    1  0.2561077E-020  0.8083775E+02  0.7818608E-02  0.1326691E+00
         -1   -1    0    0    0  501 -0.00000000000E+00  0.00000000000E+00  0.10918144538E+01  0.10918260865E+01  0.50400000000E-02 0.  1.
          2   -1    0    0  501    0  0.00000000000E+00 -0.00000000000E+00 -0.14962950436E+04  0.14962950436E+04  0.25500000000E-02 0. -1.
         24    2    1    2    0    0  0.00000000000E+00  0.00000000000E+00 -0.14952032291E+04  0.14973868697E+04  0.80837745309E+02 0.  0.
         66    2    3    3    0    0 -0.51490660017E+01  0.95209640713E+01 -0.14689282697E+04  0.14689695106E+04  0.20000051733E+01 0.  0.
        -13    1    3    3    0    0  0.51490660017E+01 -0.95209640713E+01 -0.26274959451E+02  0.28417359056E+02  0.10566000000E+00 0.  1.
         13    1    4    4    0    0 -0.13481743610E+01  0.22456054483E+01 -0.33727149011E+03  0.33728167683E+03  0.10566000000E+00 0. -1.
        -13    1    4    4    0    0 -0.38423745929E+01  0.64394957513E+01 -0.97651168122E+03  0.97654047826E+03  0.10566000000E+00 0.  1.
        -14    1    4    4    0    0  0.41482952212E-01  0.83586287167E+00 -0.15514509833E+03  0.15514735552E+03  0.00000000000E+00 0.  1.
<mgrwt>
<rscale>  0 0.80837745E+02</rscale>
<asrwt>0</asrwt>
<pdfrwt beam="1">  1        2 0.23019760E+00 0.80837745E+02</pdfrwt>
<pdfrwt beam="2">  1       -1 0.16797355E-03 0.80837745E+02</pdfrwt>
<totfact> 0.32392917E+05</totfact>
</mgrwt>
</event>
<event>
 8    1  0.2561077E-020  0.8099745E+02  0.7818608E-02  0.1326244E+00
         -1   -1    0    0    0  501 -0.00000000000E+00  0.00000000000E+00  0.49377339141E+01  0.49377364863E+01  0.50400000000E-02 0.  1.
          2   -1    0    0  501    0  0.00000000000E+00 -0.00000000000E+00 -0.33216581916E+03  0.33216581917E+03  0.25500000000E-02 0. -1.
         24    2    1    2    0    0  0.00000000000E+00  0.71054273576E-14 -0.32722808525E+03  0.33710355566E+03  0.80997453431E+02 0.  0.
         66    2    3    3    0    0 -0.13770472041E+01 -0.40445277050E+02 -0.16642736774E+03  0.17128860274E+03  0.20000006410E+01 0.  0.
        -13    1    3    3    0    0  0.13770472041E+01  0.40445277050E+02 -0.16080071751E+03  0.16581495292E+03  0.10566000000E+00 0.  1.
         13    1    4    4    0    0 -0.27037461115E+00 -0.15090042909E+02 -0.65660257935E+02  0.67372569593E+02  0.10566000000E+00 0. -1.
        -13    1    4    4    0    0 -0.39451627221E+00 -0.83866446314E+01 -0.32157601712E+02  0.33235733228E+02  0.10566000000E+00 0.  1.
         14    1    4    4    0    0 -0.71215632072E+00 -0.16968589510E+02 -0.68609508088E+02  0.70680299919E+02  0.00000000000E+00 0. -1.
<mgrwt>
<rscale>  0 0.80997453E+02</rscale>
<asrwt>0</asrwt>
<pdfrwt beam="1">  1        2 0.51102416E-01 0.80997453E+02</pdfrwt>
<pdfrwt beam="2">  1       -1 0.75965183E-03 0.80997453E+02</pdfrwt>
<totfact> 0.25604437E+05</totfact>
</mgrwt>
</event>
<event>
 8    1  0.2561077E-020  0.8279818E+02  0.7818608E-02  0.1321293E+00
          2   -1    0    0  501    0  0.00000000000E+00  0.00000000000E+00  0.14416340638E+04  0.14416340638E+04  0.25500000000E-02 0. -1.
         -1   -1    0    0    0  501 -0.00000000000E+00 -0.00000000000E+00 -0.11888432048E+01  0.11888538881E+01  0.50400000000E-02 0.  1.
         24    2    1    2    0    0 -0.44408920985E-15  0.17763568394E-14  0.14404452206E+04  0.14428229177E+04  0.82798177982E+02 0.  0.
         66    2    3    3    0    0 -0.34095319212E+01  0.13629013755E+02  0.13987944615E+04  0.13988664412E+04  0.20000041207E+01 0.  0.
        -13    1    3    3    0    0  0.34095319212E+01 -0.13629013755E+02  0.41650759162E+02  0.43956476504E+02  0.10566000000E+00 0.  1.
         13    1    4    4    0    0 -0.16664604028E+01  0.77829671954E+01  0.73160467854E+03  0.73164798127E+03  0.10566000000E+00 0. -1.
        -13    1    4    4    0    0 -0.23126156389E+00  0.16784028576E+01  0.14752924115E+03  0.14753900730E+03  0.10566000000E+00 0.  1.
         14    1    4    4    0    0 -0.15118099545E+01  0.41676437024E+01  0.51966054177E+03  0.51967945264E+03  0.00000000000E+00 0. -1.
<mgrwt>
<rscale>  0 0.82798178E+02</rscale>
<asrwt>0</asrwt>
<pdfrwt beam="1">  1        2 0.22178883E+00 0.82798178E+02</pdfrwt>
<pdfrwt beam="2">  1       -1 0.18290062E-03 0.82798178E+02</pdfrwt>
<totfact> 0.30828315E+05</totfact>
</mgrwt>
</event>
<event>
 8    1  0.2561077E-020  0.8035841E+02  0.7818608E-02  0.1328037E+00
         -1   -1    0    0    0  501 -0.00000000000E+00  0.00000000000E+00  0.19174009978E+01  0.19174076218E+01  0.50400000000E-02 0.  1.
          2   -1    0    0  501    0  0.00000000000E+00 -0.00000000000E+00 -0.84195514073E+03  0.84195514074E+03  0.25500000000E-02 0. -1.
         24    2    1    2    0    0  0.35527136788E-14  0.00000000000E+00 -0.84003773973E+03  0.84387254836E+03  0.80358407737E+02 0.  0.
         66    2    3    3    0    0 -0.17002351552E+02 -0.24654669040E+02 -0.70116383891E+03  0.70180600002E+03  0.19999996388E+01 0.  0.
        -13    1    3    3    0    0  0.17002351552E+02  0.24654669040E+02 -0.13887390082E+03  0.14206654834E+03  0.10566000000E+00 0.  1.
         13    1    4    4    0    0 -0.18912137916E+01 -0.34613061000E+01 -0.84306771721E+02  0.84399053618E+02  0.10566000000E+00 0. -1.
        -13    1    4    4    0    0 -0.30196400641E+01 -0.48305380174E+01 -0.14156840811E+03  0.14168301826E+03  0.10566000000E+00 0.  1.
         14    1    4    4    0    0 -0.12091497697E+02 -0.16362824922E+02 -0.47528865908E+03  0.47572392815E+03  0.00000000000E+00 0. -1.
<mgrwt>
<rscale>  0 0.80358408E+02</rscale>
<asrwt>0</asrwt>
<pdfrwt beam="1">  1        2 0.12953126E+00 0.80358408E+02</pdfrwt>
<pdfrwt beam="2">  1       -1 0.29498595E-03 0.80358408E+02</pdfrwt>
<totfact> 0.34247649E+05</totfact>
</mgrwt>
</event>
<event>
 8    1  0.2561077E-020  0.7720065E+02  0.7818608E-02  0.1337189E+00
          2   -1    0    0  501    0  0.00000000000E+00  0.00000000000E+00  0.32716511079E+02  0.32716511178E+02  0.25500000000E-02 0. -1.
         -1   -1    0    0    0  501 -0.00000000000E+00 -0.00000000000E+00 -0.45542292488E+02  0.45542292767E+02  0.50400000000E-02 0.  1.
         24    2    1    2    0    0  0.00000000000E+00  0.00000000000E+00 -0.12825781409E+02  0.78258803945E+02  0.77200645892E+02 0.  0.
         66    2    3    3    0    0 -0.51656754386E+00  0.17242823442E+02  0.28557872280E+02  0.33423552647E+02  0.20000000220E+01 0.  0.
        -13    1    3    3    0    0  0.51656754386E+00 -0.17242823442E+02 -0.41383653689E+02  0.44835251298E+02  0.10566000000E+00 0.  1.
         13    1    4    4    0    0 -0.24797023145E+00  0.66734570983E+01  0.10764014788E+02  0.12667742390E+02  0.10566000000E+00 0. -1.
        -13    1    4    4    0    0  0.60956569581E+00  0.29057955351E+01  0.50735710937E+01  0.58794137214E+01  0.10566000000E+00 0.  1.
        -14    1    4    4    0    0 -0.87816300822E+00  0.76635708085E+01  0.12720286399E+02  0.14876396535E+02  0.00000000000E+00 0.  1.
<mgrwt>
<rscale>  0 0.77200646E+02</rscale>
<asrwt>0</asrwt>
<pdfrwt beam="1">  1        2 0.50333094E-02 0.77200646E+02</pdfrwt>
<pdfrwt beam="2">  1       -1 0.70065066E-02 0.77200646E+02</pdfrwt>
<totfact> 0.15114368E+05</totfact>
</mgrwt>
</event>
<event>
 8    1  0.2561077E-020  0.7672257E+02  0.7818608E-02  0.1338618E+00
         -1   -1    0    0    0  501 -0.00000000000E+00  0.00000000000E+00  0.91707397188E+01  0.91707411037E+01  0.50400000000E-02 0.  1.
          2   -1    0    0  501    0  0.00000000000E+00 -0.00000000000E+00 -0.16046559845E+03  0.16046559847E+03  0.25500000000E-02 0. -1.
         24    2    1    2    0    0 -0.35527136788E-14 -0.88817841970E-15 -0.15129485873E+03  0.16963633958E+03  0.76722574420E+02 0.  0.
         66    2    3    3    0    0 -0.29496146706E+02 -0.43431336527E+01 -0.12897950864E+03  0.13239561598E+03  0.20000000355E+01 0.  0.
        -13    1    3    3    0    0  0.29496146706E+02  0.43431336527E+01 -0.22315350091E+02  0.37240723598E+02  0.10566000000E+00 0.  1.
         13    1    4    4    0    0 -0.12810688360E+02 -0.10773790243E+01 -0.55920896211E+02  0.57379720101E+02  0.10566000000E+00 0. -1.
        -13    1    4    4    0    0 -0.93437169054E+01 -0.19982664171E+01 -0.42765825841E+02  0.43820373552E+02  0.10566000000E+00 0.  1.
        -14    1    4    4    0    0 -0.73417414397E+01 -0.12674882114E+01 -0.30292786589E+02  0.31195522324E+02  0.00000000000E+00 0.  1.
<mgrwt>
<rscale>  0 0.76722574E+02</rscale>
<asrwt>0</asrwt>
<pdfrwt beam="1">  1        2 0.24687013E-01 0.76722574E+02</pdfrwt>
<pdfrwt beam="2">  1       -1 0.14108833E-02 0.76722574E+02</pdfrwt>
<totfact> 0.22868761E+05</totfact>
</mgrwt>
</event>
